<LesHouchesEvents version="3.0">
<header>
<!--
#*********************************************************************
#                                                                    *
#                        MadGraph5_aMC@NLO                           *
#                                                                    *
#                           Going Beyond                             *
#                                                                    *
#                   http://madgraph.hep.uiuc.edu                     *
#                   http://madgraph.phys.ucl.ac.be                   *
#                   http://amcatnlo.cern.ch                          *
#                                                                    *
#                     The MadGraph5_aMC@NLO team                     *
#                                                                    *
#....................................................................*
#                                                                    *
# This file contains all the information necessary to reproduce      *
# the events generated:                                              *
#                                                                    *
# 1. software version                                                *
# 2. proc_card          : code generation info including model       *
# 3. param_card         : model primary parameters in the LH format  *
# 4. run_card           : running parameters (collider and cuts)     *
# 5. pythia_card        : present only if pythia has been run        *
# 6. pgs_card           : present only if pgs has been run           *
# 7. delphes_cards      : present only if delphes has been run       *
#                                                                    *
#                                                                    *
#*********************************************************************
-->
<MGVersion>
#5.2.2.3
</MGVersion>
<MG5ProcCard>
#************************************************************
#*                     MadGraph5_aMC@NLO                    *
#*                                                          *
#*                *                       *                 *
#*                  *        * *        *                   *
#*                    * * * * 5 * * * *                     *
#*                  *        * *        *                   *
#*                *                       *                 *
#*                                                          *
#*                                                          *
#*         VERSION 2.2.3                 2015-02-10         *
#*                                                          *
#*    The MadGraph5_aMC@NLO Development Team - Find us at   *
#*    https://server06.fynu.ucl.ac.be/projects/madgraph     *
#*                                                          *
#************************************************************
#*                                                          *
#*               Command File for MadGraph5_aMC@NLO         *
#*                                                          *
#*     run as ./bin/mg5_aMC  filename                       *
#*                                                          *
#************************************************************
set group_subprocesses Auto
set ignore_six_quark_processes False
set loop_optimized_output True
set gauge unitary
set complex_mass_scheme False
import model sm
define p = g u c d s u~ c~ d~ s~
define j = g u c d s u~ c~ d~ s~
define l+ = e+ mu+
define l- = e- mu-
define vl = ve vm vt
define vl~ = ve~ vm~ vt~
import model Zprime_UFO
generate p p > zph, zph > j j
add process p p > zph, zph > b b~
output Dijet_signal
</MG5ProcCard>
<MGProcCard>
#*********************************************************************
#                        MadGraph/MadEvent                           *
#                   http://madgraph.hep.uiuc.edu                     *
#                                                                    *
#                          proc_card.dat                             *
#*********************************************************************
#                                                                    *
#            This Files is generated by MADGRAPH 5                   *
#                                                                    *
# WARNING: This Files is generated for MADEVENT (compatibility issue)*
#          This files is NOT a valid MG4 proc_card.dat               *
#          Running this in MG4 will NEVER reproduce the result of MG5*
#                                                                    *
#*********************************************************************
#*********************************************************************
# Process(es) requested : mg2 input                                  *
#*********************************************************************
# Begin PROCESS # This is TAG. Do not modify this line
p p > zph , zph > j j           #Process
# Be carefull the coupling are here in MG5 convention
          
end_coup           # End the couplings input

done               # this tells MG there are no more procs
# End PROCESS  # This is TAG. Do not modify this line
#*********************************************************************
# Model information                                                  *
#*********************************************************************
# Begin MODEL  # This is TAG. Do not modify this line
Zprime_UFO
# End   MODEL  # This is TAG. Do not modify this line
#*********************************************************************
# Start multiparticle definitions                                    *
#*********************************************************************
# Begin MULTIPARTICLES # This is TAG. Do not modify this line

# End  MULTIPARTICLES # This is TAG. Do not modify this line
</MGProcCard>
<MGRunCard>
#*********************************************************************
#                       MadGraph5_aMC@NLO                            *
#                                                                    *
#                     run_card.dat MadEvent                          *
#                                                                    *
#  This file is used to set the parameters of the run.               *
#                                                                    *
#  Some notation/conventions:                                        *
#                                                                    *
#   Lines starting with a '# ' are info or comments                  *
#                                                                    *
#   mind the format:   value    = variable     ! comment             *
#*********************************************************************
#
#*******************                                                 
# Running parameters
#*******************                                                 
#                                                                    
#*********************************************************************
# Tag name for the run (one word)                                    *
#*********************************************************************
  tag_1     = run_tag ! name of the run 
#*********************************************************************
# Run to generate the grid pack                                      *
#*********************************************************************
  .false.     = gridpack  !True = setting up the grid pack
#*********************************************************************
# Number of events and rnd seed                                      *
# Warning: Do not generate more than 1M events in a single run       *
# If you want to run Pythia, avoid more than 50k events in a run.    *
#*********************************************************************
  2000 = nevents ! Number of unweighted events requested 
 1317 = iseed   ! rnd seed (0=assigned automatically=default))
#*********************************************************************
# Collider type and energy                                           *
# lpp: 0=No PDF, 1=proton, -1=antiproton, 2=photon from proton,      *
#                                         3=photon from electron     *
#*********************************************************************
        1     = lpp1    ! beam 1 type 
        1     = lpp2    ! beam 2 type
     4000     = ebeam1  ! beam 1 total energy in GeV
     4000     = ebeam2  ! beam 2 total energy in GeV
#*********************************************************************
# Beam polarization from -100 (left-handed) to 100 (right-handed)    *
#*********************************************************************
        0     = polbeam1 ! beam polarization for beam 1
        0     = polbeam2 ! beam polarization for beam 2
#*********************************************************************
# PDF CHOICE: this automatically fixes also alpha_s and its evol.    *
#*********************************************************************
 'nn23lo1'    = pdlabel     ! PDF set                                     
 230000    = lhaid     ! if pdlabel=lhapdf, this is the lhapdf number
#*********************************************************************
# Renormalization and factorization scales                           *
#*********************************************************************
 F        = fixed_ren_scale  ! if .true. use fixed ren scale
 F        = fixed_fac_scale  ! if .true. use fixed fac scale
 91.1880  = scale            ! fixed ren scale
 91.1880  = dsqrt_q2fact1    ! fixed fact scale for pdf1
 91.1880  = dsqrt_q2fact2    ! fixed fact scale for pdf2
 1        = scalefact        ! scale factor for event-by-event scales
#*********************************************************************
# Matching - Warning! ickkw > 1 is still beta
#*********************************************************************
 0        = ickkw            ! 0 no matching, 1 MLM, 2 CKKW matching
 1        = highestmult      ! for ickkw=2, highest mult group
 1        = ktscheme         ! for ickkw=1, 1 Durham kT, 2 Pythia pTE
 1        = alpsfact         ! scale factor for QCD emission vx
 F        = chcluster        ! cluster only according to channel diag
 T        = pdfwgt           ! for ickkw=1, perform pdf reweighting
 5        = asrwgtflavor     ! highest quark flavor for a_s reweight
 T        = clusinfo         ! include clustering tag in output
 3.0      = lhe_version       ! Change the way clustering information pass to shower.        
#*********************************************************************
#**********************************************************
#
#**********************************************************
# Automatic ptj and mjj cuts if xqcut > 0
# (turn off for VBF and single top processes)
#**********************************************************
   T  = auto_ptj_mjj  ! Automatic setting of ptj and mjj
#**********************************************************
#                                                                    
#**********************************
# BW cutoff (M+/-bwcutoff*Gamma)
#**********************************
  15  = bwcutoff      ! (M+/-bwcutoff*Gamma)
#**********************************************************
# Apply pt/E/eta/dr/mij cuts on decay products or not
# (note that etmiss/ptll/ptheavy/ht/sorted cuts always apply)
#**********************************************************
   T  = cut_decays    ! Cut decay products 
#*************************************************************
# Number of helicities to sum per event (0 = all helicities)
# 0 gives more stable result, but longer run time (needed for
# long decay chains e.g.).
# Use >=2 if most helicities contribute, e.g. pure QCD.
#*************************************************************
   0  = nhel          ! Number of helicities used per event
#*******************                                                 
# Standard Cuts
#*******************                                                 
#                                                                    
#*********************************************************************
# Minimum and maximum pt's (for max, -1 means no cut)                *
#*********************************************************************
 20  = ptj       ! minimum pt for the jets 
  0  = ptb       ! minimum pt for the b 
 10  = pta       ! minimum pt for the photons 
 10  = ptl       ! minimum pt for the charged leptons 
  0  = misset    ! minimum missing Et (sum of neutrino's momenta)
  0  = ptheavy   ! minimum pt for one heavy final state
 1.0 = ptonium   ! minimum pt for the quarkonium states
 -1  = ptjmax    ! maximum pt for the jets
 -1  = ptbmax    ! maximum pt for the b
 -1  = ptamax    ! maximum pt for the photons
 -1  = ptlmax    ! maximum pt for the charged leptons
 -1  = missetmax ! maximum missing Et (sum of neutrino's momenta)
#*********************************************************************
# Minimum and maximum E's (in the center of mass frame)              *
#*********************************************************************
  0  = ej     ! minimum E for the jets 
  0  = eb     ! minimum E for the b 
  0  = ea     ! minimum E for the photons 
  0  = el     ! minimum E for the charged leptons 
 -1   = ejmax ! maximum E for the jets
 -1   = ebmax ! maximum E for the b
 -1   = eamax ! maximum E for the photons
 -1   = elmax ! maximum E for the charged leptons
#*********************************************************************
# Maximum and minimum absolute rapidity (for max, -1 means no cut)   *
#*********************************************************************
   5  = etaj    ! max rap for the jets 
  -1  = etab    ! max rap for the b
 2.5  = etaa    ! max rap for the photons 
 2.5  = etal    ! max rap for the charged leptons 
 0.6  = etaonium ! max rap for the quarkonium states
   0  = etajmin ! min rap for the jets
   0  = etabmin ! min rap for the b
   0  = etaamin ! min rap for the photons
   0  = etalmin ! main rap for the charged leptons
#*********************************************************************
# Minimum and maximum DeltaR distance                                *
#*********************************************************************
 0.4 = drjj    ! min distance between jets 
 0   = drbb    ! min distance between b's 
 0.4 = drll    ! min distance between leptons 
 0.4 = draa    ! min distance between gammas 
 0   = drbj    ! min distance between b and jet 
 0.4 = draj    ! min distance between gamma and jet 
 0.4 = drjl    ! min distance between jet and lepton 
 0   = drab    ! min distance between gamma and b 
 0   = drbl    ! min distance between b and lepton 
 0.4 = dral    ! min distance between gamma and lepton 
 -1  = drjjmax ! max distance between jets
 -1  = drbbmax ! max distance between b's
 -1  = drllmax ! max distance between leptons
 -1  = draamax ! max distance between gammas
 -1  = drbjmax ! max distance between b and jet
 -1  = drajmax ! max distance between gamma and jet
 -1  = drjlmax ! max distance between jet and lepton
 -1  = drabmax ! max distance between gamma and b
 -1  = drblmax ! max distance between b and lepton
 -1  = dralmax ! maxdistance between gamma and lepton
#*********************************************************************
# Minimum and maximum invariant mass for pairs                       *
# WARNING: for four lepton final state mmll cut require to have      *
#          different lepton masses for each flavor!                  *           
#*********************************************************************
 0   = mmjj    ! min invariant mass of a jet pair 
 0   = mmbb    ! min invariant mass of a b pair 
 0   = mmaa    ! min invariant mass of gamma gamma pair
 0   = mmll    ! min invariant mass of l+l- (same flavour) lepton pair
 -1  = mmjjmax ! max invariant mass of a jet pair
 -1  = mmbbmax ! max invariant mass of a b pair
 -1  = mmaamax ! max invariant mass of gamma gamma pair
 -1  = mmllmax ! max invariant mass of l+l- (same flavour) lepton pair
#*********************************************************************
# Minimum and maximum invariant mass for all letpons                 *
#*********************************************************************
 0   = mmnl    ! min invariant mass for all letpons (l+- and vl) 
 -1  = mmnlmax ! max invariant mass for all letpons (l+- and vl) 
#*********************************************************************
# Minimum and maximum pt for 4-momenta sum of leptons                *
#*********************************************************************
 0   = ptllmin  ! Minimum pt for 4-momenta sum of leptons(l and vl)
 -1  = ptllmax  ! Maximum pt for 4-momenta sum of leptons(l and vl)
#*********************************************************************
# Inclusive cuts                                                     *
#*********************************************************************
 0  = xptj ! minimum pt for at least one jet  
 0  = xptb ! minimum pt for at least one b 
 0  = xpta ! minimum pt for at least one photon 
 0  = xptl ! minimum pt for at least one charged lepton 
#*********************************************************************
# Control the pt's of the jets sorted by pt                          *
#*********************************************************************
 0   = ptj1min ! minimum pt for the leading jet in pt
 0   = ptj2min ! minimum pt for the second jet in pt
 0   = ptj3min ! minimum pt for the third jet in pt
 0   = ptj4min ! minimum pt for the fourth jet in pt
 -1  = ptj1max ! maximum pt for the leading jet in pt 
 -1  = ptj2max ! maximum pt for the second jet in pt
 -1  = ptj3max ! maximum pt for the third jet in pt
 -1  = ptj4max ! maximum pt for the fourth jet in pt
 0   = cutuse  ! reject event if fails any (0) / all (1) jet pt cuts
#*********************************************************************
# Control the pt's of leptons sorted by pt                           *
#*********************************************************************
 0   = ptl1min ! minimum pt for the leading lepton in pt
 0   = ptl2min ! minimum pt for the second lepton in pt
 0   = ptl3min ! minimum pt for the third lepton in pt
 0   = ptl4min ! minimum pt for the fourth lepton in pt
 -1  = ptl1max ! maximum pt for the leading lepton in pt 
 -1  = ptl2max ! maximum pt for the second lepton in pt
 -1  = ptl3max ! maximum pt for the third lepton in pt
 -1  = ptl4max ! maximum pt for the fourth lepton in pt
#*********************************************************************
# Control the Ht(k)=Sum of k leading jets                            *
#*********************************************************************
 0   = htjmin ! minimum jet HT=Sum(jet pt)
 -1  = htjmax ! maximum jet HT=Sum(jet pt)
 0   = ihtmin  !inclusive Ht for all partons (including b)
 -1  = ihtmax  !inclusive Ht for all partons (including b)
 0   = ht2min ! minimum Ht for the two leading jets
 0   = ht3min ! minimum Ht for the three leading jets
 0   = ht4min ! minimum Ht for the four leading jets
 -1  = ht2max ! maximum Ht for the two leading jets
 -1  = ht3max ! maximum Ht for the three leading jets
 -1  = ht4max ! maximum Ht for the four leading jets
#***********************************************************************
# Photon-isolation cuts, according to hep-ph/9801442                   *
# When ptgmin=0, all the other parameters are ignored                  *
# When ptgmin>0, pta and draj are not going to be used                 *
#***********************************************************************
   0 = ptgmin ! Min photon transverse momentum
 0.4 = R0gamma ! Radius of isolation code
 1.0 = xn ! n parameter of eq.(3.4) in hep-ph/9801442
 1.0 = epsgamma ! epsilon_gamma parameter of eq.(3.4) in hep-ph/9801442
 .true. = isoEM ! isolate photons from EM energy (photons and leptons)
#*********************************************************************
# WBF cuts                                                           *
#*********************************************************************
 0   = xetamin ! minimum rapidity for two jets in the WBF case  
 0   = deltaeta ! minimum rapidity for two jets in the WBF case 
#*********************************************************************
# KT DURHAM CUT                                                      *
#*********************************************************************
 -1    =  ktdurham        
 0.4  =  dparameter 
#*********************************************************************
# maximal pdg code for quark to be considered as a light jet         *
# (otherwise b cuts are applied)                                     *
#*********************************************************************
 4 = maxjetflavor    ! Maximum jet pdg code
#*********************************************************************
# Jet measure cuts                                                   *
#*********************************************************************
 0   = xqcut   ! minimum kt jet measure between partons
#*********************************************************************
#
#*********************************************************************
# Store info for systematics studies                                 *
# WARNING: If use_syst is T, matched Pythia output is                *
#          meaningful ONLY if plotted taking matchscale              *
#          reweighting into account!                                 *
#*********************************************************************
   F  = use_syst      ! Enable systematics studies
#
#**************************************
# Parameter of the systematics study
#  will be used by SysCalc (if installed)
#**************************************                                  
#
0.5 1 2 = sys_scalefact  # factorization/renormalization scale factor
0.5 1 2 = sys_alpsfact  # \alpha_s emission scale factors
30 50 = sys_matchscale # variation of merging scale
# PDF sets and number of members (0 or none for all members).
CT10nlo.LHgrid = sys_pdf # matching scales
# MSTW2008nlo68cl.LHgrid 1  = sys_pdf
</MGRunCard>
<slha>
######################################################################
## PARAM_CARD AUTOMATICALY GENERATED BY MG5 FOLLOWING UFO MODEL   ####
######################################################################
##                                                                  ##
##  Width set on Auto will be computed following the information    ##
##        present in the decay.py files of the model.               ##
##        See  arXiv:1402.1178 for more details.                    ##
##                                                                  ##
######################################################################

###################################
## INFORMATION FOR CKMBLOCK
###################################
Block ckmblock 
    1 2.277360e-01 # cabi 

###################################
## INFORMATION FOR FRBLOCK
###################################
Block frblock 
    1 6.000000e-01 # gz 

###################################
## INFORMATION FOR MASS
###################################
Block mass 
    1 5.040000e-03 # MD 
    2 2.550000e-03 # MU 
    3 1.010000e-01 # MS 
    4 1.270000e+00 # MC 
    5 4.700000e+00 # MB 
    6 1.720000e+02 # MT 
   11 5.110000e-04 # Me 
   13 1.056600e-01 # MM 
   15 1.777000e+00 # MTA 
   23 9.118760e+01 # MZ 
   25 1.200000e+02 # MH 
  10030 2.400000e+03 # MZph 
  10031 3.000000e+02 # MZpl 
## Dependent parameters, given by model restrictions.
## Those values should be edited following the 
## analytical expression. MG5 ignores those values 
## but they are important for interfacing the output of MG5
## to external program such as Pythia.
  12 0.000000 # ve : 0.0 
  14 0.000000 # vm : 0.0 
  16 0.000000 # vt : 0.0 
  21 0.000000 # g : 0.0 
  22 0.000000 # a : 0.0 
  24 79.824360 # w+ : cmath.sqrt(MZ__exp__2/2. + cmath.sqrt(MZ__exp__4/4. - (aEW*cmath.pi*MZ__exp__2)/(Gf*sqrt__2))) 

###################################
## INFORMATION FOR SMINPUTS
###################################
Block sminputs 
    1 1.279000e+02 # aEWM1 
    2 1.166370e-05 # Gf 
    3 1.184000e-01 # aS 

###################################
## INFORMATION FOR YUKAWA
###################################
Block yukawa 
    1 5.040000e-03 # ymdo 
    2 2.550000e-03 # ymup 
    3 1.010000e-01 # yms 
    4 1.270000e+00 # ymc 
    5 4.700000e+00 # ymb 
    6 1.720000e+02 # ymt 
   11 5.110000e-04 # yme 
   13 1.056600e-01 # ymm 
   15 1.777000e+00 # ymtau 

###################################
## INFORMATION FOR DECAY
###################################
DECAY   6 1.508336e+00 # WT 
DECAY  23 2.495200e+00 # WZ 
DECAY  24 2.085000e+00 # WW 
DECAY  25 5.753088e-03 # WH 
## Dependent parameters, given by model restrictions.
## Those values should be edited following the 
## analytical expression. MG5 ignores those values 
## but they are important for interfacing the output of MG5
## to external program such as Pythia.
DECAY  1 0.000000 # d : 0.0 
DECAY  2 0.000000 # u : 0.0 
DECAY  3 0.000000 # s : 0.0 
DECAY  4 0.000000 # c : 0.0 
DECAY  5 0.000000 # b : 0.0 
DECAY  11 0.000000 # e- : 0.0 
DECAY  12 0.000000 # ve : 0.0 
DECAY  13 0.000000 # mu- : 0.0 
DECAY  14 0.000000 # vm : 0.0 
DECAY  15 0.000000 # ta- : 0.0 
DECAY  16 0.000000 # vt : 0.0 
DECAY  21 0.000000 # g : 0.0 
DECAY  22 0.000000 # a : 0.0 
DECAY  10030 0.308725 # zph : (gz__exp__2*MZph*(5 + cmath.sqrt(1 - (4*MT__exp__2)/MZph__exp__2)))/(144.*cmath.pi) 
DECAY  10031 0.132629 # zpl : (5*gz__exp__2*MZpl)/(144.*cmath.pi) 
#===========================================================
# QUANTUM NUMBERS OF NEW STATE(S) (NON SM PDG CODE)
#===========================================================

Block QNUMBERS 10030  # zph 
        1 0  # 3 times electric charge
        2 3  # number of spin states (2S+1)
        3 1  # colour rep (1: singlet, 3: triplet, 8: octet)
        4 0  # Particle/Antiparticle distinction (0=own anti)
Block QNUMBERS 10031  # zpl 
        1 0  # 3 times electric charge
        2 3  # number of spin states (2S+1)
        3 1  # colour rep (1: singlet, 3: triplet, 8: octet)
        4 0  # Particle/Antiparticle distinction (0=own anti)
</slha>
## END BANNER##
<MGGenerationInfo>
#  Number of Events        :         3920
#  Integrated weight (pb)  :  0.32542E-02
#  Max wgt                 :  0.11983E-05
#  Average wgt             :  0.83015E-06
</MGGenerationInfo>
</header>
<init>
     2212     2212  0.40000000000E+04  0.40000000000E+04 0 0  247000  247000 2   1
  0.32568032817E-02  0.66919491191E-05  0.11983130000E-05   0
</init>
<event>
 5   0  0.1168435E-05  0.2398541E+04  0.7818609E-02  0.8440050E-01
       -2   -1    0    0    0  501  0.00000000000E+00  0.00000000000E+00  0.69651405705E+03  0.69651405705E+03  0.25500000920E-02 0. -1.
        2   -1    0    0  501    0  0.00000000000E+00  0.00000000000E+00 -0.20649262056E+04  0.20649262056E+04  0.25500000920E-02 0.  1.
    10030    2    1    2    0    0  0.00000000000E+00  0.00000000000E+00 -0.13684121486E+04  0.27614402627E+04  0.23985413309E+04 0.  0.
        1    1    3    3  502    0 -0.46904842978E+03 -0.27745666094E+03  0.54572572395E+03  0.77123614670E+03  0.50400001928E-02 0. -1.
       -1    1    3    3    0  502  0.46904842978E+03  0.27745666094E+03 -0.19141378725E+04  0.19902041160E+04  0.50400001928E-02 0.  1.
</event>
<event>
 5   0  0.1168435E-05  0.2364030E+04  0.7818609E-02  0.8453094E-01
       -2   -1    0    0    0  501  0.00000000000E+00  0.00000000000E+00  0.89738316689E+03  0.89738316690E+03  0.25500000920E-02 0. -1.
        2   -1    0    0  501    0  0.00000000000E+00  0.00000000000E+00 -0.15569263087E+04  0.15569263088E+04  0.25500000920E-02 0.  1.
    10030    2    1    2    0    0  0.00000000000E+00  0.00000000000E+00 -0.65954314185E+03  0.24543094756E+04  0.23640300011E+04 0.  0.
        1    1    3    3  502    0 -0.12449724923E+03 -0.62482349180E+03 -0.13634111857E+04  0.15049232612E+04  0.50400001928E-02 0.  1.
       -1    1    3    3    0  502  0.12449724923E+03  0.62482349180E+03  0.70386804382E+03  0.94938621441E+03  0.50400001928E-02 0. -1.
</event>
<event>
 5   0  0.1174210E-05  0.2392224E+04  0.7818609E-02  0.8442421E-01
        2   -1    0    0  501    0  0.00000000000E+00  0.00000000000E+00  0.82719239192E+03  0.82719239192E+03  0.25500000920E-02 0.  1.
       -2   -1    0    0    0  501  0.00000000000E+00  0.00000000000E+00 -0.17295657809E+04  0.17295657809E+04  0.25500000920E-02 0. -1.
    10030    2    1    2    0    0  0.00000000000E+00  0.00000000000E+00 -0.90237338903E+03  0.25567581729E+04  0.23922237816E+04 0.  0.
        3    1    3    3  502    0  0.87536992345E+03 -0.29436541183E+03 -0.12635712158E+04  0.15650992704E+04  0.10100000352E+00 0. -1.
       -3    1    3    3    0  502 -0.87536992345E+03  0.29436541183E+03  0.36119782680E+03  0.99165890247E+03  0.10100000352E+00 0.  1.
</event>
<event>
 5   0  0.1168435E-05  0.2397450E+04  0.7818609E-02  0.8440459E-01
       -2   -1    0    0    0  501  0.00000000000E+00  0.00000000000E+00  0.98205524900E+03  0.98205524901E+03  0.25500000920E-02 0.  1.
        2   -1    0    0  501    0  0.00000000000E+00  0.00000000000E+00 -0.14631984281E+04  0.14631984281E+04  0.25500000920E-02 0. -1.
    10030    2    1    2    0    0  0.00000000000E+00  0.00000000000E+00 -0.48114317910E+03  0.24452536771E+04  0.23974500593E+04 0.  0.
        1    1    3    3  502    0  0.61889683021E+03  0.22701740122E+03 -0.12617196306E+04  0.14235542186E+04  0.50400001928E-02 0. -1.
       -1    1    3    3    0  502 -0.61889683021E+03 -0.22701740122E+03  0.78057645151E+03  0.10216994585E+04  0.50400001928E-02 0.  1.
</event>
<event>
 5   0  0.1174210E-05  0.2411170E+04  0.7818609E-02  0.8435334E-01
        2   -1    0    0  501    0  0.00000000000E+00  0.00000000000E+00  0.20126717101E+04  0.20126717101E+04  0.25500000920E-02 0. -1.
       -2   -1    0    0    0  501  0.00000000000E+00  0.00000000000E+00 -0.72214199426E+03  0.72214199426E+03  0.25500000920E-02 0.  1.
    10030    2    1    2    0    0  0.00000000000E+00  0.00000000000E+00  0.12905297159E+04  0.27348137044E+04  0.24111696436E+04 0.  0.
        3    1    3    3  502    0 -0.59472794232E+03  0.73509624063E+03 -0.20303301735E+03  0.96710404027E+03  0.10100000352E+00 0.  1.
       -3    1    3    3    0  502  0.59472794232E+03 -0.73509624063E+03  0.14935627332E+04  0.17677096641E+04  0.10100000352E+00 0. -1.
</event>
<event>
 5   0  0.5196696E-06  0.2399256E+04  0.7818609E-02  0.8439782E-01
       -1   -1    0    0    0  501  0.00000000000E+00  0.00000000000E+00  0.18325886153E+04  0.18325886153E+04  0.50400001928E-02 0.  1.
        1   -1    0    0  501    0  0.00000000000E+00  0.00000000000E+00 -0.78528694786E+03  0.78528694787E+03  0.50400001928E-02 0. -1.
    10030    2    1    2    0    0  0.00000000000E+00  0.00000000000E+00  0.10473016675E+04  0.26178755632E+04  0.23992564852E+04 0.  0.
        1    1    3    3  502    0 -0.98410002495E+02  0.15610831362E+03 -0.76970720185E+03  0.79151974756E+03  0.50400001928E-02 0. -1.
       -1    1    3    3    0  502  0.98410002495E+02 -0.15610831362E+03  0.18170088693E+04  0.18263558157E+04  0.50400001928E-02 0.  1.
</event>
<event>
 5   0  0.5104174E-06  0.2401493E+04  0.7818609E-02  0.8438945E-01
        1   -1    0    0  501    0  0.00000000000E+00  0.00000000000E+00  0.12836613901E+04  0.12836613901E+04  0.50400001928E-02 0.  1.
       -1   -1    0    0    0  501  0.00000000000E+00  0.00000000000E+00 -0.11231868460E+04  0.11231868460E+04  0.50400001928E-02 0. -1.
    10030    2    1    2    0    0  0.00000000000E+00  0.00000000000E+00  0.16047454413E+03  0.24068482362E+04  0.24014925260E+04 0.  0.
        3    1    3    3  502    0 -0.37062391896E+03  0.11419087923E+04  0.58421810139E+02  0.12019695908E+04  0.10100000352E+00 0. -1.
       -3    1    3    3    0  502  0.37062391896E+03 -0.11419087923E+04  0.10205273399E+03  0.12048786453E+04  0.10100000352E+00 0.  1.
</event>
<event>
 5   0  0.1168435E-05  0.2408873E+04  0.7818609E-02  0.8436189E-01
        2   -1    0    0  501    0  0.00000000000E+00  0.00000000000E+00  0.20413124959E+04  0.20413124959E+04  0.25500000920E-02 0. -1.
       -2   -1    0    0    0  501  0.00000000000E+00  0.00000000000E+00 -0.71065417333E+03  0.71065417333E+03  0.25500000920E-02 0.  1.
    10030    2    1    2    0    0  0.00000000000E+00  0.00000000000E+00  0.13306583225E+04  0.27519666692E+04  0.24088729682E+04 0.  0.
        1    1    3    3  502    0 -0.61261640562E+03 -0.94143108424E+03  0.11620900057E+04  0.16161820839E+04  0.50400001928E-02 0. -1.
       -1    1    3    3    0  502  0.61261640562E+03  0.94143108424E+03  0.16856831682E+03  0.11357845853E+04  0.50400001928E-02 0.  1.
</event>
<event>
 5   0  0.5064437E-06  0.2389718E+04  0.7818609E-02  0.8443363E-01
        1   -1    0    0  501    0  0.00000000000E+00  0.00000000000E+00  0.16017356243E+04  0.16017356243E+04  0.50400001928E-02 0.  1.
       -1   -1    0    0    0  501  0.00000000000E+00  0.00000000000E+00 -0.89133779862E+03  0.89133779863E+03  0.50400001928E-02 0. -1.
    10030    2    1    2    0    0  0.00000000000E+00  0.00000000000E+00  0.71039782569E+03  0.24930734229E+04  0.23897175610E+04 0.  0.
        2    1    3    3  502    0  0.10498206114E+04  0.55085435262E+03  0.51037224756E+03  0.12907531387E+04  0.25500000920E-02 0.  1.
       -2    1    3    3    0  502 -0.10498206114E+04 -0.55085435262E+03  0.20002557813E+03  0.12023202842E+04  0.25500000920E-02 0. -1.
</event>
<event>
 5   0  0.1168435E-05  0.2389850E+04  0.7818609E-02  0.8443313E-01
       -2   -1    0    0    0  501  0.00000000000E+00  0.00000000000E+00  0.11248117703E+04  0.11248117703E+04  0.25500000920E-02 0.  1.
        2   -1    0    0  501    0  0.00000000000E+00  0.00000000000E+00 -0.12694089179E+04  0.12694089179E+04  0.25500000920E-02 0. -1.
    10030    2    1    2    0    0  0.00000000000E+00  0.00000000000E+00 -0.14459714761E+03  0.23942206882E+04  0.23898502816E+04 0.  0.
        1    1    3    3  502    0 -0.10954794537E+04 -0.31324360064E+01  0.40581735154E+03  0.11682348944E+04  0.50400001928E-02 0.  1.
       -1    1    3    3    0  502  0.10954794537E+04  0.31324360064E+01 -0.55041449915E+03  0.12259857938E+04  0.50400001928E-02 0. -1.
</event>
<event>
 5   0  0.4067750E-06  0.2403453E+04  0.7818609E-02  0.8438212E-01
       -4   -1    0    0    0  501  0.00000000000E+00  0.00000000000E+00  0.95450219199E+03  0.95450303688E+03  0.12699999809E+01 0.  1.
        4   -1    0    0  501    0  0.00000000000E+00  0.00000000000E+00 -0.15129825667E+04  0.15129830997E+04  0.12699999809E+01 0. -1.
    10030    2    1    2    0    0  0.00000000000E+00  0.00000000000E+00 -0.55848037471E+03  0.24674861366E+04  0.24034532459E+04 0.  0.
        4    1    3    3  502    0  0.97282781521E+03 -0.47815422614E+03 -0.81182883145E+03  0.13542869292E+04  0.12699999809E+01 0. -1.
       -4    1    3    3    0  502 -0.97282781521E+03  0.47815422614E+03  0.25334845674E+03  0.11131992074E+04  0.12699999809E+01 0.  1.
</event>
<event>
 5   0  0.1198313E-05  0.2391545E+04  0.7818609E-02  0.8442676E-01
       -2   -1    0    0    0  501  0.00000000000E+00  0.00000000000E+00  0.11232492107E+04  0.11232492107E+04  0.25500000920E-02 0.  1.
        2   -1    0    0  501    0  0.00000000000E+00  0.00000000000E+00 -0.12729779551E+04  0.12729779551E+04  0.25500000920E-02 0. -1.
    10030    2    1    2    0    0  0.00000000000E+00  0.00000000000E+00 -0.14972874437E+03  0.23962271658E+04  0.23915446752E+04 0.  0.
        5    1    3    3  502    0  0.47523583307E+03 -0.10323056560E+04  0.29781189725E+03  0.11748268300E+04  0.46999998093E+01 0.  1.
       -5    1    3    3    0  502 -0.47523583307E+03  0.10323056560E+04 -0.44754064161E+03  0.12214003358E+04  0.46999998093E+01 0. -1.
</event>
<event>
 5   0  0.5042742E-06  0.2482182E+04  0.7818609E-02  0.8409361E-01
        1   -1    0    0  501    0  0.00000000000E+00  0.00000000000E+00  0.19419599193E+04  0.19419599193E+04  0.50400001928E-02 0. -1.
       -1   -1    0    0    0  501  0.00000000000E+00  0.00000000000E+00 -0.79317111310E+03  0.79317111311E+03  0.50400001928E-02 0.  1.
    10030    2    1    2    0    0  0.00000000000E+00  0.00000000000E+00  0.11487888062E+04  0.27351310324E+04  0.24821817104E+04 0.  0.
        5    1    3    3  502    0 -0.16742234177E+03 -0.11371867243E+04  0.58659365634E+02  0.11509504323E+04  0.46999998093E+01 0.  1.
       -5    1    3    3    0  502  0.16742234177E+03  0.11371867243E+04  0.10901294406E+04  0.15841806001E+04  0.46999998093E+01 0. -1.
</event>
<event>
 5   0  0.5196696E-06  0.2405713E+04  0.7818609E-02  0.8437368E-01
        1   -1    0    0  501    0  0.00000000000E+00  0.00000000000E+00  0.11287442650E+04  0.11287442650E+04  0.50400001928E-02 0. -1.
       -1   -1    0    0    0  501  0.00000000000E+00  0.00000000000E+00 -0.12818345624E+04  0.12818345624E+04  0.50400001928E-02 0.  1.
    10030    2    1    2    0    0  0.00000000000E+00  0.00000000000E+00 -0.15309029736E+03  0.24105788275E+04  0.24057127102E+04 0.  0.
        1    1    3    3  502    0  0.52755629517E+03 -0.31474654586E+03  0.95970448875E+03  0.11394795911E+04  0.50400001928E-02 0. -1.
       -1    1    3    3    0  502 -0.52755629517E+03  0.31474654586E+03 -0.11127947861E+04  0.12710992364E+04  0.50400001928E-02 0.  1.
</event>
<event>
 5   0  0.5104174E-06  0.2399599E+04  0.7818609E-02  0.8439654E-01
        1   -1    0    0  501    0  0.00000000000E+00  0.00000000000E+00  0.16687111324E+04  0.16687111325E+04  0.50400001928E-02 0.  1.
       -1   -1    0    0    0  501  0.00000000000E+00  0.00000000000E+00 -0.86265303555E+03  0.86265303557E+03  0.50400001928E-02 0. -1.
    10030    2    1    2    0    0  0.00000000000E+00  0.00000000000E+00  0.80605809689E+03  0.25313641680E+04  0.23995989031E+04 0.  0.
        3    1    3    3  502    0  0.10945096350E+04 -0.38468299395E+03  0.72574636327E+03  0.13684444237E+04  0.10100000352E+00 0.  1.
       -3    1    3    3    0  502 -0.10945096350E+04  0.38468299395E+03  0.80311733620E+02  0.11629197443E+04  0.10100000352E+00 0. -1.
</event>
<event>
 5   0  0.5104174E-06  0.2396672E+04  0.7818609E-02  0.8440751E-01
       -1   -1    0    0    0  501  0.00000000000E+00  0.00000000000E+00  0.13687316207E+04  0.13687316208E+04  0.50400001928E-02 0.  1.
        1   -1    0    0  501    0  0.00000000000E+00  0.00000000000E+00 -0.10491528955E+04  0.10491528955E+04  0.50400001928E-02 0. -1.
    10030    2    1    2    0    0  0.00000000000E+00  0.00000000000E+00  0.31957872527E+03  0.24178845162E+04  0.23966716447E+04 0.  0.
        3    1    3    3  502    0 -0.11820369003E+04 -0.15856846976E+03  0.41906779446E+02  0.11933613793E+04  0.10100000352E+00 0. -1.
       -3    1    3    3    0  502  0.11820369003E+04  0.15856846976E+03  0.27767194582E+03  0.12245231370E+04  0.10100000352E+00 0.  1.
</event>
<event>
 5   0  0.1168435E-05  0.2412429E+04  0.7818609E-02  0.8434865E-01
       -2   -1    0    0    0  501  0.00000000000E+00  0.00000000000E+00  0.63793774844E+03  0.63793774845E+03  0.25500000920E-02 0.  1.
        2   -1    0    0  501    0  0.00000000000E+00  0.00000000000E+00 -0.22807145457E+04  0.22807145457E+04  0.25500000920E-02 0. -1.
    10030    2    1    2    0    0  0.00000000000E+00  0.00000000000E+00 -0.16427767973E+04  0.29186522942E+04  0.24124293997E+04 0.  0.
        1    1    3    3  502    0 -0.69937181409E+03  0.71427614939E+00  0.36760281459E+03  0.79009700281E+03  0.50400001928E-02 0.  1.
       -1    1    3    3    0  502  0.69937181409E+03 -0.71427614939E+00 -0.20103796119E+04  0.21285552913E+04  0.50400001928E-02 0. -1.
</event>
<event>
 5   0  0.5034479E-06  0.2399014E+04  0.7818609E-02  0.8439873E-01
       -1   -1    0    0    0  501  0.00000000000E+00  0.00000000000E+00  0.10814152263E+04  0.10814152263E+04  0.50400001928E-02 0.  1.
        1   -1    0    0  501    0  0.00000000000E+00  0.00000000000E+00 -0.13304950241E+04  0.13304950242E+04  0.50400001928E-02 0. -1.
    10030    2    1    2    0    0  0.00000000000E+00  0.00000000000E+00 -0.24907979788E+03  0.24119102504E+04  0.23990144456E+04 0.  0.
        4    1    3    3  502    0 -0.52118122074E+03 -0.10150267059E+04  0.24745837662E+03  0.11675385816E+04  0.12699999809E+01 0.  1.
       -4    1    3    3    0  502  0.52118122074E+03  0.10150267059E+04 -0.49653817450E+03  0.12443716688E+04  0.12699999809E+01 0. -1.
</event>
<event>
 5   0  0.5196696E-06  0.2406181E+04  0.7818609E-02  0.8437193E-01
       -1   -1    0    0    0  501  0.00000000000E+00  0.00000000000E+00  0.63057424124E+03  0.63057424126E+03  0.50400001928E-02 0.  1.
        1   -1    0    0  501    0  0.00000000000E+00  0.00000000000E+00 -0.22954107230E+04  0.22954107230E+04  0.50400001928E-02 0. -1.
    10030    2    1    2    0    0  0.00000000000E+00  0.00000000000E+00 -0.16648364817E+04  0.29259849643E+04  0.24061811029E+04 0.  0.
        1    1    3    3  502    0 -0.66579677149E+03  0.98025131734E+03 -0.57952847416E+03  0.13191024367E+04  0.50400001928E-02 0.  1.
       -1    1    3    3    0  502  0.66579677149E+03 -0.98025131734E+03 -0.10853080076E+04  0.16068825276E+04  0.50400001928E-02 0. -1.
</event>
<event>
 5   0  0.1169371E-05  0.2403373E+04  0.7818609E-02  0.8438242E-01
       -2   -1    0    0    0  501  0.00000000000E+00  0.00000000000E+00  0.55090193245E+03  0.55090193246E+03  0.25500000920E-02 0. -1.
        2   -1    0    0  501    0  0.00000000000E+00  0.00000000000E+00 -0.26212471388E+04  0.26212471388E+04  0.25500000920E-02 0.  1.
    10030    2    1    2    0    0  0.00000000000E+00  0.00000000000E+00 -0.20703452063E+04  0.31721490713E+04  0.24033727253E+04 0.  0.
        2    1    3    3  502    0 -0.25709757688E+03 -0.34833741573E+03 -0.25147342345E+04  0.25517300777E+04  0.25500000920E-02 0.  1.
       -2    1    3    3    0  502  0.25709757688E+03  0.34833741573E+03  0.44438902815E+03  0.62041899357E+03  0.25500000920E-02 0. -1.
</event>
<event>
 5   0  0.5104174E-06  0.2391161E+04  0.7818609E-02  0.8442820E-01
        1   -1    0    0  501    0  0.00000000000E+00  0.00000000000E+00  0.13186540526E+04  0.13186540526E+04  0.50400001928E-02 0. -1.
       -1   -1    0    0    0  501  0.00000000000E+00  0.00000000000E+00 -0.10839935688E+04  0.10839935688E+04  0.50400001928E-02 0.  1.
    10030    2    1    2    0    0  0.00000000000E+00  0.00000000000E+00  0.23466048383E+03  0.24026476215E+04  0.23911608165E+04 0.  0.
        3    1    3    3  502    0 -0.33584034793E+03 -0.24439747437E+03 -0.10091681063E+04  0.10913015815E+04  0.10100000352E+00 0.  1.
       -3    1    3    3    0  502  0.33584034793E+03  0.24439747437E+03  0.12438285901E+04  0.13113460400E+04  0.10100000352E+00 0. -1.
</event>
<event>
 5   0  0.1174210E-05  0.2391426E+04  0.7818609E-02  0.8442720E-01
       -2   -1    0    0    0  501  0.00000000000E+00  0.00000000000E+00  0.71948216620E+03  0.71948216621E+03  0.25500000920E-02 0. -1.
        2   -1    0    0  501    0  0.00000000000E+00  0.00000000000E+00 -0.19871655390E+04  0.19871655390E+04  0.25500000920E-02 0.  1.
    10030    2    1    2    0    0  0.00000000000E+00  0.00000000000E+00 -0.12676833728E+04  0.27066477052E+04  0.23914264919E+04 0.  0.
        3    1    3    3  502    0 -0.61812895984E+03 -0.31504961215E+03  0.46837832262E+03  0.83708896326E+03  0.10100000352E+00 0. -1.
       -3    1    3    3    0  502  0.61812895984E+03  0.31504961215E+03 -0.17360616954E+04  0.18695587419E+04  0.10100000352E+00 0.  1.
</event>
<event>
 5   0  0.5196696E-06  0.2379902E+04  0.7818609E-02  0.8447066E-01
       -1   -1    0    0    0  501  0.00000000000E+00  0.00000000000E+00  0.65433077267E+03  0.65433077269E+03  0.50400001928E-02 0.  1.
        1   -1    0    0  501    0  0.00000000000E+00  0.00000000000E+00 -0.21640183666E+04  0.21640183666E+04  0.50400001928E-02 0. -1.
    10030    2    1    2    0    0  0.00000000000E+00  0.00000000000E+00 -0.15096875939E+04  0.28183491393E+04  0.23799023593E+04 0.  0.
        1    1    3    3  502    0  0.35211245503E+03 -0.64878878883E+03  0.35041279323E+03  0.81712863074E+03  0.50400001928E-02 0.  1.
       -1    1    3    3    0  502 -0.35211245503E+03  0.64878878883E+03 -0.18601003871E+04  0.20012205085E+04  0.50400001928E-02 0. -1.
</event>
<event>
 5   0  0.1169371E-05  0.2396217E+04  0.7818609E-02  0.8440921E-01
        2   -1    0    0  501    0  0.00000000000E+00  0.00000000000E+00  0.16044900998E+04  0.16044900998E+04  0.25500000920E-02 0.  1.
       -2   -1    0    0    0  501  0.00000000000E+00  0.00000000000E+00 -0.89465443814E+03  0.89465443815E+03  0.25500000920E-02 0. -1.
    10030    2    1    2    0    0  0.00000000000E+00  0.00000000000E+00  0.70983566161E+03  0.24991445379E+04  0.23962171761E+04 0.  0.
        2    1    3    3  502    0 -0.53476554662E+03  0.23869080787E+03  0.14450502091E+04  0.15592041555E+04  0.25500000920E-02 0.  1.
       -2    1    3    3    0  502  0.53476554662E+03 -0.23869080787E+03 -0.73521454751E+03  0.93994038241E+03  0.25500000920E-02 0. -1.
</event>
<event>
 5   0  0.5064437E-06  0.2385890E+04  0.7818609E-02  0.8444805E-01
       -1   -1    0    0    0  501  0.00000000000E+00  0.00000000000E+00  0.17943368597E+04  0.17943368597E+04  0.50400001928E-02 0. -1.
        1   -1    0    0  501    0  0.00000000000E+00  0.00000000000E+00 -0.79311634431E+03  0.79311634433E+03  0.50400001928E-02 0.  1.
    10030    2    1    2    0    0  0.00000000000E+00  0.00000000000E+00  0.10012205154E+04  0.25874532040E+04  0.23858900986E+04 0.  0.
        2    1    3    3  502    0  0.10578987866E+04  0.22006753005E+02  0.10980440596E+04  0.15249048812E+04  0.25500000920E-02 0. -1.
       -2    1    3    3    0  502 -0.10578987866E+04 -0.22006753005E+02 -0.96823544194E+02  0.10625483229E+04  0.25500000920E-02 0.  1.
</event>
<event>
 5   0  0.1174210E-05  0.2391609E+04  0.7818609E-02  0.8442652E-01
        2   -1    0    0  501    0  0.00000000000E+00  0.00000000000E+00  0.12875422148E+04  0.12875422148E+04  0.25500000920E-02 0.  1.
       -2   -1    0    0    0  501  0.00000000000E+00  0.00000000000E+00 -0.11106032555E+04  0.11106032555E+04  0.25500000920E-02 0. -1.
    10030    2    1    2    0    0  0.00000000000E+00  0.00000000000E+00  0.17693895930E+03  0.23981454703E+04  0.23916091448E+04 0.  0.
        3    1    3    3  502    0 -0.65204360077E+03 -0.30883925210E+03  0.10447035902E+04  0.12696251977E+04  0.10100000352E+00 0.  1.
       -3    1    3    3    0  502  0.65204360077E+03  0.30883925210E+03 -0.86776463090E+03  0.11285202727E+04  0.10100000352E+00 0. -1.
</event>
<event>
 5   0  0.1198313E-05  0.2405044E+04  0.7818609E-02  0.8437618E-01
        2   -1    0    0  501    0  0.00000000000E+00  0.00000000000E+00  0.13207881321E+04  0.13207881321E+04  0.25500000920E-02 0. -1.
       -2   -1    0    0    0  501  0.00000000000E+00  0.00000000000E+00 -0.10948455412E+04  0.10948455412E+04  0.25500000920E-02 0.  1.
    10030    2    1    2    0    0  0.00000000000E+00  0.00000000000E+00  0.22594259082E+03  0.24156336733E+04  0.24050438643E+04 0.  0.
        5    1    3    3  502    0 -0.39632317571E+03  0.93103422227E+03 -0.53961265760E+03  0.11467783975E+04  0.46999998093E+01 0.  1.
       -5    1    3    3    0  502  0.39632317571E+03 -0.93103422227E+03  0.76555524842E+03  0.12688552758E+04  0.46999998093E+01 0. -1.
</event>
<event>
 5   0  0.5064437E-06  0.2418135E+04  0.7818609E-02  0.8432745E-01
        1   -1    0    0  501    0  0.00000000000E+00  0.00000000000E+00  0.27028391295E+04  0.27028391295E+04  0.50400001928E-02 0. -1.
       -1   -1    0    0    0  501  0.00000000000E+00  0.00000000000E+00 -0.54085514068E+03  0.54085514071E+03  0.50400001928E-02 0.  1.
    10030    2    1    2    0    0  0.00000000000E+00  0.00000000000E+00  0.21619839888E+04  0.32436942702E+04  0.24181351804E+04 0.  0.
        2    1    3    3  502    0  0.89852802923E+02  0.26673135127E+03  0.26582821314E+04  0.26731410419E+04  0.25500000920E-02 0. -1.
       -2    1    3    3    0  502 -0.89852802923E+02 -0.26673135127E+03 -0.49629814259E+03  0.57055322827E+03  0.25500000920E-02 0.  1.
</event>
<event>
 5   0  0.1174210E-05  0.2383014E+04  0.7818609E-02  0.8445891E-01
       -2   -1    0    0    0  501  0.00000000000E+00  0.00000000000E+00  0.74683594590E+03  0.74683594590E+03  0.25500000920E-02 0. -1.
        2   -1    0    0  501    0  0.00000000000E+00  0.00000000000E+00 -0.19009374097E+04  0.19009374097E+04  0.25500000920E-02 0.  1.
    10030    2    1    2    0    0  0.00000000000E+00  0.00000000000E+00 -0.11541014638E+04  0.26477733556E+04  0.23830135446E+04 0.  0.
        3    1    3    3  502    0  0.68989089512E+03 -0.56174716122E+03  0.30358443365E+03  0.94003874328E+03  0.10100000352E+00 0. -1.
       -3    1    3    3    0  502 -0.68989089512E+03  0.56174716122E+03 -0.14576858974E+04  0.17077346123E+04  0.10100000352E+00 0.  1.
</event>
<event>
 5   0  0.1168435E-05  0.2395767E+04  0.7818609E-02  0.8441090E-01
        2   -1    0    0  501    0  0.00000000000E+00  0.00000000000E+00  0.18444115501E+04  0.18444115501E+04  0.25500000920E-02 0.  1.
       -2   -1    0    0    0  501  0.00000000000E+00  0.00000000000E+00 -0.77798540001E+03  0.77798540001E+03  0.25500000920E-02 0. -1.
    10030    2    1    2    0    0  0.00000000000E+00  0.00000000000E+00  0.10664261501E+04  0.26223969501E+04  0.23957673156E+04 0.  0.
        1    1    3    3  502    0  0.92656049090E+02 -0.10407364967E+04  0.11744703138E+04  0.15719726833E+04  0.50400001928E-02 0.  1.
       -1    1    3    3    0  502 -0.92656049090E+02  0.10407364967E+04 -0.10804416378E+03  0.10504242668E+04  0.50400001928E-02 0. -1.
</event>
<event>
 5   0  0.5042742E-06  0.2385954E+04  0.7818609E-02  0.8444781E-01
        1   -1    0    0  501    0  0.00000000000E+00  0.00000000000E+00  0.15638239124E+04  0.15638239124E+04  0.50400001928E-02 0.  1.
       -1   -1    0    0    0  501  0.00000000000E+00  0.00000000000E+00 -0.91007342740E+03  0.91007342741E+03  0.50400001928E-02 0. -1.
    10030    2    1    2    0    0  0.00000000000E+00  0.00000000000E+00  0.65375048497E+03  0.24738973398E+04  0.23859543900E+04 0.  0.
        5    1    3    3  502    0  0.55491488964E+03  0.74801288299E+03  0.10998174760E+04  0.14412058765E+04  0.46999998093E+01 0.  1.
       -5    1    3    3    0  502 -0.55491488964E+03 -0.74801288299E+03 -0.44606699106E+03  0.10326914633E+04  0.46999998093E+01 0. -1.
</event>
<event>
 5   0  0.1174210E-05  0.2393084E+04  0.7818609E-02  0.8442097E-01
        2   -1    0    0  501    0  0.00000000000E+00  0.00000000000E+00  0.15074373999E+04  0.15074373999E+04  0.25500000920E-02 0.  1.
       -2   -1    0    0    0  501  0.00000000000E+00  0.00000000000E+00 -0.94976602841E+03  0.94976602841E+03  0.25500000920E-02 0. -1.
    10030    2    1    2    0    0  0.00000000000E+00  0.00000000000E+00  0.55767137152E+03  0.24572034283E+04  0.23930840624E+04 0.  0.
        3    1    3    3  502    0  0.11595230229E+04 -0.29210264438E+03  0.23413504643E+03  0.12184567394E+04  0.10100000352E+00 0.  1.
       -3    1    3    3    0  502 -0.11595230229E+04  0.29210264438E+03  0.32353632509E+03  0.12387466890E+04  0.10100000352E+00 0. -1.
</event>
<event>
 5   0  0.5034479E-06  0.2404891E+04  0.7818609E-02  0.8437675E-01
       -1   -1    0    0    0  501  0.00000000000E+00  0.00000000000E+00  0.84562060104E+03  0.84562060105E+03  0.50400001928E-02 0.  1.
        1   -1    0    0  501    0  0.00000000000E+00  0.00000000000E+00 -0.17098387111E+04  0.17098387111E+04  0.50400001928E-02 0. -1.
    10030    2    1    2    0    0  0.00000000000E+00  0.00000000000E+00 -0.86421811008E+03  0.25554593122E+04  0.24048907157E+04 0.  0.
        4    1    3    3  502    0 -0.75548020735E+03 -0.69704683273E+03 -0.10950687891E+04  0.15019327204E+04  0.12699999809E+01 0. -1.
       -4    1    3    3    0  502  0.75548020735E+03  0.69704683273E+03  0.23085067904E+03  0.10535265918E+04  0.12699999809E+01 0.  1.
</event>
<event>
 5   0  0.5196696E-06  0.2396235E+04  0.7818609E-02  0.8440914E-01
        1   -1    0    0  501    0  0.00000000000E+00  0.00000000000E+00  0.14390385045E+04  0.14390385045E+04  0.50400001928E-02 0.  1.
       -1   -1    0    0    0  501  0.00000000000E+00  0.00000000000E+00 -0.99753108734E+03  0.99753108736E+03  0.50400001928E-02 0. -1.
    10030    2    1    2    0    0  0.00000000000E+00  0.00000000000E+00  0.44150741714E+03  0.24365695918E+04  0.23962350837E+04 0.  0.
        1    1    3    3  502    0  0.27108002944E+03  0.17279343742E+03 -0.95285935071E+03  0.10056256245E+04  0.50400001928E-02 0. -1.
       -1    1    3    3    0  502 -0.27108002944E+03 -0.17279343742E+03  0.13943667678E+04  0.14309439673E+04  0.50400001928E-02 0.  1.
</event>
<event>
 5   0  0.5104174E-06  0.2397748E+04  0.7818609E-02  0.8440347E-01
        1   -1    0    0  501    0  0.00000000000E+00  0.00000000000E+00  0.14173903328E+04  0.14173903328E+04  0.50400001928E-02 0.  1.
       -1   -1    0    0    0  501  0.00000000000E+00  0.00000000000E+00 -0.10140457379E+04  0.10140457379E+04  0.50400001928E-02 0. -1.
    10030    2    1    2    0    0  0.00000000000E+00  0.00000000000E+00  0.40334459494E+03  0.24314360707E+04  0.23977477982E+04 0.  0.
        3    1    3    3  502    0 -0.40868751949E+03 -0.51901064562E+03 -0.81283443309E+03  0.10474241570E+04  0.10100000352E+00 0. -1.
       -3    1    3    3    0  502  0.40868751949E+03  0.51901064562E+03  0.12161790280E+04  0.13840119137E+04  0.10100000352E+00 0.  1.
</event>
<event>
 5   0  0.1154897E-05  0.2447720E+04  0.7818609E-02  0.8421851E-01
        2   -1    0    0  501    0  0.00000000000E+00  0.00000000000E+00  0.23209486220E+04  0.23209486220E+04  0.25500000920E-02 0. -1.
       -2   -1    0    0    0  501  0.00000000000E+00  0.00000000000E+00 -0.64535383616E+03  0.64535383616E+03  0.25500000920E-02 0.  1.
    10030    2    1    2    0    0  0.00000000000E+00  0.00000000000E+00  0.16755947858E+04  0.29663024581E+04  0.24477198342E+04 0.  0.
        4    1    3    3  502    0  0.44597992994E+03  0.33296096302E+03  0.21587122028E+04  0.22293050685E+04  0.12699999809E+01 0. -1.
       -4    1    3    3    0  502 -0.44597992994E+03 -0.33296096302E+03 -0.48311741703E+03  0.73699738964E+03  0.12699999809E+01 0.  1.
</event>
<event>
 5   0  0.1154897E-05  0.2409742E+04  0.7818609E-02  0.8435865E-01
       -2   -1    0    0    0  501  0.00000000000E+00  0.00000000000E+00  0.11082633124E+04  0.11082633124E+04  0.25500000920E-02 0.  1.
        2   -1    0    0  501    0  0.00000000000E+00  0.00000000000E+00 -0.13098998832E+04  0.13098998832E+04  0.25500000920E-02 0. -1.
    10030    2    1    2    0    0  0.00000000000E+00  0.00000000000E+00 -0.20163657080E+03  0.24181631955E+04  0.24097418811E+04 0.  0.
        4    1    3    3  502    0 -0.32191401747E+03  0.51095936731E+03 -0.11470568024E+04  0.12963213454E+04  0.12699999809E+01 0. -1.
       -4    1    3    3    0  502  0.32191401747E+03 -0.51095936731E+03  0.94542023156E+03  0.11218418502E+04  0.12699999809E+01 0.  1.
</event>
<event>
 5   0  0.5064437E-06  0.2397877E+04  0.7818609E-02  0.8440299E-01
        1   -1    0    0  501    0  0.00000000000E+00  0.00000000000E+00  0.77353295279E+03  0.77353295281E+03  0.50400001928E-02 0.  1.
       -1   -1    0    0    0  501  0.00000000000E+00  0.00000000000E+00 -0.18582958216E+04  0.18582958216E+04  0.50400001928E-02 0. -1.
    10030    2    1    2    0    0  0.00000000000E+00  0.00000000000E+00 -0.10847628688E+04  0.26318287744E+04  0.23978766057E+04 0.  0.
        2    1    3    3  502    0 -0.61977360689E+03 -0.71619140588E+03 -0.13492260724E+04  0.16484721557E+04  0.25500000920E-02 0. -1.
       -2    1    3    3    0  502  0.61977360689E+03  0.71619140588E+03  0.26446320352E+03  0.98335661877E+03  0.25500000920E-02 0.  1.
</event>
<event>
 5   0  0.5042742E-06  0.2398251E+04  0.7818609E-02  0.8440159E-01
       -1   -1    0    0    0  501  0.00000000000E+00  0.00000000000E+00  0.62921872808E+03  0.62921872810E+03  0.50400001928E-02 0.  1.
        1   -1    0    0  501    0  0.00000000000E+00  0.00000000000E+00 -0.22852186995E+04  0.22852186995E+04  0.50400001928E-02 0. -1.
    10030    2    1    2    0    0  0.00000000000E+00  0.00000000000E+00 -0.16559999714E+04  0.29144374276E+04  0.23982513659E+04 0.  0.
        5    1    3    3  502    0 -0.23402893261E+03 -0.41997311310E+03  0.50695214812E+03  0.69869129628E+03  0.46999998093E+01 0.  1.
       -5    1    3    3    0  502  0.23402893261E+03  0.41997311310E+03 -0.21629521195E+04  0.22157461313E+04  0.46999998093E+01 0. -1.
</event>
<event>
 5   0  0.5042742E-06  0.2413973E+04  0.7818609E-02  0.8434291E-01
       -1   -1    0    0    0  501  0.00000000000E+00  0.00000000000E+00  0.12790210088E+04  0.12790210088E+04  0.50400001928E-02 0.  1.
        1   -1    0    0  501    0  0.00000000000E+00  0.00000000000E+00 -0.11390090517E+04  0.11390090517E+04  0.50400001928E-02 0. -1.
    10030    2    1    2    0    0  0.00000000000E+00  0.00000000000E+00  0.14001195703E+03  0.24180300605E+04  0.24139730789E+04 0.  0.
        5    1    3    3  502    0 -0.13429503935E+03 -0.24668710529E+03  0.12458206335E+04  0.12770985970E+04  0.46999998093E+01 0.  1.
       -5    1    3    3    0  502  0.13429503935E+03  0.24668710529E+03 -0.11058086765E+04  0.11409314635E+04  0.46999998093E+01 0. -1.
</event>
<event>
 5   0  0.1169371E-05  0.2549997E+04  0.7818609E-02  0.8385387E-01
        2   -1    0    0  501    0  0.00000000000E+00  0.00000000000E+00  0.14702646963E+04  0.14702646963E+04  0.25500000920E-02 0.  1.
       -2   -1    0    0    0  501  0.00000000000E+00  0.00000000000E+00 -0.11056656499E+04  0.11056656499E+04  0.25500000920E-02 0. -1.
    10030    2    1    2    0    0  0.00000000000E+00  0.00000000000E+00  0.36459904642E+03  0.25759303462E+04  0.25499969968E+04 0.  0.
        2    1    3    3  502    0 -0.33591920153E+02  0.13723764782E+03  0.14623321776E+04  0.14691419219E+04  0.25500000920E-02 0.  1.
       -2    1    3    3    0  502  0.33591920153E+02 -0.13723764782E+03 -0.10977331311E+04  0.11067884244E+04  0.25500000920E-02 0. -1.
</event>
<event>
 5   0  0.1174210E-05  0.2439806E+04  0.7818609E-02  0.8424749E-01
        2   -1    0    0  501    0  0.00000000000E+00  0.00000000000E+00  0.13911184256E+04  0.13911184256E+04  0.25500000920E-02 0.  1.
       -2   -1    0    0    0  501  0.00000000000E+00  0.00000000000E+00 -0.10697606468E+04  0.10697606468E+04  0.25500000920E-02 0. -1.
    10030    2    1    2    0    0  0.00000000000E+00  0.00000000000E+00  0.32135777878E+03  0.24608790724E+04  0.24398063421E+04 0.  0.
        3    1    3    3  502    0 -0.19159802286E+03 -0.10318064654E+04  0.78800682463E+03  0.13123601450E+04  0.10100000352E+00 0.  1.
       -3    1    3    3    0  502  0.19159802286E+03  0.10318064654E+04 -0.46664904585E+03  0.11485189274E+04  0.10100000352E+00 0. -1.
</event>
<event>
 5   0  0.1168435E-05  0.2320013E+04  0.7818609E-02  0.8470072E-01
        2   -1    0    0  501    0  0.00000000000E+00  0.00000000000E+00  0.12157230308E+04  0.12157230308E+04  0.25500000920E-02 0.  1.
       -2   -1    0    0    0  501  0.00000000000E+00  0.00000000000E+00 -0.11068433620E+04  0.11068433620E+04  0.25500000920E-02 0. -1.
    10030    2    1    2    0    0  0.00000000000E+00  0.00000000000E+00  0.10887966879E+03  0.23225663928E+04  0.23200129023E+04 0.  0.
        1    1    3    3  502    0  0.67572646967E+03 -0.18395466020E+03 -0.87133167348E+03  0.11178839224E+04  0.50400001928E-02 0. -1.
       -1    1    3    3    0  502 -0.67572646967E+03  0.18395466020E+03  0.98021134227E+03  0.12046824703E+04  0.50400001928E-02 0.  1.
</event>
<event>
 5   0  0.1169371E-05  0.2373320E+04  0.7818609E-02  0.8449560E-01
       -2   -1    0    0    0  501  0.00000000000E+00  0.00000000000E+00  0.13940654551E+04  0.13940654551E+04  0.25500000920E-02 0. -1.
        2   -1    0    0  501    0  0.00000000000E+00  0.00000000000E+00 -0.10101120414E+04  0.10101120414E+04  0.25500000920E-02 0.  1.
    10030    2    1    2    0    0  0.00000000000E+00  0.00000000000E+00  0.38395341367E+03  0.24041774965E+04  0.23733202925E+04 0.  0.
        2    1    3    3  502    0 -0.79540780873E+03 -0.83224411175E+03 -0.99617304970E+02  0.11555204244E+04  0.25500000920E-02 0.  1.
       -2    1    3    3    0  502  0.79540780873E+03  0.83224411175E+03  0.48357071864E+03  0.12486570721E+04  0.25500000920E-02 0. -1.
</event>
<event>
 5   0  0.1174210E-05  0.2389038E+04  0.7818609E-02  0.8443619E-01
       -2   -1    0    0    0  501  0.00000000000E+00  0.00000000000E+00  0.91592842134E+03  0.91592842135E+03  0.25500000920E-02 0.  1.
        2   -1    0    0  501    0  0.00000000000E+00  0.00000000000E+00 -0.15578460764E+04  0.15578460764E+04  0.25500000920E-02 0. -1.
    10030    2    1    2    0    0  0.00000000000E+00  0.00000000000E+00 -0.64191765504E+03  0.24737744977E+04  0.23890378795E+04 0.  0.
        3    1    3    3  502    0 -0.11396644979E+04 -0.33201041593E+03 -0.18277355592E+03  0.12010296695E+04  0.10100000352E+00 0.  1.
       -3    1    3    3    0  502  0.11396644979E+04  0.33201041593E+03 -0.45914409912E+03  0.12727448283E+04  0.10100000352E+00 0. -1.
</event>
<event>
 5   0  0.5104174E-06  0.2360464E+04  0.7818609E-02  0.8454455E-01
        1   -1    0    0  501    0  0.00000000000E+00  0.00000000000E+00  0.14292384249E+04  0.14292384249E+04  0.50400001928E-02 0.  1.
       -1   -1    0    0    0  501  0.00000000000E+00  0.00000000000E+00 -0.97460823157E+03  0.97460823158E+03  0.50400001928E-02 0. -1.
    10030    2    1    2    0    0  0.00000000000E+00  0.00000000000E+00  0.45463019334E+03  0.24038466565E+04  0.23604639661E+04 0.  0.
        3    1    3    3  502    0  0.20676166880E+03 -0.95471264735E+01 -0.95598068665E+03  0.97813118689E+03  0.10100000352E+00 0. -1.
       -3    1    3    3    0  502 -0.20676166880E+03  0.95471264735E+01  0.14106108800E+04  0.14257154696E+04  0.10100000352E+00 0.  1.
</event>
<event>
 5   0  0.1198313E-05  0.2399999E+04  0.7818609E-02  0.8439504E-01
        2   -1    0    0  501    0  0.00000000000E+00  0.00000000000E+00  0.10346099738E+04  0.10346099738E+04  0.25500000920E-02 0. -1.
       -2   -1    0    0    0  501  0.00000000000E+00  0.00000000000E+00 -0.13918281660E+04  0.13918281660E+04  0.25500000920E-02 0.  1.
    10030    2    1    2    0    0  0.00000000000E+00  0.00000000000E+00 -0.35721819223E+03  0.24264381398E+04  0.23999994186E+04 0.  0.
        5    1    3    3  502    0  0.26886832403E+03 -0.11267393726E+04 -0.49534194911E+03  0.12598482154E+04  0.46999998093E+01 0.  1.
       -5    1    3    3    0  502 -0.26886832403E+03  0.11267393726E+04  0.13812375688E+03  0.11665899243E+04  0.46999998093E+01 0. -1.
</event>
<event>
 5   0  0.5042742E-06  0.2415279E+04  0.7818609E-02  0.8433805E-01
       -1   -1    0    0    0  501  0.00000000000E+00  0.00000000000E+00  0.13654984576E+04  0.13654984576E+04  0.50400001928E-02 0.  1.
        1   -1    0    0  501    0  0.00000000000E+00  0.00000000000E+00 -0.10680301675E+04  0.10680301675E+04  0.50400001928E-02 0. -1.
    10030    2    1    2    0    0  0.00000000000E+00  0.00000000000E+00  0.29746829010E+03  0.24335286251E+04  0.24152793184E+04 0.  0.
        5    1    3    3  502    0 -0.10526315780E+03 -0.29137243092E+03 -0.10273010935E+04  0.10730087849E+04  0.46999998093E+01 0. -1.
       -5    1    3    3    0  502  0.10526315780E+03  0.29137243092E+03  0.13247693836E+04  0.13605198402E+04  0.46999998093E+01 0.  1.
</event>
<event>
 5   0  0.5104174E-06  0.2402778E+04  0.7818609E-02  0.8438464E-01
       -1   -1    0    0    0  501  0.00000000000E+00  0.00000000000E+00  0.93859508109E+03  0.93859508111E+03  0.50400001928E-02 0. -1.
        1   -1    0    0  501    0  0.00000000000E+00  0.00000000000E+00 -0.15377611036E+04  0.15377611036E+04  0.50400001928E-02 0.  1.
    10030    2    1    2    0    0  0.00000000000E+00  0.00000000000E+00 -0.59916602252E+03  0.24763561847E+04  0.24027775659E+04 0.  0.
        3    1    3    3  502    0 -0.68897240077E+03  0.84916974794E+03 -0.81237615229E+03  0.13622508039E+04  0.10100000352E+00 0. -1.
       -3    1    3    3    0  502  0.68897240077E+03 -0.84916974794E+03  0.21321012977E+03  0.11141053808E+04  0.10100000352E+00 0.  1.
</event>
<event>
 5   0  0.1174210E-05  0.2396802E+04  0.7818609E-02  0.8440702E-01
        2   -1    0    0  501    0  0.00000000000E+00  0.00000000000E+00  0.12970886157E+04  0.12970886157E+04  0.25500000920E-02 0. -1.
       -2   -1    0    0    0  501  0.00000000000E+00  0.00000000000E+00 -0.11072217812E+04  0.11072217812E+04  0.25500000920E-02 0.  1.
    10030    2    1    2    0    0  0.00000000000E+00  0.00000000000E+00  0.18986683456E+03  0.24043103969E+04  0.23968018420E+04 0.  0.
        3    1    3    3  502    0 -0.96428271509E+03 -0.54905143410E+03 -0.35910592043E+03  0.11663000061E+04  0.10100000352E+00 0.  1.
       -3    1    3    3    0  502  0.96428271509E+03  0.54905143410E+03  0.54897275499E+03  0.12380103908E+04  0.10100000352E+00 0. -1.
</event>
<event>
 5   0  0.5196696E-06  0.2368116E+04  0.7818609E-02  0.8451538E-01
        1   -1    0    0  501    0  0.00000000000E+00  0.00000000000E+00  0.17032877946E+04  0.17032877946E+04  0.50400001928E-02 0. -1.
       -1   -1    0    0    0  501  0.00000000000E+00  0.00000000000E+00 -0.82310988214E+03  0.82310988215E+03  0.50400001928E-02 0.  1.
    10030    2    1    2    0    0  0.00000000000E+00  0.00000000000E+00  0.88017791249E+03  0.25263976768E+04  0.23681157201E+04 0.  0.
        1    1    3    3  502    0 -0.67539946150E+03  0.17921640851E+03  0.14598607520E+04  0.16184796474E+04  0.50400001928E-02 0. -1.
       -1    1    3    3    0  502  0.67539946150E+03 -0.17921640851E+03 -0.57968283952E+03  0.90791802941E+03  0.50400001928E-02 0.  1.
</event>
<event>
 5   0  0.5104174E-06  0.2398660E+04  0.7818609E-02  0.8440005E-01
        1   -1    0    0  501    0  0.00000000000E+00  0.00000000000E+00  0.17789202208E+04  0.17789202208E+04  0.50400001928E-02 0. -1.
       -1   -1    0    0    0  501  0.00000000000E+00  0.00000000000E+00 -0.80857616347E+03  0.80857616349E+03  0.50400001928E-02 0.  1.
    10030    2    1    2    0    0  0.00000000000E+00  0.00000000000E+00  0.97034405730E+03  0.25874963843E+04  0.23986600320E+04 0.  0.
        3    1    3    3  502    0  0.14218968374E+03 -0.52345616241E+03 -0.66869560839E+03  0.86103315093E+03  0.10100000352E+00 0.  1.
       -3    1    3    3    0  502 -0.14218968374E+03  0.52345616241E+03  0.16390396657E+04  0.17264632333E+04  0.10100000352E+00 0. -1.
</event>
<event>
 5   0  0.5064437E-06  0.2401041E+04  0.7818609E-02  0.8439114E-01
        1   -1    0    0  501    0  0.00000000000E+00  0.00000000000E+00  0.17868236042E+04  0.17868236042E+04  0.50400001928E-02 0.  1.
       -1   -1    0    0    0  501  0.00000000000E+00  0.00000000000E+00 -0.80659883336E+03  0.80659883337E+03  0.50400001928E-02 0. -1.
    10030    2    1    2    0    0  0.00000000000E+00  0.00000000000E+00  0.98022477085E+03  0.25934224376E+04  0.24010413029E+04 0.  0.
        2    1    3    3  502    0 -0.87357371792E+02 -0.11660588816E+04  0.19643540025E+03  0.11857113866E+04  0.25500000920E-02 0. -1.
       -2    1    3    3    0  502  0.87357371792E+02  0.11660588816E+04  0.78378937060E+03  0.14077110510E+04  0.25500000920E-02 0.  1.
</event>
<event>
 5   0  0.5042742E-06  0.2397566E+04  0.7818609E-02  0.8440416E-01
       -1   -1    0    0    0  501  0.00000000000E+00  0.00000000000E+00  0.83965351992E+03  0.83965351993E+03  0.50400001928E-02 0.  1.
        1   -1    0    0  501    0  0.00000000000E+00  0.00000000000E+00 -0.17115157422E+04  0.17115157422E+04  0.50400001928E-02 0. -1.
    10030    2    1    2    0    0  0.00000000000E+00  0.00000000000E+00 -0.87186222228E+03  0.25511692621E+04  0.23975656132E+04 0.  0.
        5    1    3    3  502    0  0.35181505332E+03  0.10929507830E+04 -0.80259873523E+03  0.14008933098E+04  0.46999998093E+01 0. -1.
       -5    1    3    3    0  502 -0.35181505332E+03 -0.10929507830E+04 -0.69263487045E+02  0.11502759523E+04  0.46999998093E+01 0.  1.
</event>
<event>
 5   0  0.1154897E-05  0.2403543E+04  0.7818609E-02  0.8438178E-01
        2   -1    0    0  501    0  0.00000000000E+00  0.00000000000E+00  0.13508684433E+04  0.13508684433E+04  0.25500000920E-02 0.  1.
       -2   -1    0    0    0  501  0.00000000000E+00  0.00000000000E+00 -0.10691303110E+04  0.10691303110E+04  0.25500000920E-02 0. -1.
    10030    2    1    2    0    0  0.00000000000E+00  0.00000000000E+00  0.28173813226E+03  0.24199987544E+04  0.24035427177E+04 0.  0.
        4    1    3    3  502    0 -0.58963213031E+03 -0.33383108535E+03  0.11402085689E+04  0.13263432573E+04  0.12699999809E+01 0.  1.
       -4    1    3    3    0  502  0.58963213031E+03  0.33383108535E+03 -0.85847043668E+03  0.10936554970E+04  0.12699999809E+01 0. -1.
</event>
<event>
 5   0  0.1168435E-05  0.2406447E+04  0.7818609E-02  0.8437094E-01
        2   -1    0    0  501    0  0.00000000000E+00  0.00000000000E+00  0.13369826871E+04  0.13369826871E+04  0.25500000920E-02 0.  1.
       -2   -1    0    0    0  501  0.00000000000E+00  0.00000000000E+00 -0.10828465680E+04  0.10828465680E+04  0.25500000920E-02 0. -1.
    10030    2    1    2    0    0  0.00000000000E+00  0.00000000000E+00  0.25413611913E+03  0.24198292551E+04  0.24064472686E+04 0.  0.
        1    1    3    3  502    0  0.26577549441E+03 -0.96629877242E+03 -0.54250048557E+03  0.11395949754E+04  0.50400001928E-02 0. -1.
       -1    1    3    3    0  502 -0.26577549441E+03  0.96629877242E+03  0.79663660470E+03  0.12802342797E+04  0.50400001928E-02 0.  1.
</event>
<event>
 5   0  0.5034479E-06  0.2404875E+04  0.7818609E-02  0.8437681E-01
        1   -1    0    0  501    0  0.00000000000E+00  0.00000000000E+00  0.10630441505E+04  0.10630441505E+04  0.50400001928E-02 0. -1.
       -1   -1    0    0    0  501  0.00000000000E+00  0.00000000000E+00 -0.13601092937E+04  0.13601092937E+04  0.50400001928E-02 0.  1.
    10030    2    1    2    0    0  0.00000000000E+00  0.00000000000E+00 -0.29706514324E+03  0.24231534442E+04  0.24048752389E+04 0.  0.
        4    1    3    3  502    0  0.61548024219E+02 -0.87627040606E+03 -0.97588033356E+03  0.13130049589E+04  0.12699999809E+01 0.  1.
       -4    1    3    3    0  502 -0.61548024219E+02  0.87627040606E+03  0.67881519032E+03  0.11101484853E+04  0.12699999809E+01 0. -1.
</event>
<event>
 5   0  0.1169371E-05  0.2400194E+04  0.7818609E-02  0.8439431E-01
        2   -1    0    0  501    0  0.00000000000E+00  0.00000000000E+00  0.11990313904E+04  0.11990313904E+04  0.25500000920E-02 0.  1.
       -2   -1    0    0    0  501  0.00000000000E+00  0.00000000000E+00 -0.12011633973E+04  0.12011633974E+04  0.25500000920E-02 0. -1.
    10030    2    1    2    0    0  0.00000000000E+00  0.00000000000E+00 -0.21320069031E+01  0.24001947878E+04  0.24001938409E+04 0.  0.
        2    1    3    3  502    0  0.71401286073E+03  0.89183071629E+03 -0.36856611670E+03  0.12004238311E+04  0.25500000920E-02 0. -1.
       -2    1    3    3    0  502 -0.71401286073E+03 -0.89183071629E+03  0.36643410980E+03  0.11997709567E+04  0.25500000920E-02 0.  1.
</event>
<event>
 5   0  0.5042742E-06  0.2395899E+04  0.7818609E-02  0.8441041E-01
        1   -1    0    0  501    0  0.00000000000E+00  0.00000000000E+00  0.19602995440E+04  0.19602995440E+04  0.50400001928E-02 0.  1.
       -1   -1    0    0    0  501  0.00000000000E+00  0.00000000000E+00 -0.73207311431E+03  0.73207311433E+03  0.50400001928E-02 0. -1.
    10030    2    1    2    0    0  0.00000000000E+00  0.00000000000E+00  0.12282264297E+04  0.26923726583E+04  0.23958986558E+04 0.  0.
        5    1    3    3  502    0 -0.10468424333E+04 -0.37315493763E+03  0.11165866565E+04  0.15754083722E+04  0.46999998093E+01 0.  1.
       -5    1    3    3    0  502  0.10468424333E+04  0.37315493763E+03  0.11163977315E+03  0.11169642862E+04  0.46999998093E+01 0. -1.
</event>
<event>
 5   0  0.1169371E-05  0.2399533E+04  0.7818609E-02  0.8439678E-01
        2   -1    0    0  501    0  0.00000000000E+00  0.00000000000E+00  0.87332934601E+03  0.87332934601E+03  0.25500000920E-02 0.  1.
       -2   -1    0    0    0  501  0.00000000000E+00  0.00000000000E+00 -0.16482207615E+04  0.16482207615E+04  0.25500000920E-02 0. -1.
    10030    2    1    2    0    0  0.00000000000E+00  0.00000000000E+00 -0.77489141549E+03  0.25215501075E+04  0.23995329210E+04 0.  0.
        2    1    3    3  502    0  0.11484284793E+04 -0.21851339478E+03 -0.10390398661E+03  0.11736405388E+04  0.25500000920E-02 0.  1.
       -2    1    3    3    0  502 -0.11484284793E+04  0.21851339478E+03 -0.67098742888E+03  0.13479095687E+04  0.25500000920E-02 0. -1.
</event>
<event>
 5   0  0.5034479E-06  0.2404436E+04  0.7818609E-02  0.8437845E-01
        1   -1    0    0  501    0  0.00000000000E+00  0.00000000000E+00  0.10072063917E+04  0.10072063918E+04  0.50400001928E-02 0.  1.
       -1   -1    0    0    0  501  0.00000000000E+00  0.00000000000E+00 -0.14349873343E+04  0.14349873344E+04  0.50400001928E-02 0. -1.
    10030    2    1    2    0    0  0.00000000000E+00  0.00000000000E+00 -0.42778094260E+03  0.24421937261E+04  0.24044362460E+04 0.  0.
        4    1    3    3  502    0 -0.45711120095E+03 -0.97235229953E+03  0.33393730552E+03  0.11251379388E+04  0.12699999809E+01 0.  1.
       -4    1    3    3    0  502  0.45711120095E+03  0.97235229953E+03 -0.76171824813E+03  0.13170557873E+04  0.12699999809E+01 0. -1.
</event>
<event>
 5   0  0.5034479E-06  0.2390787E+04  0.7818609E-02  0.8442961E-01
        1   -1    0    0  501    0  0.00000000000E+00  0.00000000000E+00  0.12999018788E+04  0.12999018788E+04  0.50400001928E-02 0.  1.
       -1   -1    0    0    0  501  0.00000000000E+00  0.00000000000E+00 -0.10992871072E+04  0.10992871072E+04  0.50400001928E-02 0. -1.
    10030    2    1    2    0    0  0.00000000000E+00  0.00000000000E+00  0.20061477160E+03  0.23991889859E+04  0.23907867959E+04 0.  0.
        4    1    3    3  502    0 -0.15619232645E+03  0.11514217999E+04  0.38199936464E+03  0.12231489409E+04  0.12699999809E+01 0.  1.
       -4    1    3    3    0  502  0.15619232645E+03 -0.11514217999E+04 -0.18138459304E+03  0.11760400451E+04  0.12699999809E+01 0. -1.
</event>
<event>
 5   0  0.5064437E-06  0.2386630E+04  0.7818609E-02  0.8444526E-01
        1   -1    0    0  501    0  0.00000000000E+00  0.00000000000E+00  0.77367368972E+03  0.77367368973E+03  0.50400001928E-02 0. -1.
       -1   -1    0    0    0  501  0.00000000000E+00  0.00000000000E+00 -0.18405693985E+04  0.18405693985E+04  0.50400001928E-02 0.  1.
    10030    2    1    2    0    0  0.00000000000E+00  0.00000000000E+00 -0.10668957088E+04  0.26142430882E+04  0.23866295211E+04 0.  0.
        2    1    3    3  502    0  0.10606370740E+03  0.10692528627E+04  0.35142105134E+02  0.10750749565E+04  0.25500000920E-02 0.  1.
       -2    1    3    3    0  502 -0.10606370740E+03 -0.10692528627E+04 -0.11020378139E+04  0.15391681317E+04  0.25500000920E-02 0. -1.
</event>
<event>
 5   0  0.1169371E-05  0.2421878E+04  0.7818609E-02  0.8431358E-01
        2   -1    0    0  501    0  0.00000000000E+00  0.00000000000E+00  0.12806887256E+04  0.12806887256E+04  0.25500000920E-02 0. -1.
       -2   -1    0    0    0  501  0.00000000000E+00  0.00000000000E+00 -0.11449879197E+04  0.11449879197E+04  0.25500000920E-02 0.  1.
    10030    2    1    2    0    0  0.00000000000E+00  0.00000000000E+00  0.13570080584E+03  0.24256766453E+04  0.24218778827E+04 0.  0.
        2    1    3    3  502    0  0.11649523007E+04 -0.31478266281E+02 -0.26170730688E+03  0.11944017157E+04  0.25500000920E-02 0.  1.
       -2    1    3    3    0  502 -0.11649523007E+04  0.31478266281E+02  0.39740811272E+03  0.12312749295E+04  0.25500000920E-02 0. -1.
</event>
<event>
 5   0  0.4067750E-06  0.2392525E+04  0.7818609E-02  0.8442307E-01
        3   -1    0    0  501    0  0.00000000000E+00  0.00000000000E+00  0.22107495508E+04  0.22107495532E+04  0.10100000352E+00 0. -1.
       -3   -1    0    0    0  501  0.00000000000E+00  0.00000000000E+00 -0.64731163865E+03  0.64731164653E+03  0.10100000352E+00 0.  1.
    10030    2    1    2    0    0  0.00000000000E+00  0.00000000000E+00  0.15634379122E+04  0.28580611997E+04  0.23925249666E+04 0.  0.
        4    1    3    3  502    0 -0.15445418709E+03 -0.11081286421E+04  0.12874609770E+04  0.17056853647E+04  0.12699999809E+01 0. -1.
       -4    1    3    3    0  502  0.15445418709E+03  0.11081286421E+04  0.27597693523E+03  0.11523758350E+04  0.12699999809E+01 0.  1.
</event>
<event>
 5   0  0.1198313E-05  0.2402822E+04  0.7818609E-02  0.8438448E-01
       -2   -1    0    0    0  501  0.00000000000E+00  0.00000000000E+00  0.68496007714E+03  0.68496007715E+03  0.25500000920E-02 0.  1.
        2   -1    0    0  501    0  0.00000000000E+00  0.00000000000E+00 -0.21072598304E+04  0.21072598304E+04  0.25500000920E-02 0. -1.
    10030    2    1    2    0    0  0.00000000000E+00  0.00000000000E+00 -0.14222997533E+04  0.27922199076E+04  0.24028223871E+04 0.  0.
        5    1    3    3  502    0 -0.91654095805E+03 -0.55507282758E+03 -0.79762164182E+02  0.10744939574E+04  0.46999998093E+01 0.  1.
       -5    1    3    3    0  502  0.91654095805E+03  0.55507282758E+03 -0.13425375891E+04  0.17177259502E+04  0.46999998093E+01 0. -1.
</event>
<event>
 5   0  0.1198313E-05  0.2402922E+04  0.7818609E-02  0.8438410E-01
        2   -1    0    0  501    0  0.00000000000E+00  0.00000000000E+00  0.19774346654E+04  0.19774346654E+04  0.25500000920E-02 0. -1.
       -2   -1    0    0    0  501  0.00000000000E+00  0.00000000000E+00 -0.72999080098E+03  0.72999080099E+03  0.25500000920E-02 0.  1.
    10030    2    1    2    0    0  0.00000000000E+00  0.00000000000E+00  0.12474438644E+04  0.27074254664E+04  0.24029224834E+04 0.  0.
        5    1    3    3  502    0 -0.11191020135E+04  0.13218037154E+03  0.15423425123E+03  0.11373967037E+04  0.46999998093E+01 0.  1.
       -5    1    3    3    0  502  0.11191020135E+04 -0.13218037154E+03  0.10932096132E+04  0.15700287627E+04  0.46999998093E+01 0. -1.
</event>
<event>
 5   0  0.1154897E-05  0.2392178E+04  0.7818609E-02  0.8442438E-01
       -2   -1    0    0    0  501  0.00000000000E+00  0.00000000000E+00  0.53590366533E+03  0.53590366533E+03  0.25500000920E-02 0.  1.
        2   -1    0    0  501    0  0.00000000000E+00  0.00000000000E+00 -0.26695636555E+04  0.26695636555E+04  0.25500000920E-02 0. -1.
    10030    2    1    2    0    0  0.00000000000E+00  0.00000000000E+00 -0.21336599902E+04  0.32054673209E+04  0.23921780434E+04 0.  0.
        4    1    3    3  502    0  0.16655869426E+03 -0.11436593273E+04 -0.14796845027E+04  0.18775426216E+04  0.12699999809E+01 0.  1.
       -4    1    3    3    0  502 -0.16655869426E+03  0.11436593273E+04 -0.65397548750E+03  0.13279246992E+04  0.12699999809E+01 0. -1.
</event>
<event>
 5   0  0.5034479E-06  0.2407486E+04  0.7818609E-02  0.8436706E-01
        1   -1    0    0  501    0  0.00000000000E+00  0.00000000000E+00  0.10958307999E+04  0.10958307999E+04  0.50400001928E-02 0.  1.
       -1   -1    0    0    0  501  0.00000000000E+00  0.00000000000E+00 -0.13222820719E+04  0.13222820719E+04  0.50400001928E-02 0. -1.
    10030    2    1    2    0    0  0.00000000000E+00  0.00000000000E+00 -0.22645127205E+03  0.24181128718E+04  0.24074861748E+04 0.  0.
        4    1    3    3  502    0  0.23641305038E+03  0.34684856351E+03  0.10199389112E+04  0.11029379184E+04  0.12699999809E+01 0.  1.
       -4    1    3    3    0  502 -0.23641305038E+03 -0.34684856351E+03 -0.12463901832E+04  0.13151749534E+04  0.12699999809E+01 0. -1.
</event>
<event>
 5   0  0.5064437E-06  0.2415064E+04  0.7818609E-02  0.8433885E-01
       -1   -1    0    0    0  501  0.00000000000E+00  0.00000000000E+00  0.98669149500E+03  0.98669149501E+03  0.50400001928E-02 0. -1.
        1   -1    0    0  501    0  0.00000000000E+00  0.00000000000E+00 -0.14778002402E+04  0.14778002402E+04  0.50400001928E-02 0.  1.
    10030    2    1    2    0    0  0.00000000000E+00  0.00000000000E+00 -0.49110874523E+03  0.24644917352E+04  0.24150635009E+04 0.  0.
        2    1    3    3  502    0  0.35090099163E+03 -0.30888296647E+03 -0.13817113053E+04  0.14586522287E+04  0.25500000920E-02 0.  1.
       -2    1    3    3    0  502 -0.35090099163E+03  0.30888296647E+03  0.89060256011E+03  0.10058395066E+04  0.25500000920E-02 0. -1.
</event>
<event>
 5   0  0.1169371E-05  0.2390772E+04  0.7818609E-02  0.8442966E-01
       -2   -1    0    0    0  501  0.00000000000E+00  0.00000000000E+00  0.90128985844E+03  0.90128985844E+03  0.25500000920E-02 0. -1.
        2   -1    0    0  501    0  0.00000000000E+00  0.00000000000E+00 -0.15854478350E+04  0.15854478350E+04  0.25500000920E-02 0.  1.
    10030    2    1    2    0    0  0.00000000000E+00  0.00000000000E+00 -0.68415797658E+03  0.24867376935E+04  0.23907723060E+04 0.  0.
        2    1    3    3  502    0 -0.21167078097E+03 -0.47263523553E+03 -0.14627106240E+04  0.15516800427E+04  0.25500000920E-02 0.  1.
       -2    1    3    3    0  502  0.21167078097E+03  0.47263523553E+03  0.77855264743E+03  0.93505765074E+03  0.25500000920E-02 0. -1.
</event>
<event>
 5   0  0.5064437E-06  0.2399602E+04  0.7818609E-02  0.8439652E-01
        1   -1    0    0  501    0  0.00000000000E+00  0.00000000000E+00  0.16564131831E+04  0.16564131831E+04  0.50400001928E-02 0. -1.
       -1   -1    0    0    0  501  0.00000000000E+00  0.00000000000E+00 -0.86906022540E+03  0.86906022541E+03  0.50400001928E-02 0.  1.
    10030    2    1    2    0    0  0.00000000000E+00  0.00000000000E+00  0.78735295766E+03  0.25254734085E+04  0.23996023123E+04 0.  0.
        2    1    3    3  502    0  0.15461957657E+03 -0.19336831116E+03  0.16292354525E+04  0.16479401314E+04  0.25500000920E-02 0. -1.
       -2    1    3    3    0  502 -0.15461957657E+03  0.19336831116E+03 -0.84188249482E+03  0.87753327703E+03  0.25500000920E-02 0.  1.
</event>
<event>
 5   0  0.1174210E-05  0.2404459E+04  0.7818609E-02  0.8437836E-01
       -2   -1    0    0    0  501  0.00000000000E+00  0.00000000000E+00  0.16583152553E+04  0.16583152553E+04  0.25500000920E-02 0.  1.
        2   -1    0    0  501    0  0.00000000000E+00  0.00000000000E+00 -0.87158066232E+03  0.87158066233E+03  0.25500000920E-02 0. -1.
    10030    2    1    2    0    0  0.00000000000E+00  0.00000000000E+00  0.78673459302E+03  0.25298959177E+04  0.24044587820E+04 0.  0.
        3    1    3    3  502    0 -0.28027736249E+03 -0.60944599941E+03  0.14431002445E+04  0.15913887495E+04  0.10100000352E+00 0.  1.
       -3    1    3    3    0  502  0.28027736249E+03  0.60944599941E+03 -0.65636565147E+03  0.93850716819E+03  0.10100000352E+00 0. -1.
</event>
<event>
 5   0  0.1198313E-05  0.2402817E+04  0.7818609E-02  0.8438450E-01
       -2   -1    0    0    0  501  0.00000000000E+00  0.00000000000E+00  0.91799796595E+03  0.91799796595E+03  0.25500000920E-02 0. -1.
        2   -1    0    0  501    0  0.00000000000E+00  0.00000000000E+00 -0.15723148535E+04  0.15723148535E+04  0.25500000920E-02 0.  1.
    10030    2    1    2    0    0  0.00000000000E+00  0.00000000000E+00 -0.65431688753E+03  0.24903128194E+04  0.24028165451E+04 0.  0.
        5    1    3    3  502    0 -0.43828104696E+03  0.10167274968E+04  0.15623141013E+03  0.11181482113E+04  0.46999998093E+01 0. -1.
       -5    1    3    3    0  502  0.43828104696E+03 -0.10167274968E+04 -0.81054829767E+03  0.13721646081E+04  0.46999998093E+01 0.  1.
</event>
<event>
 5   0  0.5042742E-06  0.2408220E+04  0.7818609E-02  0.8436433E-01
        1   -1    0    0  501    0  0.00000000000E+00  0.00000000000E+00  0.20088887671E+04  0.20088887671E+04  0.50400001928E-02 0. -1.
       -1   -1    0    0    0  501  0.00000000000E+00  0.00000000000E+00 -0.72173261216E+03  0.72173261218E+03  0.50400001928E-02 0.  1.
    10030    2    1    2    0    0  0.00000000000E+00  0.00000000000E+00  0.12871561549E+04  0.27306213793E+04  0.24082197054E+04 0.  0.
        5    1    3    3  502    0 -0.91109465897E+03  0.46310886405E+03 -0.78278775428E+02  0.10250429036E+04  0.46999998093E+01 0.  1.
       -5    1    3    3    0  502  0.91109465897E+03 -0.46310886405E+03  0.13654349303E+04  0.17055784756E+04  0.46999998093E+01 0. -1.
</event>
<event>
 5   0  0.5104174E-06  0.2404994E+04  0.7818609E-02  0.8437636E-01
       -1   -1    0    0    0  501  0.00000000000E+00  0.00000000000E+00  0.84994393309E+03  0.84994393311E+03  0.50400001928E-02 0. -1.
        1   -1    0    0  501    0  0.00000000000E+00  0.00000000000E+00 -0.17012880681E+04  0.17012880681E+04  0.50400001928E-02 0.  1.
    10030    2    1    2    0    0  0.00000000000E+00  0.00000000000E+00 -0.85134413501E+03  0.25512320012E+04  0.24049943634E+04 0.  0.
        3    1    3    3  502    0 -0.72955629180E+03  0.23620860477E+03  0.55690705397E+03  0.94773011181E+03  0.10100000352E+00 0. -1.
       -3    1    3    3    0  502  0.72955629180E+03 -0.23620860477E+03 -0.14082511890E+04  0.16035018894E+04  0.10100000352E+00 0.  1.
</event>
<event>
 5   0  0.1174210E-05  0.2396057E+04  0.7818609E-02  0.8440981E-01
        2   -1    0    0  501    0  0.00000000000E+00  0.00000000000E+00  0.10865418790E+04  0.10865418790E+04  0.25500000920E-02 0.  1.
       -2   -1    0    0    0  501  0.00000000000E+00  0.00000000000E+00 -0.13209548556E+04  0.13209548556E+04  0.25500000920E-02 0. -1.
    10030    2    1    2    0    0  0.00000000000E+00  0.00000000000E+00 -0.23441297663E+03  0.24074967346E+04  0.23960574041E+04 0.  0.
        3    1    3    3  502    0 -0.11789086531E+04 -0.65261498480E+02  0.86710913531E+02  0.11838933517E+04  0.10100000352E+00 0.  1.
       -3    1    3    3    0  502  0.11789086531E+04  0.65261498480E+02 -0.32112389016E+03  0.12236033829E+04  0.10100000352E+00 0. -1.
</event>
<event>
 5   0  0.1168435E-05  0.2384936E+04  0.7818609E-02  0.8445165E-01
        2   -1    0    0  501    0  0.00000000000E+00  0.00000000000E+00  0.18769611931E+04  0.18769611931E+04  0.25500000920E-02 0. -1.
       -2   -1    0    0    0  501  0.00000000000E+00  0.00000000000E+00 -0.75759702170E+03  0.75759702170E+03  0.25500000920E-02 0.  1.
    10030    2    1    2    0    0  0.00000000000E+00  0.00000000000E+00  0.11193641714E+04  0.26345582148E+04  0.23849362337E+04 0.  0.
        1    1    3    3  502    0  0.17383062778E+03  0.17038049833E+03 -0.72986294165E+03  0.76938060476E+03  0.50400001928E-02 0.  1.
       -1    1    3    3    0  502 -0.17383062778E+03 -0.17038049833E+03  0.18492271130E+04  0.18651776100E+04  0.50400001928E-02 0. -1.
</event>
<event>
 5   0  0.1168435E-05  0.2398759E+04  0.7818609E-02  0.8439968E-01
       -2   -1    0    0    0  501  0.00000000000E+00  0.00000000000E+00  0.18974731102E+04  0.18974731102E+04  0.25500000920E-02 0. -1.
        2   -1    0    0  501    0  0.00000000000E+00  0.00000000000E+00 -0.75811947717E+03  0.75811947717E+03  0.25500000920E-02 0.  1.
    10030    2    1    2    0    0  0.00000000000E+00  0.00000000000E+00  0.11393536330E+04  0.26555925874E+04  0.23987591144E+04 0.  0.
        1    1    3    3  502    0  0.25557482943E+03  0.76514084342E+03 -0.41290710851E+03  0.90622915645E+03  0.50400001928E-02 0.  1.
       -1    1    3    3    0  502 -0.25557482943E+03 -0.76514084342E+03  0.15522607416E+04  0.17493634309E+04  0.50400001928E-02 0. -1.
</event>
<event>
 5   0  0.1169371E-05  0.2401217E+04  0.7818609E-02  0.8439048E-01
        2   -1    0    0  501    0  0.00000000000E+00  0.00000000000E+00  0.23190460185E+04  0.23190460185E+04  0.25500000920E-02 0. -1.
       -2   -1    0    0    0  501  0.00000000000E+00  0.00000000000E+00 -0.62157493030E+03  0.62157493031E+03  0.25500000920E-02 0.  1.
    10030    2    1    2    0    0  0.00000000000E+00  0.00000000000E+00  0.16974710882E+04  0.29406209488E+04  0.24012170808E+04 0.  0.
        2    1    3    3  502    0  0.15026723660E+03 -0.30739391847E+03  0.22580746549E+04  0.22838503477E+04  0.25500000920E-02 0. -1.
       -2    1    3    3    0  502 -0.15026723660E+03  0.30739391847E+03 -0.56060356670E+03  0.65677060113E+03  0.25500000920E-02 0.  1.
</event>
<event>
 5   0  0.5196696E-06  0.2378513E+04  0.7818609E-02  0.8447592E-01
        1   -1    0    0  501    0  0.00000000000E+00  0.00000000000E+00  0.15498435534E+04  0.15498435534E+04  0.50400001928E-02 0.  1.
       -1   -1    0    0    0  501  0.00000000000E+00  0.00000000000E+00 -0.91256411600E+03  0.91256411601E+03  0.50400001928E-02 0. -1.
    10030    2    1    2    0    0  0.00000000000E+00  0.00000000000E+00  0.63727943741E+03  0.24624076694E+04  0.23785134957E+04 0.  0.
        1    1    3    3  502    0  0.63709678295E+03  0.27863295563E+02  0.13578704430E+04  0.15001602628E+04  0.50400001928E-02 0.  1.
       -1    1    3    3    0  502 -0.63709678295E+03 -0.27863295563E+02 -0.72059100562E+03  0.96224740659E+03  0.50400001928E-02 0. -1.
</event>
<event>
 5   0  0.1168435E-05  0.2409127E+04  0.7818609E-02  0.8436094E-01
       -2   -1    0    0    0  501  0.00000000000E+00  0.00000000000E+00  0.14128438525E+04  0.14128438525E+04  0.25500000920E-02 0.  1.
        2   -1    0    0  501    0  0.00000000000E+00  0.00000000000E+00 -0.10269880102E+04  0.10269880102E+04  0.25500000920E-02 0. -1.
    10030    2    1    2    0    0  0.00000000000E+00  0.00000000000E+00  0.38585584236E+03  0.24398318627E+04  0.24091273912E+04 0.  0.
        1    1    3    3  502    0  0.87969617814E+03 -0.78860981674E+03  0.43087535868E+03  0.12575469707E+04  0.50400001928E-02 0. -1.
       -1    1    3    3    0  502 -0.87969617814E+03  0.78860981674E+03 -0.45019516320E+02  0.11822848920E+04  0.50400001928E-02 0.  1.
</event>
<event>
 5   0  0.1154897E-05  0.2400078E+04  0.7818609E-02  0.8439474E-01
       -2   -1    0    0    0  501  0.00000000000E+00  0.00000000000E+00  0.15266383942E+04  0.15266383942E+04  0.25500000920E-02 0. -1.
        2   -1    0    0  501    0  0.00000000000E+00  0.00000000000E+00 -0.94331044286E+03  0.94331044286E+03  0.25500000920E-02 0.  1.
    10030    2    1    2    0    0  0.00000000000E+00  0.00000000000E+00  0.58332795136E+03  0.24699488371E+04  0.24000782818E+04 0.  0.
        4    1    3    3  502    0 -0.42358575024E+03 -0.90343274795E+03  0.97776339928E+03  0.13970105568E+04  0.12699999809E+01 0. -1.
       -4    1    3    3    0  502  0.42358575024E+03  0.90343274795E+03 -0.39443544792E+03  0.10729382803E+04  0.12699999809E+01 0.  1.
</event>
<event>
 5   0  0.1174210E-05  0.2402489E+04  0.7818609E-02  0.8438572E-01
       -2   -1    0    0    0  501  0.00000000000E+00  0.00000000000E+00  0.10267512330E+04  0.10267512330E+04  0.25500000920E-02 0.  1.
        2   -1    0    0  501    0  0.00000000000E+00  0.00000000000E+00 -0.14053926374E+04  0.14053926374E+04  0.25500000920E-02 0. -1.
    10030    2    1    2    0    0  0.00000000000E+00  0.00000000000E+00 -0.37864140441E+03  0.24321438704E+04  0.24024892285E+04 0.  0.
        3    1    3    3  502    0 -0.11857435985E+04 -0.19234113241E+03 -0.19172072715E+03  0.12164455763E+04  0.10100000352E+00 0.  1.
       -3    1    3    3    0  502  0.11857435985E+04  0.19234113241E+03 -0.18692067727E+03  0.12156982941E+04  0.10100000352E+00 0. -1.
</event>
<event>
 5   0  0.5042742E-06  0.2399986E+04  0.7818609E-02  0.8439509E-01
        1   -1    0    0  501    0  0.00000000000E+00  0.00000000000E+00  0.21864562487E+04  0.21864562487E+04  0.50400001928E-02 0. -1.
       -1   -1    0    0    0  501  0.00000000000E+00  0.00000000000E+00 -0.65859202252E+03  0.65859202254E+03  0.50400001928E-02 0.  1.
    10030    2    1    2    0    0  0.00000000000E+00  0.00000000000E+00  0.15278642262E+04  0.28450482713E+04  0.23999855358E+04 0.  0.
        5    1    3    3  502    0  0.19392202248E+01  0.11852358261E+04  0.98625525227E+03  0.15419173897E+04  0.46999998093E+01 0. -1.
       -5    1    3    3    0  502 -0.19392202248E+01 -0.11852358261E+04  0.54160897392E+03  0.13031308816E+04  0.46999998093E+01 0.  1.
</event>
<event>
 5   0  0.5064437E-06  0.2389598E+04  0.7818609E-02  0.8443408E-01
        1   -1    0    0  501    0  0.00000000000E+00  0.00000000000E+00  0.15310650143E+04  0.15310650143E+04  0.50400001928E-02 0.  1.
       -1   -1    0    0    0  501  0.00000000000E+00  0.00000000000E+00 -0.93238669944E+03  0.93238669945E+03  0.50400001928E-02 0. -1.
    10030    2    1    2    0    0  0.00000000000E+00  0.00000000000E+00  0.59867831486E+03  0.24634517138E+04  0.23895980041E+04 0.  0.
        2    1    3    3  502    0  0.18283984500E+03 -0.47257236816E+03 -0.81613274621E+03  0.96063922027E+03  0.25500000920E-02 0. -1.
       -2    1    3    3    0  502 -0.18283984500E+03  0.47257236816E+03  0.14148110611E+04  0.15028124935E+04  0.25500000920E-02 0.  1.
</event>
<event>
 5   0  0.1168435E-05  0.2405211E+04  0.7818609E-02  0.8437555E-01
        2   -1    0    0  501    0  0.00000000000E+00  0.00000000000E+00  0.73879327172E+03  0.73879327172E+03  0.25500000920E-02 0. -1.
       -2   -1    0    0    0  501  0.00000000000E+00  0.00000000000E+00 -0.19575974404E+04  0.19575974404E+04  0.25500000920E-02 0.  1.
    10030    2    1    2    0    0  0.00000000000E+00  0.00000000000E+00 -0.12188041687E+04  0.26963907121E+04  0.24052108579E+04 0.  0.
        1    1    3    3  502    0  0.95983771153E+03 -0.11278167169E+03 -0.14117659506E+04  0.17108744072E+04  0.50400001928E-02 0. -1.
       -1    1    3    3    0  502 -0.95983771153E+03  0.11278167169E+03  0.19296178193E+03  0.98551630491E+03  0.50400001928E-02 0.  1.
</event>
<event>
 5   0  0.1154897E-05  0.2405509E+04  0.7818609E-02  0.8437444E-01
        2   -1    0    0  501    0  0.00000000000E+00  0.00000000000E+00  0.11073508606E+04  0.11073508606E+04  0.25500000920E-02 0. -1.
       -2   -1    0    0    0  501  0.00000000000E+00  0.00000000000E+00 -0.13063773324E+04  0.13063773324E+04  0.25500000920E-02 0.  1.
    10030    2    1    2    0    0  0.00000000000E+00  0.00000000000E+00 -0.19902647180E+03  0.24137281930E+04  0.24055087306E+04 0.  0.
        4    1    3    3  502    0  0.24558964330E+02  0.11750177749E+04  0.15698991972E+03  0.11857138617E+04  0.12699999809E+01 0.  1.
       -4    1    3    3    0  502 -0.24558964330E+02 -0.11750177749E+04 -0.35601639152E+03  0.12280143313E+04  0.12699999809E+01 0. -1.
</event>
<event>
 5   0  0.1174210E-05  0.2400461E+04  0.7818609E-02  0.8439331E-01
        2   -1    0    0  501    0  0.00000000000E+00  0.00000000000E+00  0.20655295953E+04  0.20655295953E+04  0.25500000920E-02 0.  1.
       -2   -1    0    0    0  501  0.00000000000E+00  0.00000000000E+00 -0.69742548756E+03  0.69742548756E+03  0.25500000920E-02 0. -1.
    10030    2    1    2    0    0  0.00000000000E+00  0.00000000000E+00  0.13681041077E+04  0.27629550828E+04  0.24004607766E+04 0.  0.
        3    1    3    3  502    0 -0.85682298089E+03 -0.79447648548E+03  0.99971957908E+03  0.15377833897E+04  0.10100000352E+00 0.  1.
       -3    1    3    3    0  502  0.85682298089E+03  0.79447648548E+03  0.36838452861E+03  0.12251716931E+04  0.10100000352E+00 0. -1.
</event>
<event>
 5   0  0.5196696E-06  0.2386424E+04  0.7818609E-02  0.8444604E-01
        1   -1    0    0  501    0  0.00000000000E+00  0.00000000000E+00  0.24335409257E+04  0.24335409257E+04  0.50400001928E-02 0.  1.
       -1   -1    0    0    0  501  0.00000000000E+00  0.00000000000E+00 -0.58505502039E+03  0.58505502041E+03  0.50400001928E-02 0. -1.
    10030    2    1    2    0    0  0.00000000000E+00  0.00000000000E+00  0.18484859053E+04  0.30185959461E+04  0.23864243847E+04 0.  0.
        1    1    3    3  502    0 -0.64895458386E+03 -0.45815801976E+03 -0.20195043157E+03  0.81965529329E+03  0.50400001928E-02 0. -1.
       -1    1    3    3    0  502  0.64895458386E+03  0.45815801976E+03  0.20504363369E+04  0.21989406528E+04  0.50400001928E-02 0.  1.
</event>
<event>
 5   0  0.1169371E-05  0.2449384E+04  0.7818609E-02  0.8421243E-01
        2   -1    0    0  501    0  0.00000000000E+00  0.00000000000E+00  0.20617372171E+04  0.20617372171E+04  0.25500000920E-02 0.  1.
       -2   -1    0    0    0  501  0.00000000000E+00  0.00000000000E+00 -0.72747900313E+03  0.72747900313E+03  0.25500000920E-02 0. -1.
    10030    2    1    2    0    0  0.00000000000E+00  0.00000000000E+00  0.13342582140E+04  0.27892162202E+04  0.24493840331E+04 0.  0.
        2    1    3    3  502    0  0.32050274664E+03 -0.34958899716E+03  0.19529175020E+04  0.20096818771E+04  0.25500000920E-02 0.  1.
       -2    1    3    3    0  502 -0.32050274664E+03  0.34958899716E+03 -0.61865928799E+03  0.77953434316E+03  0.25500000920E-02 0. -1.
</event>
<event>
 5   0  0.5196696E-06  0.2397755E+04  0.7818609E-02  0.8440345E-01
        1   -1    0    0  501    0  0.00000000000E+00  0.00000000000E+00  0.18800798807E+04  0.18800798807E+04  0.50400001928E-02 0.  1.
       -1   -1    0    0    0  501  0.00000000000E+00  0.00000000000E+00 -0.76449256308E+03  0.76449256310E+03  0.50400001928E-02 0. -1.
    10030    2    1    2    0    0  0.00000000000E+00  0.00000000000E+00  0.11155873176E+04  0.26445724438E+04  0.23977548555E+04 0.  0.
        1    1    3    3  502    0 -0.10158832901E+04 -0.34566360067E+03  0.11474317431E+04  0.15710193471E+04  0.50400001928E-02 0. -1.
       -1    1    3    3    0  502  0.10158832901E+04  0.34566360067E+03 -0.31844425484E+02  0.10735530967E+04  0.50400001928E-02 0.  1.
</event>
<event>
 5   0  0.5064437E-06  0.2399001E+04  0.7818609E-02  0.8439878E-01
       -1   -1    0    0    0  501  0.00000000000E+00  0.00000000000E+00  0.14419538349E+04  0.14419538349E+04  0.50400001928E-02 0. -1.
        1   -1    0    0  501    0  0.00000000000E+00  0.00000000000E+00 -0.99781362824E+03  0.99781362826E+03  0.50400001928E-02 0.  1.
    10030    2    1    2    0    0  0.00000000000E+00  0.00000000000E+00  0.44414020666E+03  0.24397674632E+04  0.23990007818E+04 0.  0.
        2    1    3    3  502    0 -0.19562775865E+03 -0.70238996656E+03  0.11907150393E+04  0.13962178161E+04  0.25500000920E-02 0. -1.
       -2    1    3    3    0  502  0.19562775865E+03  0.70238996656E+03 -0.74657483269E+03  0.10435496471E+04  0.25500000920E-02 0.  1.
</event>
<event>
 5   0  0.1198313E-05  0.2388245E+04  0.7818609E-02  0.8443918E-01
       -2   -1    0    0    0  501  0.00000000000E+00  0.00000000000E+00  0.71596795658E+03  0.71596795659E+03  0.25500000920E-02 0.  1.
        2   -1    0    0  501    0  0.00000000000E+00  0.00000000000E+00 -0.19916092897E+04  0.19916092897E+04  0.25500000920E-02 0. -1.
    10030    2    1    2    0    0  0.00000000000E+00  0.00000000000E+00 -0.12756413331E+04  0.27075772463E+04  0.23882449066E+04 0.  0.
        5    1    3    3  502    0  0.41970608007E+03 -0.49759107738E+03  0.49711101489E+03  0.81907968175E+03  0.46999998093E+01 0.  1.
       -5    1    3    3    0  502 -0.41970608007E+03  0.49759107738E+03 -0.17727523480E+04  0.18884975645E+04  0.46999998093E+01 0. -1.
</event>
<event>
 5   0  0.5196696E-06  0.2396959E+04  0.7818609E-02  0.8440643E-01
       -1   -1    0    0    0  501  0.00000000000E+00  0.00000000000E+00  0.14219690633E+04  0.14219690633E+04  0.50400001928E-02 0.  1.
        1   -1    0    0  501    0  0.00000000000E+00  0.00000000000E+00 -0.10101158610E+04  0.10101158610E+04  0.50400001928E-02 0. -1.
    10030    2    1    2    0    0  0.00000000000E+00  0.00000000000E+00  0.41185320229E+03  0.24320849244E+04  0.23969593278E+04 0.  0.
        1    1    3    3  502    0  0.25443843177E+03  0.87301415610E+03  0.99804661309E+03  0.13501813486E+04  0.50400001928E-02 0.  1.
       -1    1    3    3    0  502 -0.25443843177E+03 -0.87301415610E+03 -0.58619341080E+03  0.10819035757E+04  0.50400001928E-02 0. -1.
</event>
<event>
 5   0  0.1154897E-05  0.2405160E+04  0.7818609E-02  0.8437574E-01
        2   -1    0    0  501    0  0.00000000000E+00  0.00000000000E+00  0.16218116760E+04  0.16218116760E+04  0.25500000920E-02 0. -1.
       -2   -1    0    0    0  501  0.00000000000E+00  0.00000000000E+00 -0.89171793152E+03  0.89171793152E+03  0.25500000920E-02 0.  1.
    10030    2    1    2    0    0  0.00000000000E+00  0.00000000000E+00  0.73009374450E+03  0.25135296075E+04  0.24051599141E+04 0.  0.
        4    1    3    3  502    0  0.11388116653E+04  0.36522878938E+03  0.23321688708E+03  0.12184727354E+04  0.12699999809E+01 0.  1.
       -4    1    3    3    0  502 -0.11388116653E+04 -0.36522878938E+03  0.49687685741E+03  0.12950568721E+04  0.12699999809E+01 0. -1.
</event>
<event>
 5   0  0.4067750E-06  0.2404014E+04  0.7818609E-02  0.8438002E-01
       -3   -1    0    0    0  501  0.00000000000E+00  0.00000000000E+00  0.51654221250E+03  0.51654222237E+03  0.10100000352E+00 0. -1.
        3   -1    0    0  501    0  0.00000000000E+00  0.00000000000E+00 -0.27971013336E+04  0.27971013354E+04  0.10100000352E+00 0.  1.
    10030    2    1    2    0    0  0.00000000000E+00  0.00000000000E+00 -0.22805591211E+04  0.33136435578E+04  0.24040140855E+04 0.  0.
        4    1    3    3  502    0 -0.62439827099E+03 -0.49218790497E+03  0.10232561948E+03  0.80161978513E+03  0.12699999809E+01 0. -1.
       -4    1    3    3    0  502  0.62439827099E+03  0.49218790497E+03 -0.23828847406E+04  0.25120237727E+04  0.12699999809E+01 0.  1.
</event>
<event>
 5   0  0.1174210E-05  0.2395272E+04  0.7818609E-02  0.8441276E-01
        2   -1    0    0  501    0  0.00000000000E+00  0.00000000000E+00  0.21074426545E+04  0.21074426545E+04  0.25500000920E-02 0.  1.
       -2   -1    0    0    0  501  0.00000000000E+00  0.00000000000E+00 -0.68060314604E+03  0.68060314604E+03  0.25500000920E-02 0. -1.
    10030    2    1    2    0    0  0.00000000000E+00  0.00000000000E+00  0.14268395085E+04  0.27880458006E+04  0.23952720937E+04 0.  0.
        3    1    3    3  502    0 -0.92646831254E+03 -0.71715542821E+03  0.10024913575E+04  0.15419612104E+04  0.10100000352E+00 0.  1.
       -3    1    3    3    0  502  0.92646831254E+03  0.71715542821E+03  0.42434815095E+03  0.12460845901E+04  0.10100000352E+00 0. -1.
</event>
<event>
 5   0  0.1174210E-05  0.2400458E+04  0.7818609E-02  0.8439332E-01
        2   -1    0    0  501    0  0.00000000000E+00  0.00000000000E+00  0.17687609041E+04  0.17687609041E+04  0.25500000920E-02 0.  1.
       -2   -1    0    0    0  501  0.00000000000E+00  0.00000000000E+00 -0.81444028739E+03  0.81444028739E+03  0.25500000920E-02 0. -1.
    10030    2    1    2    0    0  0.00000000000E+00  0.00000000000E+00  0.95432061672E+03  0.25832011915E+04  0.24004584055E+04 0.  0.
        3    1    3    3  502    0 -0.77341762176E+03 -0.87128172447E+03  0.78764424014E+03  0.14063037084E+04  0.10100000352E+00 0.  1.
       -3    1    3    3    0  502  0.77341762176E+03  0.87128172447E+03  0.16667637659E+03  0.11768974831E+04  0.10100000352E+00 0. -1.
</event>
<event>
 5   0  0.5104174E-06  0.2385662E+04  0.7818609E-02  0.8444891E-01
        1   -1    0    0  501    0  0.00000000000E+00  0.00000000000E+00  0.10433834701E+04  0.10433834702E+04  0.50400001928E-02 0. -1.
       -1   -1    0    0    0  501  0.00000000000E+00  0.00000000000E+00 -0.13636841087E+04  0.13636841087E+04  0.50400001928E-02 0.  1.
    10030    2    1    2    0    0  0.00000000000E+00  0.00000000000E+00 -0.32030063854E+03  0.24070675789E+04  0.23856617175E+04 0.  0.
        3    1    3    3  502    0  0.10886702045E+04 -0.48403792312E+03 -0.10175248013E+03  0.11957629793E+04  0.10100000352E+00 0. -1.
       -3    1    3    3    0  502 -0.10886702045E+04  0.48403792312E+03 -0.21854815841E+03  0.12113045996E+04  0.10100000352E+00 0.  1.
</event>
<event>
 5   0  0.1169371E-05  0.2341383E+04  0.7818609E-02  0.8461781E-01
       -2   -1    0    0    0  501  0.00000000000E+00  0.00000000000E+00  0.12315694569E+04  0.12315694569E+04  0.25500000920E-02 0.  1.
        2   -1    0    0  501    0  0.00000000000E+00  0.00000000000E+00 -0.11128232781E+04  0.11128232782E+04  0.25500000920E-02 0. -1.
    10030    2    1    2    0    0  0.00000000000E+00  0.00000000000E+00  0.11874617877E+03  0.23443927351E+04  0.23413834887E+04 0.  0.
        2    1    3    3  502    0  0.28432451922E+03 -0.10355554158E+04  0.52613067530E+03  0.11958381742E+04  0.25500000920E-02 0.  1.
       -2    1    3    3    0  502 -0.28432451922E+03  0.10355554158E+04 -0.40738449653E+03  0.11485545609E+04  0.25500000920E-02 0. -1.
</event>
<event>
 5   0  0.1154897E-05  0.2407562E+04  0.7818609E-02  0.8436678E-01
       -2   -1    0    0    0  501  0.00000000000E+00  0.00000000000E+00  0.78091030799E+03  0.78091030800E+03  0.25500000920E-02 0. -1.
        2   -1    0    0  501    0  0.00000000000E+00  0.00000000000E+00 -0.18556405103E+04  0.18556405103E+04  0.25500000920E-02 0.  1.
    10030    2    1    2    0    0  0.00000000000E+00  0.00000000000E+00 -0.10747302023E+04  0.26365508183E+04  0.24075620884E+04 0.  0.
        4    1    3    3  502    0  0.55626567702E+03 -0.21278172424E+02 -0.17062162187E+04  0.17947310835E+04  0.12699999809E+01 0.  1.
       -4    1    3    3    0  502 -0.55626567702E+03  0.21278172424E+02  0.63148601644E+03  0.84181973481E+03  0.12699999809E+01 0. -1.
</event>
<event>
 5   0  0.1154897E-05  0.2402821E+04  0.7818609E-02  0.8438448E-01
       -2   -1    0    0    0  501  0.00000000000E+00  0.00000000000E+00  0.87625190179E+03  0.87625190179E+03  0.25500000920E-02 0.  1.
        2   -1    0    0  501    0  0.00000000000E+00  0.00000000000E+00 -0.16472286259E+04  0.16472286259E+04  0.25500000920E-02 0. -1.
    10030    2    1    2    0    0  0.00000000000E+00  0.00000000000E+00 -0.77097672411E+03  0.25234805277E+04  0.24028210222E+04 0.  0.
        4    1    3    3  502    0  0.41189542738E+03 -0.42924813967E+02  0.79892281025E+03  0.89987757634E+03  0.12699999809E+01 0.  1.
       -4    1    3    3    0  502 -0.41189542738E+03  0.42924813967E+02 -0.15698995344E+04  0.16236029514E+04  0.12699999809E+01 0. -1.
</event>
<event>
 5   0  0.5034479E-06  0.2411900E+04  0.7818609E-02  0.8435062E-01
        1   -1    0    0  501    0  0.00000000000E+00  0.00000000000E+00  0.14515682248E+04  0.14515682249E+04  0.50400001928E-02 0. -1.
       -1   -1    0    0    0  501  0.00000000000E+00  0.00000000000E+00 -0.10018923738E+04  0.10018923738E+04  0.50400001928E-02 0.  1.
    10030    2    1    2    0    0  0.00000000000E+00  0.00000000000E+00  0.44967585101E+03  0.24534605987E+04  0.24118997779E+04 0.  0.
        4    1    3    3  502    0  0.12352015804E+03  0.17462435227E+03  0.14321176613E+04  0.14480032812E+04  0.12699999809E+01 0. -1.
       -4    1    3    3    0  502 -0.12352015804E+03 -0.17462435227E+03 -0.98244181025E+03  0.10054573175E+04  0.12699999809E+01 0.  1.
</event>
<event>
 5   0  0.5104174E-06  0.2409811E+04  0.7818609E-02  0.8435840E-01
        1   -1    0    0  501    0  0.00000000000E+00  0.00000000000E+00  0.17332565459E+04  0.17332565459E+04  0.50400001928E-02 0. -1.
       -1   -1    0    0    0  501  0.00000000000E+00  0.00000000000E+00 -0.83761225366E+03  0.83761225367E+03  0.50400001928E-02 0.  1.
    10030    2    1    2    0    0  0.00000000000E+00  0.00000000000E+00  0.89564429225E+03  0.25708687996E+04  0.24098107159E+04 0.  0.
        3    1    3    3  502    0  0.30272963875E+03  0.65147425646E+03  0.14798061091E+04  0.16449589879E+04  0.10100000352E+00 0. -1.
       -3    1    3    3    0  502 -0.30272963875E+03 -0.65147425646E+03 -0.58416181684E+03  0.92590981173E+03  0.10100000352E+00 0.  1.
</event>
<event>
 5   0  0.5196696E-06  0.2376028E+04  0.7818609E-02  0.8448533E-01
       -1   -1    0    0    0  501  0.00000000000E+00  0.00000000000E+00  0.11381138836E+04  0.11381138836E+04  0.50400001928E-02 0.  1.
        1   -1    0    0  501    0  0.00000000000E+00  0.00000000000E+00 -0.12401019402E+04  0.12401019402E+04  0.50400001928E-02 0. -1.
    10030    2    1    2    0    0  0.00000000000E+00  0.00000000000E+00 -0.10198805658E+03  0.23782158238E+04  0.23760279756E+04 0.  0.
        1    1    3    3  502    0 -0.10362232388E+04  0.56701273122E+03  0.76068509549E+02  0.11836589273E+04  0.50400001928E-02 0.  1.
       -1    1    3    3    0  502  0.10362232388E+04 -0.56701273122E+03 -0.17805656613E+03  0.11945568964E+04  0.50400001928E-02 0. -1.
</event>
<event>
 5   0  0.5034479E-06  0.2399718E+04  0.7818609E-02  0.8439609E-01
        1   -1    0    0  501    0  0.00000000000E+00  0.00000000000E+00  0.16896614628E+04  0.16896614628E+04  0.50400001928E-02 0.  1.
       -1   -1    0    0    0  501  0.00000000000E+00  0.00000000000E+00 -0.85204170706E+03  0.85204170707E+03  0.50400001928E-02 0. -1.
    10030    2    1    2    0    0  0.00000000000E+00  0.00000000000E+00  0.83761975571E+03  0.25417031699E+04  0.23997183477E+04 0.  0.
        4    1    3    3  502    0  0.11414114806E+04 -0.11822790009E+03  0.47553356728E+02  0.11485037828E+04  0.12699999809E+01 0. -1.
       -4    1    3    3    0  502 -0.11414114806E+04  0.11822790009E+03  0.79006639899E+03  0.13931993871E+04  0.12699999809E+01 0.  1.
</event>
<event>
 5   0  0.5196696E-06  0.2414916E+04  0.7818609E-02  0.8433940E-01
        1   -1    0    0  501    0  0.00000000000E+00  0.00000000000E+00  0.14808189385E+04  0.14808189386E+04  0.50400001928E-02 0. -1.
       -1   -1    0    0    0  501  0.00000000000E+00  0.00000000000E+00 -0.98456020219E+03  0.98456020220E+03  0.50400001928E-02 0.  1.
    10030    2    1    2    0    0  0.00000000000E+00  0.00000000000E+00  0.49625873636E+03  0.24653791408E+04  0.24149164736E+04 0.  0.
        1    1    3    3  502    0 -0.55896555113E+03 -0.20803477938E+03 -0.82368257180E+03  0.10169434281E+04  0.50400001928E-02 0.  1.
       -1    1    3    3    0  502  0.55896555113E+03  0.20803477938E+03  0.13199413082E+04  0.14484357127E+04  0.50400001928E-02 0. -1.
</event>
<event>
 5   0  0.1169371E-05  0.2399891E+04  0.7818609E-02  0.8439544E-01
       -2   -1    0    0    0  501  0.00000000000E+00  0.00000000000E+00  0.23108887143E+04  0.23108887143E+04  0.25500000920E-02 0.  1.
        2   -1    0    0  501    0  0.00000000000E+00  0.00000000000E+00 -0.62308020233E+03  0.62308020234E+03  0.25500000920E-02 0. -1.
    10030    2    1    2    0    0  0.00000000000E+00  0.00000000000E+00  0.16878085120E+04  0.29339689167E+04  0.23998908373E+04 0.  0.
        2    1    3    3  502    0  0.22469102512E+03 -0.30119634085E+02  0.22844702937E+04  0.22956911316E+04  0.25500000920E-02 0.  1.
       -2    1    3    3    0  502 -0.22469102512E+03  0.30119634085E+02 -0.59666178169E+03  0.63827778503E+03  0.25500000920E-02 0. -1.
</event>
<event>
 5   0  0.5034479E-06  0.2397741E+04  0.7818609E-02  0.8440350E-01
       -1   -1    0    0    0  501  0.00000000000E+00  0.00000000000E+00  0.10244465329E+04  0.10244465329E+04  0.50400001928E-02 0. -1.
        1   -1    0    0  501    0  0.00000000000E+00  0.00000000000E+00 -0.14029925400E+04  0.14029925400E+04  0.50400001928E-02 0.  1.
    10030    2    1    2    0    0  0.00000000000E+00  0.00000000000E+00 -0.37854600709E+03  0.24274390729E+04  0.23977413066E+04 0.  0.
        4    1    3    3  502    0 -0.46719829308E+03  0.37501105793E+03 -0.12405865639E+04  0.13776662056E+04  0.12699999809E+01 0.  1.
       -4    1    3    3    0  502  0.46719829308E+03 -0.37501105793E+03  0.86204055678E+03  0.10497728674E+04  0.12699999809E+01 0. -1.
</event>
<event>
 5   0  0.1169371E-05  0.2398220E+04  0.7818609E-02  0.8440170E-01
       -2   -1    0    0    0  501  0.00000000000E+00  0.00000000000E+00  0.15728342891E+04  0.15728342892E+04  0.25500000920E-02 0. -1.
        2   -1    0    0  501    0  0.00000000000E+00  0.00000000000E+00 -0.91418714477E+03  0.91418714477E+03  0.25500000920E-02 0.  1.
    10030    2    1    2    0    0  0.00000000000E+00  0.00000000000E+00  0.65864714438E+03  0.24870214339E+04  0.23982200800E+04 0.  0.
        2    1    3    3  502    0 -0.41222688659E+03 -0.84037684999E+02 -0.83514002360E+03  0.93512148813E+03  0.25500000920E-02 0.  1.
       -2    1    3    3    0  502  0.41222688659E+03  0.84037684999E+02  0.14937871680E+04  0.15518999458E+04  0.25500000920E-02 0. -1.
</event>
<event>
 5   0  0.5196696E-06  0.2399015E+04  0.7818609E-02  0.8439873E-01
        1   -1    0    0  501    0  0.00000000000E+00  0.00000000000E+00  0.97104371048E+03  0.97104371050E+03  0.50400001928E-02 0.  1.
       -1   -1    0    0    0  501  0.00000000000E+00  0.00000000000E+00 -0.14817229362E+04  0.14817229362E+04  0.50400001928E-02 0. -1.
    10030    2    1    2    0    0  0.00000000000E+00  0.00000000000E+00 -0.51067922567E+03  0.24527666467E+04  0.23990145792E+04 0.  0.
        1    1    3    3  502    0  0.57592020596E+03 -0.48203202188E+03  0.70091262706E+03  0.10272864569E+04  0.50400001928E-02 0.  1.
       -1    1    3    3    0  502 -0.57592020596E+03  0.48203202188E+03 -0.12115918527E+04  0.14254801898E+04  0.50400001928E-02 0. -1.
</event>
<event>
 5   0  0.5104174E-06  0.2408298E+04  0.7818609E-02  0.8436404E-01
        1   -1    0    0  501    0  0.00000000000E+00  0.00000000000E+00  0.12110807299E+04  0.12110807299E+04  0.50400001928E-02 0. -1.
       -1   -1    0    0    0  501  0.00000000000E+00  0.00000000000E+00 -0.11972564811E+04  0.11972564811E+04  0.50400001928E-02 0.  1.
    10030    2    1    2    0    0  0.00000000000E+00  0.00000000000E+00  0.13824248843E+02  0.24083372110E+04  0.24082975339E+04 0.  0.
        3    1    3    3  502    0  0.91723048532E+03 -0.25975166815E+03  0.74258146797E+03  0.12083914676E+04  0.10100000352E+00 0. -1.
       -3    1    3    3    0  502 -0.91723048532E+03  0.25975166815E+03 -0.72875721912E+03  0.11999457433E+04  0.10100000352E+00 0.  1.
</event>
<event>
 5   0  0.1169371E-05  0.2396998E+04  0.7818609E-02  0.8440628E-01
        2   -1    0    0  501    0  0.00000000000E+00  0.00000000000E+00  0.14184402396E+04  0.14184402396E+04  0.25500000920E-02 0. -1.
       -2   -1    0    0    0  501  0.00000000000E+00  0.00000000000E+00 -0.10126616455E+04  0.10126616455E+04  0.25500000920E-02 0.  1.
    10030    2    1    2    0    0  0.00000000000E+00  0.00000000000E+00  0.40577859410E+03  0.24311018850E+04  0.23969981452E+04 0.  0.
        2    1    3    3  502    0  0.24052830148E+03  0.22861005019E+03  0.13709183979E+04  0.14105083029E+04  0.25500000920E-02 0. -1.
       -2    1    3    3    0  502 -0.24052830148E+03 -0.22861005019E+03 -0.96513980382E+03  0.10205935821E+04  0.25500000920E-02 0.  1.
</event>
<event>
 5   0  0.1168435E-05  0.2402630E+04  0.7818609E-02  0.8438520E-01
        2   -1    0    0  501    0  0.00000000000E+00  0.00000000000E+00  0.17040733475E+04  0.17040733475E+04  0.25500000920E-02 0. -1.
       -2   -1    0    0    0  501  0.00000000000E+00  0.00000000000E+00 -0.84688714630E+03  0.84688714631E+03  0.25500000920E-02 0.  1.
    10030    2    1    2    0    0  0.00000000000E+00  0.00000000000E+00  0.85718620124E+03  0.25509604939E+04  0.24026300709E+04 0.  0.
        1    1    3    3  502    0  0.40538256570E+03  0.97744996162E+03  0.10323977818E+04  0.14783736442E+04  0.50400001928E-02 0. -1.
       -1    1    3    3    0  502 -0.40538256570E+03 -0.97744996162E+03 -0.17521158055E+03  0.10725868496E+04  0.50400001928E-02 0.  1.
</event>
<event>
 5   0  0.1198313E-05  0.2399840E+04  0.7818609E-02  0.8439563E-01
        2   -1    0    0  501    0  0.00000000000E+00  0.00000000000E+00  0.98338776954E+03  0.98338776954E+03  0.25500000920E-02 0. -1.
       -2   -1    0    0    0  501  0.00000000000E+00  0.00000000000E+00 -0.14641308476E+04  0.14641308476E+04  0.25500000920E-02 0.  1.
    10030    2    1    2    0    0  0.00000000000E+00  0.00000000000E+00 -0.48074307804E+03  0.24475186171E+04  0.23998403018E+04 0.  0.
        5    1    3    3  502    0 -0.62673532170E+03 -0.95829251272E+03 -0.60619634981E+03  0.12956148378E+04  0.46999998093E+01 0.  1.
       -5    1    3    3    0  502  0.62673532170E+03  0.95829251272E+03  0.12545327177E+03  0.11519037793E+04  0.46999998093E+01 0. -1.
</event>
<event>
 5   0  0.5034479E-06  0.2408712E+04  0.7818609E-02  0.8436249E-01
       -1   -1    0    0    0  501  0.00000000000E+00  0.00000000000E+00  0.62340134470E+03  0.62340134472E+03  0.50400001928E-02 0. -1.
        1   -1    0    0  501    0  0.00000000000E+00  0.00000000000E+00 -0.23267093861E+04  0.23267093861E+04  0.50400001928E-02 0.  1.
    10030    2    1    2    0    0  0.00000000000E+00  0.00000000000E+00 -0.17033080414E+04  0.29501107308E+04  0.24087123199E+04 0.  0.
        4    1    3    3  502    0 -0.22673780349E+03  0.30346637265E+03  0.54853361637E+03  0.66662779124E+03  0.12699999809E+01 0. -1.
       -4    1    3    3    0  502  0.22673780349E+03 -0.30346637265E+03 -0.22518416578E+04  0.22834829396E+04  0.12699999809E+01 0.  1.
</event>
<event>
 5   0  0.5196696E-06  0.2401413E+04  0.7818609E-02  0.8438975E-01
        1   -1    0    0  501    0  0.00000000000E+00  0.00000000000E+00  0.12465475909E+04  0.12465475909E+04  0.50400001928E-02 0. -1.
       -1   -1    0    0    0  501  0.00000000000E+00  0.00000000000E+00 -0.11565515534E+04  0.11565515534E+04  0.50400001928E-02 0.  1.
    10030    2    1    2    0    0  0.00000000000E+00  0.00000000000E+00  0.89996037516E+02  0.24030991444E+04  0.24014133778E+04 0.  0.
        1    1    3    3  502    0 -0.28738776497E+03  0.75144302686E+03 -0.84694030221E+03  0.11681464915E+04  0.50400001928E-02 0.  1.
       -1    1    3    3    0  502  0.28738776497E+03 -0.75144302686E+03  0.93693633973E+03  0.12349526529E+04  0.50400001928E-02 0. -1.
</event>
<event>
 5   0  0.5104174E-06  0.2421585E+04  0.7818609E-02  0.8431466E-01
       -1   -1    0    0    0  501  0.00000000000E+00  0.00000000000E+00  0.60677780954E+03  0.60677780956E+03  0.50400001928E-02 0.  1.
        1   -1    0    0  501    0  0.00000000000E+00  0.00000000000E+00 -0.24160719848E+04  0.24160719848E+04  0.50400001928E-02 0. -1.
    10030    2    1    2    0    0  0.00000000000E+00  0.00000000000E+00 -0.18092941753E+04  0.30228497944E+04  0.24215853210E+04 0.  0.
        3    1    3    3  502    0 -0.11215905168E+04 -0.33261498205E+03 -0.51502574979E+03  0.12782212433E+04  0.10100000352E+00 0.  1.
       -3    1    3    3    0  502  0.11215905168E+04  0.33261498205E+03 -0.12942684255E+04  0.17446285511E+04  0.10100000352E+00 0. -1.
</event>
<event>
 5   0  0.1174210E-05  0.2401159E+04  0.7818609E-02  0.8439070E-01
        2   -1    0    0  501    0  0.00000000000E+00  0.00000000000E+00  0.17282981712E+04  0.17282981712E+04  0.25500000920E-02 0. -1.
       -2   -1    0    0    0  501  0.00000000000E+00  0.00000000000E+00 -0.83399450628E+03  0.83399450629E+03  0.25500000920E-02 0.  1.
    10030    2    1    2    0    0  0.00000000000E+00  0.00000000000E+00  0.89430366490E+03  0.25622926775E+04  0.24011590368E+04 0.  0.
        3    1    3    3  502    0 -0.43660451751E+02  0.97084313960E+03  0.11994041184E+04  0.15437010352E+04  0.10100000352E+00 0. -1.
       -3    1    3    3    0  502  0.43660451751E+02 -0.97084313960E+03 -0.30510045348E+03  0.10185916423E+04  0.10100000352E+00 0.  1.
</event>
<event>
 5   0  0.1169371E-05  0.2399331E+04  0.7818609E-02  0.8439754E-01
        2   -1    0    0  501    0  0.00000000000E+00  0.00000000000E+00  0.13518499694E+04  0.13518499694E+04  0.25500000920E-02 0.  1.
       -2   -1    0    0    0  501  0.00000000000E+00  0.00000000000E+00 -0.10646128053E+04  0.10646128053E+04  0.25500000920E-02 0. -1.
    10030    2    1    2    0    0  0.00000000000E+00  0.00000000000E+00  0.28723716411E+03  0.24164627747E+04  0.23993305635E+04 0.  0.
        2    1    3    3  502    0  0.52523619670E+03  0.70167839297E+03 -0.68135862424E+03  0.11101689981E+04  0.25500000920E-02 0. -1.
       -2    1    3    3    0  502 -0.52523619670E+03 -0.70167839297E+03  0.96859578836E+03  0.13062937766E+04  0.25500000920E-02 0.  1.
</event>
<event>
 5   0  0.5064437E-06  0.2401032E+04  0.7818609E-02  0.8439117E-01
        1   -1    0    0  501    0  0.00000000000E+00  0.00000000000E+00  0.11657563229E+04  0.11657563229E+04  0.50400001928E-02 0. -1.
       -1   -1    0    0    0  501  0.00000000000E+00  0.00000000000E+00 -0.12363125231E+04  0.12363125231E+04  0.50400001928E-02 0.  1.
    10030    2    1    2    0    0  0.00000000000E+00  0.00000000000E+00 -0.70556200198E+02  0.24020688460E+04  0.24010323953E+04 0.  0.
        2    1    3    3  502    0 -0.14421512172E+03 -0.10354587432E+04 -0.62567378680E+03  0.12183761725E+04  0.25500000920E-02 0.  1.
       -2    1    3    3    0  502  0.14421512172E+03  0.10354587432E+04  0.55511758660E+03  0.11836926735E+04  0.25500000920E-02 0. -1.
</event>
<event>
 5   0  0.5064437E-06  0.2395461E+04  0.7818609E-02  0.8441205E-01
       -1   -1    0    0    0  501  0.00000000000E+00  0.00000000000E+00  0.10233439119E+04  0.10233439119E+04  0.50400001928E-02 0.  1.
        1   -1    0    0  501    0  0.00000000000E+00  0.00000000000E+00 -0.14018336612E+04  0.14018336612E+04  0.50400001928E-02 0. -1.
    10030    2    1    2    0    0  0.00000000000E+00  0.00000000000E+00 -0.37848974923E+03  0.24251775731E+04  0.23954606594E+04 0.  0.
        2    1    3    3  502    0  0.29837383967E+03  0.63832518864E+03 -0.11698012667E+04  0.13656211035E+04  0.25500000920E-02 0. -1.
       -2    1    3    3    0  502 -0.29837383967E+03 -0.63832518864E+03  0.79131151747E+03  0.10595564696E+04  0.25500000920E-02 0.  1.
</event>
<event>
 5   0  0.1154897E-05  0.2409833E+04  0.7818609E-02  0.8435831E-01
       -2   -1    0    0    0  501  0.00000000000E+00  0.00000000000E+00  0.11403236462E+04  0.11403236462E+04  0.25500000920E-02 0.  1.
        2   -1    0    0  501    0  0.00000000000E+00  0.00000000000E+00 -0.12731679736E+04  0.12731679736E+04  0.25500000920E-02 0. -1.
    10030    2    1    2    0    0  0.00000000000E+00  0.00000000000E+00 -0.13284432732E+03  0.24134916198E+04  0.24098328124E+04 0.  0.
        4    1    3    3  502    0  0.87386474571E+03  0.19112394937E+03 -0.87489867367E+03  0.12512462827E+04  0.12699999809E+01 0. -1.
       -4    1    3    3    0  502 -0.87386474571E+03 -0.19112394937E+03  0.74205434635E+03  0.11622453371E+04  0.12699999809E+01 0.  1.
</event>
<event>
 5   0  0.5104174E-06  0.2433061E+04  0.7818609E-02  0.8427229E-01
       -1   -1    0    0    0  501  0.00000000000E+00  0.00000000000E+00  0.11958191315E+04  0.11958191315E+04  0.50400001928E-02 0.  1.
        1   -1    0    0  501    0  0.00000000000E+00  0.00000000000E+00 -0.12376001552E+04  0.12376001552E+04  0.50400001928E-02 0. -1.
    10030    2    1    2    0    0  0.00000000000E+00  0.00000000000E+00 -0.41781023665E+02  0.24334192867E+04  0.24330605769E+04 0.  0.
        3    1    3    3  502    0  0.26255558219E+02 -0.11777823373E+04  0.28260989792E+03  0.12114986393E+04  0.10100000352E+00 0. -1.
       -3    1    3    3    0  502 -0.26255558219E+02  0.11777823373E+04 -0.32439092159E+03  0.12219206474E+04  0.10100000352E+00 0.  1.
</event>
<event>
 5   0  0.1168435E-05  0.2412235E+04  0.7818609E-02  0.8434937E-01
        2   -1    0    0  501    0  0.00000000000E+00  0.00000000000E+00  0.15484473551E+04  0.15484473551E+04  0.25500000920E-02 0.  1.
       -2   -1    0    0    0  501  0.00000000000E+00  0.00000000000E+00 -0.93946934504E+03  0.93946934504E+03  0.25500000920E-02 0. -1.
    10030    2    1    2    0    0  0.00000000000E+00  0.00000000000E+00  0.60897801009E+03  0.24879167002E+04  0.24122345015E+04 0.  0.
        1    1    3    3  502    0 -0.54371112097E+03  0.27533805809E+03 -0.76897595910E+03  0.98120174022E+03  0.50400001928E-02 0. -1.
       -1    1    3    3    0  502  0.54371112097E+03 -0.27533805809E+03  0.13779539692E+04  0.15067149599E+04  0.50400001928E-02 0.  1.
</event>
<event>
 5   0  0.5064437E-06  0.2380305E+04  0.7818609E-02  0.8446914E-01
        1   -1    0    0  501    0  0.00000000000E+00  0.00000000000E+00  0.16081309480E+04  0.16081309480E+04  0.50400001928E-02 0.  1.
       -1   -1    0    0    0  501  0.00000000000E+00  0.00000000000E+00 -0.88081308571E+03  0.88081308572E+03  0.50400001928E-02 0. -1.
    10030    2    1    2    0    0  0.00000000000E+00  0.00000000000E+00  0.72731786224E+03  0.24889440337E+04  0.23803048397E+04 0.  0.
        2    1    3    3  502    0 -0.47592629963E+03  0.10275977958E+04 -0.19108062135E+02  0.11326200557E+04  0.25500000920E-02 0. -1.
       -2    1    3    3    0  502  0.47592629963E+03 -0.10275977958E+04  0.74642592438E+03  0.13563239780E+04  0.25500000920E-02 0.  1.
</event>
<event>
 5   0  0.5034479E-06  0.2396866E+04  0.7818609E-02  0.8440678E-01
        1   -1    0    0  501    0  0.00000000000E+00  0.00000000000E+00  0.13419079108E+04  0.13419079109E+04  0.50400001928E-02 0.  1.
       -1   -1    0    0    0  501  0.00000000000E+00  0.00000000000E+00 -0.10702981146E+04  0.10702981147E+04  0.50400001928E-02 0. -1.
    10030    2    1    2    0    0  0.00000000000E+00  0.00000000000E+00  0.27160979621E+03  0.24122060255E+04  0.23968658761E+04 0.  0.
        4    1    3    3  502    0 -0.16060340642E+02  0.98546322348E+03  0.82196327747E+03  0.12833631371E+04  0.12699999809E+01 0.  1.
       -4    1    3    3    0  502  0.16060340642E+02 -0.98546322348E+03 -0.55035348126E+03  0.11288428884E+04  0.12699999809E+01 0. -1.
</event>
<event>
 5   0  0.1154897E-05  0.2396572E+04  0.7818609E-02  0.8440788E-01
       -2   -1    0    0    0  501  0.00000000000E+00  0.00000000000E+00  0.61863941350E+03  0.61863941351E+03  0.25500000920E-02 0.  1.
        2   -1    0    0  501    0  0.00000000000E+00  0.00000000000E+00 -0.23210443364E+04  0.23210443364E+04  0.25500000920E-02 0. -1.
    10030    2    1    2    0    0  0.00000000000E+00  0.00000000000E+00 -0.17024049229E+04  0.29396837499E+04  0.23965721412E+04 0.  0.
        4    1    3    3  502    0  0.23649265179E+03  0.81943744539E+03  0.18126014030E+03  0.87193081871E+03  0.12699999809E+01 0.  1.
       -4    1    3    3    0  502 -0.23649265179E+03 -0.81943744539E+03 -0.18836650632E+04  0.20677529312E+04  0.12699999809E+01 0. -1.
</event>
<event>
 5   0  0.1169371E-05  0.2398576E+04  0.7818609E-02  0.8440037E-01
       -2   -1    0    0    0  501  0.00000000000E+00  0.00000000000E+00  0.89471366536E+03  0.89471366537E+03  0.25500000920E-02 0. -1.
        2   -1    0    0  501    0  0.00000000000E+00  0.00000000000E+00 -0.16075440031E+04  0.16075440031E+04  0.25500000920E-02 0.  1.
    10030    2    1    2    0    0  0.00000000000E+00  0.00000000000E+00 -0.71283033772E+03  0.25022576685E+04  0.23985759002E+04 0.  0.
        2    1    3    3  502    0 -0.47716965611E+03 -0.65691804647E+03 -0.12772120623E+04  0.15134407331E+04  0.25500000920E-02 0.  1.
       -2    1    3    3    0  502  0.47716965611E+03  0.65691804647E+03  0.56438172462E+03  0.98881693533E+03  0.25500000920E-02 0. -1.
</event>
<event>
 5   0  0.5042742E-06  0.2385426E+04  0.7818609E-02  0.8444980E-01
       -1   -1    0    0    0  501  0.00000000000E+00  0.00000000000E+00  0.31672882563E+04  0.31672882563E+04  0.50400001928E-02 0.  1.
        1   -1    0    0  501    0  0.00000000000E+00  0.00000000000E+00 -0.44914277267E+03  0.44914277270E+03  0.50400001928E-02 0. -1.
    10030    2    1    2    0    0  0.00000000000E+00  0.00000000000E+00  0.27181454836E+04  0.36164310290E+04  0.23854262758E+04 0.  0.
        5    1    3    3  502    0 -0.82426966539E+03 -0.50312535256E+03  0.29785026615E+03  0.10105901606E+04  0.46999998093E+01 0. -1.
       -5    1    3    3    0  502  0.82426966539E+03  0.50312535256E+03  0.24202952175E+04  0.26058408684E+04  0.46999998093E+01 0.  1.
</event>
<event>
 5   0  0.1198313E-05  0.2424277E+04  0.7818609E-02  0.8430470E-01
       -2   -1    0    0    0  501  0.00000000000E+00  0.00000000000E+00  0.83844326427E+03  0.83844326427E+03  0.25500000920E-02 0. -1.
        2   -1    0    0  501    0  0.00000000000E+00  0.00000000000E+00 -0.17523906851E+04  0.17523906851E+04  0.25500000920E-02 0.  1.
    10030    2    1    2    0    0  0.00000000000E+00  0.00000000000E+00 -0.91394742081E+03  0.25908339494E+04  0.24242773491E+04 0.  0.
        5    1    3    3  502    0 -0.10602037887E+04  0.12968653799E+03 -0.10694139896E+04  0.15114625509E+04  0.46999998093E+01 0.  1.
       -5    1    3    3    0  502  0.10602037887E+04 -0.12968653799E+03  0.15546656882E+03  0.10793713984E+04  0.46999998093E+01 0. -1.
</event>
<event>
 5   0  0.1169371E-05  0.2426741E+04  0.7818609E-02  0.8429560E-01
        2   -1    0    0  501    0  0.00000000000E+00  0.00000000000E+00  0.15413696197E+04  0.15413696197E+04  0.25500000920E-02 0. -1.
       -2   -1    0    0    0  501  0.00000000000E+00  0.00000000000E+00 -0.95516854037E+03  0.95516854037E+03  0.25500000920E-02 0.  1.
    10030    2    1    2    0    0  0.00000000000E+00  0.00000000000E+00  0.58620107933E+03  0.24965381601E+04  0.24267408348E+04 0.  0.
        2    1    3    3  502    0 -0.30425786963E+03 -0.94712045694E+03 -0.42161702701E+03  0.10804494105E+04  0.25500000920E-02 0.  1.
       -2    1    3    3    0  502  0.30425786963E+03  0.94712045694E+03  0.10078181063E+04  0.14160887496E+04  0.25500000920E-02 0. -1.
</event>
<event>
 5   0  0.1198313E-05  0.2410179E+04  0.7818609E-02  0.8435702E-01
        2   -1    0    0  501    0  0.00000000000E+00  0.00000000000E+00  0.19815031327E+04  0.19815031327E+04  0.25500000920E-02 0.  1.
       -2   -1    0    0    0  501  0.00000000000E+00  0.00000000000E+00 -0.73289857898E+03  0.73289857899E+03  0.25500000920E-02 0. -1.
    10030    2    1    2    0    0  0.00000000000E+00  0.00000000000E+00  0.12486045537E+04  0.27144017117E+04  0.24101791056E+04 0.  0.
        5    1    3    3  502    0 -0.24986786771E+03  0.14946613150E+03 -0.69267925207E+03  0.75139916957E+03  0.46999998093E+01 0. -1.
       -5    1    3    3    0  502  0.24986786771E+03 -0.14946613150E+03  0.19412838058E+04  0.19630025421E+04  0.46999998093E+01 0.  1.
</event>
<event>
 5   0  0.5104174E-06  0.2383877E+04  0.7818609E-02  0.8445565E-01
       -1   -1    0    0    0  501  0.00000000000E+00  0.00000000000E+00  0.69933821166E+03  0.69933821168E+03  0.50400001928E-02 0. -1.
        1   -1    0    0  501    0  0.00000000000E+00  0.00000000000E+00 -0.20315164533E+04  0.20315164533E+04  0.50400001928E-02 0.  1.
    10030    2    1    2    0    0  0.00000000000E+00  0.00000000000E+00 -0.13321782416E+04  0.27308546650E+04  0.23838767447E+04 0.  0.
        3    1    3    3  502    0  0.10909382702E+04 -0.15311821758E+03 -0.11874418539E+04  0.16197560510E+04  0.10100000352E+00 0. -1.
       -3    1    3    3    0  502 -0.10909382702E+04  0.15311821758E+03 -0.14473638772E+03  0.11110986140E+04  0.10100000352E+00 0.  1.
</event>
<event>
 5   0  0.1168435E-05  0.2396196E+04  0.7818609E-02  0.8440929E-01
        2   -1    0    0  501    0  0.00000000000E+00  0.00000000000E+00  0.24250406842E+04  0.24250406842E+04  0.25500000920E-02 0.  1.
       -2   -1    0    0    0  501  0.00000000000E+00  0.00000000000E+00 -0.59192341716E+03  0.59192341717E+03  0.25500000920E-02 0. -1.
    10030    2    1    2    0    0  0.00000000000E+00  0.00000000000E+00  0.18331172671E+04  0.30169641014E+04  0.23961956252E+04 0.  0.
        1    1    3    3  502    0 -0.76594887441E+03  0.62316643100E+03  0.62226021115E+02  0.98938675788E+03  0.50400001928E-02 0. -1.
       -1    1    3    3    0  502  0.76594887441E+03 -0.62316643100E+03  0.17708912459E+04  0.20275773435E+04  0.50400001928E-02 0.  1.
</event>
<event>
 5   0  0.5104174E-06  0.2397561E+04  0.7818609E-02  0.8440417E-01
       -1   -1    0    0    0  501  0.00000000000E+00  0.00000000000E+00  0.69473079151E+03  0.69473079153E+03  0.50400001928E-02 0.  1.
        1   -1    0    0  501    0  0.00000000000E+00  0.00000000000E+00 -0.20685345966E+04  0.20685345966E+04  0.50400001928E-02 0. -1.
    10030    2    1    2    0    0  0.00000000000E+00  0.00000000000E+00 -0.13738038051E+04  0.27632653881E+04  0.23975609920E+04 0.  0.
        3    1    3    3  502    0 -0.47519084736E+03  0.24896189793E+03 -0.19224710289E+04  0.19959166403E+04  0.10100000352E+00 0. -1.
       -3    1    3    3    0  502  0.47519084736E+03 -0.24896189793E+03  0.54866722382E+03  0.76734874779E+03  0.10100000352E+00 0.  1.
</event>
<event>
 5   0  0.1169371E-05  0.2403264E+04  0.7818609E-02  0.8438283E-01
        2   -1    0    0  501    0  0.00000000000E+00  0.00000000000E+00  0.11964504014E+04  0.11964504014E+04  0.25500000920E-02 0.  1.
       -2   -1    0    0    0  501  0.00000000000E+00  0.00000000000E+00 -0.12068357393E+04  0.12068357393E+04  0.25500000920E-02 0. -1.
    10030    2    1    2    0    0  0.00000000000E+00  0.00000000000E+00 -0.10385337855E+02  0.24032861407E+04  0.24032637015E+04 0.  0.
        2    1    3    3  502    0  0.87723000657E+03 -0.17343365462E+03 -0.80788776643E+03  0.12051117625E+04  0.25500000920E-02 0. -1.
       -2    1    3    3    0  502 -0.87723000657E+03  0.17343365462E+03  0.79750242857E+03  0.11981743782E+04  0.25500000920E-02 0.  1.
</event>
<event>
 5   0  0.1174210E-05  0.2391714E+04  0.7818609E-02  0.8442612E-01
        2   -1    0    0  501    0  0.00000000000E+00  0.00000000000E+00  0.12798868809E+04  0.12798868809E+04  0.25500000920E-02 0. -1.
       -2   -1    0    0    0  501  0.00000000000E+00  0.00000000000E+00 -0.11173438856E+04  0.11173438856E+04  0.25500000920E-02 0.  1.
    10030    2    1    2    0    0  0.00000000000E+00  0.00000000000E+00  0.16254299536E+03  0.23972307665E+04  0.23917138463E+04 0.  0.
        3    1    3    3  502    0 -0.48349920343E+02 -0.29066699429E+03 -0.10803880020E+04  0.11198496602E+04  0.10100000352E+00 0.  1.
       -3    1    3    3    0  502  0.48349920343E+02  0.29066699429E+03  0.12429309974E+04  0.12773811063E+04  0.10100000352E+00 0. -1.
</event>
<event>
 5   0  0.1168435E-05  0.2397838E+04  0.7818609E-02  0.8440313E-01
        2   -1    0    0  501    0  0.00000000000E+00  0.00000000000E+00  0.11032304548E+04  0.11032304548E+04  0.25500000920E-02 0. -1.
       -2   -1    0    0    0  501  0.00000000000E+00  0.00000000000E+00 -0.13029073474E+04  0.13029073474E+04  0.25500000920E-02 0.  1.
    10030    2    1    2    0    0  0.00000000000E+00  0.00000000000E+00 -0.19967689265E+03  0.24061378022E+04  0.23978382476E+04 0.  0.
        1    1    3    3  502    0 -0.48389989727E+03  0.41783366841E+03  0.91790231406E+03  0.11186101838E+04  0.50400001928E-02 0. -1.
       -1    1    3    3    0  502  0.48389989727E+03 -0.41783366841E+03 -0.11175792067E+04  0.12875276185E+04  0.50400001928E-02 0.  1.
</event>
<event>
 5   0  0.1198313E-05  0.2406750E+04  0.7818609E-02  0.8436981E-01
        2   -1    0    0  501    0  0.00000000000E+00  0.00000000000E+00  0.12355942866E+04  0.12355942866E+04  0.25500000920E-02 0.  1.
       -2   -1    0    0    0  501  0.00000000000E+00  0.00000000000E+00 -0.11719956421E+04  0.11719956421E+04  0.25500000920E-02 0. -1.
    10030    2    1    2    0    0  0.00000000000E+00  0.00000000000E+00  0.63598644430E+02  0.24075899287E+04  0.24067497745E+04 0.  0.
        5    1    3    3  502    0  0.58592309094E+03  0.22186877335E+03  0.10595612061E+04  0.12309442151E+04  0.46999998093E+01 0.  1.
       -5    1    3    3    0  502 -0.58592309094E+03 -0.22186877335E+03 -0.99596256171E+03  0.11766457136E+04  0.46999998093E+01 0. -1.
</event>
<event>
 5   0  0.5034479E-06  0.2399644E+04  0.7818609E-02  0.8439637E-01
        1   -1    0    0  501    0  0.00000000000E+00  0.00000000000E+00  0.11543583638E+04  0.11543583638E+04  0.50400001928E-02 0.  1.
       -1   -1    0    0    0  501  0.00000000000E+00  0.00000000000E+00 -0.12470758078E+04  0.12470758078E+04  0.50400001928E-02 0. -1.
    10030    2    1    2    0    0  0.00000000000E+00  0.00000000000E+00 -0.92717444035E+02  0.24014341716E+04  0.23996436311E+04 0.  0.
        4    1    3    3  502    0 -0.48549175521E+03 -0.84424171575E+03 -0.74768436297E+03  0.12277947054E+04  0.12699999809E+01 0. -1.
       -4    1    3    3    0  502  0.48549175521E+03  0.84424171575E+03  0.65496691894E+03  0.11736394663E+04  0.12699999809E+01 0.  1.
</event>
<event>
 5   0  0.5042742E-06  0.2411613E+04  0.7818609E-02  0.8435168E-01
       -1   -1    0    0    0  501  0.00000000000E+00  0.00000000000E+00  0.73613763401E+03  0.73613763403E+03  0.50400001928E-02 0.  1.
        1   -1    0    0  501    0  0.00000000000E+00  0.00000000000E+00 -0.19751329833E+04  0.19751329833E+04  0.50400001928E-02 0. -1.
    10030    2    1    2    0    0  0.00000000000E+00  0.00000000000E+00 -0.12389953493E+04  0.27112706174E+04  0.24116133365E+04 0.  0.
        5    1    3    3  502    0  0.48240217729E+03  0.89750894097E+03  0.10537585329E+03  0.10243828973E+04  0.46999998093E+01 0.  1.
       -5    1    3    3    0  502 -0.48240217729E+03 -0.89750894097E+03 -0.13443712026E+04  0.16868877201E+04  0.46999998093E+01 0. -1.
</event>
<event>
 5   0  0.1154897E-05  0.2391926E+04  0.7818609E-02  0.8442532E-01
        2   -1    0    0  501    0  0.00000000000E+00  0.00000000000E+00  0.20135200684E+04  0.20135200684E+04  0.25500000920E-02 0. -1.
       -2   -1    0    0    0  501  0.00000000000E+00  0.00000000000E+00 -0.71036176656E+03  0.71036176656E+03  0.25500000920E-02 0.  1.
    10030    2    1    2    0    0  0.00000000000E+00  0.00000000000E+00  0.13031583019E+04  0.27238818350E+04  0.23919261467E+04 0.  0.
        4    1    3    3  502    0  0.66848982698E+03 -0.91742001855E+03  0.22277388102E+03  0.11567920964E+04  0.12699999809E+01 0.  1.
       -4    1    3    3    0  502 -0.66848982698E+03  0.91742001855E+03  0.10803844208E+04  0.15670897386E+04  0.12699999809E+01 0. -1.
</event>
<event>
 5   0  0.5034479E-06  0.2407657E+04  0.7818609E-02  0.8436643E-01
        1   -1    0    0  501    0  0.00000000000E+00  0.00000000000E+00  0.19489354460E+04  0.19489354460E+04  0.50400001928E-02 0. -1.
       -1   -1    0    0    0  501  0.00000000000E+00  0.00000000000E+00 -0.74358691067E+03  0.74358691069E+03  0.50400001928E-02 0.  1.
    10030    2    1    2    0    0  0.00000000000E+00  0.00000000000E+00  0.12053485353E+04  0.26925223567E+04  0.24076568588E+04 0.  0.
        4    1    3    3  502    0 -0.62919274626E+02  0.12005173142E+04  0.53194026265E+03  0.13145960265E+04  0.12699999809E+01 0.  1.
       -4    1    3    3    0  502  0.62919274626E+02 -0.12005173142E+04  0.67340827270E+03  0.13779263302E+04  0.12699999809E+01 0. -1.
</event>
<event>
 5   0  0.5196696E-06  0.2407794E+04  0.7818609E-02  0.8436592E-01
        1   -1    0    0  501    0  0.00000000000E+00  0.00000000000E+00  0.10698459390E+04  0.10698459390E+04  0.50400001928E-02 0.  1.
       -1   -1    0    0    0  501  0.00000000000E+00  0.00000000000E+00 -0.13547441517E+04  0.13547441517E+04  0.50400001928E-02 0. -1.
    10030    2    1    2    0    0  0.00000000000E+00  0.00000000000E+00 -0.28489821267E+03  0.24245900906E+04  0.24077936199E+04 0.  0.
        1    1    3    3  502    0 -0.10273303430E+03 -0.11032864349E+04  0.33154941923E+03  0.11565984831E+04  0.50400001928E-02 0.  1.
       -1    1    3    3    0  502  0.10273303430E+03  0.11032864349E+04 -0.61644763190E+03  0.12679916075E+04  0.50400001928E-02 0. -1.
</event>
<event>
 5   0  0.1168435E-05  0.2399328E+04  0.7818609E-02  0.8439755E-01
        2   -1    0    0  501    0  0.00000000000E+00  0.00000000000E+00  0.16348187110E+04  0.16348187110E+04  0.25500000920E-02 0. -1.
       -2   -1    0    0    0  501  0.00000000000E+00  0.00000000000E+00 -0.88033865889E+03  0.88033865889E+03  0.25500000920E-02 0.  1.
    10030    2    1    2    0    0  0.00000000000E+00  0.00000000000E+00  0.75448005214E+03  0.25151573699E+04  0.23993283324E+04 0.  0.
        1    1    3    3  502    0 -0.41397472798E+02 -0.36551840996E+03  0.15742388826E+04  0.16166463801E+04  0.50400001928E-02 0. -1.
       -1    1    3    3    0  502  0.41397472798E+02  0.36551840996E+03 -0.81975883044E+03  0.89851098985E+03  0.50400001928E-02 0.  1.
</event>
<event>
 5   0  0.5042742E-06  0.2397610E+04  0.7818609E-02  0.8440399E-01
        1   -1    0    0  501    0  0.00000000000E+00  0.00000000000E+00  0.11265353498E+04  0.11265353498E+04  0.50400001928E-02 0.  1.
       -1   -1    0    0    0  501  0.00000000000E+00  0.00000000000E+00 -0.12757108127E+04  0.12757108127E+04  0.50400001928E-02 0. -1.
    10030    2    1    2    0    0  0.00000000000E+00  0.00000000000E+00 -0.14917546295E+03  0.24022461625E+04  0.23976099155E+04 0.  0.
        5    1    3    3  502    0 -0.61433222302E+03 -0.29862928952E+03  0.91247090033E+03  0.11398283935E+04  0.46999998093E+01 0.  1.
       -5    1    3    3    0  502  0.61433222302E+03  0.29862928952E+03 -0.10616463633E+04  0.12624177690E+04  0.46999998093E+01 0. -1.
</event>
<event>
 5   0  0.1154897E-05  0.2404832E+04  0.7818609E-02  0.8437697E-01
        2   -1    0    0  501    0  0.00000000000E+00  0.00000000000E+00  0.16447005768E+04  0.16447005768E+04  0.25500000920E-02 0.  1.
       -2   -1    0    0    0  501  0.00000000000E+00  0.00000000000E+00 -0.87906803296E+03  0.87906803296E+03  0.25500000920E-02 0. -1.
    10030    2    1    2    0    0  0.00000000000E+00  0.00000000000E+00  0.76563254388E+03  0.25237686098E+04  0.24048315541E+04 0.  0.
        4    1    3    3  502    0  0.52373233228E+03  0.92928213947E+03  0.96518600795E+03  0.14385570873E+04  0.12699999809E+01 0.  1.
       -4    1    3    3    0  502 -0.52373233228E+03 -0.92928213947E+03 -0.19955346407E+03  0.10852115225E+04  0.12699999809E+01 0. -1.
</event>
<event>
 5   0  0.1168435E-05  0.2405382E+04  0.7818609E-02  0.8437491E-01
        2   -1    0    0  501    0  0.00000000000E+00  0.00000000000E+00  0.10743231563E+04  0.10743231563E+04  0.25500000920E-02 0.  1.
       -2   -1    0    0    0  501  0.00000000000E+00  0.00000000000E+00 -0.13463975343E+04  0.13463975343E+04  0.25500000920E-02 0. -1.
    10030    2    1    2    0    0  0.00000000000E+00  0.00000000000E+00 -0.27207437806E+03  0.24207206906E+04  0.24053823386E+04 0.  0.
        1    1    3    3  502    0  0.16370214392E+03 -0.10178041817E+04  0.48738234195E+03  0.11402917571E+04  0.50400001928E-02 0.  1.
       -1    1    3    3    0  502 -0.16370214392E+03  0.10178041817E+04 -0.75945672001E+03  0.12804289335E+04  0.50400001928E-02 0. -1.
</event>
<event>
 5   0  0.1174210E-05  0.2391577E+04  0.7818609E-02  0.8442664E-01
       -2   -1    0    0    0  501  0.00000000000E+00  0.00000000000E+00  0.13316113555E+04  0.13316113555E+04  0.25500000920E-02 0. -1.
        2   -1    0    0  501    0  0.00000000000E+00  0.00000000000E+00 -0.10738193262E+04  0.10738193262E+04  0.25500000920E-02 0.  1.
    10030    2    1    2    0    0  0.00000000000E+00  0.00000000000E+00  0.25779202927E+03  0.24054306818E+04  0.23915768929E+04 0.  0.
        3    1    3    3  502    0  0.24246376878E+03 -0.55260283356E+03 -0.90943651244E+03  0.10914363707E+04  0.10100000352E+00 0.  1.
       -3    1    3    3    0  502 -0.24246376878E+03  0.55260283356E+03  0.11672285417E+04  0.13139943111E+04  0.10100000352E+00 0. -1.
</event>
<event>
 5   0  0.1169371E-05  0.2404367E+04  0.7818609E-02  0.8437870E-01
        2   -1    0    0  501    0  0.00000000000E+00  0.00000000000E+00  0.11589853618E+04  0.11589853618E+04  0.25500000920E-02 0.  1.
       -2   -1    0    0    0  501  0.00000000000E+00  0.00000000000E+00 -0.12469919250E+04  0.12469919250E+04  0.25500000920E-02 0. -1.
    10030    2    1    2    0    0  0.00000000000E+00  0.00000000000E+00 -0.88006563213E+02  0.24059772868E+04  0.24043671828E+04 0.  0.
        2    1    3    3  502    0 -0.57812684148E+03 -0.42506407464E+03  0.92118152215E+03  0.11676838224E+04  0.25500000920E-02 0.  1.
       -2    1    3    3    0  502  0.57812684148E+03  0.42506407464E+03 -0.10091880854E+04  0.12382934644E+04  0.25500000920E-02 0. -1.
</event>
<event>
 5   0  0.1168435E-05  0.2399713E+04  0.7818609E-02  0.8439611E-01
       -2   -1    0    0    0  501  0.00000000000E+00  0.00000000000E+00  0.88566650214E+03  0.88566650215E+03  0.25500000920E-02 0. -1.
        2   -1    0    0  501    0  0.00000000000E+00  0.00000000000E+00 -0.16255057602E+04  0.16255057602E+04  0.25500000920E-02 0.  1.
    10030    2    1    2    0    0  0.00000000000E+00  0.00000000000E+00 -0.73983925808E+03  0.25111722624E+04  0.23997133169E+04 0.  0.
        1    1    3    3  502    0  0.21657625999E+03 -0.58890622765E+03  0.70029422178E+03  0.94028071258E+03  0.50400001928E-02 0. -1.
       -1    1    3    3    0  502 -0.21657625999E+03  0.58890622765E+03 -0.14401334799E+04  0.15708915498E+04  0.50400001928E-02 0.  1.
</event>
<event>
 5   0  0.1174210E-05  0.2390322E+04  0.7818609E-02  0.8443136E-01
        2   -1    0    0  501    0  0.00000000000E+00  0.00000000000E+00  0.12489143757E+04  0.12489143757E+04  0.25500000920E-02 0. -1.
       -2   -1    0    0    0  501  0.00000000000E+00  0.00000000000E+00 -0.11437215517E+04  0.11437215517E+04  0.25500000920E-02 0.  1.
    10030    2    1    2    0    0  0.00000000000E+00  0.00000000000E+00  0.10519282398E+03  0.23926359274E+04  0.23903223947E+04 0.  0.
        3    1    3    3  502    0  0.33569900146E+03  0.10391112900E+04  0.53882801680E+03  0.12176952552E+04  0.10100000352E+00 0. -1.
       -3    1    3    3    0  502 -0.33569900146E+03 -0.10391112900E+04 -0.43363519282E+03  0.11749406722E+04  0.10100000352E+00 0.  1.
</event>
<event>
 5   0  0.1169371E-05  0.2380114E+04  0.7818609E-02  0.8446986E-01
        2   -1    0    0  501    0  0.00000000000E+00  0.00000000000E+00  0.31033627316E+04  0.31033627316E+04  0.25500000920E-02 0. -1.
       -2   -1    0    0    0  501  0.00000000000E+00  0.00000000000E+00 -0.45635517598E+03  0.45635517599E+03  0.25500000920E-02 0.  1.
    10030    2    1    2    0    0  0.00000000000E+00  0.00000000000E+00  0.26470075556E+04  0.35597179076E+04  0.23801139851E+04 0.  0.
        2    1    3    3  502    0 -0.36227486086E+03 -0.11244625387E+04  0.15380418212E+04  0.19393895224E+04  0.25500000920E-02 0.  1.
       -2    1    3    3    0  502  0.36227486086E+03  0.11244625387E+04  0.11089657344E+04  0.16203283852E+04  0.25500000920E-02 0. -1.
</event>
<event>
 5   0  0.5104174E-06  0.2404585E+04  0.7818609E-02  0.8437789E-01
        1   -1    0    0  501    0  0.00000000000E+00  0.00000000000E+00  0.10516819739E+04  0.10516819739E+04  0.50400001928E-02 0. -1.
       -1   -1    0    0    0  501  0.00000000000E+00  0.00000000000E+00 -0.13744722265E+04  0.13744722265E+04  0.50400001928E-02 0.  1.
    10030    2    1    2    0    0  0.00000000000E+00  0.00000000000E+00 -0.32279025265E+03  0.24261542004E+04  0.24045853399E+04 0.  0.
        3    1    3    3  502    0 -0.35121143198E+03  0.66727024135E+02 -0.13196054067E+04  0.13671724124E+04  0.10100000352E+00 0.  1.
       -3    1    3    3    0  502  0.35121143198E+03 -0.66727024135E+02  0.99681515405E+03  0.10589817880E+04  0.10100000352E+00 0. -1.
</event>
<event>
 5   0  0.5196696E-06  0.2399449E+04  0.7818609E-02  0.8439710E-01
       -1   -1    0    0    0  501  0.00000000000E+00  0.00000000000E+00  0.15625064547E+04  0.15625064547E+04  0.50400001928E-02 0.  1.
        1   -1    0    0  501    0  0.00000000000E+00  0.00000000000E+00 -0.92117270091E+03  0.92117270092E+03  0.50400001928E-02 0. -1.
    10030    2    1    2    0    0  0.00000000000E+00  0.00000000000E+00  0.64133375379E+03  0.24836791556E+04  0.23994485126E+04 0.  0.
        1    1    3    3  502    0  0.53886412068E+03 -0.99775736366E+03 -0.84803381690E+02  0.11371393542E+04  0.50400001928E-02 0.  1.
       -1    1    3    3    0  502 -0.53886412068E+03  0.99775736366E+03  0.72613713548E+03  0.13465398014E+04  0.50400001928E-02 0. -1.
</event>
<event>
 5   0  0.1169371E-05  0.2387477E+04  0.7818609E-02  0.8444207E-01
       -2   -1    0    0    0  501  0.00000000000E+00  0.00000000000E+00  0.43593549862E+03  0.43593549863E+03  0.25500000920E-02 0. -1.
        2   -1    0    0  501    0  0.00000000000E+00  0.00000000000E+00 -0.32688584939E+04  0.32688584939E+04  0.25500000920E-02 0.  1.
    10030    2    1    2    0    0  0.00000000000E+00  0.00000000000E+00 -0.28329229953E+04  0.37047939925E+04  0.23874768753E+04 0.  0.
        2    1    3    3  502    0 -0.40233821274E+03 -0.83827703927E+02 -0.31556170952E+04  0.31822668607E+04  0.25500000920E-02 0.  1.
       -2    1    3    3    0  502  0.40233821274E+03  0.83827703927E+02  0.32269409990E+03  0.52252713182E+03  0.25500000920E-02 0. -1.
</event>
<event>
 5   0  0.1198313E-05  0.2393111E+04  0.7818609E-02  0.8442087E-01
       -2   -1    0    0    0  501  0.00000000000E+00  0.00000000000E+00  0.71814945828E+03  0.71814945828E+03  0.25500000920E-02 0. -1.
        2   -1    0    0  501    0  0.00000000000E+00  0.00000000000E+00 -0.19936595229E+04  0.19936595229E+04  0.25500000920E-02 0.  1.
    10030    2    1    2    0    0  0.00000000000E+00  0.00000000000E+00 -0.12755100646E+04  0.27118089812E+04  0.23931113692E+04 0.  0.
        5    1    3    3  502    0  0.80035946957E+03 -0.22743680355E+03 -0.16121655615E+04  0.18142223314E+04  0.46999998093E+01 0.  1.
       -5    1    3    3    0  502 -0.80035946957E+03  0.22743680355E+03  0.33665549692E+03  0.89758664972E+03  0.46999998093E+01 0. -1.
</event>
<event>
 5   0  0.1198313E-05  0.2405039E+04  0.7818609E-02  0.8437619E-01
       -2   -1    0    0    0  501  0.00000000000E+00  0.00000000000E+00  0.86109240442E+03  0.86109240443E+03  0.25500000920E-02 0. -1.
        2   -1    0    0  501    0  0.00000000000E+00  0.00000000000E+00 -0.16793239721E+04  0.16793239721E+04  0.25500000920E-02 0.  1.
    10030    2    1    2    0    0  0.00000000000E+00  0.00000000000E+00 -0.81823156766E+03  0.25404163765E+04  0.24050389743E+04 0.  0.
        5    1    3    3  502    0 -0.16721547932E+03  0.74065402233E+03 -0.13940744036E+04  0.15874491898E+04  0.46999998093E+01 0.  1.
       -5    1    3    3    0  502  0.16721547932E+03 -0.74065402233E+03  0.57584283594E+03  0.95296718675E+03  0.46999998093E+01 0. -1.
</event>
<event>
 5   0  0.5034479E-06  0.2404286E+04  0.7818609E-02  0.8437901E-01
        1   -1    0    0  501    0  0.00000000000E+00  0.00000000000E+00  0.20635283097E+04  0.20635283097E+04  0.50400001928E-02 0. -1.
       -1   -1    0    0    0  501  0.00000000000E+00  0.00000000000E+00 -0.70032848633E+03  0.70032848635E+03  0.50400001928E-02 0.  1.
    10030    2    1    2    0    0  0.00000000000E+00  0.00000000000E+00  0.13631998233E+04  0.27638567960E+04  0.24042858879E+04 0.  0.
        4    1    3    3  502    0  0.27409524978E+03 -0.85405461391E+03 -0.23848052591E+03  0.92812287097E+03  0.12699999809E+01 0.  1.
       -4    1    3    3    0  502 -0.27409524978E+03  0.85405461391E+03  0.16016803492E+04  0.18357339250E+04  0.12699999809E+01 0. -1.
</event>
<event>
 5   0  0.5042742E-06  0.2407750E+04  0.7818609E-02  0.8436608E-01
        1   -1    0    0  501    0  0.00000000000E+00  0.00000000000E+00  0.17580114329E+04  0.17580114329E+04  0.50400001928E-02 0. -1.
       -1   -1    0    0    0  501  0.00000000000E+00  0.00000000000E+00 -0.82440575191E+03  0.82440575193E+03  0.50400001928E-02 0.  1.
    10030    2    1    2    0    0  0.00000000000E+00  0.00000000000E+00  0.93360568099E+03  0.25824171848E+04  0.24077497688E+04 0.  0.
        5    1    3    3  502    0  0.70751143712E+03 -0.45873054592E+03  0.13883711177E+04  0.16243776033E+04  0.46999998093E+01 0. -1.
       -5    1    3    3    0  502 -0.70751143712E+03  0.45873054592E+03 -0.45476543675E+03  0.95803958158E+03  0.46999998093E+01 0.  1.
</event>
<event>
 5   0  0.1168435E-05  0.2398982E+04  0.7818609E-02  0.8439885E-01
        2   -1    0    0  501    0  0.00000000000E+00  0.00000000000E+00  0.18548649528E+04  0.18548649528E+04  0.25500000920E-02 0.  1.
       -2   -1    0    0    0  501  0.00000000000E+00  0.00000000000E+00 -0.77567867387E+03  0.77567867387E+03  0.25500000920E-02 0. -1.
    10030    2    1    2    0    0  0.00000000000E+00  0.00000000000E+00  0.10791862790E+04  0.26305436267E+04  0.23989824400E+04 0.  0.
        1    1    3    3  502    0 -0.63475332056E+03  0.75677565338E+03  0.12858408879E+04  0.16214215851E+04  0.50400001928E-02 0. -1.
       -1    1    3    3    0  502  0.63475332056E+03 -0.75677565338E+03 -0.20665460893E+03  0.10091220416E+04  0.50400001928E-02 0.  1.
</event>
<event>
 5   0  0.1154897E-05  0.2316094E+04  0.7818609E-02  0.8471602E-01
        2   -1    0    0  501    0  0.00000000000E+00  0.00000000000E+00  0.18455284145E+04  0.18455284145E+04  0.25500000920E-02 0.  1.
       -2   -1    0    0    0  501  0.00000000000E+00  0.00000000000E+00 -0.72666050631E+03  0.72666050631E+03  0.25500000920E-02 0. -1.
    10030    2    1    2    0    0  0.00000000000E+00  0.00000000000E+00  0.11188679082E+04  0.25721889208E+04  0.23160937909E+04 0.  0.
        4    1    3    3  502    0  0.76563598413E+02 -0.10253666753E+03  0.18376513092E+04  0.18421019787E+04  0.12699999809E+01 0.  1.
       -4    1    3    3    0  502 -0.76563598413E+02  0.10253666753E+03 -0.71878340094E+03  0.73008694219E+03  0.12699999809E+01 0. -1.
</event>
<event>
 5   0  0.1169371E-05  0.2396802E+04  0.7818609E-02  0.8440702E-01
        2   -1    0    0  501    0  0.00000000000E+00  0.00000000000E+00  0.21076922126E+04  0.21076922126E+04  0.25500000920E-02 0.  1.
       -2   -1    0    0    0  501  0.00000000000E+00  0.00000000000E+00 -0.68139189508E+03  0.68139189509E+03  0.25500000920E-02 0. -1.
    10030    2    1    2    0    0  0.00000000000E+00  0.00000000000E+00  0.14263003175E+04  0.27890841076E+04  0.23968015278E+04 0.  0.
        2    1    3    3  502    0  0.98118335330E+02 -0.65002360697E+03  0.18791481414E+04  0.19908178306E+04  0.25500000920E-02 0.  1.
       -2    1    3    3    0  502 -0.98118335330E+02  0.65002360697E+03 -0.45284782395E+03  0.79826627701E+03  0.25500000920E-02 0. -1.
</event>
<event>
 5   0  0.1169371E-05  0.2416330E+04  0.7818609E-02  0.8433415E-01
        2   -1    0    0  501    0  0.00000000000E+00  0.00000000000E+00  0.24136109244E+04  0.24136109244E+04  0.25500000920E-02 0.  1.
       -2   -1    0    0    0  501  0.00000000000E+00  0.00000000000E+00 -0.60476290885E+03  0.60476290885E+03  0.25500000920E-02 0. -1.
    10030    2    1    2    0    0  0.00000000000E+00  0.00000000000E+00  0.18088480156E+04  0.30183738333E+04  0.24163297486E+04 0.  0.
        2    1    3    3  502    0  0.62164195617E+02  0.96943947722E+03  0.18017193160E+04  0.20469171407E+04  0.25500000920E-02 0.  1.
       -2    1    3    3    0  502 -0.62164195617E+02 -0.96943947722E+03  0.71286995774E+01  0.97145669258E+03  0.25500000920E-02 0. -1.
</event>
<event>
 5   0  0.5064437E-06  0.2490755E+04  0.7818609E-02  0.8406287E-01
       -1   -1    0    0    0  501  0.00000000000E+00  0.00000000000E+00  0.69535837099E+03  0.69535837101E+03  0.50400001928E-02 0.  1.
        1   -1    0    0  501    0  0.00000000000E+00  0.00000000000E+00 -0.22304534805E+04  0.22304534805E+04  0.50400001928E-02 0. -1.
    10030    2    1    2    0    0  0.00000000000E+00  0.00000000000E+00 -0.15350951095E+04  0.29258118515E+04  0.24907545032E+04 0.  0.
        2    1    3    3  502    0  0.93000250116E+03 -0.82828640178E+03 -0.76897817909E+03  0.14636565360E+04  0.25500000920E-02 0.  1.
       -2    1    3    3    0  502 -0.93000250116E+03  0.82828640178E+03 -0.76611693041E+03  0.14621553155E+04  0.25500000920E-02 0. -1.
</event>
<event>
 5   0  0.5104174E-06  0.2402816E+04  0.7818609E-02  0.8438450E-01
        1   -1    0    0  501    0  0.00000000000E+00  0.00000000000E+00  0.13194243046E+04  0.13194243046E+04  0.50400001928E-02 0. -1.
       -1   -1    0    0    0  501  0.00000000000E+00  0.00000000000E+00 -0.10939477392E+04  0.10939477393E+04  0.50400001928E-02 0.  1.
    10030    2    1    2    0    0  0.00000000000E+00  0.00000000000E+00  0.22547656536E+03  0.24133720439E+04  0.24028160439E+04 0.  0.
        3    1    3    3  502    0  0.35846082735E+03 -0.57266716105E+02  0.12630239647E+04  0.13141549327E+04  0.10100000352E+00 0. -1.
       -3    1    3    3    0  502 -0.35846082735E+03  0.57266716105E+02 -0.10375473993E+04  0.10992171112E+04  0.10100000352E+00 0.  1.
</event>
<event>
 5   0  0.1198313E-05  0.2394390E+04  0.7818609E-02  0.8441607E-01
       -2   -1    0    0    0  501  0.00000000000E+00  0.00000000000E+00  0.13562099004E+04  0.13562099004E+04  0.25500000920E-02 0. -1.
        2   -1    0    0  501    0  0.00000000000E+00  0.00000000000E+00 -0.10568241113E+04  0.10568241113E+04  0.25500000920E-02 0.  1.
    10030    2    1    2    0    0  0.00000000000E+00  0.00000000000E+00  0.29938578904E+03  0.24130340117E+04  0.23943895445E+04 0.  0.
        5    1    3    3  502    0 -0.52771015567E+03 -0.33395378309E+03 -0.87965659241E+03  0.10788053338E+04  0.46999998093E+01 0.  1.
       -5    1    3    3    0  502  0.52771015567E+03  0.33395378309E+03  0.11790423815E+04  0.13342286779E+04  0.46999998093E+01 0. -1.
</event>
<event>
 5   0  0.1168435E-05  0.2399388E+04  0.7818609E-02  0.8439733E-01
        2   -1    0    0  501    0  0.00000000000E+00  0.00000000000E+00  0.17260539875E+04  0.17260539875E+04  0.25500000920E-02 0.  1.
       -2   -1    0    0    0  501  0.00000000000E+00  0.00000000000E+00 -0.83384711549E+03  0.83384711550E+03  0.25500000920E-02 0. -1.
    10030    2    1    2    0    0  0.00000000000E+00  0.00000000000E+00  0.89220687202E+03  0.25599011030E+04  0.23993875374E+04 0.  0.
        1    1    3    3  502    0 -0.31710843739E+03  0.10074927903E+04 -0.16087197469E+03  0.10684003350E+04  0.50400001928E-02 0. -1.
       -1    1    3    3    0  502  0.31710843739E+03 -0.10074927903E+04  0.10530788467E+04  0.14915007680E+04  0.50400001928E-02 0.  1.
</event>
<event>
 5   0  0.5034479E-06  0.2401643E+04  0.7818609E-02  0.8438889E-01
        1   -1    0    0  501    0  0.00000000000E+00  0.00000000000E+00  0.18410837504E+04  0.18410837504E+04  0.50400001928E-02 0.  1.
       -1   -1    0    0    0  501  0.00000000000E+00  0.00000000000E+00 -0.78321944347E+03  0.78321944348E+03  0.50400001928E-02 0. -1.
    10030    2    1    2    0    0  0.00000000000E+00  0.00000000000E+00  0.10578643070E+04  0.26243031939E+04  0.24016432628E+04 0.  0.
        4    1    3    3  502    0  0.27972256703E+02  0.10480450559E+04  0.11686959209E+04  0.15700422462E+04  0.12699999809E+01 0.  1.
       -4    1    3    3    0  502 -0.27972256703E+02 -0.10480450559E+04 -0.11083161391E+03  0.10542609477E+04  0.12699999809E+01 0. -1.
</event>
<event>
 5   0  0.5104174E-06  0.2404959E+04  0.7818609E-02  0.8437649E-01
       -1   -1    0    0    0  501  0.00000000000E+00  0.00000000000E+00  0.91257860261E+03  0.91257860262E+03  0.50400001928E-02 0. -1.
        1   -1    0    0  501    0  0.00000000000E+00  0.00000000000E+00 -0.15844736520E+04  0.15844736520E+04  0.50400001928E-02 0.  1.
    10030    2    1    2    0    0  0.00000000000E+00  0.00000000000E+00 -0.67189504935E+03  0.24970522546E+04  0.24049588364E+04 0.  0.
        3    1    3    3  502    0  0.37091615009E+03 -0.11383173137E+04 -0.45254947967E+03  0.12799008317E+04  0.10100000352E+00 0. -1.
       -3    1    3    3    0  502 -0.37091615009E+03  0.11383173137E+04 -0.21934556967E+03  0.12171514229E+04  0.10100000352E+00 0.  1.
</event>
<event>
 5   0  0.1198313E-05  0.2403847E+04  0.7818609E-02  0.8438065E-01
        2   -1    0    0  501    0  0.00000000000E+00  0.00000000000E+00  0.18911158592E+04  0.18911158592E+04  0.25500000920E-02 0.  1.
       -2   -1    0    0    0  501  0.00000000000E+00  0.00000000000E+00 -0.76389809433E+03  0.76389809433E+03  0.25500000920E-02 0. -1.
    10030    2    1    2    0    0  0.00000000000E+00  0.00000000000E+00  0.11272177649E+04  0.26550139535E+04  0.24038467514E+04 0.  0.
        5    1    3    3  502    0  0.10923001113E+04  0.26387977406E+02  0.10503246622E+02  0.10926793979E+04  0.46999998093E+01 0. -1.
       -5    1    3    3    0  502 -0.10923001113E+04 -0.26387977406E+02  0.11167145182E+04  0.15623345556E+04  0.46999998093E+01 0.  1.
</event>
<event>
 5   0  0.1198313E-05  0.2412061E+04  0.7818609E-02  0.8435002E-01
       -2   -1    0    0    0  501  0.00000000000E+00  0.00000000000E+00  0.10079771643E+04  0.10079771643E+04  0.25500000920E-02 0.  1.
        2   -1    0    0  501    0  0.00000000000E+00  0.00000000000E+00 -0.14429990744E+04  0.14429990744E+04  0.25500000920E-02 0. -1.
    10030    2    1    2    0    0  0.00000000000E+00  0.00000000000E+00 -0.43502191013E+03  0.24509762387E+04  0.24120614545E+04 0.  0.
        5    1    3    3  502    0  0.51456935539E+03  0.10797619190E+04 -0.60681693391E+02  0.11976526129E+04  0.46999998093E+01 0. -1.
       -5    1    3    3    0  502 -0.51456935539E+03 -0.10797619190E+04 -0.37434021674E+03  0.12533236258E+04  0.46999998093E+01 0.  1.
</event>
<event>
 5   0  0.1169371E-05  0.2388574E+04  0.7818609E-02  0.8443794E-01
        2   -1    0    0  501    0  0.00000000000E+00  0.00000000000E+00  0.10039305882E+04  0.10039305882E+04  0.25500000920E-02 0.  1.
       -2   -1    0    0    0  501  0.00000000000E+00  0.00000000000E+00 -0.14207376839E+04  0.14207376839E+04  0.25500000920E-02 0. -1.
    10030    2    1    2    0    0  0.00000000000E+00  0.00000000000E+00 -0.41680709569E+03  0.24246682721E+04  0.23885744859E+04 0.  0.
        2    1    3    3  502    0 -0.67314870777E+03  0.98621635882E+03 -0.23264174402E+03  0.12165007482E+04  0.25500000920E-02 0.  1.
       -2    1    3    3    0  502  0.67314870777E+03 -0.98621635882E+03 -0.18416535168E+03  0.12081675240E+04  0.25500000920E-02 0. -1.
</event>
<event>
 5   0  0.1154897E-05  0.2413793E+04  0.7818609E-02  0.8434358E-01
       -2   -1    0    0    0  501  0.00000000000E+00  0.00000000000E+00  0.90550947471E+03  0.90550947471E+03  0.25500000920E-02 0. -1.
        2   -1    0    0  501    0  0.00000000000E+00  0.00000000000E+00 -0.16085956983E+04  0.16085956983E+04  0.25500000920E-02 0.  1.
    10030    2    1    2    0    0  0.00000000000E+00  0.00000000000E+00 -0.70308622362E+03  0.25141051730E+04  0.24137925725E+04 0.  0.
        4    1    3    3  502    0 -0.81604514860E+03 -0.29692111247E+02 -0.12771746329E+04  0.15159115943E+04  0.12699999809E+01 0.  1.
       -4    1    3    3    0  502  0.81604514860E+03  0.29692111247E+02  0.57408840927E+03  0.99819357871E+03  0.12699999809E+01 0. -1.
</event>
<event>
 5   0  0.5196696E-06  0.2400491E+04  0.7818609E-02  0.8439320E-01
        1   -1    0    0  501    0  0.00000000000E+00  0.00000000000E+00  0.13083826352E+04  0.13083826352E+04  0.50400001928E-02 0. -1.
       -1   -1    0    0    0  501  0.00000000000E+00  0.00000000000E+00 -0.11010460708E+04  0.11010460708E+04  0.50400001928E-02 0.  1.
    10030    2    1    2    0    0  0.00000000000E+00  0.00000000000E+00  0.20733656445E+03  0.24094287060E+04  0.24004912494E+04 0.  0.
        1    1    3    3  502    0  0.84364100678E+03  0.51234020636E+03 -0.58178494253E+03  0.11457296168E+04  0.50400001928E-02 0.  1.
       -1    1    3    3    0  502 -0.84364100678E+03 -0.51234020636E+03  0.78912150697E+03  0.12636990892E+04  0.50400001928E-02 0. -1.
</event>
<event>
 5   0  0.5196696E-06  0.2403128E+04  0.7818609E-02  0.8438333E-01
        1   -1    0    0  501    0  0.00000000000E+00  0.00000000000E+00  0.10066926917E+04  0.10066926917E+04  0.50400001928E-02 0. -1.
       -1   -1    0    0    0  501  0.00000000000E+00  0.00000000000E+00 -0.14341579475E+04  0.14341579475E+04  0.50400001928E-02 0.  1.
    10030    2    1    2    0    0  0.00000000000E+00  0.00000000000E+00 -0.42746525575E+03  0.24408506392E+04  0.24031282317E+04 0.  0.
        1    1    3    3  502    0 -0.35758768673E+03 -0.10900160781E+04 -0.57676776202E+03  0.12840035263E+04  0.50400001928E-02 0.  1.
       -1    1    3    3    0  502  0.35758768673E+03  0.10900160781E+04  0.14930250627E+03  0.11568471129E+04  0.50400001928E-02 0. -1.
</event>
<event>
 5   0  0.5042742E-06  0.2410480E+04  0.7818609E-02  0.8435590E-01
        1   -1    0    0  501    0  0.00000000000E+00  0.00000000000E+00  0.16075348917E+04  0.16075348917E+04  0.50400001928E-02 0.  1.
       -1   -1    0    0    0  501  0.00000000000E+00  0.00000000000E+00 -0.90362156742E+03  0.90362156744E+03  0.50400001928E-02 0. -1.
    10030    2    1    2    0    0  0.00000000000E+00  0.00000000000E+00  0.70391332431E+03  0.25111564592E+04  0.24104797851E+04 0.  0.
        5    1    3    3  502    0  0.68003657273E+03 -0.48798301247E+03 -0.55144386386E+03  0.10023420502E+04  0.46999998093E+01 0. -1.
       -5    1    3    3    0  502 -0.68003657273E+03  0.48798301247E+03  0.12553571882E+04  0.15088144089E+04  0.46999998093E+01 0.  1.
</event>
<event>
 5   0  0.1168435E-05  0.2402551E+04  0.7818609E-02  0.8438549E-01
        2   -1    0    0  501    0  0.00000000000E+00  0.00000000000E+00  0.23087838685E+04  0.23087838685E+04  0.25500000920E-02 0.  1.
       -2   -1    0    0    0  501  0.00000000000E+00  0.00000000000E+00 -0.62503164798E+03  0.62503164798E+03  0.25500000920E-02 0. -1.
    10030    2    1    2    0    0  0.00000000000E+00  0.00000000000E+00  0.16837522205E+04  0.29338155165E+04  0.24025511326E+04 0.  0.
        1    1    3    3  502    0 -0.32005116782E+03 -0.79763574795E+03  0.18667540189E+04  0.20550975898E+04  0.50400001928E-02 0.  1.
       -1    1    3    3    0  502  0.32005116782E+03  0.79763574795E+03 -0.18300179841E+03  0.87871792668E+03  0.50400001928E-02 0. -1.
</event>
<event>
 5   0  0.1154897E-05  0.2386669E+04  0.7818609E-02  0.8444512E-01
       -2   -1    0    0    0  501  0.00000000000E+00  0.00000000000E+00  0.68338330921E+03  0.68338330921E+03  0.25500000920E-02 0.  1.
        2   -1    0    0  501    0  0.00000000000E+00  0.00000000000E+00 -0.20838182977E+04  0.20838182977E+04  0.25500000920E-02 0. -1.
    10030    2    1    2    0    0  0.00000000000E+00  0.00000000000E+00 -0.14004349885E+04  0.27672016069E+04  0.23866685099E+04 0.  0.
        4    1    3    3  502    0 -0.91883394377E+02 -0.78441566432E+03  0.33700905542E+03  0.85867759312E+03  0.12699999809E+01 0.  1.
       -4    1    3    3    0  502  0.91883394377E+02  0.78441566432E+03 -0.17374440439E+04  0.19085240138E+04  0.12699999809E+01 0. -1.
</event>
<event>
 5   0  0.5034479E-06  0.2403075E+04  0.7818609E-02  0.8438353E-01
       -1   -1    0    0    0  501  0.00000000000E+00  0.00000000000E+00  0.68590584321E+03  0.68590584323E+03  0.50400001928E-02 0. -1.
        1   -1    0    0  501    0  0.00000000000E+00  0.00000000000E+00 -0.21047964948E+04  0.21047964948E+04  0.50400001928E-02 0.  1.
    10030    2    1    2    0    0  0.00000000000E+00  0.00000000000E+00 -0.14188906516E+04  0.27907023380E+04  0.24030748757E+04 0.  0.
        4    1    3    3  502    0  0.26586368721E+03  0.11498184340E+04 -0.44737953920E+03  0.12621077594E+04  0.12699999809E+01 0. -1.
       -4    1    3    3    0  502 -0.26586368721E+03 -0.11498184340E+04 -0.97151111236E+03  0.15285945786E+04  0.12699999809E+01 0.  1.
</event>
<event>
 5   0  0.5042742E-06  0.2393300E+04  0.7818609E-02  0.8442016E-01
       -1   -1    0    0    0  501  0.00000000000E+00  0.00000000000E+00  0.79603145440E+03  0.79603145442E+03  0.50400001928E-02 0. -1.
        1   -1    0    0  501    0  0.00000000000E+00  0.00000000000E+00 -0.17988875933E+04  0.17988875933E+04  0.50400001928E-02 0.  1.
    10030    2    1    2    0    0  0.00000000000E+00  0.00000000000E+00 -0.10028561389E+04  0.25949190477E+04  0.23932999037E+04 0.  0.
        5    1    3    3  502    0 -0.24609498603E+03  0.89780944116E+03  0.31379336042E+03  0.98240159702E+03  0.46999998093E+01 0. -1.
       -5    1    3    3    0  502  0.24609498603E+03 -0.89780944116E+03 -0.13166494993E+04  0.16125174507E+04  0.46999998093E+01 0.  1.
</event>
<event>
 5   0  0.1168435E-05  0.2398112E+04  0.7818609E-02  0.8440211E-01
        2   -1    0    0  501    0  0.00000000000E+00  0.00000000000E+00  0.12635982109E+04  0.12635982109E+04  0.25500000920E-02 0. -1.
       -2   -1    0    0    0  501  0.00000000000E+00  0.00000000000E+00 -0.11378108773E+04  0.11378108773E+04  0.25500000920E-02 0.  1.
    10030    2    1    2    0    0  0.00000000000E+00  0.00000000000E+00  0.12578733364E+03  0.24014090882E+04  0.23981124151E+04 0.  0.
        1    1    3    3  502    0 -0.80300881446E+03 -0.82938109850E+03  0.38743737668E+03  0.12177043498E+04  0.50400001928E-02 0.  1.
       -1    1    3    3    0  502  0.80300881446E+03  0.82938109850E+03 -0.26165004304E+03  0.11837047384E+04  0.50400001928E-02 0. -1.
</event>
<event>
 5   0  0.5104174E-06  0.2380339E+04  0.7818609E-02  0.8446901E-01
       -1   -1    0    0    0  501  0.00000000000E+00  0.00000000000E+00  0.89864857216E+03  0.89864857217E+03  0.50400001928E-02 0. -1.
        1   -1    0    0  501    0  0.00000000000E+00  0.00000000000E+00 -0.15762591114E+04  0.15762591114E+04  0.50400001928E-02 0.  1.
    10030    2    1    2    0    0  0.00000000000E+00  0.00000000000E+00 -0.67761053926E+03  0.24749076836E+04  0.23803386312E+04 0.  0.
        3    1    3    3  502    0 -0.89487796732E+03  0.77698183947E+03 -0.22492935733E+03  0.12062754997E+04  0.10100000352E+00 0. -1.
       -3    1    3    3    0  502  0.89487796732E+03 -0.77698183947E+03 -0.45268118193E+03  0.12686321839E+04  0.10100000352E+00 0.  1.
</event>
<event>
 5   0  0.1169371E-05  0.2398950E+04  0.7818609E-02  0.8439897E-01
        2   -1    0    0  501    0  0.00000000000E+00  0.00000000000E+00  0.13921246242E+04  0.13921246242E+04  0.25500000920E-02 0.  1.
       -2   -1    0    0    0  501  0.00000000000E+00  0.00000000000E+00 -0.10334853947E+04  0.10334853947E+04  0.25500000920E-02 0. -1.
    10030    2    1    2    0    0  0.00000000000E+00  0.00000000000E+00  0.35863922956E+03  0.24256100189E+04  0.23989501593E+04 0.  0.
        2    1    3    3  502    0  0.88941755216E+03 -0.74388252789E+03  0.48984111683E+03  0.12587172507E+04  0.25500000920E-02 0. -1.
       -2    1    3    3    0  502 -0.88941755216E+03  0.74388252789E+03 -0.13120188726E+03  0.11668927683E+04  0.25500000920E-02 0.  1.
</event>
<event>
 5   0  0.1169371E-05  0.2421735E+04  0.7818609E-02  0.8431411E-01
        2   -1    0    0  501    0  0.00000000000E+00  0.00000000000E+00  0.15756342049E+04  0.15756342049E+04  0.25500000920E-02 0. -1.
       -2   -1    0    0    0  501  0.00000000000E+00  0.00000000000E+00 -0.93054609921E+03  0.93054609922E+03  0.25500000920E-02 0.  1.
    10030    2    1    2    0    0  0.00000000000E+00  0.00000000000E+00  0.64508810566E+03  0.25061803041E+04  0.24217351326E+04 0.  0.
        2    1    3    3  502    0  0.68929744057E+03  0.82534714645E+03 -0.25352747394E+03  0.11048099627E+04  0.25500000920E-02 0.  1.
       -2    1    3    3    0  502 -0.68929744057E+03 -0.82534714645E+03  0.89861557960E+03  0.14013703414E+04  0.25500000920E-02 0. -1.
</event>
<event>
 5   0  0.1154897E-05  0.2392523E+04  0.7818609E-02  0.8442308E-01
        2   -1    0    0  501    0  0.00000000000E+00  0.00000000000E+00  0.12011808573E+04  0.12011808573E+04  0.25500000920E-02 0. -1.
       -2   -1    0    0    0  501  0.00000000000E+00  0.00000000000E+00 -0.11913620518E+04  0.11913620518E+04  0.25500000920E-02 0.  1.
    10030    2    1    2    0    0  0.00000000000E+00  0.00000000000E+00  0.98188055091E+01  0.23925429090E+04  0.23925227611E+04 0.  0.
        4    1    3    3  502    0 -0.60396656061E+03 -0.10325880971E+04 -0.17917750244E+00  0.11962505714E+04  0.12699999809E+01 0.  1.
       -4    1    3    3    0  502  0.60396656061E+03  0.10325880971E+04  0.99979830115E+01  0.11962923376E+04  0.12699999809E+01 0. -1.
</event>
<event>
 5   0  0.1174210E-05  0.2400458E+04  0.7818609E-02  0.8439332E-01
       -2   -1    0    0    0  501  0.00000000000E+00  0.00000000000E+00  0.99109071105E+03  0.99109071105E+03  0.25500000920E-02 0. -1.
        2   -1    0    0  501    0  0.00000000000E+00  0.00000000000E+00 -0.14534987911E+04  0.14534987911E+04  0.25500000920E-02 0.  1.
    10030    2    1    2    0    0  0.00000000000E+00  0.00000000000E+00 -0.46240808004E+03  0.24445895021E+04  0.24004575817E+04 0.  0.
        3    1    3    3  502    0  0.95057500702E+03  0.43990489499E+03  0.36560766372E+03  0.11094044053E+04  0.10100000352E+00 0. -1.
       -3    1    3    3    0  502 -0.95057500702E+03 -0.43990489499E+03 -0.82801574375E+03  0.13351850968E+04  0.10100000352E+00 0.  1.
</event>
<event>
 5   0  0.1168435E-05  0.2395804E+04  0.7818609E-02  0.8441076E-01
       -2   -1    0    0    0  501  0.00000000000E+00  0.00000000000E+00  0.78596748433E+03  0.78596748433E+03  0.25500000920E-02 0. -1.
        2   -1    0    0  501    0  0.00000000000E+00  0.00000000000E+00 -0.18257356350E+04  0.18257356350E+04  0.25500000920E-02 0.  1.
    10030    2    1    2    0    0  0.00000000000E+00  0.00000000000E+00 -0.10397681507E+04  0.26117031193E+04  0.23958037015E+04 0.  0.
        1    1    3    3  502    0 -0.30811503525E+03 -0.68502012724E+03 -0.15371327829E+04  0.17108374095E+04  0.50400001928E-02 0.  1.
       -1    1    3    3    0  502  0.30811503525E+03  0.68502012724E+03  0.49736463221E+03  0.90086570978E+03  0.50400001928E-02 0. -1.
</event>
<event>
 5   0  0.1198313E-05  0.2395588E+04  0.7818609E-02  0.8441157E-01
        2   -1    0    0  501    0  0.00000000000E+00  0.00000000000E+00  0.98987242887E+03  0.98987242887E+03  0.25500000920E-02 0.  1.
       -2   -1    0    0    0  501  0.00000000000E+00  0.00000000000E+00 -0.14493886735E+04  0.14493886735E+04  0.25500000920E-02 0. -1.
    10030    2    1    2    0    0  0.00000000000E+00  0.00000000000E+00 -0.45951624464E+03  0.24392611024E+04  0.23955875159E+04 0.  0.
        5    1    3    3  502    0 -0.98830600268E+03 -0.32372272257E+03 -0.83485000823E+03  0.13336198042E+04  0.46999998093E+01 0. -1.
       -5    1    3    3    0  502  0.98830600268E+03  0.32372272257E+03  0.37533376359E+03  0.11056412981E+04  0.46999998093E+01 0.  1.
</event>
<event>
 5   0  0.5034479E-06  0.2396136E+04  0.7818609E-02  0.8440952E-01
        1   -1    0    0  501    0  0.00000000000E+00  0.00000000000E+00  0.83132320002E+03  0.83132320004E+03  0.50400001928E-02 0. -1.
       -1   -1    0    0    0  501  0.00000000000E+00  0.00000000000E+00 -0.17266045131E+04  0.17266045131E+04  0.50400001928E-02 0.  1.
    10030    2    1    2    0    0  0.00000000000E+00  0.00000000000E+00 -0.89528131306E+03  0.25579277131E+04  0.23961355463E+04 0.  0.
        4    1    3    3  502    0 -0.25912290296E+03  0.10508579637E+04  0.10077657580E+03  0.10870164073E+04  0.12699999809E+01 0. -1.
       -4    1    3    3    0  502  0.25912290296E+03 -0.10508579637E+04 -0.99605788885E+03  0.14709113058E+04  0.12699999809E+01 0.  1.
</event>
<event>
 5   0  0.5042742E-06  0.2332151E+04  0.7818609E-02  0.8465351E-01
       -1   -1    0    0    0  501  0.00000000000E+00  0.00000000000E+00  0.16061593533E+04  0.16061593533E+04  0.50400001928E-02 0.  1.
        1   -1    0    0  501    0  0.00000000000E+00  0.00000000000E+00 -0.84657358625E+03  0.84657358626E+03  0.50400001928E-02 0. -1.
    10030    2    1    2    0    0  0.00000000000E+00  0.00000000000E+00  0.75958576702E+03  0.24527329395E+04  0.23321510104E+04 0.  0.
        5    1    3    3  502    0  0.96055685029E+03  0.65465499194E+03  0.28301682437E+03  0.11963959353E+04  0.46999998093E+01 0. -1.
       -5    1    3    3    0  502 -0.96055685029E+03 -0.65465499194E+03  0.47656894265E+03  0.12563370042E+04  0.46999998093E+01 0.  1.
</event>
<event>
 5   0  0.1154897E-05  0.2389428E+04  0.7818609E-02  0.8443472E-01
       -2   -1    0    0    0  501  0.00000000000E+00  0.00000000000E+00  0.12013424167E+04  0.12013424167E+04  0.25500000920E-02 0.  1.
        2   -1    0    0  501    0  0.00000000000E+00  0.00000000000E+00 -0.11881226212E+04  0.11881226212E+04  0.25500000920E-02 0. -1.
    10030    2    1    2    0    0  0.00000000000E+00  0.00000000000E+00  0.13219795476E+02  0.23894650379E+04  0.23894284681E+04 0.  0.
        4    1    3    3  502    0 -0.25868536496E+03  0.49299559341E+03  0.10636869611E+04  0.12005808333E+04  0.12699999809E+01 0.  1.
       -4    1    3    3    0  502  0.25868536496E+03 -0.49299559341E+03 -0.10504671656E+04  0.11888842046E+04  0.12699999809E+01 0. -1.
</event>
<event>
 5   0  0.1169371E-05  0.2401477E+04  0.7818609E-02  0.8438951E-01
       -2   -1    0    0    0  501  0.00000000000E+00  0.00000000000E+00  0.75400996066E+03  0.75400996066E+03  0.25500000920E-02 0.  1.
        2   -1    0    0  501    0  0.00000000000E+00  0.00000000000E+00 -0.19121401173E+04  0.19121401173E+04  0.25500000920E-02 0. -1.
    10030    2    1    2    0    0  0.00000000000E+00  0.00000000000E+00 -0.11581301567E+04  0.26661500780E+04  0.24014767912E+04 0.  0.
        2    1    3    3  502    0  0.59663510460E+03  0.41912170567E+03 -0.16382197907E+04  0.17931537957E+04  0.25500000920E-02 0. -1.
       -2    1    3    3    0  502 -0.59663510460E+03 -0.41912170567E+03  0.48008963406E+03  0.87299628232E+03  0.25500000920E-02 0.  1.
</event>
<event>
 5   0  0.5042742E-06  0.2394982E+04  0.7818609E-02  0.8441384E-01
       -1   -1    0    0    0  501  0.00000000000E+00  0.00000000000E+00  0.10979536802E+04  0.10979536802E+04  0.50400001928E-02 0. -1.
        1   -1    0    0  501    0  0.00000000000E+00  0.00000000000E+00 -0.13060524193E+04  0.13060524193E+04  0.50400001928E-02 0.  1.
    10030    2    1    2    0    0  0.00000000000E+00  0.00000000000E+00 -0.20809873910E+03  0.24040060995E+04  0.23949823050E+04 0.  0.
        5    1    3    3  502    0 -0.33372866248E+03 -0.11499888204E+04 -0.93338495436E+02  0.12010758810E+04  0.46999998093E+01 0.  1.
       -5    1    3    3    0  502  0.33372866248E+03  0.11499888204E+04 -0.11476024366E+03  0.12029302185E+04  0.46999998093E+01 0. -1.
</event>
<event>
 5   0  0.5064437E-06  0.2387803E+04  0.7818609E-02  0.8444084E-01
        1   -1    0    0  501    0  0.00000000000E+00  0.00000000000E+00  0.20905786957E+04  0.20905786957E+04  0.50400001928E-02 0. -1.
       -1   -1    0    0    0  501  0.00000000000E+00  0.00000000000E+00 -0.68182139631E+03  0.68182139633E+03  0.50400001928E-02 0.  1.
    10030    2    1    2    0    0  0.00000000000E+00  0.00000000000E+00  0.14087572994E+04  0.27724000921E+04  0.23878034136E+04 0.  0.
        2    1    3    3  502    0 -0.15797568098E+03  0.27049187146E+03 -0.63325894607E+03  0.70649774317E+03  0.25500000920E-02 0.  1.
       -2    1    3    3    0  502  0.15797568098E+03 -0.27049187146E+03  0.20420162455E+04  0.20659023489E+04  0.25500000920E-02 0. -1.
</event>
<event>
 5   0  0.1198313E-05  0.2391795E+04  0.7818609E-02  0.8442582E-01
       -2   -1    0    0    0  501  0.00000000000E+00  0.00000000000E+00  0.98071578033E+03  0.98071578033E+03  0.25500000920E-02 0.  1.
        2   -1    0    0  501    0  0.00000000000E+00  0.00000000000E+00 -0.14582930324E+04  0.14582930324E+04  0.25500000920E-02 0. -1.
    10030    2    1    2    0    0  0.00000000000E+00  0.00000000000E+00 -0.47757725206E+03  0.24390088127E+04  0.23917951327E+04 0.  0.
        5    1    3    3  502    0  0.10233731639E+04  0.46089196116E+03 -0.65977555754E+03  0.13019369834E+04  0.46999998093E+01 0. -1.
       -5    1    3    3    0  502 -0.10233731639E+04 -0.46089196116E+03  0.18219830547E+03  0.11370718293E+04  0.46999998093E+01 0.  1.
</event>
<event>
 5   0  0.5064437E-06  0.2398416E+04  0.7818609E-02  0.8440097E-01
        1   -1    0    0  501    0  0.00000000000E+00  0.00000000000E+00  0.21242514908E+04  0.21242514908E+04  0.50400001928E-02 0. -1.
       -1   -1    0    0    0  501  0.00000000000E+00  0.00000000000E+00 -0.67699134391E+03  0.67699134393E+03  0.50400001928E-02 0.  1.
    10030    2    1    2    0    0  0.00000000000E+00  0.00000000000E+00  0.14472601469E+04  0.28012428347E+04  0.23984160370E+04 0.  0.
        2    1    3    3  502    0  0.63547314270E+03 -0.92374018237E+03  0.12204956735E+04  0.16573266813E+04  0.25500000920E-02 0. -1.
       -2    1    3    3    0  502 -0.63547314270E+03  0.92374018237E+03  0.22676447341E+03  0.11439161534E+04  0.25500000920E-02 0.  1.
</event>
<event>
 5   0  0.5104174E-06  0.2404059E+04  0.7818609E-02  0.8437986E-01
        1   -1    0    0  501    0  0.00000000000E+00  0.00000000000E+00  0.14878784072E+04  0.14878784072E+04  0.50400001928E-02 0. -1.
       -1   -1    0    0    0  501  0.00000000000E+00  0.00000000000E+00 -0.97109711445E+03  0.97109711446E+03  0.50400001928E-02 0.  1.
    10030    2    1    2    0    0  0.00000000000E+00  0.00000000000E+00  0.51678129273E+03  0.24589755216E+04  0.24040585915E+04 0.  0.
        3    1    3    3  502    0  0.11758178766E+04  0.23407892662E+03  0.34717083252E+03  0.12481459130E+04  0.10100000352E+00 0.  1.
       -3    1    3    3    0  502 -0.11758178766E+04 -0.23407892662E+03  0.16961046021E+03  0.12108296087E+04  0.10100000352E+00 0. -1.
</event>
<event>
 5   0  0.5196696E-06  0.2373944E+04  0.7818609E-02  0.8449324E-01
       -1   -1    0    0    0  501  0.00000000000E+00  0.00000000000E+00  0.49958073603E+03  0.49958073606E+03  0.50400001928E-02 0. -1.
        1   -1    0    0  501    0  0.00000000000E+00  0.00000000000E+00 -0.28201689525E+04  0.28201689525E+04  0.50400001928E-02 0.  1.
    10030    2    1    2    0    0  0.00000000000E+00  0.00000000000E+00 -0.23205882165E+04  0.33197496886E+04  0.23739436228E+04 0.  0.
        1    1    3    3  502    0 -0.85548278268E+03  0.65826344025E+03 -0.18506909817E+04  0.21424795584E+04  0.50400001928E-02 0.  1.
       -1    1    3    3    0  502  0.85548278268E+03 -0.65826344025E+03 -0.46989723479E+03  0.11772701302E+04  0.50400001928E-02 0. -1.
</event>
<event>
 5   0  0.1168435E-05  0.2402837E+04  0.7818609E-02  0.8438442E-01
       -2   -1    0    0    0  501  0.00000000000E+00  0.00000000000E+00  0.10338533150E+04  0.10338533150E+04  0.25500000920E-02 0.  1.
        2   -1    0    0  501    0  0.00000000000E+00  0.00000000000E+00 -0.13961418271E+04  0.13961418271E+04  0.25500000920E-02 0. -1.
    10030    2    1    2    0    0  0.00000000000E+00  0.00000000000E+00 -0.36228851203E+03  0.24299951421E+04  0.24028365372E+04 0.  0.
        1    1    3    3  502    0  0.26098408946E+03  0.81848200248E+03  0.66821781609E+03  0.10883659923E+04  0.50400001928E-02 0.  1.
       -1    1    3    3    0  502 -0.26098408946E+03 -0.81848200248E+03 -0.10305063281E+04  0.13416291498E+04  0.50400001928E-02 0. -1.
</event>
<event>
 5   0  0.1174210E-05  0.2400165E+04  0.7818609E-02  0.8439442E-01
       -2   -1    0    0    0  501  0.00000000000E+00  0.00000000000E+00  0.13277366111E+04  0.13277366111E+04  0.25500000920E-02 0. -1.
        2   -1    0    0  501    0  0.00000000000E+00  0.00000000000E+00 -0.10847016632E+04  0.10847016632E+04  0.25500000920E-02 0.  1.
    10030    2    1    2    0    0  0.00000000000E+00  0.00000000000E+00  0.24303494796E+03  0.24124382743E+04  0.24001650863E+04 0.  0.
        3    1    3    3  502    0 -0.32608339335E+03 -0.45632577062E+03 -0.94486695763E+03  0.10987889543E+04  0.10100000352E+00 0.  1.
       -3    1    3    3    0  502  0.32608339335E+03  0.45632577062E+03  0.11879019056E+04  0.13136493200E+04  0.10100000352E+00 0. -1.
</event>
<event>
 5   0  0.1198313E-05  0.2417404E+04  0.7818609E-02  0.8433016E-01
       -2   -1    0    0    0  501  0.00000000000E+00  0.00000000000E+00  0.32822074384E+04  0.32822074384E+04  0.25500000920E-02 0. -1.
        2   -1    0    0  501    0  0.00000000000E+00  0.00000000000E+00 -0.44511528855E+03  0.44511528856E+03  0.25500000920E-02 0.  1.
    10030    2    1    2    0    0  0.00000000000E+00  0.00000000000E+00  0.28370921498E+04  0.37273227269E+04  0.24174041541E+04 0.  0.
        5    1    3    3  502    0  0.51693791564E+03 -0.10864997064E+04  0.15959093787E+04  0.19986633672E+04  0.46999998093E+01 0. -1.
       -5    1    3    3    0  502 -0.51693791564E+03  0.10864997064E+04  0.12411827712E+04  0.17286593597E+04  0.46999998093E+01 0.  1.
</event>
<event>
 5   0  0.1154897E-05  0.2399470E+04  0.7818609E-02  0.8439702E-01
        2   -1    0    0  501    0  0.00000000000E+00  0.00000000000E+00  0.20240534060E+04  0.20240534061E+04  0.25500000920E-02 0. -1.
       -2   -1    0    0    0  501  0.00000000000E+00  0.00000000000E+00 -0.71112974380E+03  0.71112974380E+03  0.25500000920E-02 0.  1.
    10030    2    1    2    0    0  0.00000000000E+00  0.00000000000E+00  0.13129236622E+04  0.27351831499E+04  0.23994704250E+04 0.  0.
        4    1    3    3  502    0  0.72352858902E+03  0.95461252543E+03  0.73364210433E+03  0.14046391149E+04  0.12699999809E+01 0.  1.
       -4    1    3    3    0  502 -0.72352858902E+03 -0.95461252543E+03  0.57928155792E+03  0.13305440350E+04  0.12699999809E+01 0. -1.
</event>
<event>
 5   0  0.1168435E-05  0.2415149E+04  0.7818609E-02  0.8433854E-01
        2   -1    0    0  501    0  0.00000000000E+00  0.00000000000E+00  0.73418071269E+03  0.73418071270E+03  0.25500000920E-02 0. -1.
       -2   -1    0    0    0  501  0.00000000000E+00  0.00000000000E+00 -0.19862083055E+04  0.19862083055E+04  0.25500000920E-02 0.  1.
    10030    2    1    2    0    0  0.00000000000E+00  0.00000000000E+00 -0.12520275928E+04  0.27203890182E+04  0.24151487153E+04 0.  0.
        1    1    3    3  502    0  0.10416106703E+04 -0.20080687549E+02 -0.13138286771E+04  0.16767533555E+04  0.50400001928E-02 0.  1.
       -1    1    3    3    0  502 -0.10416106703E+04  0.20080687549E+02  0.61801084277E+02  0.10436356627E+04  0.50400001928E-02 0. -1.
</event>
<event>
 5   0  0.5064437E-06  0.2402662E+04  0.7818609E-02  0.8438508E-01
       -1   -1    0    0    0  501  0.00000000000E+00  0.00000000000E+00  0.70765205169E+03  0.70765205171E+03  0.50400001928E-02 0.  1.
        1   -1    0    0  501    0  0.00000000000E+00  0.00000000000E+00 -0.20394145161E+04  0.20394145161E+04  0.50400001928E-02 0. -1.
    10030    2    1    2    0    0  0.00000000000E+00  0.00000000000E+00 -0.13317624644E+04  0.27470665678E+04  0.24026617461E+04 0.  0.
        2    1    3    3  502    0  0.58204281522E+03  0.90487885062E+03 -0.12769189784E+04  0.16697609561E+04  0.25500000920E-02 0.  1.
       -2    1    3    3    0  502 -0.58204281522E+03 -0.90487885062E+03 -0.54843485971E+02  0.10773056117E+04  0.25500000920E-02 0. -1.
</event>
<event>
 5   0  0.5104174E-06  0.2402560E+04  0.7818609E-02  0.8438546E-01
        1   -1    0    0  501    0  0.00000000000E+00  0.00000000000E+00  0.13392698205E+04  0.13392698205E+04  0.50400001928E-02 0.  1.
       -1   -1    0    0    0  501  0.00000000000E+00  0.00000000000E+00 -0.10775076635E+04  0.10775076635E+04  0.50400001928E-02 0. -1.
    10030    2    1    2    0    0  0.00000000000E+00  0.00000000000E+00  0.26176215699E+03  0.24167774840E+04  0.24025598807E+04 0.  0.
        3    1    3    3  502    0 -0.89329789627E+03  0.36567445919E+03  0.85021741338E+03  0.12863003544E+04  0.10100000352E+00 0.  1.
       -3    1    3    3    0  502  0.89329789627E+03 -0.36567445919E+03 -0.58845525639E+03  0.11304771296E+04  0.10100000352E+00 0. -1.
</event>
<event>
 5   0  0.1174210E-05  0.2402426E+04  0.7818609E-02  0.8438596E-01
        2   -1    0    0  501    0  0.00000000000E+00  0.00000000000E+00  0.12620593781E+04  0.12620593781E+04  0.25500000920E-02 0. -1.
       -2   -1    0    0    0  501  0.00000000000E+00  0.00000000000E+00 -0.11433004321E+04  0.11433004321E+04  0.25500000920E-02 0.  1.
    10030    2    1    2    0    0  0.00000000000E+00  0.00000000000E+00  0.11875894600E+03  0.24053598102E+04  0.24024263005E+04 0.  0.
        3    1    3    3  502    0  0.57006356464E+03  0.38687617556E+03 -0.92582784042E+03  0.11540376264E+04  0.10100000352E+00 0.  1.
       -3    1    3    3    0  502 -0.57006356464E+03 -0.38687617556E+03  0.10445867864E+04  0.12513221837E+04  0.10100000352E+00 0. -1.
</event>
<event>
 5   0  0.1174210E-05  0.2390002E+04  0.7818609E-02  0.8443256E-01
       -2   -1    0    0    0  501  0.00000000000E+00  0.00000000000E+00  0.94399137121E+03  0.94399137122E+03  0.25500000920E-02 0.  1.
        2   -1    0    0  501    0  0.00000000000E+00  0.00000000000E+00 -0.15127550929E+04  0.15127550929E+04  0.25500000920E-02 0. -1.
    10030    2    1    2    0    0  0.00000000000E+00  0.00000000000E+00 -0.56876372166E+03  0.24567464641E+04  0.23900023050E+04 0.  0.
        3    1    3    3  502    0  0.86110046208E+03  0.82341405968E+03 -0.18948345978E+03  0.12064032125E+04  0.10100000352E+00 0. -1.
       -3    1    3    3    0  502 -0.86110046208E+03 -0.82341405968E+03 -0.37928026188E+03  0.12503432516E+04  0.10100000352E+00 0.  1.
</event>
<event>
 5   0  0.5064437E-06  0.2400619E+04  0.7818609E-02  0.8439272E-01
       -1   -1    0    0    0  501  0.00000000000E+00  0.00000000000E+00  0.12069407503E+04  0.12069407503E+04  0.50400001928E-02 0. -1.
        1   -1    0    0  501    0  0.00000000000E+00  0.00000000000E+00 -0.11937144373E+04  0.11937144373E+04  0.50400001928E-02 0.  1.
    10030    2    1    2    0    0  0.00000000000E+00  0.00000000000E+00  0.13226312953E+02  0.24006551876E+04  0.24006187524E+04 0.  0.
        2    1    3    3  502    0 -0.30155748760E+03  0.42081441143E+02 -0.11544534877E+04  0.11939307439E+04  0.25500000920E-02 0.  1.
       -2    1    3    3    0  502  0.30155748760E+03 -0.42081441143E+02  0.11676798007E+04  0.12067244437E+04  0.25500000920E-02 0. -1.
</event>
<event>
 5   0  0.5196696E-06  0.2404308E+04  0.7818609E-02  0.8437892E-01
       -1   -1    0    0    0  501  0.00000000000E+00  0.00000000000E+00  0.14936623261E+04  0.14936623261E+04  0.50400001928E-02 0.  1.
        1   -1    0    0  501    0  0.00000000000E+00  0.00000000000E+00 -0.96753780182E+03  0.96753780183E+03  0.50400001928E-02 0. -1.
    10030    2    1    2    0    0  0.00000000000E+00  0.00000000000E+00  0.52612452424E+03  0.24612001279E+04  0.24043084358E+04 0.  0.
        1    1    3    3  502    0  0.35048133841E+03  0.39483015996E+03  0.13686397976E+04  0.14669365765E+04  0.50400001928E-02 0.  1.
       -1    1    3    3    0  502 -0.35048133841E+03 -0.39483015996E+03 -0.84251527337E+03  0.99426355141E+03  0.50400001928E-02 0. -1.
</event>
<event>
 5   0  0.1198313E-05  0.2398683E+04  0.7818609E-02  0.8439997E-01
        2   -1    0    0  501    0  0.00000000000E+00  0.00000000000E+00  0.70628247723E+03  0.70628247723E+03  0.25500000920E-02 0.  1.
       -2   -1    0    0    0  501  0.00000000000E+00  0.00000000000E+00 -0.20366074125E+04  0.20366074125E+04  0.25500000920E-02 0. -1.
    10030    2    1    2    0    0  0.00000000000E+00  0.00000000000E+00 -0.13303249353E+04  0.27428898898E+04  0.23986830791E+04 0.  0.
        5    1    3    3  502    0  0.74497256231E+03 -0.28264366220E+03 -0.16901901608E+04  0.18685920979E+04  0.46999998093E+01 0. -1.
       -5    1    3    3    0  502 -0.74497256231E+03  0.28264366220E+03  0.35986522554E+03  0.87429779191E+03  0.46999998093E+01 0.  1.
</event>
<event>
 5   0  0.5034479E-06  0.2402645E+04  0.7818609E-02  0.8438514E-01
        1   -1    0    0  501    0  0.00000000000E+00  0.00000000000E+00  0.19679650328E+04  0.19679650329E+04  0.50400001928E-02 0.  1.
       -1   -1    0    0    0  501  0.00000000000E+00  0.00000000000E+00 -0.73333411324E+03  0.73333411326E+03  0.50400001928E-02 0. -1.
    10030    2    1    2    0    0  0.00000000000E+00  0.00000000000E+00  0.12346309196E+04  0.27012991461E+04  0.24026451193E+04 0.  0.
        4    1    3    3  502    0  0.84065903183E+03  0.74394665123E+03  0.13634265102E+03  0.11308205689E+04  0.12699999809E+01 0.  1.
       -4    1    3    3    0  502 -0.84065903183E+03 -0.74394665123E+03  0.10982882686E+04  0.15704785772E+04  0.12699999809E+01 0. -1.
</event>
<event>
 5   0  0.5196696E-06  0.2392472E+04  0.7818609E-02  0.8442327E-01
        1   -1    0    0  501    0  0.00000000000E+00  0.00000000000E+00  0.18720012441E+04  0.18720012441E+04  0.50400001928E-02 0. -1.
       -1   -1    0    0    0  501  0.00000000000E+00  0.00000000000E+00 -0.76441202561E+03  0.76441202563E+03  0.50400001928E-02 0.  1.
    10030    2    1    2    0    0  0.00000000000E+00  0.00000000000E+00  0.11075892185E+04  0.26364132697E+04  0.23924717453E+04 0.  0.
        1    1    3    3  502    0  0.73051223031E+03 -0.45625193503E+03  0.14685999526E+04  0.17025274646E+04  0.50400001928E-02 0. -1.
       -1    1    3    3    0  502 -0.73051223031E+03  0.45625193503E+03 -0.36101073413E+03  0.93388580514E+03  0.50400001928E-02 0.  1.
</event>
<event>
 5   0  0.1154897E-05  0.2399011E+04  0.7818609E-02  0.8439874E-01
       -2   -1    0    0    0  501  0.00000000000E+00  0.00000000000E+00  0.14558090337E+04  0.14558090337E+04  0.25500000920E-02 0.  1.
        2   -1    0    0  501    0  0.00000000000E+00  0.00000000000E+00 -0.98832571664E+03  0.98832571664E+03  0.25500000920E-02 0. -1.
    10030    2    1    2    0    0  0.00000000000E+00  0.00000000000E+00  0.46748331706E+03  0.24441347503E+04  0.23990110517E+04 0.  0.
        4    1    3    3  502    0 -0.26030256173E+02  0.31842719878E+03  0.14116625255E+04  0.14473652455E+04  0.12699999809E+01 0.  1.
       -4    1    3    3    0  502  0.26030256173E+02 -0.31842719878E+03 -0.94417920844E+03  0.99676950481E+03  0.12699999809E+01 0. -1.
</event>
<event>
 5   0  0.5104174E-06  0.2392937E+04  0.7818609E-02  0.8442153E-01
        1   -1    0    0  501    0  0.00000000000E+00  0.00000000000E+00  0.15263551520E+04  0.15263551520E+04  0.50400001928E-02 0.  1.
       -1   -1    0    0    0  501  0.00000000000E+00  0.00000000000E+00 -0.93787924366E+03  0.93787924368E+03  0.50400001928E-02 0. -1.
    10030    2    1    2    0    0  0.00000000000E+00  0.00000000000E+00  0.58847590833E+03  0.24642343957E+04  0.23929369532E+04 0.  0.
        3    1    3    3  502    0  0.23884311907E+03  0.77370683693E+03  0.12013163406E+04  0.14487336765E+04  0.10100000352E+00 0.  1.
       -3    1    3    3    0  502 -0.23884311907E+03 -0.77370683693E+03 -0.61284043226E+03  0.10155007192E+04  0.10100000352E+00 0. -1.
</event>
<event>
 5   0  0.5196696E-06  0.2384447E+04  0.7818609E-02  0.8445349E-01
       -1   -1    0    0    0  501  0.00000000000E+00  0.00000000000E+00  0.15834173728E+04  0.15834173728E+04  0.50400001928E-02 0. -1.
        1   -1    0    0  501    0  0.00000000000E+00  0.00000000000E+00 -0.89767684607E+03  0.89767684608E+03  0.50400001928E-02 0.  1.
    10030    2    1    2    0    0  0.00000000000E+00  0.00000000000E+00  0.68574052671E+03  0.24810942189E+04  0.23844472007E+04 0.  0.
        1    1    3    3  502    0 -0.76184084830E+03 -0.73063799717E+03 -0.23381722425E+03  0.10811585709E+04  0.50400001928E-02 0.  1.
       -1    1    3    3    0  502  0.76184084830E+03  0.73063799717E+03  0.91955775097E+03  0.13999356480E+04  0.50400001928E-02 0. -1.
</event>
<event>
 5   0  0.5196696E-06  0.2459080E+04  0.7818609E-02  0.8417710E-01
       -1   -1    0    0    0  501  0.00000000000E+00  0.00000000000E+00  0.12193543011E+04  0.12193543011E+04  0.50400001928E-02 0. -1.
        1   -1    0    0  501    0  0.00000000000E+00  0.00000000000E+00 -0.12398111289E+04  0.12398111289E+04  0.50400001928E-02 0.  1.
    10030    2    1    2    0    0  0.00000000000E+00  0.00000000000E+00 -0.20456827862E+02  0.24591654300E+04  0.24590803424E+04 0.  0.
        1    1    3    3  502    0 -0.11854280287E+04 -0.29994741046E+03 -0.13892230788E+03  0.12306532688E+04  0.50400001928E-02 0. -1.
       -1    1    3    3    0  502  0.11854280287E+04  0.29994741046E+03  0.11846548002E+03  0.12285121612E+04  0.50400001928E-02 0.  1.
</event>
<event>
 5   0  0.5042742E-06  0.2272658E+04  0.7818609E-02  0.8488780E-01
       -1   -1    0    0    0  501  0.00000000000E+00  0.00000000000E+00  0.13773007803E+04  0.13773007803E+04  0.50400001928E-02 0. -1.
        1   -1    0    0  501    0  0.00000000000E+00  0.00000000000E+00 -0.93751781178E+03  0.93751781179E+03  0.50400001928E-02 0.  1.
    10030    2    1    2    0    0  0.00000000000E+00  0.00000000000E+00  0.43978296849E+03  0.23148185921E+04  0.22726583674E+04 0.  0.
        5    1    3    3  502    0  0.35588764123E+03 -0.10596280403E+04  0.11762028559E+02  0.11178676273E+04  0.46999998093E+01 0. -1.
       -5    1    3    3    0  502 -0.35588764123E+03  0.10596280403E+04  0.42802093993E+03  0.11969509647E+04  0.46999998093E+01 0.  1.
</event>
<event>
 5   0  0.5042742E-06  0.2281066E+04  0.7818609E-02  0.8485424E-01
        1   -1    0    0  501    0  0.00000000000E+00  0.00000000000E+00  0.10984599163E+04  0.10984599163E+04  0.50400001928E-02 0. -1.
       -1   -1    0    0    0  501  0.00000000000E+00  0.00000000000E+00 -0.11842176673E+04  0.11842176673E+04  0.50400001928E-02 0.  1.
    10030    2    1    2    0    0  0.00000000000E+00  0.00000000000E+00 -0.85757750937E+02  0.22826775836E+04  0.22810661014E+04 0.  0.
        5    1    3    3  502    0 -0.83871034050E+03 -0.12300640937E+03  0.72069880224E+03  0.11126519966E+04  0.46999998093E+01 0. -1.
       -5    1    3    3    0  502  0.83871034050E+03  0.12300640937E+03 -0.80645655318E+03  0.11700255870E+04  0.46999998093E+01 0.  1.
</event>
<event>
 5   0  0.5064437E-06  0.2402714E+04  0.7818609E-02  0.8438488E-01
       -1   -1    0    0    0  501  0.00000000000E+00  0.00000000000E+00  0.10552133338E+04  0.10552133338E+04  0.50400001928E-02 0. -1.
        1   -1    0    0  501    0  0.00000000000E+00  0.00000000000E+00 -0.13677407147E+04  0.13677407147E+04  0.50400001928E-02 0.  1.
    10030    2    1    2    0    0  0.00000000000E+00  0.00000000000E+00 -0.31252738085E+03  0.24229540485E+04  0.24027136653E+04 0.  0.
        2    1    3    3  502    0 -0.18418254143E+03  0.89916860417E+03  0.62539879991E+03  0.11106534321E+04  0.25500000920E-02 0. -1.
       -2    1    3    3    0  502  0.18418254143E+03 -0.89916860417E+03 -0.93792618076E+03  0.13123006164E+04  0.25500000920E-02 0.  1.
</event>
<event>
 5   0  0.5064437E-06  0.2444636E+04  0.7818609E-02  0.8422979E-01
       -1   -1    0    0    0  501  0.00000000000E+00  0.00000000000E+00  0.28271862364E+04  0.28271862364E+04  0.50400001928E-02 0. -1.
        1   -1    0    0  501    0  0.00000000000E+00  0.00000000000E+00 -0.52846227389E+03  0.52846227392E+03  0.50400001928E-02 0.  1.
    10030    2    1    2    0    0  0.00000000000E+00  0.00000000000E+00  0.22987239625E+04  0.33556485103E+04  0.24446359788E+04 0.  0.
        2    1    3    3  502    0 -0.49686584565E+03 -0.11155550966E+04  0.10777410048E+04  0.16287616510E+04  0.25500000920E-02 0. -1.
       -2    1    3    3    0  502  0.49686584565E+03  0.11155550966E+04  0.12209829576E+04  0.17268868593E+04  0.25500000920E-02 0.  1.
</event>
<event>
 5   0  0.5064437E-06  0.2396394E+04  0.7818609E-02  0.8440855E-01
       -1   -1    0    0    0  501  0.00000000000E+00  0.00000000000E+00  0.16348900381E+04  0.16348900381E+04  0.50400001928E-02 0.  1.
        1   -1    0    0  501    0  0.00000000000E+00  0.00000000000E+00 -0.87814841142E+03  0.87814841144E+03  0.50400001928E-02 0. -1.
    10030    2    1    2    0    0  0.00000000000E+00  0.00000000000E+00  0.75674162670E+03  0.25130384496E+04  0.23963940326E+04 0.  0.
        2    1    3    3  502    0 -0.11684846639E+04 -0.99047380238E+02  0.12041105806E+03  0.11788407934E+04  0.25500000920E-02 0. -1.
       -2    1    3    3    0  502  0.11684846639E+04  0.99047380238E+02  0.63633056864E+03  0.13341976562E+04  0.25500000920E-02 0.  1.
</event>
<event>
 5   0  0.1198313E-05  0.2469408E+04  0.7818609E-02  0.8413966E-01
       -2   -1    0    0    0  501  0.00000000000E+00  0.00000000000E+00  0.88488645777E+03  0.88488645777E+03  0.25500000920E-02 0.  1.
        2   -1    0    0  501    0  0.00000000000E+00  0.00000000000E+00 -0.17228135098E+04  0.17228135098E+04  0.25500000920E-02 0. -1.
    10030    2    1    2    0    0  0.00000000000E+00  0.00000000000E+00 -0.83792705208E+03  0.26076999676E+04  0.24694083049E+04 0.  0.
        5    1    3    3  502    0  0.73052655208E+03  0.52839555577E+03  0.47184240125E+03  0.10176090842E+04  0.46999998093E+01 0.  1.
       -5    1    3    3    0  502 -0.73052655208E+03 -0.52839555577E+03 -0.13097694533E+04  0.15900908834E+04  0.46999998093E+01 0. -1.
</event>
<event>
 5   0  0.5196696E-06  0.2441257E+04  0.7818609E-02  0.8424217E-01
       -1   -1    0    0    0  501  0.00000000000E+00  0.00000000000E+00  0.62660635394E+03  0.62660635396E+03  0.50400001928E-02 0.  1.
        1   -1    0    0  501    0  0.00000000000E+00  0.00000000000E+00 -0.23777838875E+04  0.23777838876E+04  0.50400001928E-02 0. -1.
    10030    2    1    2    0    0  0.00000000000E+00  0.00000000000E+00 -0.17511775336E+04  0.30043902415E+04  0.24412574565E+04 0.  0.
        1    1    3    3  502    0  0.60280539644E+03 -0.10220995279E+04 -0.12277263016E+04  0.17074465329E+04  0.50400001928E-02 0. -1.
       -1    1    3    3    0  502 -0.60280539644E+03  0.10220995279E+04 -0.52345123198E+03  0.12969437086E+04  0.50400001928E-02 0.  1.
</event>
<event>
 5   0  0.4067750E-06  0.2398708E+04  0.7818609E-02  0.8439987E-01
       -3   -1    0    0    0  501  0.00000000000E+00  0.00000000000E+00  0.11366575594E+04  0.11366575639E+04  0.10100000352E+00 0. -1.
        3   -1    0    0  501    0  0.00000000000E+00  0.00000000000E+00 -0.12655089132E+04  0.12655089173E+04  0.10100000352E+00 0.  1.
    10030    2    1    2    0    0  0.00000000000E+00  0.00000000000E+00 -0.12885135385E+03  0.24021664811E+04  0.23987082214E+04 0.  0.
        3    1    3    3  502    0  0.94322831555E+03  0.33744691372E+03  0.59599472577E+03  0.11656585256E+04  0.10100000352E+00 0. -1.
       -3    1    3    3    0  502 -0.94322831555E+03 -0.33744691372E+03 -0.72484607962E+03  0.12365079556E+04  0.10100000352E+00 0.  1.
</event>
<event>
 5   0  0.1174210E-05  0.2391579E+04  0.7818609E-02  0.8442663E-01
       -2   -1    0    0    0  501  0.00000000000E+00  0.00000000000E+00  0.11468936468E+04  0.11468936468E+04  0.25500000920E-02 0.  1.
        2   -1    0    0  501    0  0.00000000000E+00  0.00000000000E+00 -0.12467704321E+04  0.12467704321E+04  0.25500000920E-02 0. -1.
    10030    2    1    2    0    0  0.00000000000E+00  0.00000000000E+00 -0.99876785281E+02  0.23936640789E+04  0.23915794677E+04 0.  0.
        3    1    3    3  502    0 -0.23814161795E+03  0.43703291352E+03  0.10383013351E+04  0.11514247133E+04  0.10100000352E+00 0.  1.
       -3    1    3    3    0  502  0.23814161795E+03 -0.43703291352E+03 -0.11381781204E+04  0.12422393657E+04  0.10100000352E+00 0. -1.
</event>
<event>
 5   0  0.5034479E-06  0.2400138E+04  0.7818609E-02  0.8439452E-01
        1   -1    0    0  501    0  0.00000000000E+00  0.00000000000E+00  0.24263753486E+04  0.24263753486E+04  0.50400001928E-02 0. -1.
       -1   -1    0    0    0  501  0.00000000000E+00  0.00000000000E+00 -0.59354602738E+03  0.59354602740E+03  0.50400001928E-02 0.  1.
    10030    2    1    2    0    0  0.00000000000E+00  0.00000000000E+00  0.18328293212E+04  0.30199213760E+04  0.24001378703E+04 0.  0.
        4    1    3    3  502    0 -0.77778651961E+03  0.35926892986E+02 -0.23259045017E+03  0.81261463323E+03  0.12699999809E+01 0.  1.
       -4    1    3    3    0  502  0.77778651961E+03 -0.35926892986E+02  0.20654197714E+04  0.22073067428E+04  0.12699999809E+01 0. -1.
</event>
<event>
 5   0  0.1154897E-05  0.2441589E+04  0.7818609E-02  0.8424095E-01
       -2   -1    0    0    0  501  0.00000000000E+00  0.00000000000E+00  0.14037024030E+04  0.14037024030E+04  0.25500000920E-02 0. -1.
        2   -1    0    0  501    0  0.00000000000E+00  0.00000000000E+00 -0.10617204715E+04  0.10617204715E+04  0.25500000920E-02 0.  1.
    10030    2    1    2    0    0  0.00000000000E+00  0.00000000000E+00  0.34198193157E+03  0.24654228745E+04  0.24415892998E+04 0.  0.
        4    1    3    3  502    0 -0.17308906622E+03 -0.25858929000E+03 -0.10210023198E+04  0.10673685379E+04  0.12699999809E+01 0.  1.
       -4    1    3    3    0  502  0.17308906622E+03  0.25858929000E+03  0.13629842514E+04  0.13980543366E+04  0.12699999809E+01 0. -1.
</event>
<event>
 5   0  0.1168435E-05  0.2399039E+04  0.7818609E-02  0.8439864E-01
       -2   -1    0    0    0  501  0.00000000000E+00  0.00000000000E+00  0.12544543608E+04  0.12544543608E+04  0.25500000920E-02 0.  1.
        2   -1    0    0  501    0  0.00000000000E+00  0.00000000000E+00 -0.11469900974E+04  0.11469900974E+04  0.25500000920E-02 0. -1.
    10030    2    1    2    0    0  0.00000000000E+00  0.00000000000E+00  0.10746426343E+03  0.24014444582E+04  0.23990387487E+04 0.  0.
        1    1    3    3  502    0 -0.96049425242E+03 -0.61041414204E+03 -0.32571539232E+03  0.11837420118E+04  0.50400001928E-02 0. -1.
       -1    1    3    3    0  502  0.96049425242E+03  0.61041414204E+03  0.43317965575E+03  0.12177024464E+04  0.50400001928E-02 0.  1.
</event>
<event>
 5   0  0.5104174E-06  0.2383303E+04  0.7818609E-02  0.8445781E-01
       -1   -1    0    0    0  501  0.00000000000E+00  0.00000000000E+00  0.98097084637E+03  0.98097084638E+03  0.50400001928E-02 0.  1.
        1   -1    0    0  501    0  0.00000000000E+00  0.00000000000E+00 -0.14475793228E+04  0.14475793228E+04  0.50400001928E-02 0. -1.
    10030    2    1    2    0    0  0.00000000000E+00  0.00000000000E+00 -0.46660847644E+03  0.24285501692E+04  0.23833028456E+04 0.  0.
        3    1    3    3  502    0  0.67250089998E+03 -0.81550092254E+03  0.32735420588E+03  0.11065532077E+04  0.10100000352E+00 0.  1.
       -3    1    3    3    0  502 -0.67250089998E+03  0.81550092254E+03 -0.79396268232E+03  0.13219969615E+04  0.10100000352E+00 0. -1.
</event>
<event>
 5   0  0.1174210E-05  0.2402866E+04  0.7818609E-02  0.8438431E-01
        2   -1    0    0  501    0  0.00000000000E+00  0.00000000000E+00  0.10880109125E+04  0.10880109125E+04  0.25500000920E-02 0. -1.
       -2   -1    0    0    0  501  0.00000000000E+00  0.00000000000E+00 -0.13266792880E+04  0.13266792880E+04  0.25500000920E-02 0.  1.
    10030    2    1    2    0    0  0.00000000000E+00  0.00000000000E+00 -0.23866837545E+03  0.24146902005E+04  0.24028662408E+04 0.  0.
        3    1    3    3  502    0 -0.11772010202E+04 -0.23940540858E+03 -0.13743227561E+03  0.12091339182E+04  0.10100000352E+00 0. -1.
       -3    1    3    3    0  502  0.11772010202E+04  0.23940540858E+03 -0.10123609985E+03  0.12055562823E+04  0.10100000352E+00 0.  1.
</event>
<event>
 5   0  0.5034479E-06  0.2405561E+04  0.7818609E-02  0.8437425E-01
        1   -1    0    0  501    0  0.00000000000E+00  0.00000000000E+00  0.59243961777E+03  0.59243961779E+03  0.50400001928E-02 0.  1.
       -1   -1    0    0    0  501  0.00000000000E+00  0.00000000000E+00 -0.24419036237E+04  0.24419036237E+04  0.50400001928E-02 0. -1.
    10030    2    1    2    0    0  0.00000000000E+00  0.00000000000E+00 -0.18494640060E+04  0.30343432415E+04  0.24055605995E+04 0.  0.
        4    1    3    3  502    0  0.96618037798E+03 -0.39237997512E+03 -0.16872819147E+03  0.10563793746E+04  0.12699999809E+01 0.  1.
       -4    1    3    3    0  502 -0.96618037798E+03  0.39237997512E+03 -0.16807358145E+04  0.19779638669E+04  0.12699999809E+01 0. -1.
</event>
<event>
 5   0  0.1169371E-05  0.2391700E+04  0.7818609E-02  0.8442618E-01
        2   -1    0    0  501    0  0.00000000000E+00  0.00000000000E+00  0.24824515353E+04  0.24824515353E+04  0.25500000920E-02 0. -1.
       -2   -1    0    0    0  501  0.00000000000E+00  0.00000000000E+00 -0.57606648501E+03  0.57606648502E+03  0.25500000920E-02 0.  1.
    10030    2    1    2    0    0  0.00000000000E+00  0.00000000000E+00  0.19063850503E+04  0.30585180203E+04  0.23916999228E+04 0.  0.
        2    1    3    3  502    0  0.23781788835E+03  0.39405564793E+03  0.23646480694E+04  0.24090242203E+04  0.25500000920E-02 0. -1.
       -2    1    3    3    0  502 -0.23781788835E+03 -0.39405564793E+03 -0.45826301908E+03  0.64949380009E+03  0.25500000920E-02 0.  1.
</event>
<event>
 5   0  0.5034479E-06  0.2398837E+04  0.7818609E-02  0.8439939E-01
       -1   -1    0    0    0  501  0.00000000000E+00  0.00000000000E+00  0.66176064657E+03  0.66176064659E+03  0.50400001928E-02 0.  1.
        1   -1    0    0  501    0  0.00000000000E+00  0.00000000000E+00 -0.21739043048E+04  0.21739043048E+04  0.50400001928E-02 0. -1.
    10030    2    1    2    0    0  0.00000000000E+00  0.00000000000E+00 -0.15121436582E+04  0.28356649514E+04  0.23988366500E+04 0.  0.
        4    1    3    3  502    0 -0.61678996914E+03  0.38868098052E+03 -0.18819251360E+04  0.20182038056E+04  0.12699999809E+01 0. -1.
       -4    1    3    3    0  502  0.61678996914E+03 -0.38868098052E+03  0.36978147776E+03  0.81746114577E+03  0.12699999809E+01 0.  1.
</event>
<event>
 5   0  0.5034479E-06  0.2395263E+04  0.7818609E-02  0.8441279E-01
       -1   -1    0    0    0  501  0.00000000000E+00  0.00000000000E+00  0.21148238197E+04  0.21148238197E+04  0.50400001928E-02 0.  1.
        1   -1    0    0  501    0  0.00000000000E+00  0.00000000000E+00 -0.67822250581E+03  0.67822250583E+03  0.50400001928E-02 0. -1.
    10030    2    1    2    0    0  0.00000000000E+00  0.00000000000E+00  0.14366013139E+04  0.27930463255E+04  0.23952629170E+04 0.  0.
        4    1    3    3  502    0 -0.90290000300E+03  0.56940573721E+03  0.13514977450E+04  0.17222076171E+04  0.12699999809E+01 0.  1.
       -4    1    3    3    0  502  0.90290000300E+03 -0.56940573721E+03  0.85103568893E+02  0.10708387084E+04  0.12699999809E+01 0. -1.
</event>
<event>
 5   0  0.5064437E-06  0.2421091E+04  0.7818609E-02  0.8431650E-01
       -1   -1    0    0    0  501  0.00000000000E+00  0.00000000000E+00  0.23212106808E+04  0.23212106808E+04  0.50400001928E-02 0. -1.
        1   -1    0    0  501    0  0.00000000000E+00  0.00000000000E+00 -0.63131702876E+03  0.63131702878E+03  0.50400001928E-02 0.  1.
    10030    2    1    2    0    0  0.00000000000E+00  0.00000000000E+00  0.16898936520E+04  0.29525277096E+04  0.24210905230E+04 0.  0.
        2    1    3    3  502    0 -0.47954998050E+03 -0.10319185697E+04  0.13486410952E+04  0.17645557294E+04  0.25500000920E-02 0.  1.
       -2    1    3    3    0  502  0.47954998050E+03  0.10319185697E+04  0.34125255677E+03  0.11879719802E+04  0.25500000920E-02 0. -1.
</event>
<event>
 5   0  0.1169371E-05  0.2413133E+04  0.7818609E-02  0.8434603E-01
        2   -1    0    0  501    0  0.00000000000E+00  0.00000000000E+00  0.11394144176E+04  0.11394144176E+04  0.25500000920E-02 0. -1.
       -2   -1    0    0    0  501  0.00000000000E+00  0.00000000000E+00 -0.12776757486E+04  0.12776757486E+04  0.25500000920E-02 0.  1.
    10030    2    1    2    0    0  0.00000000000E+00  0.00000000000E+00 -0.13826133094E+03  0.24170901662E+04  0.24131325442E+04 0.  0.
        2    1    3    3  502    0 -0.85906692323E+03 -0.52417946417E+03  0.59757502711E+03  0.11704084767E+04  0.25500000920E-02 0. -1.
       -2    1    3    3    0  502  0.85906692323E+03  0.52417946417E+03 -0.73583635805E+03  0.12466816896E+04  0.25500000920E-02 0.  1.
</event>
<event>
 5   0  0.1168435E-05  0.2401264E+04  0.7818609E-02  0.8439030E-01
        2   -1    0    0  501    0  0.00000000000E+00  0.00000000000E+00  0.11763686682E+04  0.11763686682E+04  0.25500000920E-02 0.  1.
       -2   -1    0    0    0  501  0.00000000000E+00  0.00000000000E+00 -0.12253960187E+04  0.12253960187E+04  0.25500000920E-02 0. -1.
    10030    2    1    2    0    0  0.00000000000E+00  0.00000000000E+00 -0.49027350513E+02  0.24017646869E+04  0.24012642358E+04 0.  0.
        1    1    3    3  502    0  0.66144170292E+03  0.76858149646E+03 -0.66752777172E+03  0.12140082245E+04  0.50400001928E-02 0. -1.
       -1    1    3    3    0  502 -0.66144170292E+03 -0.76858149646E+03  0.61850042121E+03  0.11877564625E+04  0.50400001928E-02 0.  1.
</event>
<event>
 5   0  0.1198313E-05  0.2395012E+04  0.7818609E-02  0.8441373E-01
        2   -1    0    0  501    0  0.00000000000E+00  0.00000000000E+00  0.20711917525E+04  0.20711917525E+04  0.25500000920E-02 0.  1.
       -2   -1    0    0    0  501  0.00000000000E+00  0.00000000000E+00 -0.69236493162E+03  0.69236493163E+03  0.25500000920E-02 0. -1.
    10030    2    1    2    0    0  0.00000000000E+00  0.00000000000E+00  0.13788268209E+04  0.27635566842E+04  0.23950119299E+04 0.  0.
        5    1    3    3  502    0 -0.60053337497E+03  0.19621802886E+03 -0.48440463604E+03  0.79612297462E+03  0.46999998093E+01 0. -1.
       -5    1    3    3    0  502  0.60053337497E+03 -0.19621802886E+03  0.18632314570E+04  0.19674337096E+04  0.46999998093E+01 0.  1.
</event>
<event>
 5   0  0.1168435E-05  0.2388840E+04  0.7818609E-02  0.8443694E-01
        2   -1    0    0  501    0  0.00000000000E+00  0.00000000000E+00  0.16538722884E+04  0.16538722884E+04  0.25500000920E-02 0.  1.
       -2   -1    0    0    0  501  0.00000000000E+00  0.00000000000E+00 -0.86260516780E+03  0.86260516780E+03  0.25500000920E-02 0. -1.
    10030    2    1    2    0    0  0.00000000000E+00  0.00000000000E+00  0.79126712061E+03  0.25164774562E+04  0.23888397040E+04 0.  0.
        1    1    3    3  502    0 -0.66372117755E+03  0.52769573139E+03  0.12818001072E+04  0.15368799892E+04  0.50400001928E-02 0.  1.
       -1    1    3    3    0  502  0.66372117755E+03 -0.52769573139E+03 -0.49053298655E+03  0.97959746701E+03  0.50400001928E-02 0. -1.
</event>
<event>
 5   0  0.5196696E-06  0.2406715E+04  0.7818609E-02  0.8436994E-01
       -1   -1    0    0    0  501  0.00000000000E+00  0.00000000000E+00  0.10318244042E+04  0.10318244043E+04  0.50400001928E-02 0. -1.
        1   -1    0    0  501    0  0.00000000000E+00  0.00000000000E+00 -0.14034070566E+04  0.14034070566E+04  0.50400001928E-02 0.  1.
    10030    2    1    2    0    0  0.00000000000E+00  0.00000000000E+00 -0.37158265239E+03  0.24352314609E+04  0.24067153136E+04 0.  0.
        1    1    3    3  502    0  0.17727374548E+03 -0.72761464262E+03 -0.11388756650E+04  0.13630432236E+04  0.50400001928E-02 0.  1.
       -1    1    3    3    0  502 -0.17727374548E+03  0.72761464262E+03  0.76729301262E+03  0.10721882373E+04  0.50400001928E-02 0. -1.
</event>
<event>
 5   0  0.1198313E-05  0.2396133E+04  0.7818609E-02  0.8440953E-01
        2   -1    0    0  501    0  0.00000000000E+00  0.00000000000E+00  0.17669108041E+04  0.17669108041E+04  0.25500000920E-02 0. -1.
       -2   -1    0    0    0  501  0.00000000000E+00  0.00000000000E+00 -0.81235787095E+03  0.81235787095E+03  0.25500000920E-02 0.  1.
    10030    2    1    2    0    0  0.00000000000E+00  0.00000000000E+00  0.95455293317E+03  0.25792686751E+04  0.23961334679E+04 0.  0.
        5    1    3    3  502    0  0.82908314766E+03  0.17855418356E+03 -0.43361526315E+03  0.95252545826E+03  0.46999998093E+01 0. -1.
       -5    1    3    3    0  502 -0.82908314766E+03 -0.17855418356E+03  0.13881681963E+04  0.16267432168E+04  0.46999998093E+01 0.  1.
</event>
<event>
 5   0  0.1154897E-05  0.2406505E+04  0.7818609E-02  0.8437072E-01
       -2   -1    0    0    0  501  0.00000000000E+00  0.00000000000E+00  0.88433653765E+03  0.88433653765E+03  0.25500000920E-02 0.  1.
        2   -1    0    0  501    0  0.00000000000E+00  0.00000000000E+00 -0.16371780583E+04  0.16371780583E+04  0.25500000920E-02 0. -1.
    10030    2    1    2    0    0  0.00000000000E+00  0.00000000000E+00 -0.75284152065E+03  0.25215145960E+04  0.24065048312E+04 0.  0.
        4    1    3    3  502    0 -0.10187168173E+03 -0.26327797666E+03 -0.16019878864E+04  0.16266714277E+04  0.12699999809E+01 0. -1.
       -4    1    3    3    0  502  0.10187168173E+03  0.26327797666E+03  0.84914636572E+03  0.89484316830E+03  0.12699999809E+01 0.  1.
</event>
<event>
 5   0  0.1154897E-05  0.2403763E+04  0.7818609E-02  0.8438096E-01
       -2   -1    0    0    0  501  0.00000000000E+00  0.00000000000E+00  0.99190032734E+03  0.99190032735E+03  0.25500000920E-02 0. -1.
        2   -1    0    0  501    0  0.00000000000E+00  0.00000000000E+00 -0.14563150279E+04  0.14563150279E+04  0.25500000920E-02 0.  1.
    10030    2    1    2    0    0  0.00000000000E+00  0.00000000000E+00 -0.46441470060E+03  0.24482153553E+04  0.24037631771E+04 0.  0.
        4    1    3    3  502    0  0.12141243719E+03 -0.66070013252E+03  0.78284323135E+03  0.10315574549E+04  0.12699999809E+01 0. -1.
       -4    1    3    3    0  502 -0.12141243719E+03  0.66070013252E+03 -0.12472579319E+04  0.14166579004E+04  0.12699999809E+01 0.  1.
</event>
<event>
 5   0  0.5064437E-06  0.2408123E+04  0.7818609E-02  0.8436469E-01
       -1   -1    0    0    0  501  0.00000000000E+00  0.00000000000E+00  0.68437163770E+03  0.68437163772E+03  0.50400001928E-02 0.  1.
        1   -1    0    0  501    0  0.00000000000E+00  0.00000000000E+00 -0.21183876709E+04  0.21183876709E+04  0.50400001928E-02 0. -1.
    10030    2    1    2    0    0  0.00000000000E+00  0.00000000000E+00 -0.14340160332E+04  0.28027593086E+04  0.24081232856E+04 0.  0.
        2    1    3    3  502    0  0.39198933831E+03  0.46581488369E+03  0.49203853378E+03  0.78277778836E+03  0.25500000920E-02 0.  1.
       -2    1    3    3    0  502 -0.39198933831E+03 -0.46581488369E+03 -0.19260545670E+04  0.20199815202E+04  0.25500000920E-02 0. -1.
</event>
<event>
 5   0  0.5104174E-06  0.2438825E+04  0.7818609E-02  0.8425110E-01
        1   -1    0    0  501    0  0.00000000000E+00  0.00000000000E+00  0.12668639258E+04  0.12668639258E+04  0.50400001928E-02 0.  1.
       -1   -1    0    0    0  501  0.00000000000E+00  0.00000000000E+00 -0.11737379361E+04  0.11737379362E+04  0.50400001928E-02 0. -1.
    10030    2    1    2    0    0  0.00000000000E+00  0.00000000000E+00  0.93125989684E+02  0.24406018620E+04  0.24388245117E+04 0.  0.
        3    1    3    3  502    0 -0.65639551875E+03 -0.27873979531E+03 -0.94330664031E+03  0.11825304979E+04  0.10100000352E+00 0. -1.
       -3    1    3    3    0  502  0.65639551875E+03  0.27873979531E+03  0.10364326300E+04  0.12580713641E+04  0.10100000352E+00 0.  1.
</event>
<event>
 5   0  0.5042742E-06  0.2384326E+04  0.7818609E-02  0.8445395E-01
       -1   -1    0    0    0  501  0.00000000000E+00  0.00000000000E+00  0.15756013593E+04  0.15756013593E+04  0.50400001928E-02 0. -1.
        1   -1    0    0  501    0  0.00000000000E+00  0.00000000000E+00 -0.90203848975E+03  0.90203848977E+03  0.50400001928E-02 0.  1.
    10030    2    1    2    0    0  0.00000000000E+00  0.00000000000E+00  0.67356286958E+03  0.24776398491E+04  0.23843263792E+04 0.  0.
        5    1    3    3  502    0  0.11832958287E+04  0.10638207713E+03  0.43925531256E+03  0.12666781297E+04  0.46999998093E+01 0. -1.
       -5    1    3    3    0  502 -0.11832958287E+04 -0.10638207713E+03  0.23430755702E+03  0.12109617194E+04  0.46999998093E+01 0.  1.
</event>
<event>
 5   0  0.1154897E-05  0.2403070E+04  0.7818609E-02  0.8438355E-01
        2   -1    0    0  501    0  0.00000000000E+00  0.00000000000E+00  0.17521661870E+04  0.17521661870E+04  0.25500000920E-02 0.  1.
       -2   -1    0    0    0  501  0.00000000000E+00  0.00000000000E+00 -0.82394379727E+03  0.82394379728E+03  0.25500000920E-02 0. -1.
    10030    2    1    2    0    0  0.00000000000E+00  0.00000000000E+00  0.92822238976E+03  0.25761099843E+04  0.24030700877E+04 0.  0.
        4    1    3    3  502    0 -0.11249784690E+04 -0.10419277730E+03  0.90252460367E+03  0.14460238462E+04  0.12699999809E+01 0.  1.
       -4    1    3    3    0  502  0.11249784690E+04  0.10419277730E+03  0.25697786086E+02  0.11300861381E+04  0.12699999809E+01 0. -1.
</event>
<event>
 5   0  0.1198313E-05  0.2398789E+04  0.7818609E-02  0.8439957E-01
       -2   -1    0    0    0  501  0.00000000000E+00  0.00000000000E+00  0.13537859331E+04  0.13537859331E+04  0.25500000920E-02 0.  1.
        2   -1    0    0  501    0  0.00000000000E+00  0.00000000000E+00 -0.10626108421E+04  0.10626108421E+04  0.25500000920E-02 0. -1.
    10030    2    1    2    0    0  0.00000000000E+00  0.00000000000E+00  0.29117509099E+03  0.24163967753E+04  0.23987893701E+04 0.  0.
        5    1    3    3  502    0 -0.21902610092E+03 -0.80056061329E+02  0.13307197155E+04  0.13510064608E+04  0.46999998093E+01 0.  1.
       -5    1    3    3    0  502  0.21902610092E+03  0.80056061329E+02 -0.10395446245E+04  0.10653903145E+04  0.46999998093E+01 0. -1.
</event>
<event>
 5   0  0.1168435E-05  0.2396240E+04  0.7818609E-02  0.8440913E-01
       -2   -1    0    0    0  501  0.00000000000E+00  0.00000000000E+00  0.69793445733E+03  0.69793445734E+03  0.25500000920E-02 0. -1.
        2   -1    0    0  501    0  0.00000000000E+00  0.00000000000E+00 -0.20567707691E+04  0.20567707691E+04  0.25500000920E-02 0.  1.
    10030    2    1    2    0    0  0.00000000000E+00  0.00000000000E+00 -0.13588363117E+04  0.27547052264E+04  0.23962397130E+04 0.  0.
        1    1    3    3  502    0 -0.78439509630E+03 -0.88624452000E+03 -0.46500659154E+03  0.12715880412E+04  0.50400001928E-02 0.  1.
       -1    1    3    3    0  502  0.78439509630E+03  0.88624452000E+03 -0.89382972020E+03  0.14831171852E+04  0.50400001928E-02 0. -1.
</event>
<event>
 5   0  0.1168435E-05  0.2394043E+04  0.7818609E-02  0.8441737E-01
        2   -1    0    0  501    0  0.00000000000E+00  0.00000000000E+00  0.12817025540E+04  0.12817025540E+04  0.25500000920E-02 0. -1.
       -2   -1    0    0    0  501  0.00000000000E+00  0.00000000000E+00 -0.11179347987E+04  0.11179347987E+04  0.25500000920E-02 0.  1.
    10030    2    1    2    0    0  0.00000000000E+00  0.00000000000E+00  0.16376775532E+03  0.23996373527E+04  0.23940425115E+04 0.  0.
        1    1    3    3  502    0 -0.11429759308E+04 -0.28557568951E+03  0.29430468273E+03  0.12143157329E+04  0.50400001928E-02 0. -1.
       -1    1    3    3    0  502  0.11429759308E+04  0.28557568951E+03 -0.13053692741E+03  0.11853216198E+04  0.50400001928E-02 0.  1.
</event>
<event>
 5   0  0.4067750E-06  0.2401896E+04  0.7818609E-02  0.8438794E-01
        3   -1    0    0  501    0  0.00000000000E+00  0.00000000000E+00  0.16227738456E+04  0.16227738488E+04  0.10100000352E+00 0.  1.
       -3   -1    0    0    0  501  0.00000000000E+00  0.00000000000E+00 -0.88877222387E+03  0.88877222961E+03  0.10100000352E+00 0. -1.
    10030    2    1    2    0    0  0.00000000000E+00  0.00000000000E+00  0.73400162177E+03  0.25115460784E+04  0.24018961932E+04 0.  0.
        2    1    3    3  502    0  0.35578330289E+03  0.11467878185E+04  0.39201508668E+03  0.12630834840E+04  0.25500000920E-02 0. -1.
       -2    1    3    3    0  502 -0.35578330289E+03 -0.11467878185E+04  0.34198653508E+03  0.12484625944E+04  0.25500000920E-02 0.  1.
</event>
<event>
 5   0  0.4067750E-06  0.2395409E+04  0.7818609E-02  0.8441224E-01
       -3   -1    0    0    0  501  0.00000000000E+00  0.00000000000E+00  0.20259512500E+04  0.20259512525E+04  0.10100000352E+00 0. -1.
        3   -1    0    0  501    0  0.00000000000E+00  0.00000000000E+00 -0.70806054358E+03  0.70806055078E+03  0.10100000352E+00 0.  1.
    10030    2    1    2    0    0  0.00000000000E+00  0.00000000000E+00  0.13178907064E+04  0.27340118033E+04  0.23954090729E+04 0.  0.
        4    1    3    3  502    0  0.80052263737E+03 -0.12467891641E+03 -0.34785206130E+03  0.88169382134E+03  0.12699999809E+01 0.  1.
       -4    1    3    3    0  502 -0.80052263737E+03  0.12467891641E+03  0.16657427677E+04  0.18523179819E+04  0.12699999809E+01 0. -1.
</event>
<event>
 5   0  0.1154897E-05  0.2405224E+04  0.7818609E-02  0.8437550E-01
        2   -1    0    0  501    0  0.00000000000E+00  0.00000000000E+00  0.15183675280E+04  0.15183675280E+04  0.25500000920E-02 0.  1.
       -2   -1    0    0    0  501  0.00000000000E+00  0.00000000000E+00 -0.95252037063E+03  0.95252037063E+03  0.25500000920E-02 0. -1.
    10030    2    1    2    0    0  0.00000000000E+00  0.00000000000E+00  0.56584715733E+03  0.24708878986E+04  0.24052243143E+04 0.  0.
        4    1    3    3  502    0  0.81373837952E+03  0.86262020561E+03  0.77487595106E+02  0.11883979593E+04  0.12699999809E+01 0. -1.
       -4    1    3    3    0  502 -0.81373837952E+03 -0.86262020561E+03  0.48835956222E+03  0.12824899393E+04  0.12699999809E+01 0.  1.
</event>
<event>
 5   0  0.5034479E-06  0.2399178E+04  0.7818609E-02  0.8439811E-01
       -1   -1    0    0    0  501  0.00000000000E+00  0.00000000000E+00  0.21462702072E+04  0.21462702072E+04  0.50400001928E-02 0. -1.
        1   -1    0    0  501    0  0.00000000000E+00  0.00000000000E+00 -0.67047170322E+03  0.67047170324E+03  0.50400001928E-02 0.  1.
    10030    2    1    2    0    0  0.00000000000E+00  0.00000000000E+00  0.14757985040E+04  0.28167419105E+04  0.23991777270E+04 0.  0.
        4    1    3    3  502    0 -0.28620365446E+03  0.84188882767E+03 -0.20742365388E+03  0.91308023474E+03  0.12699999809E+01 0.  1.
       -4    1    3    3    0  502  0.28620365446E+03 -0.84188882767E+03  0.16832221579E+04  0.19036616757E+04  0.12699999809E+01 0. -1.
</event>
<event>
 5   0  0.1154897E-05  0.2398285E+04  0.7818609E-02  0.8440146E-01
       -2   -1    0    0    0  501  0.00000000000E+00  0.00000000000E+00  0.61767686481E+03  0.61767686481E+03  0.25500000920E-02 0.  1.
        2   -1    0    0  501    0  0.00000000000E+00  0.00000000000E+00 -0.23279844927E+04  0.23279844927E+04  0.25500000920E-02 0. -1.
    10030    2    1    2    0    0  0.00000000000E+00  0.00000000000E+00 -0.17103076279E+04  0.29456613575E+04  0.23982845226E+04 0.  0.
        4    1    3    3  502    0 -0.28852621415E+02 -0.74620033535E+03  0.29722634031E+03  0.80373660145E+03  0.12699999809E+01 0.  1.
       -4    1    3    3    0  502  0.28852621415E+02  0.74620033535E+03 -0.20075339682E+04  0.21419247561E+04  0.12699999809E+01 0. -1.
</event>
<event>
 5   0  0.5104174E-06  0.2401981E+04  0.7818609E-02  0.8438762E-01
        1   -1    0    0  501    0  0.00000000000E+00  0.00000000000E+00  0.11017108454E+04  0.11017108454E+04  0.50400001928E-02 0.  1.
       -1   -1    0    0    0  501  0.00000000000E+00  0.00000000000E+00 -0.13092164641E+04  0.13092164641E+04  0.50400001928E-02 0. -1.
    10030    2    1    2    0    0  0.00000000000E+00  0.00000000000E+00 -0.20750561868E+03  0.24109273095E+04  0.24019808305E+04 0.  0.
        3    1    3    3  502    0 -0.16392496480E+03 -0.18070104999E+03  0.10765751587E+04  0.11038742438E+04  0.10100000352E+00 0.  1.
       -3    1    3    3    0  502  0.16392496480E+03  0.18070104999E+03 -0.12840807774E+04  0.13070530657E+04  0.10100000352E+00 0. -1.
</event>
<event>
 5   0  0.5034479E-06  0.2408753E+04  0.7818609E-02  0.8436234E-01
       -1   -1    0    0    0  501  0.00000000000E+00  0.00000000000E+00  0.12969227972E+04  0.12969227972E+04  0.50400001928E-02 0.  1.
        1   -1    0    0  501    0  0.00000000000E+00  0.00000000000E+00 -0.11184342224E+04  0.11184342224E+04  0.50400001928E-02 0. -1.
    10030    2    1    2    0    0  0.00000000000E+00  0.00000000000E+00  0.17848857477E+03  0.24153570196E+04  0.24087530717E+04 0.  0.
        4    1    3    3  502    0 -0.11018074121E+04 -0.30829091625E+03 -0.28794970156E+03  0.11798048592E+04  0.12699999809E+01 0. -1.
       -4    1    3    3    0  502  0.11018074121E+04  0.30829091625E+03  0.46643827633E+03  0.12355521603E+04  0.12699999809E+01 0.  1.
</event>
<event>
 5   0  0.5064437E-06  0.2376643E+04  0.7818609E-02  0.8448300E-01
       -1   -1    0    0    0  501  0.00000000000E+00  0.00000000000E+00  0.11664911969E+04  0.11664911970E+04  0.50400001928E-02 0.  1.
        1   -1    0    0  501    0  0.00000000000E+00  0.00000000000E+00 -0.12105604799E+04  0.12105604799E+04  0.50400001928E-02 0. -1.
    10030    2    1    2    0    0  0.00000000000E+00  0.00000000000E+00 -0.44069282993E+02  0.23770516769E+04  0.23766431312E+04 0.  0.
        2    1    3    3  502    0  0.22057991914E+03 -0.47079778508E+03 -0.10907697228E+04  0.12083396226E+04  0.25500000920E-02 0. -1.
       -2    1    3    3    0  502 -0.22057991914E+03  0.47079778508E+03  0.10467004399E+04  0.11687120543E+04  0.25500000920E-02 0.  1.
</event>
<event>
 5   0  0.1168435E-05  0.2393740E+04  0.7818609E-02  0.8441851E-01
       -2   -1    0    0    0  501  0.00000000000E+00  0.00000000000E+00  0.10640734312E+04  0.10640734312E+04  0.25500000920E-02 0.  1.
        2   -1    0    0  501    0  0.00000000000E+00  0.00000000000E+00 -0.13462396815E+04  0.13462396815E+04  0.25500000920E-02 0. -1.
    10030    2    1    2    0    0  0.00000000000E+00  0.00000000000E+00 -0.28216625025E+03  0.24103131127E+04  0.23937400671E+04 0.  0.
        1    1    3    3  502    0 -0.62338603008E+03  0.98331278738E+03 -0.42046347409E+03  0.12378625584E+04  0.50400001928E-02 0.  1.
       -1    1    3    3    0  502  0.62338603008E+03 -0.98331278738E+03  0.13829722385E+03  0.11724505544E+04  0.50400001928E-02 0. -1.
</event>
<event>
 5   0  0.5196696E-06  0.2395059E+04  0.7818609E-02  0.8441356E-01
        1   -1    0    0  501    0  0.00000000000E+00  0.00000000000E+00  0.16929104219E+04  0.16929104219E+04  0.50400001928E-02 0.  1.
       -1   -1    0    0    0  501  0.00000000000E+00  0.00000000000E+00 -0.84710757962E+03  0.84710757964E+03  0.50400001928E-02 0. -1.
    10030    2    1    2    0    0  0.00000000000E+00  0.00000000000E+00  0.84580284223E+03  0.25400180015E+04  0.23950592895E+04 0.  0.
        1    1    3    3  502    0 -0.60162673409E+03 -0.41812342543E+03 -0.58168713838E+03  0.93549016727E+03  0.50400001928E-02 0. -1.
       -1    1    3    3    0  502  0.60162673409E+03  0.41812342543E+03  0.14274899806E+04  0.16045278342E+04  0.50400001928E-02 0.  1.
</event>
<event>
 5   0  0.1168435E-05  0.2381192E+04  0.7818609E-02  0.8446579E-01
       -2   -1    0    0    0  501  0.00000000000E+00  0.00000000000E+00  0.66400517487E+03  0.66400517487E+03  0.25500000920E-02 0.  1.
        2   -1    0    0  501    0  0.00000000000E+00  0.00000000000E+00 -0.21348009916E+04  0.21348009916E+04  0.25500000920E-02 0. -1.
    10030    2    1    2    0    0  0.00000000000E+00  0.00000000000E+00 -0.14707958167E+04  0.27988061665E+04  0.23811920592E+04 0.  0.
        1    1    3    3  502    0  0.36682331726E+03  0.13018362292E+03  0.58710693295E+03  0.70441583778E+03  0.50400001928E-02 0.  1.
       -1    1    3    3    0  502 -0.36682331726E+03 -0.13018362292E+03 -0.20579027497E+04  0.20943903287E+04  0.50400001928E-02 0. -1.
</event>
<event>
 5   0  0.1169371E-05  0.2410240E+04  0.7818609E-02  0.8435680E-01
       -2   -1    0    0    0  501  0.00000000000E+00  0.00000000000E+00  0.87450964404E+03  0.87450964404E+03  0.25500000920E-02 0.  1.
        2   -1    0    0  501    0  0.00000000000E+00  0.00000000000E+00 -0.16607178409E+04  0.16607178409E+04  0.25500000920E-02 0. -1.
    10030    2    1    2    0    0  0.00000000000E+00  0.00000000000E+00 -0.78620819689E+03  0.25352274850E+04  0.24102396295E+04 0.  0.
        2    1    3    3  502    0  0.96858014939E+03 -0.65787502814E+03 -0.69314474193E+03  0.13606603881E+04  0.25500000920E-02 0. -1.
       -2    1    3    3    0  502 -0.96858014939E+03  0.65787502814E+03 -0.93063454965E+02  0.11745670969E+04  0.25500000920E-02 0.  1.
</event>
<event>
 5   0  0.1154897E-05  0.2410039E+04  0.7818609E-02  0.8435755E-01
        2   -1    0    0  501    0  0.00000000000E+00  0.00000000000E+00  0.16659671526E+04  0.16659671526E+04  0.25500000920E-02 0.  1.
       -2   -1    0    0    0  501  0.00000000000E+00  0.00000000000E+00 -0.87160890447E+03  0.87160890447E+03  0.25500000920E-02 0. -1.
    10030    2    1    2    0    0  0.00000000000E+00  0.00000000000E+00  0.79435824813E+03  0.25375760571E+04  0.24100388418E+04 0.  0.
        4    1    3    3  502    0  0.26503280296E+03  0.11303568542E+04  0.57425121157E+02  0.11624320461E+04  0.12699999809E+01 0. -1.
       -4    1    3    3    0  502 -0.26503280296E+03 -0.11303568542E+04  0.73693312697E+03  0.13751440110E+04  0.12699999809E+01 0.  1.
</event>
<event>
 5   0  0.5034479E-06  0.2368943E+04  0.7818609E-02  0.8451223E-01
        1   -1    0    0  501    0  0.00000000000E+00  0.00000000000E+00  0.11297630021E+04  0.11297630021E+04  0.50400001928E-02 0. -1.
       -1   -1    0    0    0  501  0.00000000000E+00  0.00000000000E+00 -0.12418290329E+04  0.12418290329E+04  0.50400001928E-02 0.  1.
    10030    2    1    2    0    0  0.00000000000E+00  0.00000000000E+00 -0.11206603079E+03  0.23715920351E+04  0.23689427991E+04 0.  0.
        4    1    3    3  502    0 -0.66034535910E+03  0.95245989806E+03 -0.30071385502E+03  0.11973580443E+04  0.12699999809E+01 0.  1.
       -4    1    3    3    0  502  0.66034535910E+03 -0.95245989806E+03  0.18864782423E+03  0.11742339908E+04  0.12699999809E+01 0. -1.
</event>
<event>
 5   0  0.5196696E-06  0.2288960E+04  0.7818609E-02  0.8482287E-01
        1   -1    0    0  501    0  0.00000000000E+00  0.00000000000E+00  0.11762217829E+04  0.11762217829E+04  0.50400001928E-02 0.  1.
       -1   -1    0    0    0  501  0.00000000000E+00  0.00000000000E+00 -0.11135943845E+04  0.11135943845E+04  0.50400001928E-02 0. -1.
    10030    2    1    2    0    0  0.00000000000E+00  0.00000000000E+00  0.62627398403E+02  0.22898161674E+04  0.22889595649E+04 0.  0.
        1    1    3    3  502    0 -0.15417739785E+03  0.32596218611E+03  0.11179116783E+04  0.11746269780E+04  0.50400001928E-02 0.  1.
       -1    1    3    3    0  502  0.15417739785E+03 -0.32596218611E+03 -0.10552842799E+04  0.11151891895E+04  0.50400001928E-02 0. -1.
</event>
<event>
 5   0  0.1154897E-05  0.2412129E+04  0.7818609E-02  0.8434976E-01
       -2   -1    0    0    0  501  0.00000000000E+00  0.00000000000E+00  0.61904072517E+03  0.61904072517E+03  0.25500000920E-02 0. -1.
        2   -1    0    0  501    0  0.00000000000E+00  0.00000000000E+00 -0.23497518715E+04  0.23497518715E+04  0.25500000920E-02 0.  1.
    10030    2    1    2    0    0  0.00000000000E+00  0.00000000000E+00 -0.17307111463E+04  0.29687925967E+04  0.24121294348E+04 0.  0.
        4    1    3    3  502    0 -0.19726284700E+03 -0.71163304807E+03  0.30825064201E+03  0.80022140505E+03  0.12699999809E+01 0. -1.
       -4    1    3    3    0  502  0.19726284700E+03  0.71163304807E+03 -0.20389617883E+04  0.21685711916E+04  0.12699999809E+01 0.  1.
</event>
<event>
 5   0  0.1174210E-05  0.2400980E+04  0.7818609E-02  0.8439137E-01
       -2   -1    0    0    0  501  0.00000000000E+00  0.00000000000E+00  0.94421940012E+03  0.94421940012E+03  0.25500000920E-02 0.  1.
        2   -1    0    0  501    0  0.00000000000E+00  0.00000000000E+00 -0.15263155416E+04  0.15263155416E+04  0.25500000920E-02 0. -1.
    10030    2    1    2    0    0  0.00000000000E+00  0.00000000000E+00 -0.58209614152E+03  0.24705349418E+04  0.24009804207E+04 0.  0.
        3    1    3    3  502    0 -0.98776137505E+03 -0.36146602794E+03 -0.88647061142E+03  0.13755582061E+04  0.10100000352E+00 0. -1.
       -3    1    3    3    0  502  0.98776137505E+03  0.36146602794E+03  0.30437446990E+03  0.10949767356E+04  0.10100000352E+00 0.  1.
</event>
<event>
 5   0  0.5064437E-06  0.2400920E+04  0.7818609E-02  0.8439159E-01
       -1   -1    0    0    0  501  0.00000000000E+00  0.00000000000E+00  0.12379247814E+04  0.12379247814E+04  0.50400001928E-02 0. -1.
        1   -1    0    0  501    0  0.00000000000E+00  0.00000000000E+00 -0.11641289984E+04  0.11641289984E+04  0.50400001928E-02 0.  1.
    10030    2    1    2    0    0  0.00000000000E+00  0.00000000000E+00  0.73795782983E+02  0.24020537798E+04  0.24009199369E+04 0.  0.
        2    1    3    3  502    0 -0.62303686655E+03 -0.34961978987E+03  0.10020789403E+04  0.12306791366E+04  0.25500000920E-02 0. -1.
       -2    1    3    3    0  502  0.62303686655E+03  0.34961978987E+03 -0.92828315736E+03  0.11713746432E+04  0.25500000920E-02 0.  1.
</event>
<event>
 5   0  0.5104174E-06  0.2398054E+04  0.7818609E-02  0.8440232E-01
       -1   -1    0    0    0  501  0.00000000000E+00  0.00000000000E+00  0.14218248153E+04  0.14218248153E+04  0.50400001928E-02 0.  1.
        1   -1    0    0  501    0  0.00000000000E+00  0.00000000000E+00 -0.10111413728E+04  0.10111413729E+04  0.50400001928E-02 0. -1.
    10030    2    1    2    0    0  0.00000000000E+00  0.00000000000E+00  0.41068344248E+03  0.24329661882E+04  0.23980541243E+04 0.  0.
        3    1    3    3  502    0 -0.67624499210E+03 -0.92673762772E+03  0.55900809015E+03  0.12761817954E+04  0.10100000352E+00 0. -1.
       -3    1    3    3    0  502  0.67624499210E+03  0.92673762772E+03 -0.14832464767E+03  0.11567843927E+04  0.10100000352E+00 0.  1.
</event>
<event>
 5   0  0.1169371E-05  0.2401384E+04  0.7818609E-02  0.8438986E-01
       -2   -1    0    0    0  501  0.00000000000E+00  0.00000000000E+00  0.84784366183E+03  0.84784366183E+03  0.25500000920E-02 0. -1.
        2   -1    0    0  501    0  0.00000000000E+00  0.00000000000E+00 -0.17003860926E+04  0.17003860926E+04  0.25500000920E-02 0.  1.
    10030    2    1    2    0    0  0.00000000000E+00  0.00000000000E+00 -0.85254243076E+03  0.25482297544E+04  0.24013842435E+04 0.  0.
        2    1    3    3  502    0 -0.11070118182E+04  0.11370839749E+03  0.52137931043E+02  0.11140570583E+04  0.25500000920E-02 0. -1.
       -2    1    3    3    0  502  0.11070118182E+04 -0.11370839749E+03 -0.90468036180E+03  0.14341726961E+04  0.25500000920E-02 0.  1.
</event>
<event>
 5   0  0.1154897E-05  0.2406663E+04  0.7818609E-02  0.8437013E-01
        2   -1    0    0  501    0  0.00000000000E+00  0.00000000000E+00  0.13558436630E+04  0.13558436630E+04  0.25500000920E-02 0.  1.
       -2   -1    0    0    0  501  0.00000000000E+00  0.00000000000E+00 -0.10679745100E+04  0.10679745100E+04  0.25500000920E-02 0. -1.
    10030    2    1    2    0    0  0.00000000000E+00  0.00000000000E+00  0.28786915304E+03  0.24238181730E+04  0.24066628112E+04 0.  0.
        4    1    3    3  502    0  0.94373428863E+03  0.15955724335E+03 -0.59058717092E+03  0.11246722815E+04  0.12699999809E+01 0. -1.
       -4    1    3    3    0  502 -0.94373428863E+03 -0.15955724335E+03  0.87845632396E+03  0.12991458915E+04  0.12699999809E+01 0.  1.
</event>
<event>
 5   0  0.5196696E-06  0.2404470E+04  0.7818609E-02  0.8437832E-01
       -1   -1    0    0    0  501  0.00000000000E+00  0.00000000000E+00  0.69370421676E+03  0.69370421678E+03  0.50400001928E-02 0. -1.
        1   -1    0    0  501    0  0.00000000000E+00  0.00000000000E+00 -0.20835522892E+04  0.20835522892E+04  0.50400001928E-02 0.  1.
    10030    2    1    2    0    0  0.00000000000E+00  0.00000000000E+00 -0.13898480724E+04  0.27772565060E+04  0.24044700114E+04 0.  0.
        1    1    3    3  502    0  0.63096998794E+03 -0.70583465226E+03  0.16093046013E+03  0.96032509861E+03  0.50400001928E-02 0. -1.
       -1    1    3    3    0  502 -0.63096998794E+03  0.70583465226E+03 -0.15507785325E+04  0.18169314073E+04  0.50400001928E-02 0.  1.
</event>
<event>
 5   0  0.5196696E-06  0.2390954E+04  0.7818609E-02  0.8442898E-01
       -1   -1    0    0    0  501  0.00000000000E+00  0.00000000000E+00  0.73221647495E+03  0.73221647497E+03  0.50400001928E-02 0.  1.
        1   -1    0    0  501    0  0.00000000000E+00  0.00000000000E+00 -0.19518344321E+04  0.19518344321E+04  0.50400001928E-02 0. -1.
    10030    2    1    2    0    0  0.00000000000E+00  0.00000000000E+00 -0.12196179572E+04  0.26840509071E+04  0.23909540586E+04 0.  0.
        1    1    3    3  502    0 -0.70901847526E+03 -0.93165867330E+03 -0.33836077185E+03  0.12186808827E+04  0.50400001928E-02 0. -1.
       -1    1    3    3    0  502  0.70901847526E+03  0.93165867330E+03 -0.88125718531E+03  0.14653700244E+04  0.50400001928E-02 0.  1.
</event>
<event>
 5   0  0.1174210E-05  0.2385318E+04  0.7818609E-02  0.8445021E-01
       -2   -1    0    0    0  501  0.00000000000E+00  0.00000000000E+00  0.86115166612E+03  0.86115166612E+03  0.25500000920E-02 0.  1.
        2   -1    0    0  501    0  0.00000000000E+00  0.00000000000E+00 -0.16517823529E+04  0.16517823529E+04  0.25500000920E-02 0. -1.
    10030    2    1    2    0    0  0.00000000000E+00  0.00000000000E+00 -0.79063068678E+03  0.25129340190E+04  0.23853176939E+04 0.  0.
        3    1    3    3  502    0  0.10454325194E+04  0.13137071984E+03  0.19337170005E+03  0.10712516247E+04  0.10100000352E+00 0. -1.
       -3    1    3    3    0  502 -0.10454325194E+04 -0.13137071984E+03 -0.98400238683E+03  0.14416823944E+04  0.10100000352E+00 0.  1.
</event>
<event>
 5   0  0.5034479E-06  0.2394263E+04  0.7818609E-02  0.8441655E-01
        1   -1    0    0  501    0  0.00000000000E+00  0.00000000000E+00  0.12456564263E+04  0.12456564263E+04  0.50400001928E-02 0. -1.
       -1   -1    0    0    0  501  0.00000000000E+00  0.00000000000E+00 -0.11504965622E+04  0.11504965622E+04  0.50400001928E-02 0.  1.
    10030    2    1    2    0    0  0.00000000000E+00  0.00000000000E+00  0.95159864177E+02  0.23961529885E+04  0.23942626724E+04 0.  0.
        4    1    3    3  502    0 -0.11087970981E+04 -0.28849030345E+03 -0.29977357067E+03  0.11842818358E+04  0.12699999809E+01 0.  1.
       -4    1    3    3    0  502  0.11087970981E+04  0.28849030345E+03  0.39493343485E+03  0.12118711527E+04  0.12699999809E+01 0. -1.
</event>
<event>
 5   0  0.5196696E-06  0.2406407E+04  0.7818609E-02  0.8437109E-01
        1   -1    0    0  501    0  0.00000000000E+00  0.00000000000E+00  0.17296206302E+04  0.17296206302E+04  0.50400001928E-02 0. -1.
       -1   -1    0    0    0  501  0.00000000000E+00  0.00000000000E+00 -0.83700340615E+03  0.83700340617E+03  0.50400001928E-02 0.  1.
    10030    2    1    2    0    0  0.00000000000E+00  0.00000000000E+00  0.89261722400E+03  0.25666240363E+04  0.24064067477E+04 0.  0.
        1    1    3    3  502    0  0.89243928793E+03 -0.33187062921E+03  0.12308880970E+04  0.15561720678E+04  0.50400001928E-02 0. -1.
       -1    1    3    3    0  502 -0.89243928793E+03  0.33187062921E+03 -0.33827087302E+03  0.10104519685E+04  0.50400001928E-02 0.  1.
</event>
<event>
 5   0  0.5196696E-06  0.2408864E+04  0.7818609E-02  0.8436193E-01
       -1   -1    0    0    0  501  0.00000000000E+00  0.00000000000E+00  0.70202659920E+03  0.70202659922E+03  0.50400001928E-02 0. -1.
        1   -1    0    0  501    0  0.00000000000E+00  0.00000000000E+00 -0.20663835187E+04  0.20663835187E+04  0.50400001928E-02 0.  1.
    10030    2    1    2    0    0  0.00000000000E+00  0.00000000000E+00 -0.13643569195E+04  0.27684101179E+04  0.24088637938E+04 0.  0.
        1    1    3    3  502    0  0.52561691253E+03 -0.10834819512E+04 -0.65780122771E+03  0.13721912157E+04  0.50400001928E-02 0.  1.
       -1    1    3    3    0  502 -0.52561691253E+03  0.10834819512E+04 -0.70655569178E+03  0.13962189022E+04  0.50400001928E-02 0. -1.
</event>
<event>
 5   0  0.5104174E-06  0.2397989E+04  0.7818609E-02  0.8440257E-01
       -1   -1    0    0    0  501  0.00000000000E+00  0.00000000000E+00  0.67117080422E+03  0.67117080424E+03  0.50400001928E-02 0. -1.
        1   -1    0    0  501    0  0.00000000000E+00  0.00000000000E+00 -0.21419101453E+04  0.21419101453E+04  0.50400001928E-02 0.  1.
    10030    2    1    2    0    0  0.00000000000E+00  0.00000000000E+00 -0.14707393411E+04  0.28130809496E+04  0.23979887863E+04 0.  0.
        3    1    3    3  502    0  0.88114482154E+03  0.51061050872E+03 -0.14777189398E+04  0.17946566700E+04  0.10100000352E+00 0.  1.
       -3    1    3    3    0  502 -0.88114482154E+03 -0.51061050872E+03  0.69795986669E+01  0.10184242795E+04  0.10100000352E+00 0. -1.
</event>
<event>
 5   0  0.1198313E-05  0.2393520E+04  0.7818609E-02  0.8441934E-01
        2   -1    0    0  501    0  0.00000000000E+00  0.00000000000E+00  0.15929453687E+04  0.15929453687E+04  0.25500000920E-02 0. -1.
       -2   -1    0    0    0  501  0.00000000000E+00  0.00000000000E+00 -0.89911055484E+03  0.89911055484E+03  0.25500000920E-02 0.  1.
    10030    2    1    2    0    0  0.00000000000E+00  0.00000000000E+00  0.69383481384E+03  0.24920559235E+04  0.23935195794E+04 0.  0.
        5    1    3    3  502    0  0.10407835488E+01  0.34470303327E+03  0.15401298070E+04  0.15782405320E+04  0.46999998093E+01 0. -1.
       -5    1    3    3    0  502 -0.10407835488E+01 -0.34470303327E+03 -0.84629499316E+03  0.91381539154E+03  0.46999998093E+01 0.  1.
</event>
<event>
 5   0  0.5034479E-06  0.2397081E+04  0.7818609E-02  0.8440597E-01
        1   -1    0    0  501    0  0.00000000000E+00  0.00000000000E+00  0.11861460846E+04  0.11861460846E+04  0.50400001928E-02 0.  1.
       -1   -1    0    0    0  501  0.00000000000E+00  0.00000000000E+00 -0.12110645195E+04  0.12110645196E+04  0.50400001928E-02 0. -1.
    10030    2    1    2    0    0  0.00000000000E+00  0.00000000000E+00 -0.24918434950E+02  0.23972106042E+04  0.23970810901E+04 0.  0.
        4    1    3    3  502    0  0.29770109395E+03 -0.29555565481E+03 -0.11352481353E+04  0.12102764262E+04  0.12699999809E+01 0. -1.
       -4    1    3    3    0  502 -0.29770109395E+03  0.29555565481E+03  0.11103297003E+04  0.11869341779E+04  0.12699999809E+01 0.  1.
</event>
<event>
 5   0  0.5196696E-06  0.2398469E+04  0.7818609E-02  0.8440077E-01
       -1   -1    0    0    0  501  0.00000000000E+00  0.00000000000E+00  0.10205722578E+04  0.10205722578E+04  0.50400001928E-02 0. -1.
        1   -1    0    0  501    0  0.00000000000E+00  0.00000000000E+00 -0.14091734440E+04  0.14091734440E+04  0.50400001928E-02 0.  1.
    10030    2    1    2    0    0  0.00000000000E+00  0.00000000000E+00 -0.38860118617E+03  0.24297457018E+04  0.23984689478E+04 0.  0.
        1    1    3    3  502    0  0.45278215618E+03 -0.76039518970E+03  0.62554310017E+03  0.10837512148E+04  0.50400001928E-02 0. -1.
       -1    1    3    3    0  502 -0.45278215618E+03  0.76039518970E+03 -0.10141442863E+04  0.13459944870E+04  0.50400001928E-02 0.  1.
</event>
<event>
 5   0  0.5196696E-06  0.2481329E+04  0.7818609E-02  0.8409668E-01
        1   -1    0    0  501    0  0.00000000000E+00  0.00000000000E+00  0.12909229326E+04  0.12909229326E+04  0.50400001928E-02 0. -1.
       -1   -1    0    0    0  501  0.00000000000E+00  0.00000000000E+00 -0.11923627018E+04  0.11923627018E+04  0.50400001928E-02 0.  1.
    10030    2    1    2    0    0  0.00000000000E+00  0.00000000000E+00  0.98560230841E+02  0.24832856344E+04  0.24813289631E+04 0.  0.
        1    1    3    3  502    0 -0.79331463917E+03 -0.86112048880E+03 -0.36137471433E+03  0.12253441546E+04  0.50400001928E-02 0.  1.
       -1    1    3    3    0  502  0.79331463917E+03  0.86112048880E+03  0.45993494517E+03  0.12579414799E+04  0.50400001928E-02 0. -1.
</event>
<event>
 5   0  0.1198313E-05  0.2402885E+04  0.7818609E-02  0.8438424E-01
        2   -1    0    0  501    0  0.00000000000E+00  0.00000000000E+00  0.13893798913E+04  0.13893798914E+04  0.25500000920E-02 0. -1.
       -2   -1    0    0    0  501  0.00000000000E+00  0.00000000000E+00 -0.10389270158E+04  0.10389270159E+04  0.25500000920E-02 0.  1.
    10030    2    1    2    0    0  0.00000000000E+00  0.00000000000E+00  0.35045287550E+03  0.24283069072E+04  0.24028851861E+04 0.  0.
        5    1    3    3  502    0  0.26530616005E+03 -0.96685038073E+03 -0.49378584717E+03  0.11176017046E+04  0.46999998093E+01 0.  1.
       -5    1    3    3    0  502 -0.26530616005E+03  0.96685038073E+03  0.84423872267E+03  0.13107052026E+04  0.46999998093E+01 0. -1.
</event>
<event>
 5   0  0.1154897E-05  0.2417541E+04  0.7818609E-02  0.8432965E-01
       -2   -1    0    0    0  501  0.00000000000E+00  0.00000000000E+00  0.15561519866E+04  0.15561519866E+04  0.25500000920E-02 0. -1.
        2   -1    0    0  501    0  0.00000000000E+00  0.00000000000E+00 -0.93893547981E+03  0.93893547981E+03  0.25500000920E-02 0.  1.
    10030    2    1    2    0    0  0.00000000000E+00  0.00000000000E+00  0.61721650676E+03  0.24950874664E+04  0.24175411576E+04 0.  0.
        4    1    3    3  502    0  0.62327819371E+03  0.33692493618E+03  0.13193745845E+04  0.14975797229E+04  0.12699999809E+01 0. -1.
       -4    1    3    3    0  502 -0.62327819371E+03 -0.33692493618E+03 -0.70215807770E+03  0.99750774350E+03  0.12699999809E+01 0.  1.
</event>
<event>
 5   0  0.5042742E-06  0.2403408E+04  0.7818609E-02  0.8438229E-01
        1   -1    0    0  501    0  0.00000000000E+00  0.00000000000E+00  0.12200208120E+04  0.12200208120E+04  0.50400001928E-02 0. -1.
       -1   -1    0    0    0  501  0.00000000000E+00  0.00000000000E+00 -0.11836619684E+04  0.11836619684E+04  0.50400001928E-02 0.  1.
    10030    2    1    2    0    0  0.00000000000E+00  0.00000000000E+00  0.36358843580E+02  0.24036827805E+04  0.24034077772E+04 0.  0.
        5    1    3    3  502    0 -0.57246951144E+03 -0.13826076778E+02  0.10747839292E+04  0.12178239143E+04  0.46999998093E+01 0. -1.
       -5    1    3    3    0  502  0.57246951144E+03  0.13826076778E+02 -0.10384250856E+04  0.11858588661E+04  0.46999998093E+01 0.  1.
</event>
<event>
 5   0  0.1154897E-05  0.2409815E+04  0.7818609E-02  0.8435838E-01
        2   -1    0    0  501    0  0.00000000000E+00  0.00000000000E+00  0.10188970449E+04  0.10188970449E+04  0.25500000920E-02 0. -1.
       -2   -1    0    0    0  501  0.00000000000E+00  0.00000000000E+00 -0.14248767006E+04  0.14248767006E+04  0.25500000920E-02 0.  1.
    10030    2    1    2    0    0  0.00000000000E+00  0.00000000000E+00 -0.40597965564E+03  0.24437737455E+04  0.24098154781E+04 0.  0.
        4    1    3    3  502    0  0.19929141256E+03  0.51837837995E+03 -0.12873415921E+04  0.14020282450E+04  0.12699999809E+01 0.  1.
       -4    1    3    3    0  502 -0.19929141256E+03 -0.51837837995E+03  0.88136193650E+03  0.10417455006E+04  0.12699999809E+01 0. -1.
</event>
<event>
 5   0  0.5104174E-06  0.2400618E+04  0.7818609E-02  0.8439272E-01
       -1   -1    0    0    0  501  0.00000000000E+00  0.00000000000E+00  0.80581585321E+03  0.80581585322E+03  0.50400001928E-02 0.  1.
        1   -1    0    0  501    0  0.00000000000E+00  0.00000000000E+00 -0.17879298971E+04  0.17879298971E+04  0.50400001928E-02 0. -1.
    10030    2    1    2    0    0  0.00000000000E+00  0.00000000000E+00 -0.98211404390E+03  0.25937457503E+04  0.24006184666E+04 0.  0.
        3    1    3    3  502    0  0.68371853329E+03 -0.16170829911E+03 -0.15425518464E+04  0.16950182347E+04  0.10100000352E+00 0. -1.
       -3    1    3    3    0  502 -0.68371853329E+03  0.16170829911E+03  0.56043780250E+03  0.89872751568E+03  0.10100000352E+00 0.  1.
</event>
<event>
 5   0  0.1169371E-05  0.2484291E+04  0.7818609E-02  0.8408603E-01
        2   -1    0    0  501    0  0.00000000000E+00  0.00000000000E+00  0.19473846339E+04  0.19473846339E+04  0.25500000920E-02 0. -1.
       -2   -1    0    0    0  501  0.00000000000E+00  0.00000000000E+00 -0.79230676972E+03  0.79230676973E+03  0.25500000920E-02 0.  1.
    10030    2    1    2    0    0  0.00000000000E+00  0.00000000000E+00  0.11550778642E+04  0.27396914036E+04  0.24842914714E+04 0.  0.
        2    1    3    3  502    0 -0.11558016910E+04 -0.41783305584E+03  0.77624001247E+03  0.14536198156E+04  0.25500000920E-02 0. -1.
       -2    1    3    3    0  502  0.11558016910E+04  0.41783305584E+03  0.37883785169E+03  0.12860715880E+04  0.25500000920E-02 0.  1.
</event>
<event>
 5   0  0.1168435E-05  0.2366327E+04  0.7818609E-02  0.8452219E-01
        2   -1    0    0  501    0  0.00000000000E+00  0.00000000000E+00  0.16104638543E+04  0.16104638543E+04  0.25500000920E-02 0.  1.
       -2   -1    0    0    0  501  0.00000000000E+00  0.00000000000E+00 -0.86923746909E+03  0.86923746910E+03  0.25500000920E-02 0. -1.
    10030    2    1    2    0    0  0.00000000000E+00  0.00000000000E+00  0.74122638518E+03  0.24797013234E+04  0.23663267101E+04 0.  0.
        1    1    3    3  502    0 -0.29128922425E+03 -0.10008688125E+04 -0.21592508932E+03  0.10645240422E+04  0.50400001928E-02 0. -1.
       -1    1    3    3    0  502  0.29128922425E+03  0.10008688125E+04  0.95715147451E+03  0.14151772812E+04  0.50400001928E-02 0.  1.
</event>
<event>
 5   0  0.5034479E-06  0.2404571E+04  0.7818609E-02  0.8437794E-01
        1   -1    0    0  501    0  0.00000000000E+00  0.00000000000E+00  0.86581312802E+03  0.86581312804E+03  0.50400001928E-02 0.  1.
       -1   -1    0    0    0  501  0.00000000000E+00  0.00000000000E+00 -0.16695171613E+04  0.16695171613E+04  0.50400001928E-02 0. -1.
    10030    2    1    2    0    0  0.00000000000E+00  0.00000000000E+00 -0.80370403331E+03  0.25353302894E+04  0.24045705444E+04 0.  0.
        4    1    3    3  502    0  0.60457098776E+03  0.62170896162E+03 -0.12798788266E+04  0.15460011435E+04  0.12699999809E+01 0. -1.
       -4    1    3    3    0  502 -0.60457098776E+03 -0.62170896162E+03  0.47617479326E+03  0.98932914585E+03  0.12699999809E+01 0.  1.
</event>
<event>
 5   0  0.1168435E-05  0.2420373E+04  0.7818609E-02  0.8431916E-01
       -2   -1    0    0    0  501  0.00000000000E+00  0.00000000000E+00  0.28001430479E+04  0.28001430479E+04  0.25500000920E-02 0.  1.
        2   -1    0    0  501    0  0.00000000000E+00  0.00000000000E+00 -0.52302713218E+03  0.52302713219E+03  0.25500000920E-02 0. -1.
    10030    2    1    2    0    0  0.00000000000E+00  0.00000000000E+00  0.22771159157E+04  0.33231701801E+04  0.24203725234E+04 0.  0.
        1    1    3    3  502    0  0.16234387320E+03  0.60086430057E+03  0.25635418071E+04  0.26380182027E+04  0.50400001928E-02 0.  1.
       -1    1    3    3    0  502 -0.16234387320E+03 -0.60086430057E+03 -0.28642589139E+03  0.68515197741E+03  0.50400001928E-02 0. -1.
</event>
<event>
 5   0  0.5064437E-06  0.2391741E+04  0.7818609E-02  0.8442602E-01
        1   -1    0    0  501    0  0.00000000000E+00  0.00000000000E+00  0.15206781544E+04  0.15206781545E+04  0.50400001928E-02 0.  1.
       -1   -1    0    0    0  501  0.00000000000E+00  0.00000000000E+00 -0.94043958820E+03  0.94043958821E+03  0.50400001928E-02 0. -1.
    10030    2    1    2    0    0  0.00000000000E+00  0.00000000000E+00  0.58023856625E+03  0.24611177427E+04  0.23917407363E+04 0.  0.
        2    1    3    3  502    0 -0.70497045017E+03 -0.24979373925E+02 -0.70355120756E+03  0.99628891714E+03  0.25500000920E-02 0. -1.
       -2    1    3    3    0  502  0.70497045017E+03  0.24979373925E+02  0.12837897738E+04  0.14648288255E+04  0.25500000920E-02 0.  1.
</event>
<event>
 5   0  0.1154897E-05  0.2393805E+04  0.7818609E-02  0.8441826E-01
        2   -1    0    0  501    0  0.00000000000E+00  0.00000000000E+00  0.16977022731E+04  0.16977022731E+04  0.25500000920E-02 0. -1.
       -2   -1    0    0    0  501  0.00000000000E+00  0.00000000000E+00 -0.84383214063E+03  0.84383214063E+03  0.25500000920E-02 0.  1.
    10030    2    1    2    0    0  0.00000000000E+00  0.00000000000E+00  0.85387013249E+03  0.25415344138E+04  0.23938051243E+04 0.  0.
        4    1    3    3  502    0 -0.27710802038E+03 -0.16773149688E+03  0.16502808642E+04  0.16817702737E+04  0.12699999809E+01 0. -1.
       -4    1    3    3    0  502  0.27710802038E+03  0.16773149688E+03 -0.79641073170E+03  0.85976414002E+03  0.12699999809E+01 0.  1.
</event>
<event>
 5   0  0.1174210E-05  0.2403702E+04  0.7818609E-02  0.8438119E-01
       -2   -1    0    0    0  501  0.00000000000E+00  0.00000000000E+00  0.13854662410E+04  0.13854662410E+04  0.25500000920E-02 0. -1.
        2   -1    0    0  501    0  0.00000000000E+00  0.00000000000E+00 -0.10425702614E+04  0.10425702614E+04  0.25500000920E-02 0.  1.
    10030    2    1    2    0    0  0.00000000000E+00  0.00000000000E+00  0.34289597963E+03  0.24280365024E+04  0.24037020622E+04 0.  0.
        3    1    3    3  502    0  0.59560652305E+03  0.20990523126E+02  0.12256891937E+04  0.13629019562E+04  0.10100000352E+00 0. -1.
       -3    1    3    3    0  502 -0.59560652305E+03 -0.20990523126E+02 -0.88279321411E+03  0.10651345462E+04  0.10100000352E+00 0.  1.
</event>
<event>
 5   0  0.5064437E-06  0.2406478E+04  0.7818609E-02  0.8437082E-01
       -1   -1    0    0    0  501  0.00000000000E+00  0.00000000000E+00  0.13853668013E+04  0.13853668013E+04  0.50400001928E-02 0.  1.
        1   -1    0    0  501    0  0.00000000000E+00  0.00000000000E+00 -0.10450542841E+04  0.10450542841E+04  0.50400001928E-02 0. -1.
    10030    2    1    2    0    0  0.00000000000E+00  0.00000000000E+00  0.34031251724E+03  0.24304210854E+04  0.24064775176E+04 0.  0.
        2    1    3    3  502    0  0.27761018327E+03  0.23406790888E+03  0.13287090578E+04  0.13774334685E+04  0.25500000920E-02 0.  1.
       -2    1    3    3    0  502 -0.27761018327E+03 -0.23406790888E+03 -0.98839654059E+03  0.10529876169E+04  0.25500000920E-02 0. -1.
</event>
<event>
 5   0  0.5034479E-06  0.2415508E+04  0.7818609E-02  0.8433720E-01
        1   -1    0    0  501    0  0.00000000000E+00  0.00000000000E+00  0.14383489061E+04  0.14383489061E+04  0.50400001928E-02 0. -1.
       -1   -1    0    0    0  501  0.00000000000E+00  0.00000000000E+00 -0.10141279773E+04  0.10141279773E+04  0.50400001928E-02 0.  1.
    10030    2    1    2    0    0  0.00000000000E+00  0.00000000000E+00  0.42422092882E+03  0.24524768834E+04  0.24155081178E+04 0.  0.
        4    1    3    3  502    0 -0.53330282323E+03 -0.21422207801E+02  0.13121112630E+04  0.14165127573E+04  0.12699999809E+01 0. -1.
       -4    1    3    3    0  502  0.53330282323E+03  0.21422207801E+02 -0.88789033416E+03  0.10359641261E+04  0.12699999809E+01 0.  1.
</event>
<event>
 5   0  0.5104174E-06  0.2397331E+04  0.7818609E-02  0.8440504E-01
       -1   -1    0    0    0  501  0.00000000000E+00  0.00000000000E+00  0.13259790789E+04  0.13259790789E+04  0.50400001928E-02 0.  1.
        1   -1    0    0  501    0  0.00000000000E+00  0.00000000000E+00 -0.10835756635E+04  0.10835756635E+04  0.50400001928E-02 0. -1.
    10030    2    1    2    0    0  0.00000000000E+00  0.00000000000E+00  0.24240341541E+03  0.24095547424E+04  0.23973307325E+04 0.  0.
        3    1    3    3  502    0 -0.10810863070E+04  0.50955128235E+03  0.21336735465E+03  0.12140493198E+04  0.10100000352E+00 0. -1.
       -3    1    3    3    0  502  0.10810863070E+04 -0.50955128235E+03  0.29036060756E+02  0.11955054227E+04  0.10100000352E+00 0.  1.
</event>
<event>
 5   0  0.5104174E-06  0.2402249E+04  0.7818609E-02  0.8438662E-01
        1   -1    0    0  501    0  0.00000000000E+00  0.00000000000E+00  0.64444674659E+03  0.64444674661E+03  0.50400001928E-02 0.  1.
       -1   -1    0    0    0  501  0.00000000000E+00  0.00000000000E+00 -0.22386653412E+04  0.22386653412E+04  0.50400001928E-02 0. -1.
    10030    2    1    2    0    0  0.00000000000E+00  0.00000000000E+00 -0.15942185946E+04  0.28831120878E+04  0.24022494424E+04 0.  0.
        3    1    3    3  502    0 -0.90059031005E+03  0.99197531368E+02 -0.17434944572E+04  0.19648602976E+04  0.10100000352E+00 0. -1.
       -3    1    3    3    0  502  0.90059031005E+03 -0.99197531368E+02  0.14927586259E+03  0.91825179016E+03  0.10100000352E+00 0.  1.
</event>
<event>
 5   0  0.1168435E-05  0.2401273E+04  0.7818609E-02  0.8439027E-01
       -2   -1    0    0    0  501  0.00000000000E+00  0.00000000000E+00  0.95897564071E+03  0.95897564071E+03  0.25500000920E-02 0.  1.
        2   -1    0    0  501    0  0.00000000000E+00  0.00000000000E+00 -0.15031959515E+04  0.15031959515E+04  0.25500000920E-02 0. -1.
    10030    2    1    2    0    0  0.00000000000E+00  0.00000000000E+00 -0.54422031076E+03  0.24621715922E+04  0.24012732462E+04 0.  0.
        1    1    3    3  502    0 -0.17672622917E+03  0.42328184210E+03  0.86559165262E+03  0.97961655103E+03  0.50400001928E-02 0.  1.
       -1    1    3    3    0  502  0.17672622917E+03 -0.42328184210E+03 -0.14098119634E+04  0.14825550412E+04  0.50400001928E-02 0. -1.
</event>
<event>
 5   0  0.1198313E-05  0.2394640E+04  0.7818609E-02  0.8441513E-01
        2   -1    0    0  501    0  0.00000000000E+00  0.00000000000E+00  0.98921773859E+03  0.98921773859E+03  0.25500000920E-02 0. -1.
       -2   -1    0    0    0  501  0.00000000000E+00  0.00000000000E+00 -0.14492014420E+04  0.14492014420E+04  0.25500000920E-02 0.  1.
    10030    2    1    2    0    0  0.00000000000E+00  0.00000000000E+00 -0.45998370346E+03  0.24384191806E+04  0.23946404935E+04 0.  0.
        5    1    3    3  502    0  0.58197853529E+02 -0.70060577523E+03  0.75691104046E+03  0.10330401036E+04  0.46999998093E+01 0. -1.
       -5    1    3    3    0  502 -0.58197853529E+02  0.70060577523E+03 -0.12168947439E+04  0.14053790771E+04  0.46999998093E+01 0.  1.
</event>
<event>
 5   0  0.1169371E-05  0.2420115E+04  0.7818609E-02  0.8432011E-01
        2   -1    0    0  501    0  0.00000000000E+00  0.00000000000E+00  0.86101734823E+03  0.86101734824E+03  0.25500000920E-02 0. -1.
       -2   -1    0    0    0  501  0.00000000000E+00  0.00000000000E+00 -0.17005914415E+04  0.17005914415E+04  0.25500000920E-02 0.  1.
    10030    2    1    2    0    0  0.00000000000E+00  0.00000000000E+00 -0.83957409324E+03  0.25616087897E+04  0.24201146530E+04 0.  0.
        2    1    3    3  502    0 -0.52303450188E+03  0.93175561963E+03 -0.10208848802E+04  0.14778158084E+04  0.25500000920E-02 0.  1.
       -2    1    3    3    0  502  0.52303450188E+03 -0.93175561963E+03  0.18131078699E+03  0.10837929813E+04  0.25500000920E-02 0. -1.
</event>
<event>
 5   0  0.5196696E-06  0.2401885E+04  0.7818609E-02  0.8438798E-01
        1   -1    0    0  501    0  0.00000000000E+00  0.00000000000E+00  0.95257107413E+03  0.95257107415E+03  0.50400001928E-02 0.  1.
       -1   -1    0    0    0  501  0.00000000000E+00  0.00000000000E+00 -0.15140733216E+04  0.15140733216E+04  0.50400001928E-02 0. -1.
    10030    2    1    2    0    0  0.00000000000E+00  0.00000000000E+00 -0.56150224747E+03  0.24666443958E+04  0.24018846353E+04 0.  0.
        1    1    3    3  502    0  0.99006111259E+03 -0.28727706663E+03  0.35190529340E+03  0.10893054921E+04  0.50400001928E-02 0. -1.
       -1    1    3    3    0  502 -0.99006111259E+03  0.28727706663E+03 -0.91340754087E+03  0.13773389036E+04  0.50400001928E-02 0.  1.
</event>
<event>
 5   0  0.1169371E-05  0.2399884E+04  0.7818609E-02  0.8439547E-01
       -2   -1    0    0    0  501  0.00000000000E+00  0.00000000000E+00  0.10514131587E+04  0.10514131587E+04  0.25500000920E-02 0.  1.
        2   -1    0    0  501    0  0.00000000000E+00  0.00000000000E+00 -0.13694528512E+04  0.13694528512E+04  0.25500000920E-02 0. -1.
    10030    2    1    2    0    0  0.00000000000E+00  0.00000000000E+00 -0.31803969250E+03  0.24208660099E+04  0.23998839538E+04 0.  0.
        2    1    3    3  502    0 -0.11741682053E+04 -0.55177206575E+02 -0.40226132215E+03  0.12423886951E+04  0.25500000920E-02 0. -1.
       -2    1    3    3    0  502  0.11741682053E+04  0.55177206575E+02  0.84221629650E+02  0.11784773147E+04  0.25500000920E-02 0.  1.
</event>
<event>
 5   0  0.5196696E-06  0.2399348E+04  0.7818609E-02  0.8439748E-01
        1   -1    0    0  501    0  0.00000000000E+00  0.00000000000E+00  0.15088939899E+04  0.15088939899E+04  0.50400001928E-02 0. -1.
       -1   -1    0    0    0  501  0.00000000000E+00  0.00000000000E+00 -0.95382300510E+03  0.95382300512E+03  0.50400001928E-02 0.  1.
    10030    2    1    2    0    0  0.00000000000E+00  0.00000000000E+00  0.55507098484E+03  0.24627169951E+04  0.23993480780E+04 0.  0.
        1    1    3    3  502    0 -0.66035887227E+03  0.94250333668E+03 -0.70282159337E+02  0.11529639898E+04  0.50400001928E-02 0.  1.
       -1    1    3    3    0  502  0.66035887227E+03 -0.94250333668E+03  0.62535314417E+03  0.13097530053E+04  0.50400001928E-02 0. -1.
</event>
<event>
 5   0  0.5042742E-06  0.2361540E+04  0.7818609E-02  0.8454044E-01
        1   -1    0    0  501    0  0.00000000000E+00  0.00000000000E+00  0.19375495764E+04  0.19375495764E+04  0.50400001928E-02 0.  1.
       -1   -1    0    0    0  501  0.00000000000E+00  0.00000000000E+00 -0.71957784833E+03  0.71957784835E+03  0.50400001928E-02 0. -1.
    10030    2    1    2    0    0  0.00000000000E+00  0.00000000000E+00  0.12179717280E+04  0.26571274247E+04  0.23615399681E+04 0.  0.
        5    1    3    3  502    0  0.11250493403E+02 -0.34928635871E+03  0.18780169712E+04  0.19102610733E+04  0.46999998093E+01 0.  1.
       -5    1    3    3    0  502 -0.11250493403E+02  0.34928635871E+03 -0.66004524314E+03  0.74686635147E+03  0.46999998093E+01 0. -1.
</event>
<event>
 5   0  0.1154897E-05  0.2344947E+04  0.7818609E-02  0.8460407E-01
       -2   -1    0    0    0  501  0.00000000000E+00  0.00000000000E+00  0.20964488300E+04  0.20964488300E+04  0.25500000920E-02 0. -1.
        2   -1    0    0  501    0  0.00000000000E+00  0.00000000000E+00 -0.65572490992E+03  0.65572490993E+03  0.25500000920E-02 0.  1.
    10030    2    1    2    0    0  0.00000000000E+00  0.00000000000E+00  0.14407239201E+04  0.27521737400E+04  0.23449466691E+04 0.  0.
        4    1    3    3  502    0  0.80169197561E+03  0.53534141615E+03  0.15036363245E+04  0.17861198910E+04  0.12699999809E+01 0. -1.
       -4    1    3    3    0  502 -0.80169197561E+03 -0.53534141615E+03 -0.62912404417E+02  0.96605384898E+03  0.12699999809E+01 0.  1.
</event>
<event>
 5   0  0.5104174E-06  0.2398697E+04  0.7818609E-02  0.8439991E-01
       -1   -1    0    0    0  501  0.00000000000E+00  0.00000000000E+00  0.63728483304E+03  0.63728483306E+03  0.50400001928E-02 0. -1.
        1   -1    0    0  501    0  0.00000000000E+00  0.00000000000E+00 -0.22571339212E+04  0.22571339212E+04  0.50400001928E-02 0.  1.
    10030    2    1    2    0    0  0.00000000000E+00  0.00000000000E+00 -0.16198490882E+04  0.28944187543E+04  0.23986973249E+04 0.  0.
        3    1    3    3  502    0  0.80403244001E+03 -0.40397169606E+03 -0.17667525078E+04  0.19826940586E+04  0.10100000352E+00 0.  1.
       -3    1    3    3    0  502 -0.80403244001E+03  0.40397169606E+03  0.14690341967E+03  0.91172469569E+03  0.10100000352E+00 0. -1.
</event>
<event>
 5   0  0.4067750E-06  0.2400441E+04  0.7818609E-02  0.8439338E-01
        3   -1    0    0  501    0  0.00000000000E+00  0.00000000000E+00  0.10250612906E+04  0.10250612955E+04  0.10100000352E+00 0.  1.
       -3   -1    0    0    0  501  0.00000000000E+00  0.00000000000E+00 -0.14053104408E+04  0.14053104444E+04  0.10100000352E+00 0. -1.
    10030    2    1    2    0    0  0.00000000000E+00  0.00000000000E+00 -0.38024915024E+03  0.24303717400E+04  0.24004410799E+04 0.  0.
        3    1    3    3  502    0 -0.43926583817E+02 -0.78183710055E+03 -0.11110430459E+04  0.13592701926E+04  0.10100000352E+00 0. -1.
       -3    1    3    3    0  502  0.43926583817E+02  0.78183710055E+03  0.73079389565E+03  0.10711015473E+04  0.10100000352E+00 0.  1.
</event>
<event>
 5   0  0.5196696E-06  0.2393546E+04  0.7818609E-02  0.8441924E-01
        1   -1    0    0  501    0  0.00000000000E+00  0.00000000000E+00  0.16167628131E+04  0.16167628131E+04  0.50400001928E-02 0.  1.
       -1   -1    0    0    0  501  0.00000000000E+00  0.00000000000E+00 -0.88588448752E+03  0.88588448753E+03  0.50400001928E-02 0. -1.
    10030    2    1    2    0    0  0.00000000000E+00  0.00000000000E+00  0.73087832555E+03  0.25026473006E+04  0.23935455677E+04 0.  0.
        1    1    3    3  502    0 -0.68415348894E+03  0.91896546159E+03  0.72718862174E+03  0.13569697151E+04  0.50400001928E-02 0. -1.
       -1    1    3    3    0  502  0.68415348894E+03 -0.91896546159E+03  0.36897038086E+01  0.11456775855E+04  0.50400001928E-02 0.  1.
</event>
<event>
 5   0  0.5064437E-06  0.2404248E+04  0.7818609E-02  0.8437915E-01
        1   -1    0    0  501    0  0.00000000000E+00  0.00000000000E+00  0.13306863154E+04  0.13306863154E+04  0.50400001928E-02 0.  1.
       -1   -1    0    0    0  501  0.00000000000E+00  0.00000000000E+00 -0.10859825580E+04  0.10859825580E+04  0.50400001928E-02 0. -1.
    10030    2    1    2    0    0  0.00000000000E+00  0.00000000000E+00  0.24470375743E+03  0.24166688734E+04  0.24042480144E+04 0.  0.
        2    1    3    3  502    0  0.80822843422E+03 -0.10206100770E+03  0.10109168090E+04  0.12983075313E+04  0.25500000920E-02 0.  1.
       -2    1    3    3    0  502 -0.80822843422E+03  0.10206100770E+03 -0.76621305154E+03  0.11183613421E+04  0.25500000920E-02 0. -1.
</event>
<event>
 5   0  0.5034479E-06  0.2415678E+04  0.7818609E-02  0.8433657E-01
        1   -1    0    0  501    0  0.00000000000E+00  0.00000000000E+00  0.60198717363E+03  0.60198717365E+03  0.50400001928E-02 0. -1.
       -1   -1    0    0    0  501  0.00000000000E+00  0.00000000000E+00 -0.24234326781E+04  0.24234326781E+04  0.50400001928E-02 0.  1.
    10030    2    1    2    0    0  0.00000000000E+00  0.00000000000E+00 -0.18214455045E+04  0.30254198518E+04  0.24156782802E+04 0.  0.
        4    1    3    3  502    0 -0.68136526495E+02 -0.48323824425E+03  0.47301300154E+03  0.67963571086E+03  0.12699999809E+01 0. -1.
       -4    1    3    3    0  502  0.68136526495E+02  0.48323824425E+03 -0.22944585060E+04  0.23457841409E+04  0.12699999809E+01 0.  1.
</event>
<event>
 5   0  0.4067750E-06  0.2399114E+04  0.7818609E-02  0.8439835E-01
       -3   -1    0    0    0  501  0.00000000000E+00  0.00000000000E+00  0.86081886811E+03  0.86081887403E+03  0.10100000352E+00 0. -1.
        3   -1    0    0  501    0  0.00000000000E+00  0.00000000000E+00 -0.16715912820E+04  0.16715912850E+04  0.10100000352E+00 0.  1.
    10030    2    1    2    0    0  0.00000000000E+00  0.00000000000E+00 -0.81077241387E+03  0.25324101591E+04  0.23991142754E+04 0.  0.
        2    1    3    3  502    0  0.72367581939E+03 -0.94192397546E+03 -0.22872606398E+03  0.12096458488E+04  0.25500000920E-02 0.  1.
       -2    1    3    3    0  502 -0.72367581939E+03  0.94192397546E+03 -0.58204634990E+03  0.13227643103E+04  0.25500000920E-02 0. -1.
</event>
<event>
 5   0  0.1168435E-05  0.2405619E+04  0.7818609E-02  0.8437403E-01
        2   -1    0    0  501    0  0.00000000000E+00  0.00000000000E+00  0.17389297091E+04  0.17389297091E+04  0.25500000920E-02 0. -1.
       -2   -1    0    0    0  501  0.00000000000E+00  0.00000000000E+00 -0.83197779687E+03  0.83197779687E+03  0.25500000920E-02 0.  1.
    10030    2    1    2    0    0  0.00000000000E+00  0.00000000000E+00  0.90695191224E+03  0.25709075060E+04  0.24056191788E+04 0.  0.
        1    1    3    3  502    0 -0.73490609970E+02  0.78550050983E+03  0.14237903972E+04  0.16277564363E+04  0.50400001928E-02 0. -1.
       -1    1    3    3    0  502  0.73490609970E+02 -0.78550050983E+03 -0.51683848496E+03  0.94315106969E+03  0.50400001928E-02 0.  1.
</event>
<event>
 5   0  0.5064437E-06  0.2389510E+04  0.7818609E-02  0.8443441E-01
       -1   -1    0    0    0  501  0.00000000000E+00  0.00000000000E+00  0.61534367880E+03  0.61534367882E+03  0.50400001928E-02 0.  1.
        1   -1    0    0  501    0  0.00000000000E+00  0.00000000000E+00 -0.23197434274E+04  0.23197434274E+04  0.50400001928E-02 0. -1.
    10030    2    1    2    0    0  0.00000000000E+00  0.00000000000E+00 -0.17043997486E+04  0.29350871062E+04  0.23895099535E+04 0.  0.
        2    1    3    3  502    0 -0.22301675226E+03  0.11248202477E+04 -0.12641592814E+04  0.17067676321E+04  0.25500000920E-02 0.  1.
       -2    1    3    3    0  502  0.22301675226E+03 -0.11248202477E+04 -0.44024046724E+03  0.12283194741E+04  0.25500000920E-02 0. -1.
</event>
<event>
 5   0  0.1174210E-05  0.2383150E+04  0.7818609E-02  0.8445839E-01
        2   -1    0    0  501    0  0.00000000000E+00  0.00000000000E+00  0.84489688394E+03  0.84489688395E+03  0.25500000920E-02 0.  1.
       -2   -1    0    0    0  501  0.00000000000E+00  0.00000000000E+00 -0.16805018251E+04  0.16805018251E+04  0.25500000920E-02 0. -1.
    10030    2    1    2    0    0  0.00000000000E+00  0.00000000000E+00 -0.83560494119E+03  0.25253987091E+04  0.23831498111E+04 0.  0.
        3    1    3    3  502    0 -0.98622181221E+03 -0.55692132472E+03 -0.25494158014E+02  0.11328922222E+04  0.10100000352E+00 0.  1.
       -3    1    3    3    0  502  0.98622181221E+03  0.55692132472E+03 -0.81011078317E+03  0.13925064869E+04  0.10100000352E+00 0. -1.
</event>
<event>
 5   0  0.5034479E-06  0.2391885E+04  0.7818609E-02  0.8442548E-01
       -1   -1    0    0    0  501  0.00000000000E+00  0.00000000000E+00  0.76126876778E+03  0.76126876780E+03  0.50400001928E-02 0. -1.
        1   -1    0    0  501    0  0.00000000000E+00  0.00000000000E+00 -0.18788093729E+04  0.18788093729E+04  0.50400001928E-02 0.  1.
    10030    2    1    2    0    0  0.00000000000E+00  0.00000000000E+00 -0.11175406051E+04  0.26400781407E+04  0.23918853620E+04 0.  0.
        4    1    3    3  502    0  0.27840880918E+03 -0.84560239231E+03 -0.14402092986E+04  0.16931507044E+04  0.12699999809E+01 0.  1.
       -4    1    3    3    0  502 -0.27840880918E+03  0.84560239231E+03  0.32266869356E+03  0.94692743630E+03  0.12699999809E+01 0. -1.
</event>
<event>
 5   0  0.1168435E-05  0.2407232E+04  0.7818609E-02  0.8436801E-01
       -2   -1    0    0    0  501  0.00000000000E+00  0.00000000000E+00  0.12006614315E+04  0.12006614315E+04  0.25500000920E-02 0.  1.
        2   -1    0    0  501    0  0.00000000000E+00  0.00000000000E+00 -0.12065778549E+04  0.12065778549E+04  0.25500000920E-02 0. -1.
    10030    2    1    2    0    0  0.00000000000E+00  0.00000000000E+00 -0.59164233985E+01  0.24072392864E+04  0.24072320158E+04 0.  0.
        1    1    3    3  502    0 -0.90214515324E+03  0.72768588884E+03 -0.32745705643E+03  0.12044171844E+04  0.50400001928E-02 0. -1.
       -1    1    3    3    0  502  0.90214515324E+03 -0.72768588884E+03  0.32154063303E+03  0.12028221020E+04  0.50400001928E-02 0.  1.
</event>
<event>
 5   0  0.5104174E-06  0.2401157E+04  0.7818609E-02  0.8439070E-01
        1   -1    0    0  501    0  0.00000000000E+00  0.00000000000E+00  0.18139255031E+04  0.18139255031E+04  0.50400001928E-02 0. -1.
       -1   -1    0    0    0  501  0.00000000000E+00  0.00000000000E+00 -0.79462407742E+03  0.79462407743E+03  0.50400001928E-02 0.  1.
    10030    2    1    2    0    0  0.00000000000E+00  0.00000000000E+00  0.10193014257E+04  0.26085495806E+04  0.24011571206E+04 0.  0.
        3    1    3    3  502    0  0.46213855346E+03  0.25955631437E+03 -0.66063320352E+03  0.84698155985E+03  0.10100000352E+00 0.  1.
       -3    1    3    3    0  502 -0.46213855346E+03 -0.25955631437E+03  0.16799346292E+04  0.17615680207E+04  0.10100000352E+00 0. -1.
</event>
<event>
 5   0  0.1154897E-05  0.2404427E+04  0.7818609E-02  0.8437848E-01
        2   -1    0    0  501    0  0.00000000000E+00  0.00000000000E+00  0.93046692766E+03  0.93046692766E+03  0.25500000920E-02 0. -1.
       -2   -1    0    0    0  501  0.00000000000E+00  0.00000000000E+00 -0.15533240986E+04  0.15533240986E+04  0.25500000920E-02 0.  1.
    10030    2    1    2    0    0  0.00000000000E+00  0.00000000000E+00 -0.62285717098E+03  0.24837910263E+04  0.24044265027E+04 0.  0.
        4    1    3    3  502    0  0.20078037957E+03  0.10720933609E+04 -0.83370377355E+03  0.13728658092E+04  0.12699999809E+01 0. -1.
       -4    1    3    3    0  502 -0.20078037957E+03 -0.10720933609E+04  0.21084660257E+03  0.11109252171E+04  0.12699999809E+01 0.  1.
</event>
<event>
 5   0  0.1169371E-05  0.2401416E+04  0.7818609E-02  0.8438974E-01
       -2   -1    0    0    0  501  0.00000000000E+00  0.00000000000E+00  0.13500271364E+04  0.13500271364E+04  0.25500000920E-02 0. -1.
        2   -1    0    0  501    0  0.00000000000E+00  0.00000000000E+00 -0.10679040520E+04  0.10679040520E+04  0.25500000920E-02 0.  1.
    10030    2    1    2    0    0  0.00000000000E+00  0.00000000000E+00  0.28212308440E+03  0.24179311883E+04  0.24014157900E+04 0.  0.
        2    1    3    3  502    0 -0.67556427027E+03  0.75257320777E+03 -0.51065022788E+03  0.11329241685E+04  0.25500000920E-02 0.  1.
       -2    1    3    3    0  502  0.67556427027E+03 -0.75257320777E+03  0.79277331228E+03  0.12850070198E+04  0.25500000920E-02 0. -1.
</event>
<event>
 5   0  0.1198313E-05  0.2403633E+04  0.7818609E-02  0.8438145E-01
        2   -1    0    0  501    0  0.00000000000E+00  0.00000000000E+00  0.14839807996E+04  0.14839807996E+04  0.25500000920E-02 0. -1.
       -2   -1    0    0    0  501  0.00000000000E+00  0.00000000000E+00 -0.97330271432E+03  0.97330271433E+03  0.25500000920E-02 0.  1.
    10030    2    1    2    0    0  0.00000000000E+00  0.00000000000E+00  0.51067808524E+03  0.24572835139E+04  0.24036327009E+04 0.  0.
        5    1    3    3  502    0 -0.61490950662E+03 -0.32186123730E+03  0.12583769150E+04  0.14370953022E+04  0.46999998093E+01 0. -1.
       -5    1    3    3    0  502  0.61490950662E+03  0.32186123730E+03 -0.74769882971E+03  0.10201882117E+04  0.46999998093E+01 0.  1.
</event>
<event>
 5   0  0.1169371E-05  0.2404804E+04  0.7818609E-02  0.8437707E-01
       -2   -1    0    0    0  501  0.00000000000E+00  0.00000000000E+00  0.11495336515E+04  0.11495336515E+04  0.25500000920E-02 0. -1.
        2   -1    0    0  501    0  0.00000000000E+00  0.00000000000E+00 -0.12577015368E+04  0.12577015369E+04  0.25500000920E-02 0.  1.
    10030    2    1    2    0    0  0.00000000000E+00  0.00000000000E+00 -0.10816788533E+03  0.24072351884E+04  0.24048037260E+04 0.  0.
        2    1    3    3  502    0 -0.10001144245E+04 -0.45813892540E+03  0.43184492960E+03  0.11817826282E+04  0.25500000920E-02 0. -1.
       -2    1    3    3    0  502  0.10001144245E+04  0.45813892540E+03 -0.54001281492E+03  0.12254525602E+04  0.25500000920E-02 0.  1.
</event>
<event>
 5   0  0.1174210E-05  0.2386389E+04  0.7818609E-02  0.8444617E-01
       -2   -1    0    0    0  501  0.00000000000E+00  0.00000000000E+00  0.14129154680E+04  0.14129154680E+04  0.25500000920E-02 0.  1.
        2   -1    0    0  501    0  0.00000000000E+00  0.00000000000E+00 -0.10076417721E+04  0.10076417721E+04  0.25500000920E-02 0. -1.
    10030    2    1    2    0    0  0.00000000000E+00  0.00000000000E+00  0.40527369594E+03  0.24205572400E+04  0.23863886070E+04 0.  0.
        3    1    3    3  502    0  0.40283653475E+03  0.51902822089E+03  0.12129125111E+04  0.13794289897E+04  0.10100000352E+00 0.  1.
       -3    1    3    3    0  502 -0.40283653475E+03 -0.51902822089E+03 -0.80763881514E+03  0.10411282504E+04  0.10100000352E+00 0. -1.
</event>
<event>
 5   0  0.1174210E-05  0.2413761E+04  0.7818609E-02  0.8434370E-01
        2   -1    0    0  501    0  0.00000000000E+00  0.00000000000E+00  0.60680358392E+03  0.60680358393E+03  0.25500000920E-02 0.  1.
       -2   -1    0    0    0  501  0.00000000000E+00  0.00000000000E+00 -0.24003820385E+04  0.24003820385E+04  0.25500000920E-02 0. -1.
    10030    2    1    2    0    0  0.00000000000E+00  0.00000000000E+00 -0.17935784546E+04  0.30071856224E+04  0.24137609026E+04 0.  0.
        3    1    3    3  502    0 -0.11310493398E+04 -0.35999776549E+03 -0.62472153206E+03  0.13413232284E+04  0.10100000352E+00 0.  1.
       -3    1    3    3    0  502  0.11310493398E+04  0.35999776549E+03 -0.11688569225E+04  0.16658623940E+04  0.10100000352E+00 0. -1.
</event>
<event>
 5   0  0.1169371E-05  0.2401085E+04  0.7818609E-02  0.8439097E-01
        2   -1    0    0  501    0  0.00000000000E+00  0.00000000000E+00  0.12245059930E+04  0.12245059930E+04  0.25500000920E-02 0.  1.
       -2   -1    0    0    0  501  0.00000000000E+00  0.00000000000E+00 -0.11770483478E+04  0.11770483478E+04  0.25500000920E-02 0. -1.
    10030    2    1    2    0    0  0.00000000000E+00  0.00000000000E+00  0.47457645160E+02  0.24015543408E+04  0.24010853846E+04 0.  0.
        2    1    3    3  502    0  0.77055919388E+03  0.54345582744E+03  0.76697357953E+03  0.12154645940E+04  0.25500000920E-02 0.  1.
       -2    1    3    3    0  502 -0.77055919388E+03 -0.54345582744E+03 -0.71951593438E+03  0.11860897468E+04  0.25500000920E-02 0. -1.
</event>
<event>
 5   0  0.1198313E-05  0.2410792E+04  0.7818609E-02  0.8435474E-01
       -2   -1    0    0    0  501  0.00000000000E+00  0.00000000000E+00  0.20494458418E+04  0.20494458418E+04  0.25500000920E-02 0. -1.
        2   -1    0    0  501    0  0.00000000000E+00  0.00000000000E+00 -0.70896231998E+03  0.70896231999E+03  0.25500000920E-02 0.  1.
    10030    2    1    2    0    0  0.00000000000E+00  0.00000000000E+00  0.13404835218E+04  0.27584081618E+04  0.24107923002E+04 0.  0.
        5    1    3    3  502    0 -0.99890650930E+03 -0.80391278465E+02  0.14366629169E+04  0.17516561874E+04  0.46999998093E+01 0. -1.
       -5    1    3    3    0  502  0.99890650930E+03  0.80391278465E+02 -0.96179395070E+02  0.10067519744E+04  0.46999998093E+01 0.  1.
</event>
<event>
 5   0  0.1174210E-05  0.2399565E+04  0.7818609E-02  0.8439666E-01
        2   -1    0    0  501    0  0.00000000000E+00  0.00000000000E+00  0.18176789584E+04  0.18176789584E+04  0.25500000920E-02 0.  1.
       -2   -1    0    0    0  501  0.00000000000E+00  0.00000000000E+00 -0.79193204367E+03  0.79193204368E+03  0.25500000920E-02 0. -1.
    10030    2    1    2    0    0  0.00000000000E+00  0.00000000000E+00  0.10257469147E+04  0.26096110021E+04  0.23995651375E+04 0.  0.
        3    1    3    3  502    0 -0.15119198403E+03 -0.44665868493E+03 -0.68692714352E+03  0.83320580145E+03  0.10100000352E+00 0. -1.
       -3    1    3    3    0  502  0.15119198403E+03  0.44665868493E+03  0.17126740583E+04  0.17764052007E+04  0.10100000352E+00 0.  1.
</event>
<event>
 5   0  0.5034479E-06  0.2273434E+04  0.7818609E-02  0.8488470E-01
        1   -1    0    0  501    0  0.00000000000E+00  0.00000000000E+00  0.81932618273E+03  0.81932618274E+03  0.50400001928E-02 0.  1.
       -1   -1    0    0    0  501  0.00000000000E+00  0.00000000000E+00 -0.15770590588E+04  0.15770590588E+04  0.50400001928E-02 0. -1.
    10030    2    1    2    0    0  0.00000000000E+00  0.00000000000E+00 -0.75773287608E+03  0.23963852416E+04  0.22734342116E+04 0.  0.
        4    1    3    3  502    0 -0.10597605961E+04 -0.40493401724E+03 -0.45384777938E+03  0.12219015915E+04  0.12699999809E+01 0. -1.
       -4    1    3    3    0  502  0.10597605961E+04  0.40493401724E+03 -0.30388509670E+03  0.11744836501E+04  0.12699999809E+01 0.  1.
</event>
<event>
 5   0  0.1168435E-05  0.2414913E+04  0.7818609E-02  0.8433941E-01
        2   -1    0    0  501    0  0.00000000000E+00  0.00000000000E+00  0.14572020341E+04  0.14572020341E+04  0.25500000920E-02 0.  1.
       -2   -1    0    0    0  501  0.00000000000E+00  0.00000000000E+00 -0.10005141891E+04  0.10005141891E+04  0.25500000920E-02 0. -1.
    10030    2    1    2    0    0  0.00000000000E+00  0.00000000000E+00  0.45668784498E+03  0.24577162232E+04  0.24149130929E+04 0.  0.
        1    1    3    3  502    0  0.76792120756E+03 -0.55754939194E+03  0.98816029968E+03  0.13700456501E+04  0.50400001928E-02 0.  1.
       -1    1    3    3    0  502 -0.76792120756E+03  0.55754939194E+03 -0.53147245471E+03  0.10876705731E+04  0.50400001928E-02 0. -1.
</event>
<event>
 5   0  0.1169371E-05  0.2405901E+04  0.7818609E-02  0.8437298E-01
        2   -1    0    0  501    0  0.00000000000E+00  0.00000000000E+00  0.11511214589E+04  0.11511214589E+04  0.25500000920E-02 0. -1.
       -2   -1    0    0    0  501  0.00000000000E+00  0.00000000000E+00 -0.12571130864E+04  0.12571130864E+04  0.25500000920E-02 0.  1.
    10030    2    1    2    0    0  0.00000000000E+00  0.00000000000E+00 -0.10599162748E+03  0.24082345453E+04  0.24059009539E+04 0.  0.
        2    1    3    3  502    0  0.10442267052E+04 -0.55605830761E+03 -0.27110529679E+03  0.12137167442E+04  0.25500000920E-02 0.  1.
       -2    1    3    3    0  502 -0.10442267052E+04  0.55605830761E+03  0.16511366931E+03  0.11945178011E+04  0.25500000920E-02 0. -1.
</event>
<event>
 5   0  0.5064437E-06  0.2382076E+04  0.7818609E-02  0.8446245E-01
        1   -1    0    0  501    0  0.00000000000E+00  0.00000000000E+00  0.19200159316E+04  0.19200159316E+04  0.50400001928E-02 0.  1.
       -1   -1    0    0    0  501  0.00000000000E+00  0.00000000000E+00 -0.73883323521E+03  0.73883323522E+03  0.50400001928E-02 0. -1.
    10030    2    1    2    0    0  0.00000000000E+00  0.00000000000E+00  0.11811826964E+04  0.26588491668E+04  0.23820760546E+04 0.  0.
        2    1    3    3  502    0  0.10198959377E+04  0.61150358286E+03  0.66502729434E+03  0.13624924433E+04  0.25500000920E-02 0. -1.
       -2    1    3    3    0  502 -0.10198959377E+04 -0.61150358286E+03  0.51615540205E+03  0.12963567236E+04  0.25500000920E-02 0.  1.
</event>
<event>
 5   0  0.1198313E-05  0.2452002E+04  0.7818609E-02  0.8420287E-01
       -2   -1    0    0    0  501  0.00000000000E+00  0.00000000000E+00  0.60603753496E+03  0.60603753497E+03  0.25500000920E-02 0.  1.
        2   -1    0    0  501    0  0.00000000000E+00  0.00000000000E+00 -0.24801742770E+04  0.24801742770E+04  0.25500000920E-02 0. -1.
    10030    2    1    2    0    0  0.00000000000E+00  0.00000000000E+00 -0.18741367421E+04  0.30862118120E+04  0.24520022065E+04 0.  0.
        5    1    3    3  502    0 -0.65543193110E+03 -0.59119543344E+03 -0.20079962537E+04  0.21934388757E+04  0.46999998093E+01 0. -1.
       -5    1    3    3    0  502  0.65543193110E+03  0.59119543344E+03  0.13385951162E+03  0.89277293624E+03  0.46999998093E+01 0.  1.
</event>
<event>
 5   0  0.5104174E-06  0.2425363E+04  0.7818609E-02  0.8430069E-01
        1   -1    0    0  501    0  0.00000000000E+00  0.00000000000E+00  0.11867545075E+04  0.11867545075E+04  0.50400001928E-02 0. -1.
       -1   -1    0    0    0  501  0.00000000000E+00  0.00000000000E+00 -0.12391746561E+04  0.12391746561E+04  0.50400001928E-02 0.  1.
    10030    2    1    2    0    0  0.00000000000E+00  0.00000000000E+00 -0.52420148526E+02  0.24259291636E+04  0.24253627429E+04 0.  0.
        3    1    3    3  502    0  0.35326494943E+03 -0.10780486177E+04  0.40238871622E+03  0.12037033006E+04  0.10100000352E+00 0. -1.
       -3    1    3    3    0  502 -0.35326494943E+03  0.10780486177E+04 -0.45480886475E+03  0.12222258630E+04  0.10100000352E+00 0.  1.
</event>
<event>
 5   0  0.5104174E-06  0.2398383E+04  0.7818609E-02  0.8440109E-01
        1   -1    0    0  501    0  0.00000000000E+00  0.00000000000E+00  0.13803731171E+04  0.13803731171E+04  0.50400001928E-02 0. -1.
       -1   -1    0    0    0  501  0.00000000000E+00  0.00000000000E+00 -0.10417905763E+04  0.10417905763E+04  0.50400001928E-02 0.  1.
    10030    2    1    2    0    0  0.00000000000E+00  0.00000000000E+00  0.33858254081E+03  0.24221636934E+04  0.23983825426E+04 0.  0.
        3    1    3    3  502    0  0.43752000509E+03  0.82110312523E+03 -0.59479880518E+03  0.11042733928E+04  0.10100000352E+00 0.  1.
       -3    1    3    3    0  502 -0.43752000509E+03 -0.82110312523E+03  0.93338134599E+03  0.13178903006E+04  0.10100000352E+00 0. -1.
</event>
<event>
 5   0  0.5034479E-06  0.2403322E+04  0.7818609E-02  0.8438261E-01
        1   -1    0    0  501    0  0.00000000000E+00  0.00000000000E+00  0.15967437971E+04  0.15967437971E+04  0.50400001928E-02 0. -1.
       -1   -1    0    0    0  501  0.00000000000E+00  0.00000000000E+00 -0.90433366998E+03  0.90433366999E+03  0.50400001928E-02 0.  1.
    10030    2    1    2    0    0  0.00000000000E+00  0.00000000000E+00  0.69241012709E+03  0.25010774671E+04  0.24033220159E+04 0.  0.
        4    1    3    3  502    0  0.40779045101E+03  0.97893427268E+03  0.93433127418E+03  0.14133583781E+04  0.12699999809E+01 0. -1.
       -4    1    3    3    0  502 -0.40779045101E+03 -0.97893427268E+03 -0.24192114710E+03  0.10877190890E+04  0.12699999809E+01 0.  1.
</event>
<event>
 5   0  0.1154897E-05  0.2362600E+04  0.7818609E-02  0.8453640E-01
        2   -1    0    0  501    0  0.00000000000E+00  0.00000000000E+00  0.96052100407E+03  0.96052100408E+03  0.25500000920E-02 0.  1.
       -2   -1    0    0    0  501  0.00000000000E+00  0.00000000000E+00 -0.14528260993E+04  0.14528260993E+04  0.25500000920E-02 0. -1.
    10030    2    1    2    0    0  0.00000000000E+00  0.00000000000E+00 -0.49230509527E+03  0.24133471034E+04  0.23626002486E+04 0.  0.
        4    1    3    3  502    0  0.61645608376E+02  0.70349447305E+02 -0.14490366908E+04  0.14520530878E+04  0.12699999809E+01 0. -1.
       -4    1    3    3    0  502 -0.61645608376E+02 -0.70349447305E+02  0.95673159548E+03  0.96129401561E+03  0.12699999809E+01 0.  1.
</event>
<event>
 5   0  0.1169371E-05  0.2403038E+04  0.7818609E-02  0.8438367E-01
       -2   -1    0    0    0  501  0.00000000000E+00  0.00000000000E+00  0.97713121560E+03  0.97713121560E+03  0.25500000920E-02 0.  1.
        2   -1    0    0  501    0  0.00000000000E+00  0.00000000000E+00 -0.14774355589E+04  0.14774355589E+04  0.25500000920E-02 0. -1.
    10030    2    1    2    0    0  0.00000000000E+00  0.00000000000E+00 -0.50030434334E+03  0.24545667745E+04  0.24030384131E+04 0.  0.
        2    1    3    3  502    0 -0.11828682912E+04  0.20452833234E+03 -0.30262661979E+03  0.12379790402E+04  0.25500000920E-02 0. -1.
       -2    1    3    3    0  502  0.11828682912E+04 -0.20452833234E+03 -0.19767772354E+03  0.12165877343E+04  0.25500000920E-02 0.  1.
</event>
<event>
 5   0  0.1154897E-05  0.2399914E+04  0.7818609E-02  0.8439536E-01
        2   -1    0    0  501    0  0.00000000000E+00  0.00000000000E+00  0.11129943493E+04  0.11129943493E+04  0.25500000920E-02 0.  1.
       -2   -1    0    0    0  501  0.00000000000E+00  0.00000000000E+00 -0.12937142464E+04  0.12937142464E+04  0.25500000920E-02 0. -1.
    10030    2    1    2    0    0  0.00000000000E+00  0.00000000000E+00 -0.18071989708E+03  0.24067085957E+04  0.23999138700E+04 0.  0.
        4    1    3    3  502    0  0.96050483452E+03 -0.51792980886E+03  0.41012639676E+03  0.11657727473E+04  0.12699999809E+01 0.  1.
       -4    1    3    3    0  502 -0.96050483452E+03  0.51792980886E+03 -0.59084629384E+03  0.12409358484E+04  0.12699999809E+01 0. -1.
</event>
<event>
 5   0  0.1168435E-05  0.2405253E+04  0.7818609E-02  0.8437540E-01
        2   -1    0    0  501    0  0.00000000000E+00  0.00000000000E+00  0.11674579763E+04  0.11674579763E+04  0.25500000920E-02 0. -1.
       -2   -1    0    0    0  501  0.00000000000E+00  0.00000000000E+00 -0.12388540235E+04  0.12388540235E+04  0.25500000920E-02 0.  1.
    10030    2    1    2    0    0  0.00000000000E+00  0.00000000000E+00 -0.71396047183E+02  0.24063119998E+04  0.24052525948E+04 0.  0.
        1    1    3    3  502    0 -0.12110806422E+03  0.10861057946E+04  0.46653608908E+03  0.11882545530E+04  0.50400001928E-02 0. -1.
       -1    1    3    3    0  502  0.12110806422E+03 -0.10861057946E+04 -0.53793213626E+03  0.12180574467E+04  0.50400001928E-02 0.  1.
</event>
<event>
 5   0  0.1174210E-05  0.2394264E+04  0.7818609E-02  0.8441654E-01
       -2   -1    0    0    0  501  0.00000000000E+00  0.00000000000E+00  0.25335331410E+04  0.25335331410E+04  0.25500000920E-02 0.  1.
        2   -1    0    0  501    0  0.00000000000E+00  0.00000000000E+00 -0.56566266781E+03  0.56566266782E+03  0.25500000920E-02 0. -1.
    10030    2    1    2    0    0  0.00000000000E+00  0.00000000000E+00  0.19678704732E+04  0.30991958088E+04  0.23942640753E+04 0.  0.
        3    1    3    3  502    0 -0.82188567826E+02 -0.15904431482E+03 -0.54823727545E+03  0.57672712365E+03  0.10100000352E+00 0. -1.
       -3    1    3    3    0  502  0.82188567826E+02  0.15904431482E+03  0.25161077486E+04  0.25224686852E+04  0.10100000352E+00 0.  1.
</event>
<event>
 5   0  0.5196696E-06  0.2401124E+04  0.7818609E-02  0.8439083E-01
       -1   -1    0    0    0  501  0.00000000000E+00  0.00000000000E+00  0.14951872241E+04  0.14951872241E+04  0.50400001928E-02 0. -1.
        1   -1    0    0  501    0  0.00000000000E+00  0.00000000000E+00 -0.96399208624E+03  0.96399208626E+03  0.50400001928E-02 0.  1.
    10030    2    1    2    0    0  0.00000000000E+00  0.00000000000E+00  0.53119513782E+03  0.24591793103E+04  0.24011236132E+04 0.  0.
        1    1    3    3  502    0 -0.78674999359E+03  0.75956091386E+03 -0.24180028894E+03  0.11199891580E+04  0.50400001928E-02 0.  1.
       -1    1    3    3    0  502  0.78674999359E+03 -0.75956091386E+03  0.77299542676E+03  0.13391901523E+04  0.50400001928E-02 0. -1.
</event>
<event>
 5   0  0.1169371E-05  0.2384604E+04  0.7818609E-02  0.8445290E-01
        2   -1    0    0  501    0  0.00000000000E+00  0.00000000000E+00  0.16951119996E+04  0.16951119996E+04  0.25500000920E-02 0. -1.
       -2   -1    0    0    0  501  0.00000000000E+00  0.00000000000E+00 -0.83863717177E+03  0.83863717177E+03  0.25500000920E-02 0.  1.
    10030    2    1    2    0    0  0.00000000000E+00  0.00000000000E+00  0.85647482787E+03  0.25337491714E+04  0.23846038943E+04 0.  0.
        2    1    3    3  502    0 -0.78007863295E+03  0.42137584430E+03  0.12752822477E+04  0.15531983412E+04  0.25500000920E-02 0. -1.
       -2    1    3    3    0  502  0.78007863295E+03 -0.42137584430E+03 -0.41880741984E+03  0.98055083023E+03  0.25500000920E-02 0.  1.
</event>
<event>
 5   0  0.5064437E-06  0.2398070E+04  0.7818609E-02  0.8440226E-01
        1   -1    0    0  501    0  0.00000000000E+00  0.00000000000E+00  0.11911521033E+04  0.11911521033E+04  0.50400001928E-02 0.  1.
       -1   -1    0    0    0  501  0.00000000000E+00  0.00000000000E+00 -0.12069703828E+04  0.12069703828E+04  0.50400001928E-02 0. -1.
    10030    2    1    2    0    0  0.00000000000E+00  0.00000000000E+00 -0.15818279490E+02  0.23981224861E+04  0.23980703160E+04 0.  0.
        2    1    3    3  502    0 -0.70518478860E+03 -0.86479325907E+03  0.43088548224E+03  0.11961669055E+04  0.25500000920E-02 0.  1.
       -2    1    3    3    0  502  0.70518478860E+03  0.86479325907E+03 -0.44670376173E+03  0.12019555806E+04  0.25500000920E-02 0. -1.
</event>
<event>
 5   0  0.1169371E-05  0.2409011E+04  0.7818609E-02  0.8436138E-01
        2   -1    0    0  501    0  0.00000000000E+00  0.00000000000E+00  0.21211539668E+04  0.21211539668E+04  0.25500000920E-02 0.  1.
       -2   -1    0    0    0  501  0.00000000000E+00  0.00000000000E+00 -0.68398324082E+03  0.68398324083E+03  0.25500000920E-02 0. -1.
    10030    2    1    2    0    0  0.00000000000E+00  0.00000000000E+00  0.14371707260E+04  0.28051372076E+04  0.24090112200E+04 0.  0.
        2    1    3    3  502    0  0.79830233152E+03 -0.79847821601E+03  0.12070651087E+04  0.16528340057E+04  0.25500000920E-02 0. -1.
       -2    1    3    3    0  502 -0.79830233152E+03  0.79847821601E+03  0.23010561731E+03  0.11523032019E+04  0.25500000920E-02 0.  1.
</event>
<event>
 5   0  0.1154897E-05  0.2400947E+04  0.7818609E-02  0.8439149E-01
       -2   -1    0    0    0  501  0.00000000000E+00  0.00000000000E+00  0.68137743533E+03  0.68137743533E+03  0.25500000920E-02 0.  1.
        2   -1    0    0  501    0  0.00000000000E+00  0.00000000000E+00 -0.21150351089E+04  0.21150351089E+04  0.25500000920E-02 0. -1.
    10030    2    1    2    0    0  0.00000000000E+00  0.00000000000E+00 -0.14336576736E+04  0.27964125442E+04  0.24009474781E+04 0.  0.
        4    1    3    3  502    0 -0.61103944228E+03  0.94864844500E+03 -0.23967696635E+03  0.11535812643E+04  0.12699999809E+01 0. -1.
       -4    1    3    3    0  502  0.61103944228E+03 -0.94864844500E+03 -0.11939807072E+04  0.16428312799E+04  0.12699999809E+01 0.  1.
</event>
<event>
 5   0  0.5196696E-06  0.2382022E+04  0.7818609E-02  0.8446265E-01
       -1   -1    0    0    0  501  0.00000000000E+00  0.00000000000E+00  0.12489334875E+04  0.12489334875E+04  0.50400001928E-02 0. -1.
        1   -1    0    0  501    0  0.00000000000E+00  0.00000000000E+00 -0.11357749384E+04  0.11357749384E+04  0.50400001928E-02 0.  1.
    10030    2    1    2    0    0  0.00000000000E+00  0.00000000000E+00  0.11315854913E+03  0.23847084259E+04  0.23820221283E+04 0.  0.
        1    1    3    3  502    0  0.61840916661E+03 -0.87735039284E+03  0.57323660197E+03  0.12168704989E+04  0.50400001928E-02 0.  1.
       -1    1    3    3    0  502 -0.61840916661E+03  0.87735039284E+03 -0.46007805284E+03  0.11678379271E+04  0.50400001928E-02 0. -1.
</event>
<event>
 5   0  0.5104174E-06  0.2395282E+04  0.7818609E-02  0.8441272E-01
        1   -1    0    0  501    0  0.00000000000E+00  0.00000000000E+00  0.64610767538E+03  0.64610767540E+03  0.50400001928E-02 0.  1.
       -1   -1    0    0    0  501  0.00000000000E+00  0.00000000000E+00 -0.22199761038E+04  0.22199761039E+04  0.50400001928E-02 0. -1.
    10030    2    1    2    0    0  0.00000000000E+00  0.00000000000E+00 -0.15738684285E+04  0.28660837793E+04  0.23952816952E+04 0.  0.
        3    1    3    3  502    0  0.65242200187E+03 -0.76087492963E+03 -0.25217168474E+01  0.10022931190E+04  0.10100000352E+00 0.  1.
       -3    1    3    3    0  502 -0.65242200187E+03  0.76087492963E+03 -0.15713467116E+04  0.18637906603E+04  0.10100000352E+00 0. -1.
</event>
<event>
 5   0  0.1174210E-05  0.2396338E+04  0.7818609E-02  0.8440876E-01
        2   -1    0    0  501    0  0.00000000000E+00  0.00000000000E+00  0.17193154374E+04  0.17193154374E+04  0.25500000920E-02 0. -1.
       -2   -1    0    0    0  501  0.00000000000E+00  0.00000000000E+00 -0.83498865724E+03  0.83498865724E+03  0.25500000920E-02 0.  1.
    10030    2    1    2    0    0  0.00000000000E+00  0.00000000000E+00  0.88432678017E+03  0.25543040947E+04  0.23963379465E+04 0.  0.
        3    1    3    3  502    0 -0.56255788179E+03  0.29823073024E+03 -0.63972996028E+03  0.90258925935E+03  0.10100000352E+00 0.  1.
       -3    1    3    3    0  502  0.56255788179E+03 -0.29823073024E+03  0.15240567404E+04  0.16517148353E+04  0.10100000352E+00 0. -1.
</event>
<event>
 5   0  0.5042742E-06  0.2401552E+04  0.7818609E-02  0.8438923E-01
        1   -1    0    0  501    0  0.00000000000E+00  0.00000000000E+00  0.13764083596E+04  0.13764083596E+04  0.50400001928E-02 0. -1.
       -1   -1    0    0    0  501  0.00000000000E+00  0.00000000000E+00 -0.10475545072E+04  0.10475545072E+04  0.50400001928E-02 0.  1.
    10030    2    1    2    0    0  0.00000000000E+00  0.00000000000E+00  0.32885385249E+03  0.24239628668E+04  0.24015518157E+04 0.  0.
        5    1    3    3  502    0 -0.59848480974E+00 -0.63802273996E+03 -0.86230094749E+03  0.10726874610E+04  0.46999998093E+01 0.  1.
       -5    1    3    3    0  502  0.59848480974E+00  0.63802273996E+03  0.11911548000E+04  0.13512754058E+04  0.46999998093E+01 0. -1.
</event>
<event>
 5   0  0.5034479E-06  0.2398718E+04  0.7818609E-02  0.8439984E-01
       -1   -1    0    0    0  501  0.00000000000E+00  0.00000000000E+00  0.73369330565E+03  0.73369330567E+03  0.50400001928E-02 0.  1.
        1   -1    0    0  501    0  0.00000000000E+00  0.00000000000E+00 -0.19605765990E+04  0.19605765990E+04  0.50400001928E-02 0. -1.
    10030    2    1    2    0    0  0.00000000000E+00  0.00000000000E+00 -0.12268832933E+04  0.26942699046E+04  0.23987179292E+04 0.  0.
        4    1    3    3  502    0 -0.89604402167E+03 -0.76472130622E+02  0.27788066609E+03  0.94125562576E+03  0.12699999809E+01 0.  1.
       -4    1    3    3    0  502  0.89604402167E+03  0.76472130622E+02 -0.15047639594E+04  0.17530142789E+04  0.12699999809E+01 0. -1.
</event>
<event>
 5   0  0.1154897E-05  0.2334596E+04  0.7818609E-02  0.8464404E-01
        2   -1    0    0  501    0  0.00000000000E+00  0.00000000000E+00  0.17910210840E+04  0.17910210840E+04  0.25500000920E-02 0.  1.
       -2   -1    0    0    0  501  0.00000000000E+00  0.00000000000E+00 -0.76078659833E+03  0.76078659833E+03  0.25500000920E-02 0. -1.
    10030    2    1    2    0    0  0.00000000000E+00  0.00000000000E+00  0.10302344857E+04  0.25518076823E+04  0.23345961861E+04 0.  0.
        4    1    3    3  502    0 -0.31664836467E+03  0.10903682242E+04  0.81127705576E+03  0.13954716498E+04  0.12699999809E+01 0.  1.
       -4    1    3    3    0  502  0.31664836467E+03 -0.10903682242E+04  0.21895742989E+03  0.11563360326E+04  0.12699999809E+01 0. -1.
</event>
<event>
 5   0  0.1168435E-05  0.2393555E+04  0.7818609E-02  0.8441920E-01
        2   -1    0    0  501    0  0.00000000000E+00  0.00000000000E+00  0.19486678220E+04  0.19486678220E+04  0.25500000920E-02 0. -1.
       -2   -1    0    0    0  501  0.00000000000E+00  0.00000000000E+00 -0.73500269214E+03  0.73500269214E+03  0.25500000920E-02 0.  1.
    10030    2    1    2    0    0  0.00000000000E+00  0.00000000000E+00  0.12136651298E+04  0.26836705141E+04  0.23935547583E+04 0.  0.
        1    1    3    3  502    0 -0.58297299440E+03  0.65251675708E+03  0.15222763126E+04  0.17558362117E+04  0.50400001928E-02 0. -1.
       -1    1    3    3    0  502  0.58297299440E+03 -0.65251675708E+03 -0.30861118279E+03  0.92783430236E+03  0.50400001928E-02 0.  1.
</event>
<event>
 5   0  0.5064437E-06  0.2398600E+04  0.7818609E-02  0.8440028E-01
       -1   -1    0    0    0  501  0.00000000000E+00  0.00000000000E+00  0.13839515836E+04  0.13839515836E+04  0.50400001928E-02 0.  1.
        1   -1    0    0  501    0  0.00000000000E+00  0.00000000000E+00 -0.10392854635E+04  0.10392854635E+04  0.50400001928E-02 0. -1.
    10030    2    1    2    0    0  0.00000000000E+00  0.00000000000E+00  0.34466612011E+03  0.24232370471E+04  0.23986002276E+04 0.  0.
        2    1    3    3  502    0  0.72031534310E+02  0.11279157193E+04  0.57762484733E+03  0.12692646989E+04  0.25500000920E-02 0. -1.
       -2    1    3    3    0  502 -0.72031534310E+02 -0.11279157193E+04 -0.23295872722E+03  0.11539723481E+04  0.25500000920E-02 0.  1.
</event>
<event>
 5   0  0.1169371E-05  0.2413402E+04  0.7818609E-02  0.8434503E-01
        2   -1    0    0  501    0  0.00000000000E+00  0.00000000000E+00  0.23373212560E+04  0.23373212560E+04  0.25500000920E-02 0. -1.
       -2   -1    0    0    0  501  0.00000000000E+00  0.00000000000E+00 -0.62298979738E+03  0.62298979738E+03  0.25500000920E-02 0.  1.
    10030    2    1    2    0    0  0.00000000000E+00  0.00000000000E+00  0.17143314586E+04  0.29603110534E+04  0.24134019936E+04 0.  0.
        2    1    3    3  502    0 -0.92749178138E+03  0.46538991923E+03  0.10172873217E+03  0.10426780502E+04  0.25500000920E-02 0.  1.
       -2    1    3    3    0  502  0.92749178138E+03 -0.46538991923E+03  0.16126027265E+04  0.19176330032E+04  0.25500000920E-02 0. -1.
</event>
<event>
 5   0  0.1168435E-05  0.2406647E+04  0.7818609E-02  0.8437019E-01
        2   -1    0    0  501    0  0.00000000000E+00  0.00000000000E+00  0.20732340415E+04  0.20732340415E+04  0.25500000920E-02 0. -1.
       -2   -1    0    0    0  501  0.00000000000E+00  0.00000000000E+00 -0.69841994663E+03  0.69841994663E+03  0.25500000920E-02 0.  1.
    10030    2    1    2    0    0  0.00000000000E+00  0.00000000000E+00  0.13748140949E+04  0.27716539881E+04  0.24066474678E+04 0.  0.
        1    1    3    3  502    0 -0.57480696404E+03 -0.75299992977E+03 -0.16713846731E+03  0.96194969069E+03  0.50400001928E-02 0.  1.
       -1    1    3    3    0  502  0.57480696404E+03  0.75299992977E+03  0.15419525622E+04  0.18097042974E+04  0.50400001928E-02 0. -1.
</event>
<event>
 5   0  0.1174210E-05  0.2400065E+04  0.7818609E-02  0.8439479E-01
        2   -1    0    0  501    0  0.00000000000E+00  0.00000000000E+00  0.10566647800E+04  0.10566647800E+04  0.25500000920E-02 0. -1.
       -2   -1    0    0    0  501  0.00000000000E+00  0.00000000000E+00 -0.13628524577E+04  0.13628524577E+04  0.25500000920E-02 0.  1.
    10030    2    1    2    0    0  0.00000000000E+00  0.00000000000E+00 -0.30618767770E+03  0.24195172377E+04  0.24000651594E+04 0.  0.
        3    1    3    3  502    0 -0.62128831537E+03 -0.88538343119E+03 -0.67709038175E+03  0.12760698987E+04  0.10100000352E+00 0.  1.
       -3    1    3    3    0  502  0.62128831537E+03  0.88538343119E+03  0.37090270405E+03  0.11434473390E+04  0.10100000352E+00 0. -1.
</event>
<event>
 5   0  0.1169371E-05  0.2397663E+04  0.7818609E-02  0.8440379E-01
        2   -1    0    0  501    0  0.00000000000E+00  0.00000000000E+00  0.19341339516E+04  0.19341339516E+04  0.25500000920E-02 0. -1.
       -2   -1    0    0    0  501  0.00000000000E+00  0.00000000000E+00 -0.74307016865E+03  0.74307016866E+03  0.25500000920E-02 0.  1.
    10030    2    1    2    0    0  0.00000000000E+00  0.00000000000E+00  0.11910637829E+04  0.26772041202E+04  0.23976632304E+04 0.  0.
        2    1    3    3  502    0  0.50551182882E+03 -0.17469000585E+03  0.17935326107E+04  0.18715816928E+04  0.25500000920E-02 0. -1.
       -2    1    3    3    0  502 -0.50551182882E+03  0.17469000585E+03 -0.60246882774E+03  0.80562242746E+03  0.25500000920E-02 0.  1.
</event>
<event>
 5   0  0.5042742E-06  0.2396440E+04  0.7818609E-02  0.8440838E-01
        1   -1    0    0  501    0  0.00000000000E+00  0.00000000000E+00  0.12413121593E+04  0.12413121593E+04  0.50400001928E-02 0.  1.
       -1   -1    0    0    0  501  0.00000000000E+00  0.00000000000E+00 -0.11566238774E+04  0.11566238774E+04  0.50400001928E-02 0. -1.
    10030    2    1    2    0    0  0.00000000000E+00  0.00000000000E+00  0.84688281892E+02  0.23979360368E+04  0.23964400955E+04 0.  0.
        5    1    3    3  502    0  0.32756921327E+03 -0.10778929234E+02 -0.11108905563E+04  0.11582390483E+04  0.46999998093E+01 0. -1.
       -5    1    3    3    0  502 -0.32756921327E+03  0.10778929234E+02  0.11955788382E+04  0.12396969885E+04  0.46999998093E+01 0.  1.
</event>
<event>
 5   0  0.1154897E-05  0.2404751E+04  0.7818609E-02  0.8437727E-01
       -2   -1    0    0    0  501  0.00000000000E+00  0.00000000000E+00  0.90909432501E+03  0.90909432501E+03  0.25500000920E-02 0.  1.
        2   -1    0    0  501    0  0.00000000000E+00  0.00000000000E+00 -0.15902719008E+04  0.15902719008E+04  0.25500000920E-02 0. -1.
    10030    2    1    2    0    0  0.00000000000E+00  0.00000000000E+00 -0.68117757580E+03  0.24993662258E+04  0.24047512639E+04 0.  0.
        4    1    3    3  502    0 -0.28424489235E+03 -0.86633934832E+02 -0.15515059920E+04  0.15797066353E+04  0.12699999809E+01 0. -1.
       -4    1    3    3    0  502  0.28424489235E+03  0.86633934832E+02  0.87032841620E+03  0.91965959052E+03  0.12699999809E+01 0.  1.
</event>
<event>
 5   0  0.5104174E-06  0.2399314E+04  0.7818609E-02  0.8439760E-01
        1   -1    0    0  501    0  0.00000000000E+00  0.00000000000E+00  0.14001971111E+04  0.14001971111E+04  0.50400001928E-02 0.  1.
       -1   -1    0    0    0  501  0.00000000000E+00  0.00000000000E+00 -0.10278389856E+04  0.10278389856E+04  0.50400001928E-02 0. -1.
    10030    2    1    2    0    0  0.00000000000E+00  0.00000000000E+00  0.37235812547E+03  0.24280360967E+04  0.23993142173E+04 0.  0.
        3    1    3    3  502    0 -0.96030744113E+03 -0.22948020542E+03  0.87575061393E+03  0.13197691822E+04  0.10100000352E+00 0.  1.
       -3    1    3    3    0  502  0.96030744113E+03  0.22948020542E+03 -0.50339248845E+03  0.11082669145E+04  0.10100000352E+00 0. -1.
</event>
<event>
 5   0  0.5104174E-06  0.2395169E+04  0.7818609E-02  0.8441315E-01
       -1   -1    0    0    0  501  0.00000000000E+00  0.00000000000E+00  0.89353524235E+03  0.89353524236E+03  0.50400001928E-02 0. -1.
        1   -1    0    0  501    0  0.00000000000E+00  0.00000000000E+00 -0.16050940637E+04  0.16050940637E+04  0.50400001928E-02 0.  1.
    10030    2    1    2    0    0  0.00000000000E+00  0.00000000000E+00 -0.71155882137E+03  0.24986293061E+04  0.23951685646E+04 0.  0.
        3    1    3    3  502    0 -0.10638537008E+04 -0.39930612594E+03 -0.75023706853E+03  0.13616481734E+04  0.10100000352E+00 0.  1.
       -3    1    3    3    0  502  0.10638537008E+04  0.39930612594E+03  0.38678247158E+02  0.11369811327E+04  0.10100000352E+00 0. -1.
</event>
<event>
 5   0  0.1174210E-05  0.2315101E+04  0.7818609E-02  0.8471991E-01
       -2   -1    0    0    0  501  0.00000000000E+00  0.00000000000E+00  0.92854219454E+03  0.92854219454E+03  0.25500000920E-02 0.  1.
        2   -1    0    0  501    0  0.00000000000E+00  0.00000000000E+00 -0.14430398641E+04  0.14430398641E+04  0.25500000920E-02 0. -1.
    10030    2    1    2    0    0  0.00000000000E+00  0.00000000000E+00 -0.51449766958E+03  0.23715820587E+04  0.23151012092E+04 0.  0.
        3    1    3    3  502    0 -0.34814292316E+03  0.17424734004E+03 -0.13739623644E+04  0.14280539974E+04  0.10100000352E+00 0. -1.
       -3    1    3    3    0  502  0.34814292316E+03 -0.17424734004E+03  0.85946469485E+03  0.94352806125E+03  0.10100000352E+00 0.  1.
</event>
<event>
 5   0  0.4067750E-06  0.2393561E+04  0.7818609E-02  0.8441918E-01
        3   -1    0    0  501    0  0.00000000000E+00  0.00000000000E+00  0.15662337284E+04  0.15662337317E+04  0.10100000352E+00 0. -1.
       -3   -1    0    0    0  501  0.00000000000E+00  0.00000000000E+00 -0.91447622125E+03  0.91447622683E+03  0.10100000352E+00 0.  1.
    10030    2    1    2    0    0  0.00000000000E+00  0.00000000000E+00  0.65175750716E+03  0.24807099585E+04  0.23935609560E+04 0.  0.
        3    1    3    3  502    0 -0.38155151527E+03 -0.11328082268E+04  0.38673167335E+03  0.12563428811E+04  0.10100000352E+00 0. -1.
       -3    1    3    3    0  502  0.38155151527E+03  0.11328082268E+04  0.26502583381E+03  0.12243670774E+04  0.10100000352E+00 0.  1.
</event>
<event>
 5   0  0.5104174E-06  0.2398913E+04  0.7818609E-02  0.8439911E-01
        1   -1    0    0  501    0  0.00000000000E+00  0.00000000000E+00  0.79420886014E+03  0.79420886016E+03  0.50400001928E-02 0. -1.
       -1   -1    0    0    0  501  0.00000000000E+00  0.00000000000E+00 -0.18114829992E+04  0.18114829992E+04  0.50400001928E-02 0.  1.
    10030    2    1    2    0    0  0.00000000000E+00  0.00000000000E+00 -0.10172741390E+04  0.26056918593E+04  0.23989129605E+04 0.  0.
        3    1    3    3  502    0  0.59016692576E+03  0.97003240979E+03 -0.92852764454E+03  0.14667731499E+04  0.10100000352E+00 0.  1.
       -3    1    3    3    0  502 -0.59016692576E+03 -0.97003240979E+03 -0.88746494499E+02  0.11389187095E+04  0.10100000352E+00 0. -1.
</event>
<event>
 5   0  0.5034479E-06  0.2394883E+04  0.7818609E-02  0.8441422E-01
       -1   -1    0    0    0  501  0.00000000000E+00  0.00000000000E+00  0.13100682938E+04  0.13100682939E+04  0.50400001928E-02 0. -1.
        1   -1    0    0  501    0  0.00000000000E+00  0.00000000000E+00 -0.10944972448E+04  0.10944972448E+04  0.50400001928E-02 0.  1.
    10030    2    1    2    0    0  0.00000000000E+00  0.00000000000E+00  0.21557104907E+03  0.24045655386E+04  0.23948829935E+04 0.  0.
        4    1    3    3  502    0 -0.10272061931E+04 -0.32473522828E+03 -0.41706973177E+03  0.11552291139E+04  0.12699999809E+01 0. -1.
       -4    1    3    3    0  502  0.10272061931E+04  0.32473522828E+03  0.63264078084E+03  0.12493364247E+04  0.12699999809E+01 0.  1.
</event>
<event>
 5   0  0.5042742E-06  0.2383412E+04  0.7818609E-02  0.8445740E-01
        1   -1    0    0  501    0  0.00000000000E+00  0.00000000000E+00  0.10221071011E+04  0.10221071011E+04  0.50400001928E-02 0. -1.
       -1   -1    0    0    0  501  0.00000000000E+00  0.00000000000E+00 -0.13894465527E+04  0.13894465527E+04  0.50400001928E-02 0.  1.
    10030    2    1    2    0    0  0.00000000000E+00  0.00000000000E+00 -0.36733945161E+03  0.24115536537E+04  0.23834119980E+04 0.  0.
        5    1    3    3  502    0  0.28343672100E+03  0.11572471433E+04 -0.20811639295E+03  0.12095006608E+04  0.46999998093E+01 0.  1.
       -5    1    3    3    0  502 -0.28343672100E+03 -0.11572471433E+04 -0.15922305865E+03  0.12020529929E+04  0.46999998093E+01 0. -1.
</event>
<event>
 5   0  0.5034479E-06  0.2381060E+04  0.7818609E-02  0.8446629E-01
       -1   -1    0    0    0  501  0.00000000000E+00  0.00000000000E+00  0.11192739923E+04  0.11192739923E+04  0.50400001928E-02 0.  1.
        1   -1    0    0  501    0  0.00000000000E+00  0.00000000000E+00 -0.12663219566E+04  0.12663219566E+04  0.50400001928E-02 0. -1.
    10030    2    1    2    0    0  0.00000000000E+00  0.00000000000E+00 -0.14704796434E+03  0.23855959489E+04  0.23810596229E+04 0.  0.
        4    1    3    3  502    0 -0.24688185477E+03 -0.98401729235E+03 -0.69770281223E+03  0.12312723131E+04  0.12699999809E+01 0. -1.
       -4    1    3    3    0  502  0.24688185477E+03  0.98401729235E+03  0.55065484789E+03  0.11543236358E+04  0.12699999809E+01 0.  1.
</event>
<event>
 5   0  0.1168435E-05  0.2419377E+04  0.7818609E-02  0.8432284E-01
        2   -1    0    0  501    0  0.00000000000E+00  0.00000000000E+00  0.13449274009E+04  0.13449274009E+04  0.25500000920E-02 0.  1.
       -2   -1    0    0    0  501  0.00000000000E+00  0.00000000000E+00 -0.10880488140E+04  0.10880488140E+04  0.25500000920E-02 0. -1.
    10030    2    1    2    0    0  0.00000000000E+00  0.00000000000E+00  0.25687858688E+03  0.24329762150E+04  0.24193773278E+04 0.  0.
        1    1    3    3  502    0  0.66666457536E+03 -0.93883090917E+03 -0.24445696382E+03  0.11771169607E+04  0.50400001928E-02 0. -1.
       -1    1    3    3    0  502 -0.66666457536E+03  0.93883090917E+03  0.50133555070E+03  0.12558592542E+04  0.50400001928E-02 0.  1.
</event>
<event>
 5   0  0.5196696E-06  0.2385365E+04  0.7818609E-02  0.8445003E-01
        1   -1    0    0  501    0  0.00000000000E+00  0.00000000000E+00  0.22757902516E+04  0.22757902516E+04  0.50400001928E-02 0. -1.
       -1   -1    0    0    0  501  0.00000000000E+00  0.00000000000E+00 -0.62505402303E+03  0.62505402305E+03  0.50400001928E-02 0.  1.
    10030    2    1    2    0    0  0.00000000000E+00  0.00000000000E+00  0.16507362286E+04  0.29008442746E+04  0.23853652570E+04 0.  0.
        1    1    3    3  502    0  0.13521498763E+03 -0.31705240657E+03  0.22139008249E+04  0.22405718430E+04  0.50400001928E-02 0. -1.
       -1    1    3    3    0  502 -0.13521498763E+03  0.31705240657E+03 -0.56316459630E+03  0.66027243161E+03  0.50400001928E-02 0.  1.
</event>
<event>
 5   0  0.1174210E-05  0.2424681E+04  0.7818609E-02  0.8430321E-01
       -2   -1    0    0    0  501  0.00000000000E+00  0.00000000000E+00  0.89928957142E+03  0.89928957142E+03  0.25500000920E-02 0.  1.
        2   -1    0    0  501    0  0.00000000000E+00  0.00000000000E+00 -0.16343671956E+04  0.16343671956E+04  0.25500000920E-02 0. -1.
    10030    2    1    2    0    0  0.00000000000E+00  0.00000000000E+00 -0.73507762420E+03  0.25336567670E+04  0.24246809067E+04 0.  0.
        3    1    3    3  502    0 -0.19720096048E+03 -0.58502659449E+03  0.72272687962E+03  0.95051485406E+03  0.10100000352E+00 0.  1.
       -3    1    3    3    0  502  0.19720096048E+03  0.58502659449E+03 -0.14578045038E+04  0.15831419130E+04  0.10100000352E+00 0. -1.
</event>
<event>
 5   0  0.1154897E-05  0.2285645E+04  0.7818609E-02  0.8483603E-01
        2   -1    0    0  501    0  0.00000000000E+00  0.00000000000E+00  0.94746179644E+03  0.94746179645E+03  0.25500000920E-02 0.  1.
       -2   -1    0    0    0  501  0.00000000000E+00  0.00000000000E+00 -0.13784652637E+04  0.13784652637E+04  0.25500000920E-02 0. -1.
    10030    2    1    2    0    0  0.00000000000E+00  0.00000000000E+00 -0.43100346727E+03  0.23259270602E+04  0.22856449200E+04 0.  0.
        4    1    3    3  502    0  0.35544312013E+03 -0.71945818268E+03  0.61252262351E+03  0.10095273476E+04  0.12699999809E+01 0.  1.
       -4    1    3    3    0  502 -0.35544312013E+03  0.71945818268E+03 -0.10435260908E+04  0.13163997126E+04  0.12699999809E+01 0. -1.
</event>
<event>
 5   0  0.5034479E-06  0.2402209E+04  0.7818609E-02  0.8438677E-01
        1   -1    0    0  501    0  0.00000000000E+00  0.00000000000E+00  0.12396488408E+04  0.12396488408E+04  0.50400001928E-02 0.  1.
       -1   -1    0    0    0  501  0.00000000000E+00  0.00000000000E+00 -0.11637590355E+04  0.11637590355E+04  0.50400001928E-02 0. -1.
    10030    2    1    2    0    0  0.00000000000E+00  0.00000000000E+00  0.75889805259E+02  0.24034078764E+04  0.24022094325E+04 0.  0.
        4    1    3    3  502    0 -0.10167332869E+04  0.63171580162E+03  0.13718862272E+03  0.12048376496E+04  0.12699999809E+01 0.  1.
       -4    1    3    3    0  502  0.10167332869E+04 -0.63171580162E+03 -0.61298817465E+02  0.11985702268E+04  0.12699999809E+01 0. -1.
</event>
<event>
 5   0  0.5196696E-06  0.2400135E+04  0.7818609E-02  0.8439453E-01
       -1   -1    0    0    0  501  0.00000000000E+00  0.00000000000E+00  0.14431559892E+04  0.14431559892E+04  0.50400001928E-02 0. -1.
        1   -1    0    0  501    0  0.00000000000E+00  0.00000000000E+00 -0.99792562098E+03  0.99792562099E+03  0.50400001928E-02 0.  1.
    10030    2    1    2    0    0  0.00000000000E+00  0.00000000000E+00  0.44523036825E+03  0.24410816102E+04  0.24001352768E+04 0.  0.
        1    1    3    3  502    0  0.89210605582E+03 -0.34073160499E+03  0.96179540689E+03  0.13553603381E+04  0.50400001928E-02 0. -1.
       -1    1    3    3    0  502 -0.89210605582E+03  0.34073160499E+03 -0.51656503864E+03  0.10857212721E+04  0.50400001928E-02 0.  1.
</event>
<event>
 5   0  0.1169371E-05  0.2364387E+04  0.7818609E-02  0.8452958E-01
        2   -1    0    0  501    0  0.00000000000E+00  0.00000000000E+00  0.14133017612E+04  0.14133017612E+04  0.25500000920E-02 0.  1.
       -2   -1    0    0    0  501  0.00000000000E+00  0.00000000000E+00 -0.98887699089E+03  0.98887699089E+03  0.25500000920E-02 0. -1.
    10030    2    1    2    0    0  0.00000000000E+00  0.00000000000E+00  0.42442477031E+03  0.24021787521E+04  0.23643871027E+04 0.  0.
        2    1    3    3  502    0  0.89376556345E+00  0.82134123369E+03  0.10760849715E+04  0.13537211999E+04  0.25500000920E-02 0.  1.
       -2    1    3    3    0  502 -0.89376556345E+00 -0.82134123369E+03 -0.65166020122E+03  0.10484575522E+04  0.25500000920E-02 0. -1.
</event>
<event>
 5   0  0.1174210E-05  0.2330739E+04  0.7818609E-02  0.8465899E-01
       -2   -1    0    0    0  501  0.00000000000E+00  0.00000000000E+00  0.93564335644E+03  0.93564335644E+03  0.25500000920E-02 0. -1.
        2   -1    0    0  501    0  0.00000000000E+00  0.00000000000E+00 -0.14514992923E+04  0.14514992923E+04  0.25500000920E-02 0.  1.
    10030    2    1    2    0    0  0.00000000000E+00  0.00000000000E+00 -0.51585593589E+03  0.23871426488E+04  0.23307386552E+04 0.  0.
        3    1    3    3  502    0  0.18871142702E+03 -0.32045480911E+03 -0.13890929952E+04  0.14380134377E+04  0.10100000352E+00 0.  1.
       -3    1    3    3    0  502 -0.18871142702E+03  0.32045480911E+03  0.87323705933E+03  0.94912921110E+03  0.10100000352E+00 0. -1.
</event>
<event>
 5   0  0.5034479E-06  0.2394970E+04  0.7818609E-02  0.8441389E-01
       -1   -1    0    0    0  501  0.00000000000E+00  0.00000000000E+00  0.15363544889E+04  0.15363544889E+04  0.50400001928E-02 0. -1.
        1   -1    0    0  501    0  0.00000000000E+00  0.00000000000E+00 -0.93335926126E+03  0.93335926127E+03  0.50400001928E-02 0.  1.
    10030    2    1    2    0    0  0.00000000000E+00  0.00000000000E+00  0.60299522768E+03  0.24697137502E+04  0.23949703053E+04 0.  0.
        4    1    3    3  502    0  0.13049931084E+03 -0.10816865382E+04  0.81388813489E+03  0.13599600531E+04  0.12699999809E+01 0. -1.
       -4    1    3    3    0  502 -0.13049931084E+03  0.10816865382E+04 -0.21089290721E+03  0.11097536971E+04  0.12699999809E+01 0.  1.
</event>
<event>
 5   0  0.5064437E-06  0.2402776E+04  0.7818609E-02  0.8438465E-01
        1   -1    0    0  501    0  0.00000000000E+00  0.00000000000E+00  0.17285793007E+04  0.17285793007E+04  0.50400001928E-02 0. -1.
       -1   -1    0    0    0  501  0.00000000000E+00  0.00000000000E+00 -0.83498204503E+03  0.83498204505E+03  0.50400001928E-02 0.  1.
    10030    2    1    2    0    0  0.00000000000E+00  0.00000000000E+00  0.89359725562E+03  0.25635613457E+04  0.24027756279E+04 0.  0.
        2    1    3    3  502    0 -0.11943500395E+04 -0.12083271767E+03  0.49752057994E+03  0.12994611537E+04  0.25500000920E-02 0.  1.
       -2    1    3    3    0  502  0.11943500395E+04  0.12083271767E+03  0.39607667568E+03  0.12641001920E+04  0.25500000920E-02 0. -1.
</event>
<event>
 5   0  0.5196696E-06  0.2406556E+04  0.7818609E-02  0.8437053E-01
       -1   -1    0    0    0  501  0.00000000000E+00  0.00000000000E+00  0.19128348796E+04  0.19128348796E+04  0.50400001928E-02 0.  1.
        1   -1    0    0  501    0  0.00000000000E+00  0.00000000000E+00 -0.75692760956E+03  0.75692760958E+03  0.50400001928E-02 0. -1.
    10030    2    1    2    0    0  0.00000000000E+00  0.00000000000E+00  0.11559072700E+04  0.26697624892E+04  0.24065556573E+04 0.  0.
        1    1    3    3  502    0  0.10522943728E+04  0.41531904957E+03  0.10327471759E+04  0.15317898319E+04  0.50400001928E-02 0.  1.
       -1    1    3    3    0  502 -0.10522943728E+04 -0.41531904957E+03  0.12316009420E+03  0.11379726573E+04  0.50400001928E-02 0. -1.
</event>
<event>
 5   0  0.1169371E-05  0.2395001E+04  0.7818609E-02  0.8441377E-01
       -2   -1    0    0    0  501  0.00000000000E+00  0.00000000000E+00  0.73022058113E+03  0.73022058113E+03  0.25500000920E-02 0.  1.
        2   -1    0    0  501    0  0.00000000000E+00  0.00000000000E+00 -0.19638005052E+04  0.19638005052E+04  0.25500000920E-02 0. -1.
    10030    2    1    2    0    0  0.00000000000E+00  0.00000000000E+00 -0.12335799241E+04  0.26940210863E+04  0.23950010824E+04 0.  0.
        2    1    3    3  502    0  0.10556459261E+04 -0.47581799959E+03 -0.96022260393E+03  0.15042667779E+04  0.25500000920E-02 0.  1.
       -2    1    3    3    0  502 -0.10556459261E+04  0.47581799959E+03 -0.27335732014E+03  0.11897543084E+04  0.25500000920E-02 0. -1.
</event>
<event>
 5   0  0.5042742E-06  0.2403631E+04  0.7818609E-02  0.8438146E-01
       -1   -1    0    0    0  501  0.00000000000E+00  0.00000000000E+00  0.15063422755E+04  0.15063422755E+04  0.50400001928E-02 0. -1.
        1   -1    0    0  501    0  0.00000000000E+00  0.00000000000E+00 -0.95885241452E+03  0.95885241454E+03  0.50400001928E-02 0.  1.
    10030    2    1    2    0    0  0.00000000000E+00  0.00000000000E+00  0.54748986093E+03  0.24651946900E+04  0.24036305273E+04 0.  0.
        5    1    3    3  502    0  0.67748356234E+03 -0.84637836874E+03  0.80567880588E+03  0.13507334114E+04  0.46999998093E+01 0. -1.
       -5    1    3    3    0  502 -0.67748356234E+03  0.84637836874E+03 -0.25818894495E+03  0.11144612786E+04  0.46999998093E+01 0.  1.
</event>
<event>
 5   0  0.5104174E-06  0.2396327E+04  0.7818609E-02  0.8440880E-01
       -1   -1    0    0    0  501  0.00000000000E+00  0.00000000000E+00  0.10380404238E+04  0.10380404238E+04  0.50400001928E-02 0. -1.
        1   -1    0    0  501    0  0.00000000000E+00  0.00000000000E+00 -0.13829864777E+04  0.13829864777E+04  0.50400001928E-02 0.  1.
    10030    2    1    2    0    0  0.00000000000E+00  0.00000000000E+00 -0.34494605388E+03  0.24210269015E+04  0.23963270807E+04 0.  0.
        3    1    3    3  502    0 -0.36246805484E+03  0.11181318507E+03  0.97577611052E+03  0.10469117953E+04  0.10100000352E+00 0. -1.
       -3    1    3    3    0  502  0.36246805484E+03 -0.11181318507E+03 -0.13207221644E+04  0.13741151061E+04  0.10100000352E+00 0.  1.
</event>
<event>
 5   0  0.1174210E-05  0.2344994E+04  0.7818609E-02  0.8460389E-01
        2   -1    0    0  501    0  0.00000000000E+00  0.00000000000E+00  0.13184069005E+04  0.13184069005E+04  0.25500000920E-02 0. -1.
       -2   -1    0    0    0  501  0.00000000000E+00  0.00000000000E+00 -0.10427355401E+04  0.10427355401E+04  0.25500000920E-02 0.  1.
    10030    2    1    2    0    0  0.00000000000E+00  0.00000000000E+00  0.27567136042E+03  0.23611424405E+04  0.23449944404E+04 0.  0.
        3    1    3    3  502    0 -0.94950057883E+03 -0.63026384343E+03  0.41535268434E+03  0.12129722685E+04  0.10100000352E+00 0. -1.
       -3    1    3    3    0  502  0.94950057883E+03  0.63026384343E+03 -0.13968132392E+03  0.11481701721E+04  0.10100000352E+00 0.  1.
</event>
<event>
 5   0  0.1174210E-05  0.2417715E+04  0.7818609E-02  0.8432901E-01
       -2   -1    0    0    0  501  0.00000000000E+00  0.00000000000E+00  0.11900121481E+04  0.11900121481E+04  0.25500000920E-02 0.  1.
        2   -1    0    0  501    0  0.00000000000E+00  0.00000000000E+00 -0.12280016600E+04  0.12280016600E+04  0.25500000920E-02 0. -1.
    10030    2    1    2    0    0  0.00000000000E+00  0.00000000000E+00 -0.37989511904E+02  0.24180138080E+04  0.24177153622E+04 0.  0.
        3    1    3    3  502    0 -0.91349121188E+02  0.59302694282E+03  0.10305685711E+04  0.11925171725E+04  0.10100000352E+00 0.  1.
       -3    1    3    3    0  502  0.91349121188E+02 -0.59302694282E+03 -0.10685580830E+04  0.12254966355E+04  0.10100000352E+00 0. -1.
</event>
<event>
 5   0  0.5196696E-06  0.2391194E+04  0.7818609E-02  0.8442808E-01
        1   -1    0    0  501    0  0.00000000000E+00  0.00000000000E+00  0.12142998660E+04  0.12142998660E+04  0.50400001928E-02 0. -1.
       -1   -1    0    0    0  501  0.00000000000E+00  0.00000000000E+00 -0.11771818715E+04  0.11771818715E+04  0.50400001928E-02 0.  1.
    10030    2    1    2    0    0  0.00000000000E+00  0.00000000000E+00  0.37117994543E+02  0.23914817375E+04  0.23911936675E+04 0.  0.
        1    1    3    3  502    0 -0.86296427668E+03 -0.45264041172E+03  0.71136252611E+03  0.12064938163E+04  0.50400001928E-02 0. -1.
       -1    1    3    3    0  502  0.86296427668E+03  0.45264041172E+03 -0.67424453157E+03  0.11849879213E+04  0.50400001928E-02 0.  1.
</event>
<event>
 5   0  0.1168435E-05  0.2399278E+04  0.7818609E-02  0.8439774E-01
       -2   -1    0    0    0  501  0.00000000000E+00  0.00000000000E+00  0.78912347130E+03  0.78912347131E+03  0.25500000920E-02 0.  1.
        2   -1    0    0  501    0  0.00000000000E+00  0.00000000000E+00 -0.18237118890E+04  0.18237118890E+04  0.25500000920E-02 0. -1.
    10030    2    1    2    0    0  0.00000000000E+00  0.00000000000E+00 -0.10345884177E+04  0.26128353603E+04  0.23992781052E+04 0.  0.
        1    1    3    3  502    0  0.65801223039E+03 -0.32338139792E+03  0.51673584805E+03  0.89697913050E+03  0.50400001928E-02 0.  1.
       -1    1    3    3    0  502 -0.65801223039E+03  0.32338139792E+03 -0.15513242657E+04  0.17158562298E+04  0.50400001928E-02 0. -1.
</event>
<event>
 5   0  0.5064437E-06  0.2414782E+04  0.7818609E-02  0.8433990E-01
        1   -1    0    0  501    0  0.00000000000E+00  0.00000000000E+00  0.14322931304E+04  0.14322931305E+04  0.50400001928E-02 0.  1.
       -1   -1    0    0    0  501  0.00000000000E+00  0.00000000000E+00 -0.10178039484E+04  0.10178039484E+04  0.50400001928E-02 0. -1.
    10030    2    1    2    0    0  0.00000000000E+00  0.00000000000E+00  0.41448918201E+03  0.24500970789E+04  0.24147824776E+04 0.  0.
        2    1    3    3  502    0 -0.17345793996E+03  0.91916959899E+03 -0.56735527243E+03  0.10940075017E+04  0.25500000920E-02 0. -1.
       -2    1    3    3    0  502  0.17345793996E+03 -0.91916959899E+03  0.98184445444E+03  0.13560895772E+04  0.25500000920E-02 0.  1.
</event>
<event>
 5   0  0.5196696E-06  0.2376086E+04  0.7818609E-02  0.8448511E-01
       -1   -1    0    0    0  501  0.00000000000E+00  0.00000000000E+00  0.10170237187E+04  0.10170237187E+04  0.50400001928E-02 0. -1.
        1   -1    0    0  501    0  0.00000000000E+00  0.00000000000E+00 -0.13878201288E+04  0.13878201288E+04  0.50400001928E-02 0.  1.
    10030    2    1    2    0    0  0.00000000000E+00  0.00000000000E+00 -0.37079641011E+03  0.24048438475E+04  0.23760858471E+04 0.  0.
        1    1    3    3  502    0 -0.11267278748E+04  0.36245810149E+03 -0.81420143756E+02  0.11863898259E+04  0.50400001928E-02 0. -1.
       -1    1    3    3    0  502  0.11267278748E+04 -0.36245810149E+03 -0.28937626635E+03  0.12184540216E+04  0.50400001928E-02 0.  1.
</event>
<event>
 5   0  0.4067750E-06  0.2401059E+04  0.7818609E-02  0.8439107E-01
        4   -1    0    0  501    0  0.00000000000E+00  0.00000000000E+00  0.81686753966E+03  0.81686852691E+03  0.12699999809E+01 0. -1.
       -4   -1    0    0    0  501  0.00000000000E+00  0.00000000000E+00 -0.17643854329E+04  0.17643858900E+04  0.12699999809E+01 0.  1.
    10030    2    1    2    0    0  0.00000000000E+00  0.00000000000E+00 -0.94751789324E+03  0.25812544169E+04  0.24010589761E+04 0.  0.
        4    1    3    3  502    0 -0.68623072328E+03  0.75533554974E+03 -0.11535304890E+04  0.15401553818E+04  0.12699999809E+01 0.  1.
       -4    1    3    3    0  502  0.68623072328E+03 -0.75533554974E+03  0.20601259574E+03  0.10410990351E+04  0.12699999809E+01 0. -1.
</event>
<event>
 5   0  0.1168435E-05  0.2407638E+04  0.7818609E-02  0.8436649E-01
       -2   -1    0    0    0  501  0.00000000000E+00  0.00000000000E+00  0.87382797142E+03  0.87382797143E+03  0.25500000920E-02 0.  1.
        2   -1    0    0  501    0  0.00000000000E+00  0.00000000000E+00 -0.16584275064E+04  0.16584275064E+04  0.25500000920E-02 0. -1.
    10030    2    1    2    0    0  0.00000000000E+00  0.00000000000E+00 -0.78459953499E+03  0.25322554778E+04  0.24076381320E+04 0.  0.
        1    1    3    3  502    0 -0.38077593382E+03  0.68420052532E+02 -0.15912631145E+04  0.16376171454E+04  0.50400001928E-02 0. -1.
       -1    1    3    3    0  502  0.38077593382E+03 -0.68420052532E+02  0.80666357950E+03  0.89463833244E+03  0.50400001928E-02 0.  1.
</event>
<event>
 5   0  0.5064437E-06  0.2374852E+04  0.7818609E-02  0.8448979E-01
        1   -1    0    0  501    0  0.00000000000E+00  0.00000000000E+00  0.16573257544E+04  0.16573257544E+04  0.50400001928E-02 0. -1.
       -1   -1    0    0    0  501  0.00000000000E+00  0.00000000000E+00 -0.85075647543E+03  0.85075647545E+03  0.50400001928E-02 0.  1.
    10030    2    1    2    0    0  0.00000000000E+00  0.00000000000E+00  0.80656927895E+03  0.25080822298E+04  0.23748520943E+04 0.  0.
        2    1    3    3  502    0 -0.69064961948E+02  0.11435167114E+04  0.73318744601E+03  0.13601339159E+04  0.25500000920E-02 0. -1.
       -2    1    3    3    0  502  0.69064961948E+02 -0.11435167114E+04  0.73381832932E+02  0.11479483140E+04  0.25500000920E-02 0.  1.
</event>
<event>
 5   0  0.5064437E-06  0.2398419E+04  0.7818609E-02  0.8440096E-01
       -1   -1    0    0    0  501  0.00000000000E+00  0.00000000000E+00  0.10416730295E+04  0.10416730295E+04  0.50400001928E-02 0.  1.
        1   -1    0    0  501    0  0.00000000000E+00  0.00000000000E+00 -0.13805712474E+04  0.13805712474E+04  0.50400001928E-02 0. -1.
    10030    2    1    2    0    0  0.00000000000E+00  0.00000000000E+00 -0.33889821791E+03  0.24222442768E+04  0.23984193409E+04 0.  0.
        2    1    3    3  502    0 -0.15464156920E+03 -0.10373711181E+04 -0.75664623549E+03  0.12932773784E+04  0.25500000920E-02 0. -1.
       -2    1    3    3    0  502  0.15464156920E+03  0.10373711181E+04  0.41774801758E+03  0.11289668985E+04  0.25500000920E-02 0.  1.
</event>
<event>
 5   0  0.1169371E-05  0.2408439E+04  0.7818609E-02  0.8436351E-01
       -2   -1    0    0    0  501  0.00000000000E+00  0.00000000000E+00  0.11552049212E+04  0.11552049212E+04  0.25500000920E-02 0. -1.
        2   -1    0    0  501    0  0.00000000000E+00  0.00000000000E+00 -0.12553140705E+04  0.12553140705E+04  0.25500000920E-02 0.  1.
    10030    2    1    2    0    0  0.00000000000E+00  0.00000000000E+00 -0.10010914935E+03  0.24105189917E+04  0.24084393220E+04 0.  0.
        2    1    3    3  502    0 -0.74467188309E+03  0.94595248001E+03 -0.78055222686E+02  0.12064223662E+04  0.25500000920E-02 0. -1.
       -2    1    3    3    0  502  0.74467188309E+03 -0.94595248001E+03 -0.22053926660E+02  0.12040966255E+04  0.25500000920E-02 0.  1.
</event>
<event>
 5   0  0.5104174E-06  0.2396505E+04  0.7818609E-02  0.8440813E-01
       -1   -1    0    0    0  501  0.00000000000E+00  0.00000000000E+00  0.14734674911E+04  0.14734674911E+04  0.50400001928E-02 0.  1.
        1   -1    0    0  501    0  0.00000000000E+00  0.00000000000E+00 -0.97444266636E+03  0.97444266637E+03  0.50400001928E-02 0. -1.
    10030    2    1    2    0    0  0.00000000000E+00  0.00000000000E+00  0.49902482477E+03  0.24479101575E+04  0.23965054482E+04 0.  0.
        3    1    3    3  502    0  0.64173181820E+03 -0.45941520198E+03 -0.67145225401E+03  0.10362095319E+04  0.10100000352E+00 0. -1.
       -3    1    3    3    0  502 -0.64173181820E+03  0.45941520198E+03  0.11704770788E+04  0.14117006256E+04  0.10100000352E+00 0.  1.
</event>
<event>
 5   0  0.1198313E-05  0.2398094E+04  0.7818609E-02  0.8440218E-01
       -2   -1    0    0    0  501  0.00000000000E+00  0.00000000000E+00  0.96840046901E+03  0.96840046901E+03  0.25500000920E-02 0.  1.
        2   -1    0    0  501    0  0.00000000000E+00  0.00000000000E+00 -0.14846266964E+04  0.14846266964E+04  0.25500000920E-02 0. -1.
    10030    2    1    2    0    0  0.00000000000E+00  0.00000000000E+00 -0.51622622736E+03  0.24530271654E+04  0.23980935670E+04 0.  0.
        5    1    3    3  502    0 -0.46083090851E+03  0.25566729179E+03 -0.13597989839E+04  0.14583573831E+04  0.46999998093E+01 0. -1.
       -5    1    3    3    0  502  0.46083090851E+03 -0.25566729179E+03  0.84357275649E+03  0.99466978230E+03  0.46999998093E+01 0.  1.
</event>
<event>
 5   0  0.5104174E-06  0.2401256E+04  0.7818609E-02  0.8439033E-01
       -1   -1    0    0    0  501  0.00000000000E+00  0.00000000000E+00  0.91247727014E+03  0.91247727015E+03  0.50400001928E-02 0. -1.
        1   -1    0    0  501    0  0.00000000000E+00  0.00000000000E+00 -0.15797740929E+04  0.15797740929E+04  0.50400001928E-02 0.  1.
    10030    2    1    2    0    0  0.00000000000E+00  0.00000000000E+00 -0.66729682275E+03  0.24922513631E+04  0.24012562976E+04 0.  0.
        3    1    3    3  502    0 -0.11441924889E+03  0.78956338651E+03  0.59757275687E+03  0.99679251391E+03  0.10100000352E+00 0. -1.
       -3    1    3    3    0  502  0.11441924889E+03 -0.78956338651E+03 -0.12648695796E+04  0.14954588491E+04  0.10100000352E+00 0.  1.
</event>
<event>
 5   0  0.1169371E-05  0.2389899E+04  0.7818609E-02  0.8443295E-01
       -2   -1    0    0    0  501  0.00000000000E+00  0.00000000000E+00  0.75151280426E+03  0.75151280426E+03  0.25500000920E-02 0.  1.
        2   -1    0    0  501    0  0.00000000000E+00  0.00000000000E+00 -0.19000405824E+04  0.19000405824E+04  0.25500000920E-02 0. -1.
    10030    2    1    2    0    0  0.00000000000E+00  0.00000000000E+00 -0.11485277781E+04  0.26515533866E+04  0.23898994341E+04 0.  0.
        2    1    3    3  502    0 -0.54919314849E+03  0.10305947670E+04 -0.29322028894E+03  0.12040418705E+04  0.25500000920E-02 0.  1.
       -2    1    3    3    0  502  0.54919314849E+03 -0.10305947670E+04 -0.85530748918E+03  0.14475115161E+04  0.25500000920E-02 0. -1.
</event>
<event>
 5   0  0.1169371E-05  0.2400963E+04  0.7818609E-02  0.8439143E-01
        2   -1    0    0  501    0  0.00000000000E+00  0.00000000000E+00  0.17143757434E+04  0.17143757434E+04  0.25500000920E-02 0.  1.
       -2   -1    0    0    0  501  0.00000000000E+00  0.00000000000E+00 -0.84063025562E+03  0.84063025562E+03  0.25500000920E-02 0. -1.
    10030    2    1    2    0    0  0.00000000000E+00  0.00000000000E+00  0.87374548779E+03  0.25550059990E+04  0.24009632395E+04 0.  0.
        2    1    3    3  502    0 -0.86880197047E+03  0.56251583772E+03  0.10841010384E+04  0.14988382144E+04  0.25500000920E-02 0. -1.
       -2    1    3    3    0  502  0.86880197047E+03 -0.56251583772E+03 -0.21035555058E+03  0.10561677846E+04  0.25500000920E-02 0.  1.
</event>
<event>
 5   0  0.5196696E-06  0.2425130E+04  0.7818609E-02  0.8430155E-01
       -1   -1    0    0    0  501  0.00000000000E+00  0.00000000000E+00  0.18479552770E+04  0.18479552770E+04  0.50400001928E-02 0.  1.
        1   -1    0    0  501    0  0.00000000000E+00  0.00000000000E+00 -0.79564395670E+03  0.79564395672E+03  0.50400001928E-02 0. -1.
    10030    2    1    2    0    0  0.00000000000E+00  0.00000000000E+00  0.10523113203E+04  0.26435992337E+04  0.24251304694E+04 0.  0.
        1    1    3    3  502    0  0.38190286194E+03 -0.11417883911E+04  0.68330923490E+03  0.13843561813E+04  0.50400001928E-02 0. -1.
       -1    1    3    3    0  502 -0.38190286194E+03  0.11417883911E+04  0.36900208542E+03  0.12592430525E+04  0.50400001928E-02 0.  1.
</event>
<event>
 5   0  0.1174210E-05  0.2400926E+04  0.7818609E-02  0.8439157E-01
        2   -1    0    0  501    0  0.00000000000E+00  0.00000000000E+00  0.12606363911E+04  0.12606363911E+04  0.25500000920E-02 0. -1.
       -2   -1    0    0    0  501  0.00000000000E+00  0.00000000000E+00 -0.11431613987E+04  0.11431613988E+04  0.25500000920E-02 0.  1.
    10030    2    1    2    0    0  0.00000000000E+00  0.00000000000E+00  0.11747499230E+03  0.24037977898E+04  0.24009255383E+04 0.  0.
        3    1    3    3  502    0  0.74299394487E+03  0.51933424472E+03 -0.72920004985E+03  0.11633919300E+04  0.10100000352E+00 0.  1.
       -3    1    3    3    0  502 -0.74299394487E+03 -0.51933424472E+03  0.84667504216E+03  0.12404058598E+04  0.10100000352E+00 0. -1.
</event>
<event>
 5   0  0.1169371E-05  0.2399844E+04  0.7818609E-02  0.8439562E-01
       -2   -1    0    0    0  501  0.00000000000E+00  0.00000000000E+00  0.66219574304E+03  0.66219574304E+03  0.25500000920E-02 0.  1.
        2   -1    0    0  501    0  0.00000000000E+00  0.00000000000E+00 -0.21743014404E+04  0.21743014404E+04  0.25500000920E-02 0. -1.
    10030    2    1    2    0    0  0.00000000000E+00  0.00000000000E+00 -0.15121056973E+04  0.28364971834E+04  0.23998442932E+04 0.  0.
        2    1    3    3  502    0 -0.11174761704E+04  0.33793504245E+03 -0.42837303353E+03  0.12435660578E+04  0.25500000920E-02 0.  1.
       -2    1    3    3    0  502  0.11174761704E+04 -0.33793504245E+03 -0.10837326638E+04  0.15929311256E+04  0.25500000920E-02 0. -1.
</event>
<event>
 5   0  0.5104174E-06  0.2365317E+04  0.7818609E-02  0.8452604E-01
        1   -1    0    0  501    0  0.00000000000E+00  0.00000000000E+00  0.86439014012E+03  0.86439014013E+03  0.50400001928E-02 0.  1.
       -1   -1    0    0    0  501  0.00000000000E+00  0.00000000000E+00 -0.16181133445E+04  0.16181133445E+04  0.50400001928E-02 0. -1.
    10030    2    1    2    0    0  0.00000000000E+00  0.00000000000E+00 -0.75372320441E+03  0.24825034847E+04  0.23653170786E+04 0.  0.
        3    1    3    3  502    0  0.25812039650E+03 -0.98427289264E+03  0.25571110589E+03  0.10491937124E+04  0.10100000352E+00 0.  1.
       -3    1    3    3    0  502 -0.25812039650E+03  0.98427289264E+03 -0.10094343103E+04  0.14333097723E+04  0.10100000352E+00 0. -1.
</event>
<event>
 5   0  0.5104174E-06  0.2425233E+04  0.7818609E-02  0.8430117E-01
       -1   -1    0    0    0  501  0.00000000000E+00  0.00000000000E+00  0.65308421498E+03  0.65308421500E+03  0.50400001928E-02 0.  1.
        1   -1    0    0  501    0  0.00000000000E+00  0.00000000000E+00 -0.22515301783E+04  0.22515301783E+04  0.50400001928E-02 0. -1.
    10030    2    1    2    0    0  0.00000000000E+00  0.00000000000E+00 -0.15984459633E+04  0.29046143933E+04  0.24252330354E+04 0.  0.
        3    1    3    3  502    0 -0.10448809016E+04 -0.28586959135E+03 -0.14658806832E+03  0.10931539661E+04  0.10100000352E+00 0.  1.
       -3    1    3    3    0  502  0.10448809016E+04  0.28586959135E+03 -0.14518578950E+04  0.18114604271E+04  0.10100000352E+00 0. -1.
</event>
<event>
 5   0  0.5034479E-06  0.2405032E+04  0.7818609E-02  0.8437622E-01
        1   -1    0    0  501    0  0.00000000000E+00  0.00000000000E+00  0.79504962586E+03  0.79504962587E+03  0.50400001928E-02 0. -1.
       -1   -1    0    0    0  501  0.00000000000E+00  0.00000000000E+00 -0.18188108191E+04  0.18188108191E+04  0.50400001928E-02 0.  1.
    10030    2    1    2    0    0  0.00000000000E+00  0.00000000000E+00 -0.10237611933E+04  0.26138604450E+04  0.24050321089E+04 0.  0.
        4    1    3    3  502    0 -0.72709015422E+03 -0.22351494213E+03  0.50034494472E+03  0.91047553417E+03  0.12699999809E+01 0. -1.
       -4    1    3    3    0  502  0.72709015422E+03  0.22351494213E+03 -0.15241061380E+04  0.17033849108E+04  0.12699999809E+01 0.  1.
</event>
<event>
 5   0  0.1174210E-05  0.2404071E+04  0.7818609E-02  0.8437981E-01
        2   -1    0    0  501    0  0.00000000000E+00  0.00000000000E+00  0.15891991368E+04  0.15891991368E+04  0.25500000920E-02 0. -1.
       -2   -1    0    0    0  501  0.00000000000E+00  0.00000000000E+00 -0.90919305898E+03  0.90919305898E+03  0.25500000920E-02 0.  1.
    10030    2    1    2    0    0  0.00000000000E+00  0.00000000000E+00  0.68000607786E+03  0.24983921958E+04  0.24040705685E+04 0.  0.
        3    1    3    3  502    0 -0.53371643080E+03  0.26676086399E+03 -0.74442880557E+03  0.95403817734E+03  0.10100000352E+00 0.  1.
       -3    1    3    3    0  502  0.53371643080E+03 -0.26676086399E+03  0.14244348834E+04  0.15443540185E+04  0.10100000352E+00 0. -1.
</event>
<event>
 5   0  0.1169371E-05  0.2394179E+04  0.7818609E-02  0.8441686E-01
        2   -1    0    0  501    0  0.00000000000E+00  0.00000000000E+00  0.15932390831E+04  0.15932390831E+04  0.25500000920E-02 0. -1.
       -2   -1    0    0    0  501  0.00000000000E+00  0.00000000000E+00 -0.89944022096E+03  0.89944022096E+03  0.25500000920E-02 0.  1.
    10030    2    1    2    0    0  0.00000000000E+00  0.00000000000E+00  0.69379886212E+03  0.24926793040E+04  0.23941790350E+04 0.  0.
        2    1    3    3  502    0 -0.68306427516E+03  0.22393644141E+02  0.13701594164E+04  0.15311482964E+04  0.25500000920E-02 0. -1.
       -2    1    3    3    0  502  0.68306427516E+03 -0.22393644141E+02 -0.67636055425E+03  0.96153100764E+03  0.25500000920E-02 0.  1.
</event>
<event>
 5   0  0.1154897E-05  0.2402771E+04  0.7818609E-02  0.8438467E-01
       -2   -1    0    0    0  501  0.00000000000E+00  0.00000000000E+00  0.10693947982E+04  0.10693947983E+04  0.25500000920E-02 0.  1.
        2   -1    0    0  501    0  0.00000000000E+00  0.00000000000E+00 -0.13496677653E+04  0.13496677653E+04  0.25500000920E-02 0. -1.
    10030    2    1    2    0    0  0.00000000000E+00  0.00000000000E+00 -0.28027296708E+03  0.24190625636E+04  0.24027714728E+04 0.  0.
        4    1    3    3  502    0  0.10585304866E+04 -0.19038275299E+03 -0.67911064592E+03  0.12719769126E+04  0.12699999809E+01 0. -1.
       -4    1    3    3    0  502 -0.10585304866E+04  0.19038275299E+03  0.39883767885E+03  0.11470856510E+04  0.12699999809E+01 0.  1.
</event>
<event>
 5   0  0.5064437E-06  0.2398874E+04  0.7818609E-02  0.8439925E-01
        1   -1    0    0  501    0  0.00000000000E+00  0.00000000000E+00  0.23211660688E+04  0.23211660688E+04  0.50400001928E-02 0.  1.
       -1   -1    0    0    0  501  0.00000000000E+00  0.00000000000E+00 -0.61979567953E+03  0.61979567955E+03  0.50400001928E-02 0. -1.
    10030    2    1    2    0    0  0.00000000000E+00  0.00000000000E+00  0.17013703893E+04  0.29409617484E+04  0.23988736532E+04 0.  0.
        2    1    3    3  502    0  0.86084694191E+02  0.11930505881E+04  0.74193606683E+03  0.14075686156E+04  0.25500000920E-02 0. -1.
       -2    1    3    3    0  502 -0.86084694191E+02 -0.11930505881E+04  0.95943432245E+03  0.15333931327E+04  0.25500000920E-02 0.  1.
</event>
<event>
 5   0  0.4067750E-06  0.2399833E+04  0.7818609E-02  0.8439566E-01
       -3   -1    0    0    0  501  0.00000000000E+00  0.00000000000E+00  0.10670368813E+04  0.10670368861E+04  0.10100000352E+00 0. -1.
        3   -1    0    0  501    0  0.00000000000E+00  0.00000000000E+00 -0.13493442056E+04  0.13493442094E+04  0.10100000352E+00 0.  1.
    10030    2    1    2    0    0  0.00000000000E+00  0.00000000000E+00 -0.28230732432E+03  0.24163810955E+04  0.23998333637E+04 0.  0.
        5    1    3    3  502    0  0.62386683662E+03  0.81277870711E+03  0.48761915633E+03  0.11347306236E+04  0.46999998093E+01 0. -1.
       -5    1    3    3    0  502 -0.62386683662E+03 -0.81277870711E+03 -0.76992648064E+03  0.12816504719E+04  0.46999998093E+01 0.  1.
</event>
<event>
 5   0  0.1168435E-05  0.2312021E+04  0.7818609E-02  0.8473196E-01
       -2   -1    0    0    0  501  0.00000000000E+00  0.00000000000E+00  0.66313392993E+03  0.66313392993E+03  0.25500000920E-02 0. -1.
        2   -1    0    0  501    0  0.00000000000E+00  0.00000000000E+00 -0.20152194923E+04  0.20152194923E+04  0.25500000920E-02 0.  1.
    10030    2    1    2    0    0  0.00000000000E+00  0.00000000000E+00 -0.13520855624E+04  0.26783534223E+04  0.23120211259E+04 0.  0.
        1    1    3    3  502    0  0.10717424743E+04 -0.20235768688E+03 -0.11198652815E+04  0.15632270511E+04  0.50400001928E-02 0.  1.
       -1    1    3    3    0  502 -0.10717424743E+04  0.20235768688E+03 -0.23222028087E+03  0.11151263711E+04  0.50400001928E-02 0. -1.
</event>
<event>
 5   0  0.1169371E-05  0.2428691E+04  0.7818609E-02  0.8428840E-01
        2   -1    0    0  501    0  0.00000000000E+00  0.00000000000E+00  0.14311917622E+04  0.14311917622E+04  0.25500000920E-02 0. -1.
       -2   -1    0    0    0  501  0.00000000000E+00  0.00000000000E+00 -0.10303543711E+04  0.10303543711E+04  0.25500000920E-02 0.  1.
    10030    2    1    2    0    0  0.00000000000E+00  0.00000000000E+00  0.40083739109E+03  0.24615461332E+04  0.24286907485E+04 0.  0.
        2    1    3    3  502    0 -0.32214340562E+02  0.84002292859E+03 -0.68776870804E+03  0.10861409117E+04  0.25500000920E-02 0.  1.
       -2    1    3    3    0  502  0.32214340562E+02 -0.84002292859E+03  0.10886060991E+04  0.13754052215E+04  0.25500000920E-02 0. -1.
</event>
<event>
 5   0  0.5196696E-06  0.2406456E+04  0.7818609E-02  0.8437091E-01
       -1   -1    0    0    0  501  0.00000000000E+00  0.00000000000E+00  0.10069144271E+04  0.10069144271E+04  0.50400001928E-02 0. -1.
        1   -1    0    0  501    0  0.00000000000E+00  0.00000000000E+00 -0.14378156563E+04  0.14378156563E+04  0.50400001928E-02 0.  1.
    10030    2    1    2    0    0  0.00000000000E+00  0.00000000000E+00 -0.43090122921E+03  0.24447300834E+04  0.24064557572E+04 0.  0.
        1    1    3    3  502    0  0.65440235216E+03  0.54393320022E+03  0.64875640064E+03  0.10700423507E+04  0.50400001928E-02 0. -1.
       -1    1    3    3    0  502 -0.65440235216E+03 -0.54393320022E+03 -0.10796576299E+04  0.13746877327E+04  0.50400001928E-02 0.  1.
</event>
<event>
 5   0  0.5104174E-06  0.2385362E+04  0.7818609E-02  0.8445004E-01
       -1   -1    0    0    0  501  0.00000000000E+00  0.00000000000E+00  0.15099765101E+04  0.15099765101E+04  0.50400001928E-02 0.  1.
        1   -1    0    0  501    0  0.00000000000E+00  0.00000000000E+00 -0.94205980093E+03  0.94205980095E+03  0.50400001928E-02 0. -1.
    10030    2    1    2    0    0  0.00000000000E+00  0.00000000000E+00  0.56791670917E+03  0.24520363111E+04  0.23853621700E+04 0.  0.
        3    1    3    3  502    0 -0.36774290763E+03  0.66654954901E+03 -0.65983593346E+03  0.10074257376E+04  0.10100000352E+00 0. -1.
       -3    1    3    3    0  502  0.36774290763E+03 -0.66654954901E+03  0.12277526426E+04  0.14446105735E+04  0.10100000352E+00 0.  1.
</event>
<event>
 5   0  0.5034479E-06  0.2394696E+04  0.7818609E-02  0.8441492E-01
        1   -1    0    0  501    0  0.00000000000E+00  0.00000000000E+00  0.10936738945E+04  0.10936738945E+04  0.50400001928E-02 0. -1.
       -1   -1    0    0    0  501  0.00000000000E+00  0.00000000000E+00 -0.13108494415E+04  0.13108494415E+04  0.50400001928E-02 0.  1.
    10030    2    1    2    0    0  0.00000000000E+00  0.00000000000E+00 -0.21717554702E+03  0.24045233360E+04  0.23946956498E+04 0.  0.
        4    1    3    3  502    0 -0.14716373321E+03 -0.10363536639E+04 -0.69231176512E+03  0.12549833760E+04  0.12699999809E+01 0.  1.
       -4    1    3    3    0  502  0.14716373321E+03  0.10363536639E+04  0.47513621811E+03  0.11495399600E+04  0.12699999809E+01 0. -1.
</event>
<event>
 5   0  0.5104174E-06  0.2394217E+04  0.7818609E-02  0.8441672E-01
        1   -1    0    0  501    0  0.00000000000E+00  0.00000000000E+00  0.10095603138E+04  0.10095603138E+04  0.50400001928E-02 0. -1.
       -1   -1    0    0    0  501  0.00000000000E+00  0.00000000000E+00 -0.14194984848E+04  0.14194984848E+04  0.50400001928E-02 0.  1.
    10030    2    1    2    0    0  0.00000000000E+00  0.00000000000E+00 -0.40993817104E+03  0.24290587986E+04  0.23942174803E+04 0.  0.
        3    1    3    3  502    0 -0.27567574231E+03 -0.41592294885E+03  0.89902058571E+03  0.10282154628E+04  0.10100000352E+00 0. -1.
       -3    1    3    3    0  502  0.27567574231E+03  0.41592294885E+03 -0.13089587567E+04  0.14008433358E+04  0.10100000352E+00 0.  1.
</event>
<event>
 5   0  0.1174210E-05  0.2389510E+04  0.7818609E-02  0.8443441E-01
       -2   -1    0    0    0  501  0.00000000000E+00  0.00000000000E+00  0.17276967814E+04  0.17276967814E+04  0.25500000920E-02 0.  1.
        2   -1    0    0  501    0  0.00000000000E+00  0.00000000000E+00 -0.82620937109E+03  0.82620937110E+03  0.25500000920E-02 0. -1.
    10030    2    1    2    0    0  0.00000000000E+00  0.00000000000E+00  0.90148741028E+03  0.25539061525E+04  0.23895098001E+04 0.  0.
        3    1    3    3  502    0 -0.63697914536E+03 -0.95860738750E+03  0.10811277724E+03  0.11560099211E+04  0.10100000352E+00 0. -1.
       -3    1    3    3    0  502  0.63697914536E+03  0.95860738750E+03  0.79337463304E+03  0.13978962313E+04  0.10100000352E+00 0.  1.
</event>
<event>
 5   0  0.5064437E-06  0.2393453E+04  0.7818609E-02  0.8441959E-01
        1   -1    0    0  501    0  0.00000000000E+00  0.00000000000E+00  0.17577354402E+04  0.17577354402E+04  0.50400001928E-02 0.  1.
       -1   -1    0    0    0  501  0.00000000000E+00  0.00000000000E+00 -0.81477232372E+03  0.81477232374E+03  0.50400001928E-02 0. -1.
    10030    2    1    2    0    0  0.00000000000E+00  0.00000000000E+00  0.94296311646E+03  0.25725077639E+04  0.23934528941E+04 0.  0.
        2    1    3    3  502    0  0.60505399370E+03 -0.91539028649E+03  0.98483650690E+03  0.14744262129E+04  0.25500000920E-02 0.  1.
       -2    1    3    3    0  502 -0.60505399370E+03  0.91539028649E+03 -0.41873390443E+02  0.10980815510E+04  0.25500000920E-02 0. -1.
</event>
<event>
 5   0  0.1168435E-05  0.2387380E+04  0.7818609E-02  0.8444244E-01
       -2   -1    0    0    0  501  0.00000000000E+00  0.00000000000E+00  0.87461020642E+03  0.87461020642E+03  0.25500000920E-02 0.  1.
        2   -1    0    0  501    0  0.00000000000E+00  0.00000000000E+00 -0.16291775854E+04  0.16291775854E+04  0.25500000920E-02 0. -1.
    10030    2    1    2    0    0  0.00000000000E+00  0.00000000000E+00 -0.75456737899E+03  0.25037877918E+04  0.23873796047E+04 0.  0.
        1    1    3    3  502    0  0.11475439748E+04  0.27546655821E+03 -0.56534929663E+03  0.13085712919E+04  0.50400001928E-02 0. -1.
       -1    1    3    3    0  502 -0.11475439748E+04 -0.27546655821E+03 -0.18921808236E+03  0.11952164999E+04  0.50400001928E-02 0.  1.
</event>
<event>
 5   0  0.5064437E-06  0.2402875E+04  0.7818609E-02  0.8438428E-01
       -1   -1    0    0    0  501  0.00000000000E+00  0.00000000000E+00  0.63371979894E+03  0.63371979896E+03  0.50400001928E-02 0. -1.
        1   -1    0    0  501    0  0.00000000000E+00  0.00000000000E+00 -0.22777448806E+04  0.22777448806E+04  0.50400001928E-02 0.  1.
    10030    2    1    2    0    0  0.00000000000E+00  0.00000000000E+00 -0.16440250817E+04  0.29114646796E+04  0.24028749679E+04 0.  0.
        2    1    3    3  502    0  0.11085567117E+04 -0.23613559773E+03 -0.33917900156E+03  0.11830893452E+04  0.25500000920E-02 0. -1.
       -2    1    3    3    0  502 -0.11085567117E+04  0.23613559773E+03 -0.13048460801E+04  0.17283753344E+04  0.25500000920E-02 0.  1.
</event>
<event>
 5   0  0.5104174E-06  0.2399060E+04  0.7818609E-02  0.8439855E-01
        1   -1    0    0  501    0  0.00000000000E+00  0.00000000000E+00  0.14300012503E+04  0.14300012503E+04  0.50400001928E-02 0.  1.
       -1   -1    0    0    0  501  0.00000000000E+00  0.00000000000E+00 -0.10062037516E+04  0.10062037516E+04  0.50400001928E-02 0. -1.
    10030    2    1    2    0    0  0.00000000000E+00  0.00000000000E+00  0.42379749877E+03  0.24362050019E+04  0.23990603351E+04 0.  0.
        3    1    3    3  502    0  0.33931515153E+03 -0.10560659432E+04 -0.25174744346E+03  0.11374475082E+04  0.10100000352E+00 0.  1.
       -3    1    3    3    0  502 -0.33931515153E+03  0.10560659432E+04  0.67554494223E+03  0.12987574937E+04  0.10100000352E+00 0. -1.
</event>
<event>
 5   0  0.1154897E-05  0.2392694E+04  0.7818609E-02  0.8442244E-01
       -2   -1    0    0    0  501  0.00000000000E+00  0.00000000000E+00  0.94346468009E+03  0.94346468010E+03  0.25500000920E-02 0.  1.
        2   -1    0    0  501    0  0.00000000000E+00  0.00000000000E+00 -0.15170114459E+04  0.15170114459E+04  0.25500000920E-02 0. -1.
    10030    2    1    2    0    0  0.00000000000E+00  0.00000000000E+00 -0.57354676579E+03  0.24604761260E+04  0.23926944799E+04 0.  0.
        4    1    3    3  502    0  0.57290227248E+02  0.95396484044E+03 -0.10268228343E+04  0.14027465319E+04  0.12699999809E+01 0. -1.
       -4    1    3    3    0  502 -0.57290227248E+02 -0.95396484044E+03  0.45327606851E+03  0.10577295940E+04  0.12699999809E+01 0.  1.
</event>
<event>
 5   0  0.5034479E-06  0.2383629E+04  0.7818609E-02  0.8445658E-01
        1   -1    0    0  501    0  0.00000000000E+00  0.00000000000E+00  0.13451112576E+04  0.13451112576E+04  0.50400001928E-02 0.  1.
       -1   -1    0    0    0  501  0.00000000000E+00  0.00000000000E+00 -0.10559881343E+04  0.10559881343E+04  0.50400001928E-02 0. -1.
    10030    2    1    2    0    0  0.00000000000E+00  0.00000000000E+00  0.28912312333E+03  0.24010993919E+04  0.23836287692E+04 0.  0.
        4    1    3    3  502    0  0.88785361693E+03 -0.64416711406E+03  0.61400798159E+03  0.12570770582E+04  0.12699999809E+01 0. -1.
       -4    1    3    3    0  502 -0.88785361693E+03  0.64416711406E+03 -0.32488485826E+03  0.11440223337E+04  0.12699999809E+01 0.  1.
</event>
<event>
 5   0  0.1169371E-05  0.2396673E+04  0.7818609E-02  0.8440750E-01
       -2   -1    0    0    0  501  0.00000000000E+00  0.00000000000E+00  0.63155997583E+03  0.63155997584E+03  0.25500000920E-02 0. -1.
        2   -1    0    0  501    0  0.00000000000E+00  0.00000000000E+00 -0.22737513817E+04  0.22737513817E+04  0.25500000920E-02 0.  1.
    10030    2    1    2    0    0  0.00000000000E+00  0.00000000000E+00 -0.16421914059E+04  0.29053113576E+04  0.23966730004E+04 0.  0.
        2    1    3    3  502    0 -0.64761684802E+03 -0.53218554440E+03 -0.18592187290E+04  0.20394419133E+04  0.25500000920E-02 0.  1.
       -2    1    3    3    0  502  0.64761684802E+03  0.53218554440E+03  0.21702732311E+03  0.86586944425E+03  0.25500000920E-02 0. -1.
</event>
<event>
 5   0  0.5042742E-06  0.2406410E+04  0.7818609E-02  0.8437108E-01
       -1   -1    0    0    0  501  0.00000000000E+00  0.00000000000E+00  0.10626691280E+04  0.10626691280E+04  0.50400001928E-02 0.  1.
        1   -1    0    0  501    0  0.00000000000E+00  0.00000000000E+00 -0.13623265315E+04  0.13623265315E+04  0.50400001928E-02 0. -1.
    10030    2    1    2    0    0  0.00000000000E+00  0.00000000000E+00 -0.29965740353E+03  0.24249956595E+04  0.24064100625E+04 0.  0.
        5    1    3    3  502    0  0.75898378195E+03  0.75308144491E+03 -0.70589865138E+03  0.12812115516E+04  0.46999998093E+01 0. -1.
       -5    1    3    3    0  502 -0.75898378195E+03 -0.75308144491E+03  0.40624124785E+03  0.11437841079E+04  0.46999998093E+01 0.  1.
</event>
<event>
 5   0  0.1174210E-05  0.2405833E+04  0.7818609E-02  0.8437323E-01
        2   -1    0    0  501    0  0.00000000000E+00  0.00000000000E+00  0.13920484845E+04  0.13920484845E+04  0.25500000920E-02 0. -1.
       -2   -1    0    0    0  501  0.00000000000E+00  0.00000000000E+00 -0.10394807764E+04  0.10394807764E+04  0.25500000920E-02 0.  1.
    10030    2    1    2    0    0  0.00000000000E+00  0.00000000000E+00  0.35256770812E+03  0.24315292610E+04  0.24058326123E+04 0.  0.
        3    1    3    3  502    0 -0.71671407314E+03 -0.88403398400E+03  0.57007670964E+03  0.12728639411E+04  0.10100000352E+00 0. -1.
       -3    1    3    3    0  502  0.71671407314E+03  0.88403398400E+03 -0.21750900152E+03  0.11586653199E+04  0.10100000352E+00 0.  1.
</event>
<event>
 5   0  0.5064437E-06  0.2391632E+04  0.7818609E-02  0.8442643E-01
        1   -1    0    0  501    0  0.00000000000E+00  0.00000000000E+00  0.12392630131E+04  0.12392630131E+04  0.50400001928E-02 0. -1.
       -1   -1    0    0    0  501  0.00000000000E+00  0.00000000000E+00 -0.11538925737E+04  0.11538925737E+04  0.50400001928E-02 0.  1.
    10030    2    1    2    0    0  0.00000000000E+00  0.00000000000E+00  0.85370439393E+02  0.23931555867E+04  0.23916324029E+04 0.  0.
        2    1    3    3  502    0  0.60389881955E+03  0.10252136761E+04  0.16200680106E+03  0.12008343222E+04  0.25500000920E-02 0.  1.
       -2    1    3    3    0  502 -0.60389881955E+03 -0.10252136761E+04 -0.76636361665E+02  0.11923212645E+04  0.25500000920E-02 0. -1.
</event>
<event>
 5   0  0.1169371E-05  0.2366917E+04  0.7818609E-02  0.8451994E-01
        2   -1    0    0  501    0  0.00000000000E+00  0.00000000000E+00  0.18669308005E+04  0.18669308005E+04  0.25500000920E-02 0.  1.
       -2   -1    0    0    0  501  0.00000000000E+00  0.00000000000E+00 -0.75020163657E+03  0.75020163657E+03  0.25500000920E-02 0. -1.
    10030    2    1    2    0    0  0.00000000000E+00  0.00000000000E+00  0.11167291639E+04  0.26171324370E+04  0.23669174399E+04 0.  0.
        2    1    3    3  502    0 -0.14441329488E+03  0.51335097541E+03 -0.60982055735E+03  0.81010217619E+03  0.25500000920E-02 0. -1.
       -2    1    3    3    0  502  0.14441329488E+03 -0.51335097541E+03  0.17265497212E+04  0.18070302608E+04  0.25500000920E-02 0.  1.
</event>
<event>
 5   0  0.1168435E-05  0.2395411E+04  0.7818609E-02  0.8441224E-01
        2   -1    0    0  501    0  0.00000000000E+00  0.00000000000E+00  0.13822111259E+04  0.13822111259E+04  0.25500000920E-02 0.  1.
       -2   -1    0    0    0  501  0.00000000000E+00  0.00000000000E+00 -0.10378289304E+04  0.10378289304E+04  0.25500000920E-02 0. -1.
    10030    2    1    2    0    0  0.00000000000E+00  0.00000000000E+00  0.34438219558E+03  0.24200400563E+04  0.23954111917E+04 0.  0.
        1    1    3    3  502    0  0.10240823713E+04  0.54644120683E+03  0.47044842512E+03  0.12524633394E+04  0.50400001928E-02 0.  1.
       -1    1    3    3    0  502 -0.10240823713E+04 -0.54644120683E+03 -0.12606622954E+03  0.11675767169E+04  0.50400001928E-02 0. -1.
</event>
<event>
 5   0  0.5104174E-06  0.2393059E+04  0.7818609E-02  0.8442107E-01
       -1   -1    0    0    0  501  0.00000000000E+00  0.00000000000E+00  0.98963678716E+03  0.98963678717E+03  0.50400001928E-02 0. -1.
        1   -1    0    0  501    0  0.00000000000E+00  0.00000000000E+00 -0.14466746772E+04  0.14466746773E+04  0.50400001928E-02 0.  1.
    10030    2    1    2    0    0  0.00000000000E+00  0.00000000000E+00 -0.45703789008E+03  0.24363114644E+04  0.23930586952E+04 0.  0.
        3    1    3    3  502    0 -0.64275438574E+03 -0.48014475794E+03 -0.11322628883E+04  0.13876928505E+04  0.10100000352E+00 0.  1.
       -3    1    3    3    0  502  0.64275438574E+03  0.48014475794E+03  0.67522499823E+03  0.10486186139E+04  0.10100000352E+00 0. -1.
</event>
<event>
 5   0  0.5034479E-06  0.2247375E+04  0.7818609E-02  0.8498964E-01
        1   -1    0    0  501    0  0.00000000000E+00  0.00000000000E+00  0.16490318863E+04  0.16490318864E+04  0.50400001928E-02 0.  1.
       -1   -1    0    0    0  501  0.00000000000E+00  0.00000000000E+00 -0.76570608361E+03  0.76570608363E+03  0.50400001928E-02 0. -1.
    10030    2    1    2    0    0  0.00000000000E+00  0.00000000000E+00  0.88332580274E+03  0.24147379700E+04  0.22473751333E+04 0.  0.
        4    1    3    3  502    0  0.80948112017E+02  0.90399442455E+03 -0.27017968749E+03  0.94697264633E+03  0.12699999809E+01 0. -1.
       -4    1    3    3    0  502 -0.80948112017E+02 -0.90399442455E+03  0.11535054902E+04  0.14677653237E+04  0.12699999809E+01 0.  1.
</event>
<event>
 5   0  0.1169371E-05  0.2391750E+04  0.7818609E-02  0.8442599E-01
        2   -1    0    0  501    0  0.00000000000E+00  0.00000000000E+00  0.16210895619E+04  0.16210895619E+04  0.25500000920E-02 0.  1.
       -2   -1    0    0    0  501  0.00000000000E+00  0.00000000000E+00 -0.88219509777E+03  0.88219509777E+03  0.25500000920E-02 0. -1.
    10030    2    1    2    0    0  0.00000000000E+00  0.00000000000E+00  0.73889446415E+03  0.25032846597E+04  0.23917502082E+04 0.  0.
        2    1    3    3  502    0  0.41415039054E+03  0.11108952887E+04  0.53329920925E+03  0.13000065134E+04  0.25500000920E-02 0.  1.
       -2    1    3    3    0  502 -0.41415039054E+03 -0.11108952887E+04  0.20559525490E+03  0.12032781462E+04  0.25500000920E-02 0. -1.
</event>
<event>
 5   0  0.1154897E-05  0.2402053E+04  0.7818609E-02  0.8438735E-01
       -2   -1    0    0    0  501  0.00000000000E+00  0.00000000000E+00  0.52028105061E+03  0.52028105062E+03  0.25500000920E-02 0. -1.
        2   -1    0    0  501    0  0.00000000000E+00  0.00000000000E+00 -0.27724727109E+04  0.27724727109E+04  0.25500000920E-02 0.  1.
    10030    2    1    2    0    0  0.00000000000E+00  0.00000000000E+00 -0.22521916603E+04  0.32927537616E+04  0.24020533007E+04 0.  0.
        4    1    3    3  502    0  0.98501354021E+03  0.49240305480E+03 -0.46903544921E+03  0.11969579392E+04  0.12699999809E+01 0. -1.
       -4    1    3    3    0  502 -0.98501354021E+03 -0.49240305480E+03 -0.17831562111E+04  0.20957958223E+04  0.12699999809E+01 0.  1.
</event>
<event>
 5   0  0.1174210E-05  0.2397105E+04  0.7818609E-02  0.8440588E-01
       -2   -1    0    0    0  501  0.00000000000E+00  0.00000000000E+00  0.58794704015E+03  0.58794704016E+03  0.25500000920E-02 0. -1.
        2   -1    0    0  501    0  0.00000000000E+00  0.00000000000E+00 -0.24432941837E+04  0.24432941837E+04  0.25500000920E-02 0.  1.
    10030    2    1    2    0    0  0.00000000000E+00  0.00000000000E+00 -0.18553471436E+04  0.30312412239E+04  0.23971045731E+04 0.  0.
        3    1    3    3  502    0 -0.72140799645E+03  0.73312681813E+03 -0.14957055849E+03  0.10393631661E+04  0.10100000352E+00 0. -1.
       -3    1    3    3    0  502  0.72140799645E+03 -0.73312681813E+03 -0.17057765851E+04  0.19918780578E+04  0.10100000352E+00 0.  1.
</event>
<event>
 5   0  0.1198313E-05  0.2418542E+04  0.7818609E-02  0.8432594E-01
       -2   -1    0    0    0  501  0.00000000000E+00  0.00000000000E+00  0.11175181137E+04  0.11175181137E+04  0.25500000920E-02 0.  1.
        2   -1    0    0  501    0  0.00000000000E+00  0.00000000000E+00 -0.13085572242E+04  0.13085572242E+04  0.25500000920E-02 0. -1.
    10030    2    1    2    0    0  0.00000000000E+00  0.00000000000E+00 -0.19103911046E+03  0.24260753379E+04  0.24185420409E+04 0.  0.
        5    1    3    3  502    0  0.25829269065E+03  0.41203173294E+03  0.10151007166E+04  0.11255828791E+04  0.46999998093E+01 0.  1.
       -5    1    3    3    0  502 -0.25829269065E+03 -0.41203173294E+03 -0.12061398270E+04  0.13004924588E+04  0.46999998093E+01 0. -1.
</event>
<event>
 5   0  0.5034479E-06  0.2403053E+04  0.7818609E-02  0.8438361E-01
       -1   -1    0    0    0  501  0.00000000000E+00  0.00000000000E+00  0.17700400120E+04  0.17700400120E+04  0.50400001928E-02 0.  1.
        1   -1    0    0  501    0  0.00000000000E+00  0.00000000000E+00 -0.81561200886E+03  0.81561200887E+03  0.50400001928E-02 0. -1.
    10030    2    1    2    0    0  0.00000000000E+00  0.00000000000E+00  0.95442800317E+03  0.25856520209E+04  0.24030529665E+04 0.  0.
        4    1    3    3  502    0  0.84302823134E+03 -0.75795403003E+03  0.90555029629E+03  0.14509355129E+04  0.12699999809E+01 0.  1.
       -4    1    3    3    0  502 -0.84302823134E+03  0.75795403003E+03  0.48877706873E+02  0.11347165080E+04  0.12699999809E+01 0. -1.
</event>
<event>
 5   0  0.5042742E-06  0.2412302E+04  0.7818609E-02  0.8434912E-01
       -1   -1    0    0    0  501  0.00000000000E+00  0.00000000000E+00  0.70838415119E+03  0.70838415121E+03  0.50400001928E-02 0.  1.
        1   -1    0    0  501    0  0.00000000000E+00  0.00000000000E+00 -0.20536876947E+04  0.20536876947E+04  0.50400001928E-02 0. -1.
    10030    2    1    2    0    0  0.00000000000E+00  0.00000000000E+00 -0.13453035435E+04  0.27620718459E+04  0.24123016515E+04 0.  0.
        5    1    3    3  502    0 -0.91829100822E+03 -0.99536108425E+02 -0.15607511586E+04  0.18135964495E+04  0.46999998093E+01 0. -1.
       -5    1    3    3    0  502  0.91829100822E+03  0.99536108425E+02  0.21544761511E+03  0.94847539637E+03  0.46999998093E+01 0.  1.
</event>
<event>
 5   0  0.5196696E-06  0.2394933E+04  0.7818609E-02  0.8441403E-01
        1   -1    0    0  501    0  0.00000000000E+00  0.00000000000E+00  0.18642049411E+04  0.18642049411E+04  0.50400001928E-02 0.  1.
       -1   -1    0    0    0  501  0.00000000000E+00  0.00000000000E+00 -0.76918876651E+03  0.76918876652E+03  0.50400001928E-02 0. -1.
    10030    2    1    2    0    0  0.00000000000E+00  0.00000000000E+00  0.10950161746E+04  0.26333937076E+04  0.23949325662E+04 0.  0.
        1    1    3    3  502    0  0.34130452395E+03 -0.34203094290E+03 -0.65723605469E+03  0.81574087526E+03  0.50400001928E-02 0. -1.
       -1    1    3    3    0  502 -0.34130452395E+03  0.34203094290E+03  0.17522522293E+04  0.18176528324E+04  0.50400001928E-02 0.  1.
</event>
<event>
 5   0  0.1154897E-05  0.2402370E+04  0.7818609E-02  0.8438617E-01
        2   -1    0    0  501    0  0.00000000000E+00  0.00000000000E+00  0.21105203751E+04  0.21105203751E+04  0.25500000920E-02 0. -1.
       -2   -1    0    0    0  501  0.00000000000E+00  0.00000000000E+00 -0.68364441753E+03  0.68364441753E+03  0.25500000920E-02 0.  1.
    10030    2    1    2    0    0  0.00000000000E+00  0.00000000000E+00  0.14268759576E+04  0.27941647926E+04  0.24023700569E+04 0.  0.
        4    1    3    3  502    0  0.34202862254E+03  0.70051381050E+03  0.17763368111E+04  0.19398652677E+04  0.12699999809E+01 0. -1.
       -4    1    3    3    0  502 -0.34202862254E+03 -0.70051381050E+03 -0.34946085352E+03  0.85429952498E+03  0.12699999809E+01 0.  1.
</event>
<event>
 5   0  0.1154897E-05  0.2402741E+04  0.7818609E-02  0.8438478E-01
       -2   -1    0    0    0  501  0.00000000000E+00  0.00000000000E+00  0.11159265298E+04  0.11159265298E+04  0.25500000920E-02 0. -1.
        2   -1    0    0  501    0  0.00000000000E+00  0.00000000000E+00 -0.12933570874E+04  0.12933570874E+04  0.25500000920E-02 0.  1.
    10030    2    1    2    0    0  0.00000000000E+00  0.00000000000E+00 -0.17743055761E+03  0.24092836172E+04  0.24027413397E+04 0.  0.
        4    1    3    3  502    0  0.18157400049E+03  0.36870570932E+03  0.10432415002E+04  0.11212793846E+04  0.12699999809E+01 0. -1.
       -4    1    3    3    0  502 -0.18157400049E+03 -0.36870570932E+03 -0.12206720578E+04  0.12880042326E+04  0.12699999809E+01 0.  1.
</event>
<event>
 5   0  0.4067750E-06  0.2404778E+04  0.7818609E-02  0.8437717E-01
       -3   -1    0    0    0  501  0.00000000000E+00  0.00000000000E+00  0.99919640283E+03  0.99919640794E+03  0.10100000352E+00 0. -1.
        3   -1    0    0  501    0  0.00000000000E+00  0.00000000000E+00 -0.14469015307E+04  0.14469015343E+04  0.10100000352E+00 0.  1.
    10030    2    1    2    0    0  0.00000000000E+00  0.00000000000E+00 -0.44770512790E+03  0.24460979422E+04  0.24047775908E+04 0.  0.
        4    1    3    3  502    0 -0.50025705041E+03 -0.10933115097E+04 -0.21139347973E+03  0.12207686062E+04  0.12699999809E+01 0. -1.
       -4    1    3    3    0  502  0.50025705041E+03  0.10933115097E+04 -0.23631164818E+03  0.12253293360E+04  0.12699999809E+01 0.  1.
</event>
<event>
 5   0  0.1169371E-05  0.2407913E+04  0.7818609E-02  0.8436547E-01
        2   -1    0    0  501    0  0.00000000000E+00  0.00000000000E+00  0.14364962977E+04  0.14364962977E+04  0.25500000920E-02 0.  1.
       -2   -1    0    0    0  501  0.00000000000E+00  0.00000000000E+00 -0.10090606223E+04  0.10090606223E+04  0.25500000920E-02 0. -1.
    10030    2    1    2    0    0  0.00000000000E+00  0.00000000000E+00  0.42743567536E+03  0.24455569201E+04  0.24079134936E+04 0.  0.
        2    1    3    3  502    0  0.10117786118E+03  0.98876617741E+03 -0.47632726702E+03  0.11021720276E+04  0.25500000920E-02 0. -1.
       -2    1    3    3    0  502 -0.10117786118E+03 -0.98876617741E+03  0.90376294238E+03  0.13433848924E+04  0.25500000920E-02 0.  1.
</event>
<event>
 5   0  0.5064437E-06  0.2401614E+04  0.7818609E-02  0.8438900E-01
       -1   -1    0    0    0  501  0.00000000000E+00  0.00000000000E+00  0.14008082585E+04  0.14008082585E+04  0.50400001928E-02 0. -1.
        1   -1    0    0  501    0  0.00000000000E+00  0.00000000000E+00 -0.10293606482E+04  0.10293606482E+04  0.50400001928E-02 0.  1.
    10030    2    1    2    0    0  0.00000000000E+00  0.00000000000E+00  0.37144761031E+03  0.24301689067E+04  0.24016135384E+04 0.  0.
        2    1    3    3  502    0 -0.27123208362E+03 -0.54123150370E+03  0.12350877288E+04  0.13754781283E+04  0.25500000920E-02 0. -1.
       -2    1    3    3    0  502  0.27123208362E+03  0.54123150370E+03 -0.86364011845E+03  0.10546907784E+04  0.25500000920E-02 0.  1.
</event>
<event>
 5   0  0.5104174E-06  0.2400480E+04  0.7818609E-02  0.8439324E-01
        1   -1    0    0  501    0  0.00000000000E+00  0.00000000000E+00  0.14232383031E+04  0.14232383031E+04  0.50400001928E-02 0. -1.
       -1   -1    0    0    0  501  0.00000000000E+00  0.00000000000E+00 -0.10121817255E+04  0.10121817255E+04  0.50400001928E-02 0.  1.
    10030    2    1    2    0    0  0.00000000000E+00  0.00000000000E+00  0.41105657757E+03  0.24354200287E+04  0.24004797866E+04 0.  0.
        3    1    3    3  502    0 -0.38318079577E+03  0.36371717404E+03 -0.88786798872E+03  0.10331637240E+04  0.10100000352E+00 0.  1.
       -3    1    3    3    0  502  0.38318079577E+03 -0.36371717404E+03  0.12989245663E+04  0.14022563047E+04  0.10100000352E+00 0. -1.
</event>
<event>
 5   0  0.1198313E-05  0.2401949E+04  0.7818609E-02  0.8438774E-01
       -2   -1    0    0    0  501  0.00000000000E+00  0.00000000000E+00  0.77242100879E+03  0.77242100880E+03  0.25500000920E-02 0.  1.
        2   -1    0    0  501    0  0.00000000000E+00  0.00000000000E+00 -0.18672976083E+04  0.18672976083E+04  0.25500000920E-02 0. -1.
    10030    2    1    2    0    0  0.00000000000E+00  0.00000000000E+00 -0.10948765995E+04  0.26397186171E+04  0.24019491271E+04 0.  0.
        5    1    3    3  502    0  0.61882562063E+03  0.93727968089E+03 -0.80038565714E+02  0.11259958308E+04  0.46999998093E+01 0.  1.
       -5    1    3    3    0  502 -0.61882562063E+03 -0.93727968089E+03 -0.10148380338E+04  0.15137227863E+04  0.46999998093E+01 0. -1.
</event>
<event>
 5   0  0.1168435E-05  0.2401455E+04  0.7818609E-02  0.8438959E-01
        2   -1    0    0  501    0  0.00000000000E+00  0.00000000000E+00  0.13785362101E+04  0.13785362101E+04  0.25500000920E-02 0.  1.
       -2   -1    0    0    0  501  0.00000000000E+00  0.00000000000E+00 -0.10458534396E+04  0.10458534396E+04  0.25500000920E-02 0. -1.
    10030    2    1    2    0    0  0.00000000000E+00  0.00000000000E+00  0.33268277054E+03  0.24243896497E+04  0.24014552562E+04 0.  0.
        1    1    3    3  502    0  0.27248840351E+03 -0.10054121987E+04 -0.43655809097E+03  0.11294629636E+04  0.50400001928E-02 0. -1.
       -1    1    3    3    0  502 -0.27248840351E+03  0.10054121987E+04  0.76924086151E+03  0.12949266861E+04  0.50400001928E-02 0.  1.
</event>
<event>
 5   0  0.5034479E-06  0.2388068E+04  0.7818609E-02  0.8443984E-01
        1   -1    0    0  501    0  0.00000000000E+00  0.00000000000E+00  0.10738468429E+04  0.10738468429E+04  0.50400001928E-02 0.  1.
       -1   -1    0    0    0  501  0.00000000000E+00  0.00000000000E+00 -0.13276728162E+04  0.13276728162E+04  0.50400001928E-02 0. -1.
    10030    2    1    2    0    0  0.00000000000E+00  0.00000000000E+00 -0.25382597326E+03  0.24015196591E+04  0.23880680577E+04 0.  0.
        4    1    3    3  502    0 -0.11344605693E+04  0.35295038310E+03 -0.73276680809E+01  0.11881203911E+04  0.12699999809E+01 0.  1.
       -4    1    3    3    0  502  0.11344605693E+04 -0.35295038310E+03 -0.24649830518E+03  0.12133992680E+04  0.12699999809E+01 0. -1.
</event>
<event>
 5   0  0.5034479E-06  0.2401646E+04  0.7818609E-02  0.8438887E-01
       -1   -1    0    0    0  501  0.00000000000E+00  0.00000000000E+00  0.10460730341E+04  0.10460730341E+04  0.50400001928E-02 0. -1.
        1   -1    0    0  501    0  0.00000000000E+00  0.00000000000E+00 -0.13784661455E+04  0.13784661455E+04  0.50400001928E-02 0.  1.
    10030    2    1    2    0    0  0.00000000000E+00  0.00000000000E+00 -0.33239311145E+03  0.24245391796E+04  0.24016463214E+04 0.  0.
        4    1    3    3  502    0  0.44668484751E+02  0.10975566534E+04  0.32355533467E+03  0.11451268700E+04  0.12699999809E+01 0. -1.
       -4    1    3    3    0  502 -0.44668484751E+02 -0.10975566534E+04 -0.65594844611E+03  0.12794123096E+04  0.12699999809E+01 0.  1.
</event>
<event>
 5   0  0.5042742E-06  0.2404244E+04  0.7818609E-02  0.8437917E-01
        1   -1    0    0  501    0  0.00000000000E+00  0.00000000000E+00  0.12342555022E+04  0.12342555022E+04  0.50400001928E-02 0. -1.
       -1   -1    0    0    0  501  0.00000000000E+00  0.00000000000E+00 -0.11708246584E+04  0.11708246584E+04  0.50400001928E-02 0.  1.
    10030    2    1    2    0    0  0.00000000000E+00  0.00000000000E+00  0.63430843871E+02  0.24050801606E+04  0.24042435623E+04 0.  0.
        5    1    3    3  502    0  0.29774099838E+03  0.70320109816E+03 -0.89701120833E+03  0.11780461300E+04  0.46999998093E+01 0.  1.
       -5    1    3    3    0  502 -0.29774099838E+03 -0.70320109816E+03  0.96044205220E+03  0.12270340306E+04  0.46999998093E+01 0. -1.
</event>
<event>
 5   0  0.1154897E-05  0.2277925E+04  0.7818609E-02  0.8486676E-01
        2   -1    0    0  501    0  0.00000000000E+00  0.00000000000E+00  0.18442969515E+04  0.18442969515E+04  0.25500000920E-02 0.  1.
       -2   -1    0    0    0  501  0.00000000000E+00  0.00000000000E+00 -0.70337692215E+03  0.70337692215E+03  0.25500000920E-02 0. -1.
    10030    2    1    2    0    0  0.00000000000E+00  0.00000000000E+00  0.11409200294E+04  0.25476738737E+04  0.22779252958E+04 0.  0.
        4    1    3    3  502    0  0.13102615969E+03 -0.97656543597E+03  0.12094151720E+04  0.15599790308E+04  0.12699999809E+01 0.  1.
       -4    1    3    3    0  502 -0.13102615969E+03  0.97656543597E+03 -0.68495142624E+02  0.98769484292E+03  0.12699999809E+01 0. -1.
</event>
<event>
 5   0  0.5042742E-06  0.2404182E+04  0.7818609E-02  0.8437939E-01
       -1   -1    0    0    0  501  0.00000000000E+00  0.00000000000E+00  0.84497957142E+03  0.84497957144E+03  0.50400001928E-02 0. -1.
        1   -1    0    0  501    0  0.00000000000E+00  0.00000000000E+00 -0.17101280503E+04  0.17101280503E+04  0.50400001928E-02 0.  1.
    10030    2    1    2    0    0  0.00000000000E+00  0.00000000000E+00 -0.86514847884E+03  0.25551076217E+04  0.24041824116E+04 0.  0.
        5    1    3    3  502    0 -0.18259726130E+03  0.43167843900E+03  0.74385369317E+03  0.87922035996E+03  0.46999998093E+01 0. -1.
       -5    1    3    3    0  502  0.18259726130E+03 -0.43167843900E+03 -0.16090021720E+04  0.16758872617E+04  0.46999998093E+01 0.  1.
</event>
<event>
 5   0  0.1174210E-05  0.2404270E+04  0.7818609E-02  0.8437907E-01
       -2   -1    0    0    0  501  0.00000000000E+00  0.00000000000E+00  0.11126657466E+04  0.11126657466E+04  0.25500000920E-02 0.  1.
        2   -1    0    0  501    0  0.00000000000E+00  0.00000000000E+00 -0.12987985749E+04  0.12987985749E+04  0.25500000920E-02 0. -1.
    10030    2    1    2    0    0  0.00000000000E+00  0.00000000000E+00 -0.18613282834E+03  0.24114643215E+04  0.24042701063E+04 0.  0.
        3    1    3    3  502    0 -0.25530504914E+03 -0.41453574004E+03  0.10093622258E+04  0.11206393982E+04  0.10100000352E+00 0.  1.
       -3    1    3    3    0  502  0.25530504914E+03  0.41453574004E+03 -0.11954950541E+04  0.12908249232E+04  0.10100000352E+00 0. -1.
</event>
<event>
 5   0  0.1174210E-05  0.2397307E+04  0.7818609E-02  0.8440512E-01
        2   -1    0    0  501    0  0.00000000000E+00  0.00000000000E+00  0.27102973884E+04  0.27102973884E+04  0.25500000920E-02 0. -1.
       -2   -1    0    0    0  501  0.00000000000E+00  0.00000000000E+00 -0.53011531926E+03  0.53011531927E+03  0.25500000920E-02 0.  1.
    10030    2    1    2    0    0  0.00000000000E+00  0.00000000000E+00  0.21801820692E+04  0.32404127077E+04  0.23973069602E+04 0.  0.
        3    1    3    3  502    0 -0.97309540849E+03 -0.52948109535E+03  0.17087825160E+04  0.20364681686E+04  0.10100000352E+00 0. -1.
       -3    1    3    3    0  502  0.97309540849E+03  0.52948109535E+03  0.47139955313E+03  0.12039445391E+04  0.10100000352E+00 0.  1.
</event>
<event>
 5   0  0.4067750E-06  0.2391451E+04  0.7818609E-02  0.8442711E-01
       -3   -1    0    0    0  501  0.00000000000E+00  0.00000000000E+00  0.10157759652E+04  0.10157759702E+04  0.10100000352E+00 0.  1.
        3   -1    0    0  501    0  0.00000000000E+00  0.00000000000E+00 -0.14075534835E+04  0.14075534871E+04  0.10100000352E+00 0. -1.
    10030    2    1    2    0    0  0.00000000000E+00  0.00000000000E+00 -0.39177751826E+03  0.24233294573E+04  0.23914506131E+04 0.  0.
        3    1    3    3  502    0  0.52504405765E+03  0.10686848576E+04 -0.30689543775E+03  0.12296110797E+04  0.10100000352E+00 0. -1.
       -3    1    3    3    0  502 -0.52504405765E+03 -0.10686848576E+04 -0.84882080505E+02  0.11937183777E+04  0.10100000352E+00 0.  1.
</event>
<event>
 5   0  0.5042742E-06  0.2352260E+04  0.7818609E-02  0.8457596E-01
       -1   -1    0    0    0  501  0.00000000000E+00  0.00000000000E+00  0.98055706449E+03  0.98055706450E+03  0.50400001928E-02 0.  1.
        1   -1    0    0  501    0  0.00000000000E+00  0.00000000000E+00 -0.14107095999E+04  0.14107095999E+04  0.50400001928E-02 0. -1.
    10030    2    1    2    0    0  0.00000000000E+00  0.00000000000E+00 -0.43015253538E+03  0.23912666644E+04  0.23522595640E+04 0.  0.
        5    1    3    3  502    0 -0.17419802815E+03  0.98266805481E+03  0.41755990506E+03  0.10818316982E+04  0.46999998093E+01 0.  1.
       -5    1    3    3    0  502  0.17419802815E+03 -0.98266805481E+03 -0.84771244043E+03  0.13094349662E+04  0.46999998093E+01 0. -1.
</event>
<event>
 5   0  0.1174210E-05  0.2397198E+04  0.7818609E-02  0.8440553E-01
       -2   -1    0    0    0  501  0.00000000000E+00  0.00000000000E+00  0.61510202425E+03  0.61510202425E+03  0.25500000920E-02 0.  1.
        2   -1    0    0  501    0  0.00000000000E+00  0.00000000000E+00 -0.23356117098E+04  0.23356117098E+04  0.25500000920E-02 0. -1.
    10030    2    1    2    0    0  0.00000000000E+00  0.00000000000E+00 -0.17205096855E+04  0.29507137340E+04  0.23971979397E+04 0.  0.
        3    1    3    3  502    0  0.11678860834E+04  0.16332768288E+03 -0.11242699282E+04  0.16292994560E+04  0.10100000352E+00 0. -1.
       -3    1    3    3    0  502 -0.11678860834E+04 -0.16332768288E+03 -0.59623975732E+03  0.13214142780E+04  0.10100000352E+00 0.  1.
</event>
<event>
 5   0  0.1169371E-05  0.2416311E+04  0.7818609E-02  0.8433422E-01
       -2   -1    0    0    0  501  0.00000000000E+00  0.00000000000E+00  0.10239502093E+04  0.10239502093E+04  0.25500000920E-02 0. -1.
        2   -1    0    0  501    0  0.00000000000E+00  0.00000000000E+00 -0.14254988718E+04  0.14254988718E+04  0.25500000920E-02 0.  1.
    10030    2    1    2    0    0  0.00000000000E+00  0.00000000000E+00 -0.40154866252E+03  0.24494490811E+04  0.24163111291E+04 0.  0.
        2    1    3    3  502    0  0.24726277303E+03  0.49038244294E+02  0.99699514201E+03  0.10283690687E+04  0.25500000920E-02 0. -1.
       -2    1    3    3    0  502 -0.24726277303E+03 -0.49038244294E+02 -0.13985438045E+04  0.14210800124E+04  0.25500000920E-02 0.  1.
</event>
<event>
 5   0  0.1168435E-05  0.2421381E+04  0.7818609E-02  0.8431542E-01
        2   -1    0    0  501    0  0.00000000000E+00  0.00000000000E+00  0.19136369213E+04  0.19136369213E+04  0.25500000920E-02 0. -1.
       -2   -1    0    0    0  501  0.00000000000E+00  0.00000000000E+00 -0.76596085097E+03  0.76596085097E+03  0.25500000920E-02 0.  1.
    10030    2    1    2    0    0  0.00000000000E+00  0.00000000000E+00  0.11476760703E+04  0.26795977722E+04  0.24213805687E+04 0.  0.
        1    1    3    3  502    0 -0.77439493157E+03 -0.20100207075E+03  0.15794093226E+04  0.17704866989E+04  0.50400001928E-02 0. -1.
       -1    1    3    3    0  502  0.77439493157E+03  0.20100207075E+03 -0.43173325233E+03  0.90911107335E+03  0.50400001928E-02 0.  1.
</event>
<event>
 5   0  0.5196696E-06  0.2411176E+04  0.7818609E-02  0.8435331E-01
        1   -1    0    0  501    0  0.00000000000E+00  0.00000000000E+00  0.12001436417E+04  0.12001436417E+04  0.50400001928E-02 0. -1.
       -1   -1    0    0    0  501  0.00000000000E+00  0.00000000000E+00 -0.12110569477E+04  0.12110569478E+04  0.50400001928E-02 0.  1.
    10030    2    1    2    0    0  0.00000000000E+00  0.00000000000E+00 -0.10913306084E+02  0.24112005894E+04  0.24111758920E+04 0.  0.
        1    1    3    3  502    0  0.84269325798E+03  0.75350184269E+03  0.41352895261E+03  0.12037039290E+04  0.50400001928E-02 0. -1.
       -1    1    3    3    0  502 -0.84269325798E+03 -0.75350184269E+03 -0.42444225869E+03  0.12074966604E+04  0.50400001928E-02 0.  1.
</event>
<event>
 5   0  0.1154897E-05  0.2383848E+04  0.7818609E-02  0.8445576E-01
        2   -1    0    0  501    0  0.00000000000E+00  0.00000000000E+00  0.10591061757E+04  0.10591061757E+04  0.25500000920E-02 0.  1.
       -2   -1    0    0    0  501  0.00000000000E+00  0.00000000000E+00 -0.13413976238E+04  0.13413976238E+04  0.25500000920E-02 0. -1.
    10030    2    1    2    0    0  0.00000000000E+00  0.00000000000E+00 -0.28229144812E+03  0.24005037996E+04  0.23838477363E+04 0.  0.
        4    1    3    3  502    0 -0.12892032671E+03  0.54721539501E+03 -0.11994961823E+04  0.13247104753E+04  0.12699999809E+01 0. -1.
       -4    1    3    3    0  502  0.12892032671E+03 -0.54721539501E+03  0.91720473418E+03  0.10757933242E+04  0.12699999809E+01 0.  1.
</event>
<event>
 5   0  0.1154897E-05  0.2398918E+04  0.7818609E-02  0.8439909E-01
       -2   -1    0    0    0  501  0.00000000000E+00  0.00000000000E+00  0.58485284153E+03  0.58485284153E+03  0.25500000920E-02 0. -1.
        2   -1    0    0  501    0  0.00000000000E+00  0.00000000000E+00 -0.24599384318E+04  0.24599384318E+04  0.25500000920E-02 0.  1.
    10030    2    1    2    0    0  0.00000000000E+00  0.00000000000E+00 -0.18750855903E+04  0.30447912733E+04  0.23989180743E+04 0.  0.
        4    1    3    3  502    0  0.57329116010E+03  0.97706304835E+02  0.39393943729E+03  0.70242378192E+03  0.12699999809E+01 0. -1.
       -4    1    3    3    0  502 -0.57329116010E+03 -0.97706304835E+02 -0.22690250275E+04  0.23423674914E+04  0.12699999809E+01 0.  1.
</event>
<event>
 5   0  0.1174210E-05  0.2403983E+04  0.7818609E-02  0.8438014E-01
        2   -1    0    0  501    0  0.00000000000E+00  0.00000000000E+00  0.10181890156E+04  0.10181890156E+04  0.25500000920E-02 0.  1.
       -2   -1    0    0    0  501  0.00000000000E+00  0.00000000000E+00 -0.14189738430E+04  0.14189738430E+04  0.25500000920E-02 0. -1.
    10030    2    1    2    0    0  0.00000000000E+00  0.00000000000E+00 -0.40078482747E+03  0.24371628586E+04  0.24039830119E+04 0.  0.
        3    1    3    3  502    0 -0.10132647349E+04  0.64384653502E+03 -0.14007514239E+03  0.12086624175E+04  0.10100000352E+00 0. -1.
       -3    1    3    3    0  502  0.10132647349E+04 -0.64384653502E+03 -0.26070968508E+03  0.12285004411E+04  0.10100000352E+00 0.  1.
</event>
<event>
 5   0  0.5034479E-06  0.2393862E+04  0.7818609E-02  0.8441805E-01
       -1   -1    0    0    0  501  0.00000000000E+00  0.00000000000E+00  0.10301942593E+04  0.10301942593E+04  0.50400001928E-02 0. -1.
        1   -1    0    0  501    0  0.00000000000E+00  0.00000000000E+00 -0.13906535483E+04  0.13906535483E+04  0.50400001928E-02 0.  1.
    10030    2    1    2    0    0  0.00000000000E+00  0.00000000000E+00 -0.36045928902E+03  0.24208478077E+04  0.23938615684E+04 0.  0.
        4    1    3    3  502    0  0.72165224729E+03 -0.82588842870E+03  0.30451525930E+03  0.11382463787E+04  0.12699999809E+01 0. -1.
       -4    1    3    3    0  502 -0.72165224729E+03  0.82588842870E+03 -0.66497454832E+03  0.12826014289E+04  0.12699999809E+01 0.  1.
</event>
<event>
 5   0  0.5064437E-06  0.2397839E+04  0.7818609E-02  0.8440313E-01
       -1   -1    0    0    0  501  0.00000000000E+00  0.00000000000E+00  0.75955506642E+03  0.75955506644E+03  0.50400001928E-02 0. -1.
        1   -1    0    0  501    0  0.00000000000E+00  0.00000000000E+00 -0.18924348860E+04  0.18924348860E+04  0.50400001928E-02 0.  1.
    10030    2    1    2    0    0  0.00000000000E+00  0.00000000000E+00 -0.11328798196E+04  0.26519899525E+04  0.23978394488E+04 0.  0.
        2    1    3    3  502    0  0.77989459867E+03  0.25099046956E+03  0.40165122946E+03  0.91244479887E+03  0.25500000920E-02 0. -1.
       -2    1    3    3    0  502 -0.77989459867E+03 -0.25099046956E+03 -0.15345310491E+04  0.17395451536E+04  0.25500000920E-02 0.  1.
</event>
<event>
 5   0  0.1174210E-05  0.2400372E+04  0.7818609E-02  0.8439364E-01
        2   -1    0    0  501    0  0.00000000000E+00  0.00000000000E+00  0.16272319117E+04  0.16272319117E+04  0.25500000920E-02 0. -1.
       -2   -1    0    0    0  501  0.00000000000E+00  0.00000000000E+00 -0.88521310337E+03  0.88521310338E+03  0.25500000920E-02 0.  1.
    10030    2    1    2    0    0  0.00000000000E+00  0.00000000000E+00  0.74201880833E+03  0.25124450151E+04  0.24003724798E+04 0.  0.
        3    1    3    3  502    0  0.45883707970E+03 -0.88903066321E+03  0.10649417574E+04  0.14611666376E+04  0.10100000352E+00 0. -1.
       -3    1    3    3    0  502 -0.45883707970E+03  0.88903066321E+03 -0.32292294907E+03  0.10512783775E+04  0.10100000352E+00 0.  1.
</event>
<event>
 5   0  0.1154897E-05  0.2397228E+04  0.7818609E-02  0.8440542E-01
       -2   -1    0    0    0  501  0.00000000000E+00  0.00000000000E+00  0.10975067727E+04  0.10975067727E+04  0.25500000920E-02 0.  1.
        2   -1    0    0  501    0  0.00000000000E+00  0.00000000000E+00 -0.13090351720E+04  0.13090351720E+04  0.25500000920E-02 0. -1.
    10030    2    1    2    0    0  0.00000000000E+00  0.00000000000E+00 -0.21152839924E+03  0.24065419447E+04  0.23972275378E+04 0.  0.
        4    1    3    3  502    0 -0.88298820439E+03  0.71093924961E+03 -0.49659755142E+03  0.12376241460E+04  0.12699999809E+01 0. -1.
       -4    1    3    3    0  502  0.88298820439E+03 -0.71093924961E+03  0.28506915218E+03  0.11689177987E+04  0.12699999809E+01 0.  1.
</event>
<event>
 5   0  0.1154897E-05  0.2384524E+04  0.7818609E-02  0.8445320E-01
        2   -1    0    0  501    0  0.00000000000E+00  0.00000000000E+00  0.23146607079E+04  0.23146607079E+04  0.25500000920E-02 0. -1.
       -2   -1    0    0    0  501  0.00000000000E+00  0.00000000000E+00 -0.61412411049E+03  0.61412411050E+03  0.25500000920E-02 0.  1.
    10030    2    1    2    0    0  0.00000000000E+00  0.00000000000E+00  0.17005365974E+04  0.29287848184E+04  0.23845242279E+04 0.  0.
        4    1    3    3  502    0 -0.75769926745E+01  0.17115325884E+03 -0.59892605501E+03  0.62294853809E+03  0.12699999809E+01 0.  1.
       -4    1    3    3    0  502  0.75769926745E+01 -0.17115325884E+03  0.22994626525E+04  0.23058362803E+04  0.12699999809E+01 0. -1.
</event>
<event>
 5   0  0.5104174E-06  0.2405103E+04  0.7818609E-02  0.8437595E-01
       -1   -1    0    0    0  501  0.00000000000E+00  0.00000000000E+00  0.81599397943E+03  0.81599397945E+03  0.50400001928E-02 0.  1.
        1   -1    0    0  501    0  0.00000000000E+00  0.00000000000E+00 -0.17722320219E+04  0.17722320219E+04  0.50400001928E-02 0. -1.
    10030    2    1    2    0    0  0.00000000000E+00  0.00000000000E+00 -0.95623804249E+03  0.25882260014E+04  0.24051034573E+04 0.  0.
        3    1    3    3  502    0 -0.79676218437E+03  0.81579311434E+03 -0.88900448917E+03  0.14459174858E+04  0.10100000352E+00 0. -1.
       -3    1    3    3    0  502  0.79676218437E+03 -0.81579311434E+03 -0.67233553319E+02  0.11423085156E+04  0.10100000352E+00 0.  1.
</event>
<event>
 5   0  0.5196696E-06  0.2406544E+04  0.7818609E-02  0.8437058E-01
       -1   -1    0    0    0  501  0.00000000000E+00  0.00000000000E+00  0.66690834913E+03  0.66690834915E+03  0.50400001928E-02 0. -1.
        1   -1    0    0  501    0  0.00000000000E+00  0.00000000000E+00 -0.21710083071E+04  0.21710083072E+04  0.50400001928E-02 0.  1.
    10030    2    1    2    0    0  0.00000000000E+00  0.00000000000E+00 -0.15040999580E+04  0.28379166563E+04  0.24065440500E+04 0.  0.
        1    1    3    3  502    0  0.56251712263E+03 -0.42332126603E+03  0.39869313243E+03  0.80906280435E+03  0.50400001928E-02 0. -1.
       -1    1    3    3    0  502 -0.56251712263E+03  0.42332126603E+03 -0.19027930904E+04  0.20288538519E+04  0.50400001928E-02 0.  1.
</event>
<event>
 5   0  0.5064437E-06  0.2405932E+04  0.7818609E-02  0.8437286E-01
        1   -1    0    0  501    0  0.00000000000E+00  0.00000000000E+00  0.76336480490E+03  0.76336480492E+03  0.50400001928E-02 0. -1.
       -1   -1    0    0    0  501  0.00000000000E+00  0.00000000000E+00 -0.18957219002E+04  0.18957219002E+04  0.50400001928E-02 0.  1.
    10030    2    1    2    0    0  0.00000000000E+00  0.00000000000E+00 -0.11323570953E+04  0.26590867051E+04  0.24059321508E+04 0.  0.
        2    1    3    3  502    0  0.38688058517E+03 -0.80730623568E+03 -0.14542890705E+04  0.17077402162E+04  0.25500000920E-02 0.  1.
       -2    1    3    3    0  502 -0.38688058517E+03  0.80730623568E+03  0.32193197522E+03  0.95134648894E+03  0.25500000920E-02 0. -1.
</event>
<event>
 5   0  0.1168435E-05  0.2402897E+04  0.7818609E-02  0.8438420E-01
        2   -1    0    0  501    0  0.00000000000E+00  0.00000000000E+00  0.16595515569E+04  0.16595515569E+04  0.25500000920E-02 0. -1.
       -2   -1    0    0    0  501  0.00000000000E+00  0.00000000000E+00 -0.86980060597E+03  0.86980060597E+03  0.25500000920E-02 0.  1.
    10030    2    1    2    0    0  0.00000000000E+00  0.00000000000E+00  0.78975095091E+03  0.25293521629E+04  0.24028973759E+04 0.  0.
        1    1    3    3  502    0  0.25122651818E+03  0.70607444320E+03  0.13833484614E+04  0.15733114277E+04  0.50400001928E-02 0. -1.
       -1    1    3    3    0  502 -0.25122651818E+03 -0.70607444320E+03 -0.59359751051E+03  0.95604073516E+03  0.50400001928E-02 0.  1.
</event>
<event>
 5   0  0.1154897E-05  0.2404824E+04  0.7818609E-02  0.8437700E-01
       -2   -1    0    0    0  501  0.00000000000E+00  0.00000000000E+00  0.68118957813E+03  0.68118957813E+03  0.25500000920E-02 0. -1.
        2   -1    0    0  501    0  0.00000000000E+00  0.00000000000E+00 -0.21224556975E+04  0.21224556975E+04  0.25500000920E-02 0.  1.
    10030    2    1    2    0    0  0.00000000000E+00  0.00000000000E+00 -0.14412661193E+04  0.28036452756E+04  0.24048240694E+04 0.  0.
        4    1    3    3  502    0 -0.11969986394E+04  0.28894348810E+02 -0.84915340815E+03  0.14678909188E+04  0.12699999809E+01 0.  1.
       -4    1    3    3    0  502  0.11969986394E+04 -0.28894348810E+02 -0.59211271119E+03  0.13357543568E+04  0.12699999809E+01 0. -1.
</event>
<event>
 5   0  0.5042742E-06  0.2416807E+04  0.7818609E-02  0.8433238E-01
       -1   -1    0    0    0  501  0.00000000000E+00  0.00000000000E+00  0.10175031663E+04  0.10175031663E+04  0.50400001928E-02 0. -1.
        1   -1    0    0  501    0  0.00000000000E+00  0.00000000000E+00 -0.14351197230E+04  0.14351197231E+04  0.50400001928E-02 0.  1.
    10030    2    1    2    0    0  0.00000000000E+00  0.00000000000E+00 -0.41761655678E+03  0.24526228893E+04  0.24168068704E+04 0.  0.
        5    1    3    3  502    0 -0.81046512797E+03  0.70303710240E+03  0.35540026006E+03  0.11302417112E+04  0.46999998093E+01 0. -1.
       -5    1    3    3    0  502  0.81046512797E+03 -0.70303710240E+03 -0.77301681685E+03  0.13223811781E+04  0.46999998093E+01 0.  1.
</event>
<event>
 5   0  0.1168435E-05  0.2414485E+04  0.7818609E-02  0.8434101E-01
        2   -1    0    0  501    0  0.00000000000E+00  0.00000000000E+00  0.14334781457E+04  0.14334781457E+04  0.25500000920E-02 0. -1.
       -2   -1    0    0    0  501  0.00000000000E+00  0.00000000000E+00 -0.10167118401E+04  0.10167118401E+04  0.25500000920E-02 0.  1.
    10030    2    1    2    0    0  0.00000000000E+00  0.00000000000E+00  0.41676630565E+03  0.24501899858E+04  0.24144847924E+04 0.  0.
        1    1    3    3  502    0  0.51797463552E+03  0.28577222394E+03 -0.85954346630E+03  0.10434454741E+04  0.50400001928E-02 0.  1.
       -1    1    3    3    0  502 -0.51797463552E+03 -0.28577222394E+03  0.12763097720E+04  0.14067445116E+04  0.50400001928E-02 0. -1.
</event>
<event>
 5   0  0.5104174E-06  0.2297352E+04  0.7818609E-02  0.8478966E-01
        1   -1    0    0  501    0  0.00000000000E+00  0.00000000000E+00  0.11831460453E+04  0.11831460453E+04  0.50400001928E-02 0.  1.
       -1   -1    0    0    0  501  0.00000000000E+00  0.00000000000E+00 -0.11152102548E+04  0.11152102548E+04  0.50400001928E-02 0. -1.
    10030    2    1    2    0    0  0.00000000000E+00  0.00000000000E+00  0.67935790466E+02  0.22983563001E+04  0.22973520433E+04 0.  0.
        3    1    3    3  502    0  0.60940883469E+03 -0.18080037441E+02  0.10079182796E+04  0.11779665887E+04  0.10100000352E+00 0.  1.
       -3    1    3    3    0  502 -0.60940883469E+03  0.18080037441E+02 -0.93998248910E+03  0.11203897115E+04  0.10100000352E+00 0. -1.
</event>
<event>
 5   0  0.4067750E-06  0.2451006E+04  0.7818609E-02  0.8420651E-01
       -3   -1    0    0    0  501  0.00000000000E+00  0.00000000000E+00  0.96922634156E+03  0.96922634682E+03  0.10100000352E+00 0.  1.
        3   -1    0    0  501    0  0.00000000000E+00  0.00000000000E+00 -0.15495430897E+04  0.15495430930E+04  0.10100000352E+00 0. -1.
    10030    2    1    2    0    0  0.00000000000E+00  0.00000000000E+00 -0.58031674815E+03  0.25187694398E+04  0.24510063163E+04 0.  0.
        2    1    3    3  502    0  0.86055081886E+03  0.25937211510E+03 -0.11462792839E+04  0.14566323499E+04  0.25500000920E-02 0. -1.
       -2    1    3    3    0  502 -0.86055081886E+03 -0.25937211510E+03  0.56596253578E+03  0.10621370899E+04  0.25500000920E-02 0.  1.
</event>
<event>
 5   0  0.5042742E-06  0.2396113E+04  0.7818609E-02  0.8440960E-01
        1   -1    0    0  501    0  0.00000000000E+00  0.00000000000E+00  0.88054261681E+03  0.88054261682E+03  0.50400001928E-02 0. -1.
       -1   -1    0    0    0  501  0.00000000000E+00  0.00000000000E+00 -0.16300618051E+04  0.16300618051E+04  0.50400001928E-02 0.  1.
    10030    2    1    2    0    0  0.00000000000E+00  0.00000000000E+00 -0.74951918824E+03  0.25106044219E+04  0.23961125912E+04 0.  0.
        5    1    3    3  502    0  0.65179588556E+02 -0.11946664631E+04 -0.43969218424E+03  0.12746872729E+04  0.46999998093E+01 0. -1.
       -5    1    3    3    0  502 -0.65179588556E+02  0.11946664631E+04 -0.30982700400E+03  0.12359171490E+04  0.46999998093E+01 0.  1.
</event>
<event>
 5   0  0.1198313E-05  0.2318969E+04  0.7818609E-02  0.8470479E-01
        2   -1    0    0  501    0  0.00000000000E+00  0.00000000000E+00  0.26036830530E+04  0.26036830530E+04  0.25500000920E-02 0. -1.
       -2   -1    0    0    0  501  0.00000000000E+00  0.00000000000E+00 -0.51634726454E+03  0.51634726455E+03  0.25500000920E-02 0.  1.
    10030    2    1    2    0    0  0.00000000000E+00  0.00000000000E+00  0.20873357884E+04  0.31200303175E+04  0.23189692729E+04 0.  0.
        5    1    3    3  502    0 -0.79329120061E+03 -0.23535058524E+03 -0.49107833334E+02  0.82893576122E+03  0.46999998093E+01 0.  1.
       -5    1    3    3    0  502  0.79329120061E+03  0.23535058524E+03  0.21364436217E+04  0.22910945563E+04  0.46999998093E+01 0. -1.
</event>
<event>
 5   0  0.1198313E-05  0.2397389E+04  0.7818609E-02  0.8440482E-01
       -2   -1    0    0    0  501  0.00000000000E+00  0.00000000000E+00  0.12285835750E+04  0.12285835750E+04  0.25500000920E-02 0. -1.
        2   -1    0    0  501    0  0.00000000000E+00  0.00000000000E+00 -0.11695327633E+04  0.11695327633E+04  0.25500000920E-02 0.  1.
    10030    2    1    2    0    0  0.00000000000E+00  0.00000000000E+00  0.59050811715E+02  0.23981163382E+04  0.23973891994E+04 0.  0.
        5    1    3    3  502    0  0.11940444290E+04 -0.13091936768E+02  0.13411885294E+03  0.12016336605E+04  0.46999998093E+01 0. -1.
       -5    1    3    3    0  502 -0.11940444290E+04  0.13091936768E+02 -0.75068041226E+02  0.11964826777E+04  0.46999998093E+01 0.  1.
</event>
<event>
 5   0  0.1169371E-05  0.2397556E+04  0.7818609E-02  0.8440419E-01
        2   -1    0    0  501    0  0.00000000000E+00  0.00000000000E+00  0.15458979617E+04  0.15458979617E+04  0.25500000920E-02 0.  1.
       -2   -1    0    0    0  501  0.00000000000E+00  0.00000000000E+00 -0.92960140249E+03  0.92960140249E+03  0.25500000920E-02 0. -1.
    10030    2    1    2    0    0  0.00000000000E+00  0.00000000000E+00  0.61629655920E+03  0.24754993642E+04  0.23975561835E+04 0.  0.
        2    1    3    3  502    0 -0.61060883727E+01  0.79888196549E+03 -0.61467444971E+03  0.10080051380E+04  0.25500000920E-02 0. -1.
       -2    1    3    3    0  502  0.61060883727E+01 -0.79888196549E+03  0.12309710089E+04  0.14674942262E+04  0.25500000920E-02 0.  1.
</event>
<event>
 5   0  0.5196696E-06  0.2414445E+04  0.7818609E-02  0.8434115E-01
        1   -1    0    0  501    0  0.00000000000E+00  0.00000000000E+00  0.10538743277E+04  0.10538743277E+04  0.50400001928E-02 0.  1.
       -1   -1    0    0    0  501  0.00000000000E+00  0.00000000000E+00 -0.13828841485E+04  0.13828841485E+04  0.50400001928E-02 0. -1.
    10030    2    1    2    0    0  0.00000000000E+00  0.00000000000E+00 -0.32900982072E+03  0.24367584762E+04  0.24144449485E+04 0.  0.
        1    1    3    3  502    0 -0.43354294471E+03 -0.15863651964E+03 -0.12902781860E+04  0.13703805412E+04  0.50400001928E-02 0. -1.
       -1    1    3    3    0  502  0.43354294471E+03  0.15863651964E+03  0.96126836528E+03  0.10663779351E+04  0.50400001928E-02 0.  1.
</event>
<event>
 5   0  0.1198313E-05  0.2406211E+04  0.7818609E-02  0.8437182E-01
        2   -1    0    0  501    0  0.00000000000E+00  0.00000000000E+00  0.16944522852E+04  0.16944522852E+04  0.25500000920E-02 0.  1.
       -2   -1    0    0    0  501  0.00000000000E+00  0.00000000000E+00 -0.85423637033E+03  0.85423637034E+03  0.25500000920E-02 0. -1.
    10030    2    1    2    0    0  0.00000000000E+00  0.00000000000E+00  0.84021591488E+03  0.25486886555E+04  0.24062109382E+04 0.  0.
        5    1    3    3  502    0 -0.84687361256E+03 -0.25200214157E+03  0.12849993352E+04  0.15594695817E+04  0.46999998093E+01 0.  1.
       -5    1    3    3    0  502  0.84687361256E+03  0.25200214157E+03 -0.44478342029E+03  0.98921907380E+03  0.46999998093E+01 0. -1.
</event>
<event>
 5   0  0.5042742E-06  0.2232065E+04  0.7818609E-02  0.8505199E-01
       -1   -1    0    0    0  501  0.00000000000E+00  0.00000000000E+00  0.11187057400E+04  0.11187057400E+04  0.50400001928E-02 0.  1.
        1   -1    0    0  501    0  0.00000000000E+00  0.00000000000E+00 -0.11133655291E+04  0.11133655292E+04  0.50400001928E-02 0. -1.
    10030    2    1    2    0    0  0.00000000000E+00  0.00000000000E+00  0.53402108863E+01  0.22320712692E+04  0.22320648810E+04 0.  0.
        5    1    3    3  502    0 -0.86415978028E+02 -0.18847304471E+03  0.10992663810E+04  0.11186592315E+04  0.46999998093E+01 0.  1.
       -5    1    3    3    0  502  0.86415978028E+02  0.18847304471E+03 -0.10939261702E+04  0.11134120377E+04  0.46999998093E+01 0. -1.
</event>
<event>
 5   0  0.1174210E-05  0.2406036E+04  0.7818609E-02  0.8437247E-01
        2   -1    0    0  501    0  0.00000000000E+00  0.00000000000E+00  0.24849566017E+04  0.24849566017E+04  0.25500000920E-02 0. -1.
       -2   -1    0    0    0  501  0.00000000000E+00  0.00000000000E+00 -0.58240566601E+03  0.58240566602E+03  0.25500000920E-02 0.  1.
    10030    2    1    2    0    0  0.00000000000E+00  0.00000000000E+00  0.19025509357E+04  0.30673622677E+04  0.24060364126E+04 0.  0.
        3    1    3    3  502    0  0.67360776537E+03  0.37469500903E+03 -0.22623599344E+03  0.80332216843E+03  0.10100000352E+00 0.  1.
       -3    1    3    3    0  502 -0.67360776537E+03 -0.37469500903E+03  0.21287869291E+04  0.22640400993E+04  0.10100000352E+00 0. -1.
</event>
<event>
 5   0  0.1198313E-05  0.2401773E+04  0.7818609E-02  0.8438840E-01
       -2   -1    0    0    0  501  0.00000000000E+00  0.00000000000E+00  0.65011720922E+03  0.65011720923E+03  0.25500000920E-02 0.  1.
        2   -1    0    0  501    0  0.00000000000E+00  0.00000000000E+00 -0.22182582491E+04  0.22182582491E+04  0.25500000920E-02 0. -1.
    10030    2    1    2    0    0  0.00000000000E+00  0.00000000000E+00 -0.15681410399E+04  0.28683754583E+04  0.24017725640E+04 0.  0.
        5    1    3    3  502    0  0.81551268140E+03 -0.85574075615E+03 -0.10367169929E+04  0.15723095715E+04  0.46999998093E+01 0. -1.
       -5    1    3    3    0  502 -0.81551268140E+03  0.85574075615E+03 -0.53142404693E+03  0.12960658868E+04  0.46999998093E+01 0.  1.
</event>
<event>
 5   0  0.5034479E-06  0.2401693E+04  0.7818609E-02  0.8438870E-01
        1   -1    0    0  501    0  0.00000000000E+00  0.00000000000E+00  0.11994264692E+04  0.11994264693E+04  0.50400001928E-02 0.  1.
       -1   -1    0    0    0  501  0.00000000000E+00  0.00000000000E+00 -0.12022679732E+04  0.12022679733E+04  0.50400001928E-02 0. -1.
    10030    2    1    2    0    0  0.00000000000E+00  0.00000000000E+00 -0.28415040005E+01  0.24016944425E+04  0.24016927616E+04 0.  0.
        4    1    3    3  502    0 -0.41343393144E+03  0.10452710043E+04 -0.42392705875E+03  0.12013470989E+04  0.12699999809E+01 0. -1.
       -4    1    3    3    0  502  0.41343393144E+03 -0.10452710043E+04  0.42108555475E+03  0.12003473436E+04  0.12699999809E+01 0.  1.
</event>
<event>
 5   0  0.1174210E-05  0.2395513E+04  0.7818609E-02  0.8441185E-01
        2   -1    0    0  501    0  0.00000000000E+00  0.00000000000E+00  0.22689619849E+04  0.22689619849E+04  0.25500000920E-02 0.  1.
       -2   -1    0    0    0  501  0.00000000000E+00  0.00000000000E+00 -0.63228060351E+03  0.63228060351E+03  0.25500000920E-02 0. -1.
    10030    2    1    2    0    0  0.00000000000E+00  0.00000000000E+00  0.16366813814E+04  0.29012425884E+04  0.23955130166E+04 0.  0.
        3    1    3    3  502    0 -0.47003961968E+03  0.29926423245E+03 -0.46574107951E+03  0.72623074035E+03  0.10100000352E+00 0. -1.
       -3    1    3    3    0  502  0.47003961968E+03 -0.29926423245E+03  0.21024224609E+04  0.21750118480E+04  0.10100000352E+00 0.  1.
</event>
<event>
 5   0  0.1169371E-05  0.2395870E+04  0.7818609E-02  0.8441051E-01
        2   -1    0    0  501    0  0.00000000000E+00  0.00000000000E+00  0.13165454178E+04  0.13165454178E+04  0.25500000920E-02 0.  1.
       -2   -1    0    0    0  501  0.00000000000E+00  0.00000000000E+00 -0.10900105293E+04  0.10900105293E+04  0.25500000920E-02 0. -1.
    10030    2    1    2    0    0  0.00000000000E+00  0.00000000000E+00  0.22653488853E+03  0.24065559471E+04  0.23958700864E+04 0.  0.
        2    1    3    3  502    0  0.78657450961E+03 -0.43853034505E+03 -0.68021793176E+03  0.11285852903E+04  0.25500000920E-02 0. -1.
       -2    1    3    3    0  502 -0.78657450961E+03  0.43853034505E+03  0.90675282029E+03  0.12779706569E+04  0.25500000920E-02 0.  1.
</event>
<event>
 5   0  0.1154897E-05  0.2399921E+04  0.7818609E-02  0.8439533E-01
       -2   -1    0    0    0  501  0.00000000000E+00  0.00000000000E+00  0.13305191637E+04  0.13305191637E+04  0.25500000920E-02 0.  1.
        2   -1    0    0  501    0  0.00000000000E+00  0.00000000000E+00 -0.10822127260E+04  0.10822127260E+04  0.25500000920E-02 0. -1.
    10030    2    1    2    0    0  0.00000000000E+00  0.00000000000E+00  0.24830643772E+03  0.24127318897E+04  0.23999206413E+04 0.  0.
        4    1    3    3  502    0  0.55366663754E+03 -0.64331468008E+03  0.97691627594E+03  0.12941281027E+04  0.12699999809E+01 0.  1.
       -4    1    3    3    0  502 -0.55366663754E+03  0.64331468008E+03 -0.72860983821E+03  0.11186037870E+04  0.12699999809E+01 0. -1.
</event>
<event>
 5   0  0.1174210E-05  0.2409054E+04  0.7818609E-02  0.8436122E-01
       -2   -1    0    0    0  501  0.00000000000E+00  0.00000000000E+00  0.13681388596E+04  0.13681388596E+04  0.25500000920E-02 0. -1.
        2   -1    0    0  501    0  0.00000000000E+00  0.00000000000E+00 -0.10604807199E+04  0.10604807199E+04  0.25500000920E-02 0.  1.
    10030    2    1    2    0    0  0.00000000000E+00  0.00000000000E+00  0.30765813967E+03  0.24286195795E+04  0.24090536588E+04 0.  0.
        3    1    3    3  502    0 -0.61990987608E+03  0.55306944096E+03 -0.72544205823E+03  0.11029235019E+04  0.10100000352E+00 0.  1.
       -3    1    3    3    0  502  0.61990987608E+03 -0.55306944096E+03  0.10331001979E+04  0.13256960776E+04  0.10100000352E+00 0. -1.
</event>
<event>
 5   0  0.1168435E-05  0.2414644E+04  0.7818609E-02  0.8434041E-01
        2   -1    0    0  501    0  0.00000000000E+00  0.00000000000E+00  0.20365197174E+04  0.20365197174E+04  0.25500000920E-02 0. -1.
       -2   -1    0    0    0  501  0.00000000000E+00  0.00000000000E+00 -0.71574366648E+03  0.71574366649E+03  0.25500000920E-02 0.  1.
    10030    2    1    2    0    0  0.00000000000E+00  0.00000000000E+00  0.13207760509E+04  0.27522633839E+04  0.24146437331E+04 0.  0.
        1    1    3    3  502    0 -0.28855862391E+02 -0.81128925685E+03 -0.35820909744E+03  0.88731994038E+03  0.50400001928E-02 0.  1.
       -1    1    3    3    0  502  0.28855862391E+02  0.81128925685E+03  0.16789851484E+04  0.18649434435E+04  0.50400001928E-02 0. -1.
</event>
<event>
 5   0  0.1168435E-05  0.2410383E+04  0.7818609E-02  0.8435626E-01
        2   -1    0    0  501    0  0.00000000000E+00  0.00000000000E+00  0.21178585588E+04  0.21178585588E+04  0.25500000920E-02 0.  1.
       -2   -1    0    0    0  501  0.00000000000E+00  0.00000000000E+00 -0.68582813962E+03  0.68582813962E+03  0.25500000920E-02 0. -1.
    10030    2    1    2    0    0  0.00000000000E+00  0.00000000000E+00  0.14320304192E+04  0.28036866984E+04  0.24103833682E+04 0.  0.
        1    1    3    3  502    0 -0.56293726768E+03 -0.22642274504E+03  0.19272333522E+04  0.20204935092E+04  0.50400001928E-02 0.  1.
       -1    1    3    3    0  502  0.56293726768E+03  0.22642274504E+03 -0.49520293300E+03  0.78319318925E+03  0.50400001928E-02 0. -1.
</event>
<event>
 5   0  0.5196696E-06  0.2395463E+04  0.7818609E-02  0.8441204E-01
       -1   -1    0    0    0  501  0.00000000000E+00  0.00000000000E+00  0.21267727676E+04  0.21267727676E+04  0.50400001928E-02 0.  1.
        1   -1    0    0  501    0  0.00000000000E+00  0.00000000000E+00 -0.67452470722E+03  0.67452470724E+03  0.50400001928E-02 0. -1.
    10030    2    1    2    0    0  0.00000000000E+00  0.00000000000E+00  0.14522480603E+04  0.28012974748E+04  0.23954630270E+04 0.  0.
        1    1    3    3  502    0  0.11455933690E+04  0.41314724638E+02  0.11320143376E+04  0.16110703070E+04  0.50400001928E-02 0.  1.
       -1    1    3    3    0  502 -0.11455933690E+04 -0.41314724638E+02  0.32023372272E+03  0.11902271677E+04  0.50400001928E-02 0. -1.
</event>
<event>
 5   0  0.5064437E-06  0.2378408E+04  0.7818609E-02  0.8447632E-01
        1   -1    0    0  501    0  0.00000000000E+00  0.00000000000E+00  0.15740561995E+04  0.15740561995E+04  0.50400001928E-02 0. -1.
       -1   -1    0    0    0  501  0.00000000000E+00  0.00000000000E+00 -0.89844713666E+03  0.89844713667E+03  0.50400001928E-02 0.  1.
    10030    2    1    2    0    0  0.00000000000E+00  0.00000000000E+00  0.67560906285E+03  0.24725033362E+04  0.23784081108E+04 0.  0.
        2    1    3    3  502    0  0.73413269491E+02  0.16546053453E+03  0.15596504934E+04  0.15701198547E+04  0.25500000920E-02 0. -1.
       -2    1    3    3    0  502 -0.73413269491E+02 -0.16546053453E+03 -0.88404143057E+03  0.90238348145E+03  0.25500000920E-02 0.  1.
</event>
<event>
 5   0  0.1168435E-05  0.2392969E+04  0.7818609E-02  0.8442141E-01
       -2   -1    0    0    0  501  0.00000000000E+00  0.00000000000E+00  0.12338736346E+04  0.12338736346E+04  0.25500000920E-02 0. -1.
        2   -1    0    0  501    0  0.00000000000E+00  0.00000000000E+00 -0.11602282305E+04  0.11602282305E+04  0.25500000920E-02 0.  1.
    10030    2    1    2    0    0  0.00000000000E+00  0.00000000000E+00  0.73645404104E+02  0.23941018652E+04  0.23929688873E+04 0.  0.
        1    1    3    3  502    0  0.10637840065E+04  0.54415284731E+03  0.98789818726E+02  0.11989571144E+04  0.50400001928E-02 0.  1.
       -1    1    3    3    0  502 -0.10637840065E+04 -0.54415284731E+03 -0.25144414622E+02  0.11951447508E+04  0.50400001928E-02 0. -1.
</event>
<event>
 5   0  0.5042742E-06  0.2412674E+04  0.7818609E-02  0.8434774E-01
        1   -1    0    0  501    0  0.00000000000E+00  0.00000000000E+00  0.19997207657E+04  0.19997207657E+04  0.50400001928E-02 0. -1.
       -1   -1    0    0    0  501  0.00000000000E+00  0.00000000000E+00 -0.72772609685E+03  0.72772609686E+03  0.50400001928E-02 0.  1.
    10030    2    1    2    0    0  0.00000000000E+00  0.00000000000E+00  0.12719946688E+04  0.27274468625E+04  0.24126740249E+04 0.  0.
        5    1    3    3  502    0  0.55380028481E+03 -0.10588480533E+04  0.44896426962E+03  0.12764971448E+04  0.46999998093E+01 0.  1.
       -5    1    3    3    0  502 -0.55380028481E+03  0.10588480533E+04  0.82303039918E+03  0.14509497177E+04  0.46999998093E+01 0. -1.
</event>
<event>
 5   0  0.1198313E-05  0.2401941E+04  0.7818609E-02  0.8438777E-01
        2   -1    0    0  501    0  0.00000000000E+00  0.00000000000E+00  0.10178039046E+04  0.10178039046E+04  0.25500000920E-02 0. -1.
       -2   -1    0    0    0  501  0.00000000000E+00  0.00000000000E+00 -0.14170999551E+04  0.14170999551E+04  0.25500000920E-02 0.  1.
    10030    2    1    2    0    0  0.00000000000E+00  0.00000000000E+00 -0.39929605050E+03  0.24349038596E+04  0.24019407715E+04 0.  0.
        5    1    3    3  502    0  0.92897778967E+03 -0.63100229617E+02 -0.96856009343E+03  0.13435446093E+04  0.46999998093E+01 0.  1.
       -5    1    3    3    0  502 -0.92897778967E+03  0.63100229617E+02  0.56926404292E+03  0.10913592503E+04  0.46999998093E+01 0. -1.
</event>
<event>
 5   0  0.5104174E-06  0.2402900E+04  0.7818609E-02  0.8438419E-01
        1   -1    0    0  501    0  0.00000000000E+00  0.00000000000E+00  0.27102939620E+04  0.27102939620E+04  0.50400001928E-02 0.  1.
       -1   -1    0    0    0  501  0.00000000000E+00  0.00000000000E+00 -0.53259232129E+03  0.53259232132E+03  0.50400001928E-02 0. -1.
    10030    2    1    2    0    0  0.00000000000E+00  0.00000000000E+00  0.21777016407E+04  0.32428862833E+04  0.24028997088E+04 0.  0.
        3    1    3    3  502    0  0.32362950614E+02  0.88013452501E+02 -0.52764583363E+03  0.53591404566E+03  0.10100000352E+00 0. -1.
       -3    1    3    3    0  502 -0.32362950614E+02 -0.88013452501E+02  0.27053474743E+04  0.27069722377E+04  0.10100000352E+00 0.  1.
</event>
<event>
 5   0  0.1169371E-05  0.2395671E+04  0.7818609E-02  0.8441126E-01
       -2   -1    0    0    0  501  0.00000000000E+00  0.00000000000E+00  0.85911488477E+03  0.85911488477E+03  0.25500000920E-02 0.  1.
        2   -1    0    0  501    0  0.00000000000E+00  0.00000000000E+00 -0.16701022352E+04  0.16701022352E+04  0.25500000920E-02 0. -1.
    10030    2    1    2    0    0  0.00000000000E+00  0.00000000000E+00 -0.81098735043E+03  0.25292171200E+04  0.23956708366E+04 0.  0.
        2    1    3    3  502    0 -0.57565272619E+03 -0.74209509508E+03  0.37940734793E+03  0.10129319459E+04  0.25500000920E-02 0.  1.
       -2    1    3    3    0  502  0.57565272619E+03  0.74209509508E+03 -0.11903946984E+04  0.15162851741E+04  0.25500000920E-02 0. -1.
</event>
<event>
 5   0  0.5034479E-06  0.2375463E+04  0.7818609E-02  0.8448747E-01
       -1   -1    0    0    0  501  0.00000000000E+00  0.00000000000E+00  0.10602860436E+04  0.10602860436E+04  0.50400001928E-02 0.  1.
        1   -1    0    0  501    0  0.00000000000E+00  0.00000000000E+00 -0.13304956274E+04  0.13304956274E+04  0.50400001928E-02 0. -1.
    10030    2    1    2    0    0  0.00000000000E+00  0.00000000000E+00 -0.27020958380E+03  0.23907816710E+04  0.23754628558E+04 0.  0.
        4    1    3    3  502    0 -0.39912647274E+03 -0.10409745547E+04 -0.54734892010E+03  0.12419832599E+04  0.12699999809E+01 0. -1.
       -4    1    3    3    0  502  0.39912647274E+03  0.10409745547E+04  0.27713933629E+03  0.11487984111E+04  0.12699999809E+01 0.  1.
</event>
<event>
 5   0  0.5042742E-06  0.2390774E+04  0.7818609E-02  0.8442966E-01
        1   -1    0    0  501    0  0.00000000000E+00  0.00000000000E+00  0.11004876870E+04  0.11004876870E+04  0.50400001928E-02 0. -1.
       -1   -1    0    0    0  501  0.00000000000E+00  0.00000000000E+00 -0.12984697297E+04  0.12984697297E+04  0.50400001928E-02 0.  1.
    10030    2    1    2    0    0  0.00000000000E+00  0.00000000000E+00 -0.19798204268E+03  0.23989574168E+04  0.23907738911E+04 0.  0.
        5    1    3    3  502    0  0.82337716388E+03 -0.11176206363E+03 -0.96128530094E+03  0.12706424488E+04  0.46999998093E+01 0.  1.
       -5    1    3    3    0  502 -0.82337716388E+03  0.11176206363E+03  0.76330325826E+03  0.11283149680E+04  0.46999998093E+01 0. -1.
</event>
<event>
 5   0  0.5196696E-06  0.2404399E+04  0.7818609E-02  0.8437858E-01
       -1   -1    0    0    0  501  0.00000000000E+00  0.00000000000E+00  0.73597099666E+03  0.73597099668E+03  0.50400001928E-02 0.  1.
        1   -1    0    0  501    0  0.00000000000E+00  0.00000000000E+00 -0.19637782491E+04  0.19637782491E+04  0.50400001928E-02 0. -1.
    10030    2    1    2    0    0  0.00000000000E+00  0.00000000000E+00 -0.12278072524E+04  0.26997492457E+04  0.24043991642E+04 0.  0.
        1    1    3    3  502    0 -0.89842338978E+03  0.55657904706E+03  0.29491999445E+02  0.10572675163E+04  0.50400001928E-02 0. -1.
       -1    1    3    3    0  502  0.89842338978E+03 -0.55657904706E+03 -0.12572992518E+04  0.16424817295E+04  0.50400001928E-02 0.  1.
</event>
<event>
 5   0  0.5064437E-06  0.2396993E+04  0.7818609E-02  0.8440630E-01
       -1   -1    0    0    0  501  0.00000000000E+00  0.00000000000E+00  0.82964883129E+03  0.82964883131E+03  0.50400001928E-02 0. -1.
        1   -1    0    0  501    0  0.00000000000E+00  0.00000000000E+00 -0.17313281306E+04  0.17313281306E+04  0.50400001928E-02 0.  1.
    10030    2    1    2    0    0  0.00000000000E+00  0.00000000000E+00 -0.90167929926E+03  0.25609769619E+04  0.23969934169E+04 0.  0.
        2    1    3    3  502    0  0.59828356712E+03 -0.19928423436E+03 -0.15397487214E+04  0.16638760644E+04  0.25500000920E-02 0.  1.
       -2    1    3    3    0  502 -0.59828356712E+03  0.19928423436E+03  0.63806942212E+03  0.89710089745E+03  0.25500000920E-02 0. -1.
</event>
<event>
 5   0  0.1174210E-05  0.2364368E+04  0.7818609E-02  0.8452965E-01
        2   -1    0    0  501    0  0.00000000000E+00  0.00000000000E+00  0.15354829599E+04  0.15354829599E+04  0.25500000920E-02 0.  1.
       -2   -1    0    0    0  501  0.00000000000E+00  0.00000000000E+00 -0.91017578039E+03  0.91017578039E+03  0.25500000920E-02 0. -1.
    10030    2    1    2    0    0  0.00000000000E+00  0.00000000000E+00  0.62530717955E+03  0.24456587403E+04  0.23643683312E+04 0.  0.
        3    1    3    3  502    0 -0.85914985962E+03  0.38105996555E+02 -0.52638780477E+03  0.10083028709E+04  0.10100000352E+00 0. -1.
       -3    1    3    3    0  502  0.85914985962E+03 -0.38105996555E+02  0.11516949843E+04  0.14373558694E+04  0.10100000352E+00 0.  1.
</event>
<event>
 5   0  0.1168435E-05  0.2388078E+04  0.7818609E-02  0.8443980E-01
        2   -1    0    0  501    0  0.00000000000E+00  0.00000000000E+00  0.15140365346E+04  0.15140365346E+04  0.25500000920E-02 0. -1.
       -2   -1    0    0    0  501  0.00000000000E+00  0.00000000000E+00 -0.94167429959E+03  0.94167429959E+03  0.25500000920E-02 0.  1.
    10030    2    1    2    0    0  0.00000000000E+00  0.00000000000E+00  0.57236223499E+03  0.24557108342E+04  0.23880781338E+04 0.  0.
        1    1    3    3  502    0 -0.12497419417E+02  0.11442143222E+04  0.63693760721E+03  0.13096076192E+04  0.50400001928E-02 0. -1.
       -1    1    3    3    0  502  0.12497419417E+02 -0.11442143222E+04 -0.64575372221E+02  0.11461032150E+04  0.50400001928E-02 0.  1.
</event>
<event>
 5   0  0.5064437E-06  0.2365524E+04  0.7818609E-02  0.8452525E-01
        1   -1    0    0  501    0  0.00000000000E+00  0.00000000000E+00  0.10817490910E+04  0.10817490910E+04  0.50400001928E-02 0. -1.
       -1   -1    0    0    0  501  0.00000000000E+00  0.00000000000E+00 -0.12932077338E+04  0.12932077338E+04  0.50400001928E-02 0.  1.
    10030    2    1    2    0    0  0.00000000000E+00  0.00000000000E+00 -0.21145864281E+03  0.23749568248E+04  0.23655242890E+04 0.  0.
        2    1    3    3  502    0  0.11422474102E+04  0.30654463606E+03 -0.12087358576E+03  0.11888268098E+04  0.25500000920E-02 0. -1.
       -2    1    3    3    0  502 -0.11422474102E+04 -0.30654463606E+03 -0.90585057053E+02  0.11861300150E+04  0.25500000920E-02 0.  1.
</event>
<event>
 5   0  0.5034479E-06  0.2403715E+04  0.7818609E-02  0.8438114E-01
        1   -1    0    0  501    0  0.00000000000E+00  0.00000000000E+00  0.13363062637E+04  0.13363062637E+04  0.50400001928E-02 0. -1.
       -1   -1    0    0    0  501  0.00000000000E+00  0.00000000000E+00 -0.10809357042E+04  0.10809357042E+04  0.50400001928E-02 0.  1.
    10030    2    1    2    0    0  0.00000000000E+00  0.00000000000E+00  0.25537055953E+03  0.24172419679E+04  0.24037147519E+04 0.  0.
        4    1    3    3  502    0  0.65167774132E+03 -0.90574844439E+03  0.57673536398E+03  0.12560610718E+04  0.12699999809E+01 0. -1.
       -4    1    3    3    0  502 -0.65167774132E+03  0.90574844439E+03 -0.32136480445E+03  0.11611808961E+04  0.12699999809E+01 0.  1.
</event>
<event>
 5   0  0.5104174E-06  0.2402288E+04  0.7818609E-02  0.8438647E-01
        1   -1    0    0  501    0  0.00000000000E+00  0.00000000000E+00  0.17840988706E+04  0.17840988706E+04  0.50400001928E-02 0. -1.
       -1   -1    0    0    0  501  0.00000000000E+00  0.00000000000E+00 -0.80867008210E+03  0.80867008212E+03  0.50400001928E-02 0.  1.
    10030    2    1    2    0    0  0.00000000000E+00  0.00000000000E+00  0.97542878845E+03  0.25927689527E+04  0.24022883925E+04 0.  0.
        3    1    3    3  502    0 -0.11709876296E+04 -0.11275817368E+03  0.74947521211E+03  0.13948618348E+04  0.10100000352E+00 0.  1.
       -3    1    3    3    0  502  0.11709876296E+04  0.11275817368E+03  0.22595357634E+03  0.11979071179E+04  0.10100000352E+00 0. -1.
</event>
<event>
 5   0  0.5034479E-06  0.2399004E+04  0.7818609E-02  0.8439877E-01
        1   -1    0    0  501    0  0.00000000000E+00  0.00000000000E+00  0.14138845927E+04  0.14138845927E+04  0.50400001928E-02 0.  1.
       -1   -1    0    0    0  501  0.00000000000E+00  0.00000000000E+00 -0.10176252321E+04  0.10176252321E+04  0.50400001928E-02 0. -1.
    10030    2    1    2    0    0  0.00000000000E+00  0.00000000000E+00  0.39625936059E+03  0.24315098248E+04  0.23990036572E+04 0.  0.
        4    1    3    3  502    0 -0.83245697034E+03 -0.64811327678E+03 -0.38036458856E+03  0.11214786044E+04  0.12699999809E+01 0. -1.
       -4    1    3    3    0  502  0.83245697034E+03  0.64811327678E+03  0.77662394915E+03  0.13100312204E+04  0.12699999809E+01 0.  1.
</event>
<event>
 5   0  0.1169371E-05  0.2399682E+04  0.7818609E-02  0.8439623E-01
       -2   -1    0    0    0  501  0.00000000000E+00  0.00000000000E+00  0.95330787598E+03  0.95330787598E+03  0.25500000920E-02 0. -1.
        2   -1    0    0  501    0  0.00000000000E+00  0.00000000000E+00 -0.15101293809E+04  0.15101293809E+04  0.25500000920E-02 0.  1.
    10030    2    1    2    0    0  0.00000000000E+00  0.00000000000E+00 -0.55682150495E+03  0.24634372569E+04  0.23996818394E+04 0.  0.
        2    1    3    3  502    0  0.52351296574E+03  0.64524493105E+03 -0.11669774351E+04  0.14325652447E+04  0.25500000920E-02 0.  1.
       -2    1    3    3    0  502 -0.52351296574E+03 -0.64524493105E+03  0.61015593017E+03  0.10308720122E+04  0.25500000920E-02 0. -1.
</event>
<event>
 5   0  0.1168435E-05  0.2402296E+04  0.7818609E-02  0.8438645E-01
       -2   -1    0    0    0  501  0.00000000000E+00  0.00000000000E+00  0.12356415956E+04  0.12356415956E+04  0.25500000920E-02 0. -1.
        2   -1    0    0  501    0  0.00000000000E+00  0.00000000000E+00 -0.11676172211E+04  0.11676172211E+04  0.25500000920E-02 0.  1.
    10030    2    1    2    0    0  0.00000000000E+00  0.00000000000E+00  0.68024374458E+02  0.24032588167E+04  0.24022959070E+04 0.  0.
        1    1    3    3  502    0  0.11919098972E+04 -0.42890975788E+01  0.18269479536E+03  0.12058378779E+04  0.50400001928E-02 0. -1.
       -1    1    3    3    0  502 -0.11919098972E+04  0.42890975788E+01 -0.11467042091E+03  0.11974209389E+04  0.50400001928E-02 0.  1.
</event>
<event>
 5   0  0.5196696E-06  0.2420369E+04  0.7818609E-02  0.8431917E-01
        1   -1    0    0  501    0  0.00000000000E+00  0.00000000000E+00  0.16642304017E+04  0.16642304017E+04  0.50400001928E-02 0.  1.
       -1   -1    0    0    0  501  0.00000000000E+00  0.00000000000E+00 -0.88001445773E+03  0.88001445775E+03  0.50400001928E-02 0. -1.
    10030    2    1    2    0    0  0.00000000000E+00  0.00000000000E+00  0.78421594396E+03  0.25442448594E+04  0.24203692400E+04 0.  0.
        1    1    3    3  502    0 -0.45205556680E+03  0.11210630992E+04  0.33072311408E+03  0.12532016941E+04  0.50400001928E-02 0. -1.
       -1    1    3    3    0  502  0.45205556680E+03 -0.11210630992E+04  0.45349282988E+03  0.12910431653E+04  0.50400001928E-02 0.  1.
</event>
<event>
 5   0  0.1169371E-05  0.2399871E+04  0.7818609E-02  0.8439552E-01
       -2   -1    0    0    0  501  0.00000000000E+00  0.00000000000E+00  0.87027397605E+03  0.87027397606E+03  0.25500000920E-02 0. -1.
        2   -1    0    0  501    0  0.00000000000E+00  0.00000000000E+00 -0.16544735097E+04  0.16544735097E+04  0.25500000920E-02 0.  1.
    10030    2    1    2    0    0  0.00000000000E+00  0.00000000000E+00 -0.78419953368E+03  0.25247474858E+04  0.23998710295E+04 0.  0.
        2    1    3    3  502    0 -0.10899358448E+04 -0.38139563509E+03 -0.73529930833E+03  0.13689732828E+04  0.25500000920E-02 0.  1.
       -2    1    3    3    0  502  0.10899358448E+04  0.38139563509E+03 -0.48900225352E+02  0.11557742030E+04  0.25500000920E-02 0. -1.
</event>
<event>
 5   0  0.5104174E-06  0.2400319E+04  0.7818609E-02  0.8439384E-01
       -1   -1    0    0    0  501  0.00000000000E+00  0.00000000000E+00  0.11494517682E+04  0.11494517683E+04  0.50400001928E-02 0.  1.
        1   -1    0    0  501    0  0.00000000000E+00  0.00000000000E+00 -0.12531044480E+04  0.12531044480E+04  0.50400001928E-02 0. -1.
    10030    2    1    2    0    0  0.00000000000E+00  0.00000000000E+00 -0.10365267972E+03  0.24025562162E+04  0.24003192484E+04 0.  0.
        3    1    3    3  502    0  0.10074586602E+04  0.62135641449E+03 -0.25031992092E+03  0.12098416503E+04  0.10100000352E+00 0. -1.
       -3    1    3    3    0  502 -0.10074586602E+04 -0.62135641449E+03  0.14666724119E+03  0.11927145659E+04  0.10100000352E+00 0.  1.
</event>
<event>
 5   0  0.1168435E-05  0.2399849E+04  0.7818609E-02  0.8439560E-01
        2   -1    0    0  501    0  0.00000000000E+00  0.00000000000E+00  0.26558523148E+04  0.26558523148E+04  0.25500000920E-02 0.  1.
       -2   -1    0    0    0  501  0.00000000000E+00  0.00000000000E+00 -0.54213067664E+03  0.54213067665E+03  0.25500000920E-02 0. -1.
    10030    2    1    2    0    0  0.00000000000E+00  0.00000000000E+00  0.21137216381E+04  0.31979829914E+04  0.23998491723E+04 0.  0.
        1    1    3    3  502    0  0.24788496600E+03 -0.69368084426E+03  0.23190711713E+04  0.24332552615E+04  0.50400001928E-02 0. -1.
       -1    1    3    3    0  502 -0.24788496600E+03  0.69368084426E+03 -0.20534953319E+03  0.76472772989E+03  0.50400001928E-02 0.  1.
</event>
<event>
 5   0  0.5104174E-06  0.2385918E+04  0.7818609E-02  0.8444795E-01
        1   -1    0    0  501    0  0.00000000000E+00  0.00000000000E+00  0.10434090665E+04  0.10434090665E+04  0.50400001928E-02 0. -1.
       -1   -1    0    0    0  501  0.00000000000E+00  0.00000000000E+00 -0.13639431503E+04  0.13639431503E+04  0.50400001928E-02 0.  1.
    10030    2    1    2    0    0  0.00000000000E+00  0.00000000000E+00 -0.32053408380E+03  0.24073522167E+04  0.23859175586E+04 0.  0.
        3    1    3    3  502    0 -0.37905917913E+03  0.38697444864E+02  0.98036106996E+03  0.10518037798E+04  0.10100000352E+00 0. -1.
       -3    1    3    3    0  502  0.37905917913E+03 -0.38697444864E+02 -0.13008951538E+04  0.13555484369E+04  0.10100000352E+00 0.  1.
</event>
<event>
 5   0  0.1198313E-05  0.2401035E+04  0.7818609E-02  0.8439116E-01
       -2   -1    0    0    0  501  0.00000000000E+00  0.00000000000E+00  0.81099540585E+03  0.81099540585E+03  0.25500000920E-02 0.  1.
        2   -1    0    0  501    0  0.00000000000E+00  0.00000000000E+00 -0.17771274874E+04  0.17771274874E+04  0.25500000920E-02 0. -1.
    10030    2    1    2    0    0  0.00000000000E+00  0.00000000000E+00 -0.96613208159E+03  0.25881228933E+04  0.24010349668E+04 0.  0.
        5    1    3    3  502    0  0.13337473431E+03  0.83267203904E+03  0.43796483895E+03  0.95024567060E+03  0.46999998093E+01 0.  1.
       -5    1    3    3    0  502 -0.13337473431E+03 -0.83267203904E+03 -0.14040969205E+04  0.16378772227E+04  0.46999998093E+01 0. -1.
</event>
<event>
 5   0  0.1168435E-05  0.2392410E+04  0.7818609E-02  0.8442350E-01
        2   -1    0    0  501    0  0.00000000000E+00  0.00000000000E+00  0.17622718688E+04  0.17622718688E+04  0.25500000920E-02 0. -1.
       -2   -1    0    0    0  501  0.00000000000E+00  0.00000000000E+00 -0.81196709816E+03  0.81196709816E+03  0.25500000920E-02 0.  1.
    10030    2    1    2    0    0  0.00000000000E+00  0.00000000000E+00  0.95030477060E+03  0.25742389669E+04  0.23924103122E+04 0.  0.
        1    1    3    3  502    0  0.70796939361E+03  0.83893025106E+03  0.98654464203E+03  0.14759047934E+04  0.50400001928E-02 0. -1.
       -1    1    3    3    0  502 -0.70796939361E+03 -0.83893025106E+03 -0.36239871438E+02  0.10983341735E+04  0.50400001928E-02 0.  1.
</event>
<event>
 5   0  0.5064437E-06  0.2398178E+04  0.7818609E-02  0.8440186E-01
        1   -1    0    0  501    0  0.00000000000E+00  0.00000000000E+00  0.90887418121E+03  0.90887418122E+03  0.50400001928E-02 0. -1.
       -1   -1    0    0    0  501  0.00000000000E+00  0.00000000000E+00 -0.15819728323E+04  0.15819728323E+04  0.50400001928E-02 0.  1.
    10030    2    1    2    0    0  0.00000000000E+00  0.00000000000E+00 -0.67309865111E+03  0.24908470136E+04  0.23981778605E+04 0.  0.
        2    1    3    3  502    0  0.10746505978E+04  0.33396932497E+03 -0.76655799551E+03  0.13616242426E+04  0.25500000920E-02 0.  1.
       -2    1    3    3    0  502 -0.10746505978E+04 -0.33396932497E+03  0.93459344401E+02  0.11292227710E+04  0.25500000920E-02 0. -1.
</event>
<event>
 5   0  0.1169371E-05  0.2343208E+04  0.7818609E-02  0.8461077E-01
        2   -1    0    0  501    0  0.00000000000E+00  0.00000000000E+00  0.30132249452E+04  0.30132249452E+04  0.25500000920E-02 0. -1.
       -2   -1    0    0    0  501  0.00000000000E+00  0.00000000000E+00 -0.45554366949E+03  0.45554366950E+03  0.25500000920E-02 0.  1.
    10030    2    1    2    0    0  0.00000000000E+00  0.00000000000E+00  0.25576812757E+04  0.34687686147E+04  0.23432076720E+04 0.  0.
        2    1    3    3  502    0 -0.70696989231E+03 -0.30259136498E+02  0.26611531320E+04  0.27536263428E+04  0.25500000920E-02 0. -1.
       -2    1    3    3    0  502  0.70696989231E+03  0.30259136498E+02 -0.10347185629E+03  0.71514227187E+03  0.25500000920E-02 0.  1.
</event>
<event>
 5   0  0.1168435E-05  0.2446309E+04  0.7818609E-02  0.8422367E-01
       -2   -1    0    0    0  501  0.00000000000E+00  0.00000000000E+00  0.81752118453E+03  0.81752118453E+03  0.25500000920E-02 0. -1.
        2   -1    0    0  501    0  0.00000000000E+00  0.00000000000E+00 -0.18300528107E+04  0.18300528107E+04  0.25500000920E-02 0.  1.
    10030    2    1    2    0    0  0.00000000000E+00  0.00000000000E+00 -0.10125316261E+04  0.26475739952E+04  0.24463090087E+04 0.  0.
        1    1    3    3  502    0 -0.15707332929E+03 -0.50344640900E+03 -0.17006836180E+04  0.17805771778E+04  0.50400001928E-02 0.  1.
       -1    1    3    3    0  502  0.15707332929E+03  0.50344640900E+03  0.68815199185E+03  0.86699681742E+03  0.50400001928E-02 0. -1.
</event>
<event>
 5   0  0.5064437E-06  0.2407993E+04  0.7818609E-02  0.8436517E-01
       -1   -1    0    0    0  501  0.00000000000E+00  0.00000000000E+00  0.14837506778E+04  0.14837506778E+04  0.50400001928E-02 0.  1.
        1   -1    0    0  501    0  0.00000000000E+00  0.00000000000E+00 -0.97698862278E+03  0.97698862279E+03  0.50400001928E-02 0. -1.
    10030    2    1    2    0    0  0.00000000000E+00  0.00000000000E+00  0.50676205498E+03  0.24607393006E+04  0.24079929661E+04 0.  0.
        2    1    3    3  502    0  0.96874516400E+03 -0.67269364051E+03  0.50080777727E+03  0.12813244540E+04  0.25500000920E-02 0.  1.
       -2    1    3    3    0  502 -0.96874516400E+03  0.67269364051E+03  0.59542777080E+01  0.11794148465E+04  0.25500000920E-02 0. -1.
</event>
<event>
 5   0  0.5034479E-06  0.2399056E+04  0.7818609E-02  0.8439857E-01
       -1   -1    0    0    0  501  0.00000000000E+00  0.00000000000E+00  0.12341496522E+04  0.12341496522E+04  0.50400001928E-02 0. -1.
        1   -1    0    0  501    0  0.00000000000E+00  0.00000000000E+00 -0.11658774826E+04  0.11658774826E+04  0.50400001928E-02 0.  1.
    10030    2    1    2    0    0  0.00000000000E+00  0.00000000000E+00  0.68272169623E+02  0.24000271348E+04  0.23990558890E+04 0.  0.
        4    1    3    3  502    0 -0.49859368932E+03  0.81018190700E+03 -0.69682742202E+03  0.11792202756E+04  0.12699999809E+01 0.  1.
       -4    1    3    3    0  502  0.49859368932E+03 -0.81018190700E+03  0.76509959164E+03  0.12208068592E+04  0.12699999809E+01 0. -1.
</event>
<event>
 5   0  0.1198313E-05  0.2452885E+04  0.7818609E-02  0.8419966E-01
        2   -1    0    0  501    0  0.00000000000E+00  0.00000000000E+00  0.15879907746E+04  0.15879907746E+04  0.25500000920E-02 0.  1.
       -2   -1    0    0    0  501  0.00000000000E+00  0.00000000000E+00 -0.94720995086E+03  0.94720995086E+03  0.25500000920E-02 0. -1.
    10030    2    1    2    0    0  0.00000000000E+00  0.00000000000E+00  0.64078082379E+03  0.25352007255E+04  0.24528845579E+04 0.  0.
        5    1    3    3  502    0  0.12210316213E+04 -0.85544883420E+02  0.24098492171E+03  0.12475303482E+04  0.46999998093E+01 0. -1.
       -5    1    3    3    0  502 -0.12210316213E+04  0.85544883420E+02  0.39979590208E+03  0.12876703773E+04  0.46999998093E+01 0.  1.
</event>
<event>
 5   0  0.5042742E-06  0.2400252E+04  0.7818609E-02  0.8439409E-01
       -1   -1    0    0    0  501  0.00000000000E+00  0.00000000000E+00  0.15467449073E+04  0.15467449073E+04  0.50400001928E-02 0.  1.
        1   -1    0    0  501    0  0.00000000000E+00  0.00000000000E+00 -0.93118293237E+03  0.93118293239E+03  0.50400001928E-02 0. -1.
    10030    2    1    2    0    0  0.00000000000E+00  0.00000000000E+00  0.61556197488E+03  0.24779278396E+04  0.24002520354E+04 0.  0.
        5    1    3    3  502    0  0.10094923024E+04  0.34673954804E+03 -0.25858701868E+03  0.10982678904E+04  0.46999998093E+01 0. -1.
       -5    1    3    3    0  502 -0.10094923024E+04 -0.34673954804E+03  0.87414899356E+03  0.13796599493E+04  0.46999998093E+01 0.  1.
</event>
<event>
 5   0  0.5104174E-06  0.2402273E+04  0.7818609E-02  0.8438653E-01
       -1   -1    0    0    0  501  0.00000000000E+00  0.00000000000E+00  0.14250953920E+04  0.14250953920E+04  0.50400001928E-02 0.  1.
        1   -1    0    0  501    0  0.00000000000E+00  0.00000000000E+00 -0.10123738292E+04  0.10123738292E+04  0.50400001928E-02 0. -1.
    10030    2    1    2    0    0  0.00000000000E+00  0.00000000000E+00  0.41272156279E+03  0.24374692212E+04  0.24022733224E+04 0.  0.
        3    1    3    3  502    0 -0.58713089195E+03 -0.84636130762E+03 -0.42049252930E+03  0.11125934229E+04  0.10100000352E+00 0. -1.
       -3    1    3    3    0  502  0.58713089195E+03  0.84636130762E+03  0.83321409208E+03  0.13248757982E+04  0.10100000352E+00 0.  1.
</event>
<event>
 5   0  0.1174210E-05  0.2387307E+04  0.7818609E-02  0.8444271E-01
       -2   -1    0    0    0  501  0.00000000000E+00  0.00000000000E+00  0.66452041920E+03  0.66452041920E+03  0.25500000920E-02 0.  1.
        2   -1    0    0  501    0  0.00000000000E+00  0.00000000000E+00 -0.21441162723E+04  0.21441162723E+04  0.25500000920E-02 0. -1.
    10030    2    1    2    0    0  0.00000000000E+00  0.00000000000E+00 -0.14795958531E+04  0.28086366915E+04  0.23873073066E+04 0.  0.
        3    1    3    3  502    0  0.68448702299E+03 -0.81019485284E+03 -0.95548021908E+02  0.10649261096E+04  0.10100000352E+00 0.  1.
       -3    1    3    3    0  502 -0.68448702299E+03  0.81019485284E+03 -0.13840478312E+04  0.17437105819E+04  0.10100000352E+00 0. -1.
</event>
<event>
 5   0  0.1198313E-05  0.2388201E+04  0.7818609E-02  0.8443934E-01
       -2   -1    0    0    0  501  0.00000000000E+00  0.00000000000E+00  0.76398177662E+03  0.76398177662E+03  0.25500000920E-02 0.  1.
        2   -1    0    0  501    0  0.00000000000E+00  0.00000000000E+00 -0.18663743510E+04  0.18663743510E+04  0.25500000920E-02 0. -1.
    10030    2    1    2    0    0  0.00000000000E+00  0.00000000000E+00 -0.11023925744E+04  0.26303561276E+04  0.23882009903E+04 0.  0.
        5    1    3    3  502    0 -0.10845141292E+04 -0.25059762890E+03 -0.75061901839E+02  0.11156282746E+04  0.46999998093E+01 0.  1.
       -5    1    3    3    0  502  0.10845141292E+04  0.25059762890E+03 -0.10273306725E+04  0.15147278530E+04  0.46999998093E+01 0. -1.
</event>
<event>
 5   0  0.5042742E-06  0.2422819E+04  0.7818609E-02  0.8431010E-01
        1   -1    0    0  501    0  0.00000000000E+00  0.00000000000E+00  0.76751649988E+03  0.76751649990E+03  0.50400001928E-02 0. -1.
       -1   -1    0    0    0  501  0.00000000000E+00  0.00000000000E+00 -0.19120273244E+04  0.19120273245E+04  0.50400001928E-02 0.  1.
    10030    2    1    2    0    0  0.00000000000E+00  0.00000000000E+00 -0.11445108246E+04  0.26795438244E+04  0.24228186228E+04 0.  0.
        5    1    3    3  502    0 -0.98407253777E+03  0.38953722887E+03  0.79560748791E+02  0.10613623392E+04  0.46999998093E+01 0. -1.
       -5    1    3    3    0  502  0.98407253777E+03 -0.38953722887E+03 -0.12240715734E+04  0.16181814852E+04  0.46999998093E+01 0.  1.
</event>
<event>
 5   0  0.5064437E-06  0.2240149E+04  0.7818609E-02  0.8501900E-01
       -1   -1    0    0    0  501  0.00000000000E+00  0.00000000000E+00  0.14973566305E+04  0.14973566305E+04  0.50400001928E-02 0. -1.
        1   -1    0    0  501    0  0.00000000000E+00  0.00000000000E+00 -0.83785472681E+03  0.83785472683E+03  0.50400001928E-02 0.  1.
    10030    2    1    2    0    0  0.00000000000E+00  0.00000000000E+00  0.65950190368E+03  0.23352113573E+04  0.22401493974E+04 0.  0.
        2    1    3    3  502    0 -0.25238236820E+03  0.48025304437E+03 -0.69174412452E+03  0.87911875206E+03  0.25500000920E-02 0.  1.
       -2    1    3    3    0  502  0.25238236820E+03 -0.48025304437E+03  0.13512460282E+04  0.14560926053E+04  0.25500000920E-02 0. -1.
</event>
<event>
 5   0  0.1154897E-05  0.2396795E+04  0.7818609E-02  0.8440704E-01
       -2   -1    0    0    0  501  0.00000000000E+00  0.00000000000E+00  0.88136058628E+03  0.88136058629E+03  0.25500000920E-02 0.  1.
        2   -1    0    0  501    0  0.00000000000E+00  0.00000000000E+00 -0.16294767922E+04  0.16294767922E+04  0.25500000920E-02 0. -1.
    10030    2    1    2    0    0  0.00000000000E+00  0.00000000000E+00 -0.74811620596E+03  0.25108373785E+04  0.23967950442E+04 0.  0.
        4    1    3    3  502    0  0.35075703269E+03 -0.15639698475E+03  0.81514934048E+03  0.90108854893E+03  0.12699999809E+01 0.  1.
       -4    1    3    3    0  502 -0.35075703269E+03  0.15639698475E+03 -0.15632655464E+04  0.16097488296E+04  0.12699999809E+01 0. -1.
</event>
<event>
 5   0  0.1198313E-05  0.2262894E+04  0.7818609E-02  0.8492697E-01
       -2   -1    0    0    0  501  0.00000000000E+00  0.00000000000E+00  0.69543098585E+03  0.69543098586E+03  0.25500000920E-02 0. -1.
        2   -1    0    0  501    0  0.00000000000E+00  0.00000000000E+00 -0.18408330506E+04  0.18408330506E+04  0.25500000920E-02 0.  1.
    10030    2    1    2    0    0  0.00000000000E+00  0.00000000000E+00 -0.11454020647E+04  0.25362640364E+04  0.22628940259E+04 0.  0.
        5    1    3    3  502    0 -0.89574135105E+03 -0.69063575801E+03 -0.60479474360E+03  0.12826258574E+04  0.46999998093E+01 0.  1.
       -5    1    3    3    0  502  0.89574135105E+03  0.69063575801E+03 -0.54060732111E+03  0.12536381790E+04  0.46999998093E+01 0. -1.
</event>
<event>
 5   0  0.5196696E-06  0.2403936E+04  0.7818609E-02  0.8438032E-01
       -1   -1    0    0    0  501  0.00000000000E+00  0.00000000000E+00  0.12358876250E+04  0.12358876250E+04  0.50400001928E-02 0.  1.
        1   -1    0    0  501    0  0.00000000000E+00  0.00000000000E+00 -0.11689788937E+04  0.11689788937E+04  0.50400001928E-02 0. -1.
    10030    2    1    2    0    0  0.00000000000E+00  0.00000000000E+00  0.66908731325E+02  0.24048665188E+04  0.24039355638E+04 0.  0.
        1    1    3    3  502    0  0.17282141116E+03  0.79875167332E+03  0.91518952071E+03  0.12269650910E+04  0.50400001928E-02 0.  1.
       -1    1    3    3    0  502 -0.17282141116E+03 -0.79875167332E+03 -0.84828078938E+03  0.11779014277E+04  0.50400001928E-02 0. -1.
</event>
<event>
 5   0  0.1169371E-05  0.2392360E+04  0.7818609E-02  0.8442370E-01
        2   -1    0    0  501    0  0.00000000000E+00  0.00000000000E+00  0.89574316116E+03  0.89574316116E+03  0.25500000920E-02 0. -1.
       -2   -1    0    0    0  501  0.00000000000E+00  0.00000000000E+00 -0.15973842832E+04  0.15973842832E+04  0.25500000920E-02 0.  1.
    10030    2    1    2    0    0  0.00000000000E+00  0.00000000000E+00 -0.70164112206E+03  0.24931274444E+04  0.23923595444E+04 0.  0.
        2    1    3    3  502    0  0.38092111103E+03  0.10497199016E+04 -0.79763798563E+03  0.13723115976E+04  0.25500000920E-02 0.  1.
       -2    1    3    3    0  502 -0.38092111103E+03 -0.10497199016E+04  0.95996863573E+02  0.11208158468E+04  0.25500000920E-02 0. -1.
</event>
<event>
 5   0  0.5064437E-06  0.2364294E+04  0.7818609E-02  0.8452994E-01
        1   -1    0    0  501    0  0.00000000000E+00  0.00000000000E+00  0.10808455336E+04  0.10808455336E+04  0.50400001928E-02 0.  1.
       -1   -1    0    0    0  501  0.00000000000E+00  0.00000000000E+00 -0.12929427768E+04  0.12929427768E+04  0.50400001928E-02 0. -1.
    10030    2    1    2    0    0  0.00000000000E+00  0.00000000000E+00 -0.21209724318E+03  0.23737883104E+04  0.23642939120E+04 0.  0.
        2    1    3    3  502    0 -0.92978053123E+03 -0.72673660513E+03 -0.17585115855E+03  0.11931309901E+04  0.25500000920E-02 0. -1.
       -2    1    3    3    0  502  0.92978053123E+03  0.72673660513E+03 -0.36246084622E+02  0.11806573204E+04  0.25500000920E-02 0.  1.
</event>
<event>
 5   0  0.1168435E-05  0.2393556E+04  0.7818609E-02  0.8441920E-01
        2   -1    0    0  501    0  0.00000000000E+00  0.00000000000E+00  0.85789191352E+03  0.85789191352E+03  0.25500000920E-02 0.  1.
       -2   -1    0    0    0  501  0.00000000000E+00  0.00000000000E+00 -0.16695316829E+04  0.16695316829E+04  0.25500000920E-02 0. -1.
    10030    2    1    2    0    0  0.00000000000E+00  0.00000000000E+00 -0.81163976941E+03  0.25274235965E+04  0.23935561244E+04 0.  0.
        1    1    3    3  502    0  0.57750385308E+03 -0.85482710673E+03 -0.10464104580E+04  0.14694267349E+04  0.50400001928E-02 0. -1.
       -1    1    3    3    0  502 -0.57750385308E+03  0.85482710673E+03  0.23477068859E+03  0.10579968615E+04  0.50400001928E-02 0.  1.
</event>
<event>
 5   0  0.5104174E-06  0.2492908E+04  0.7818609E-02  0.8405516E-01
        1   -1    0    0  501    0  0.00000000000E+00  0.00000000000E+00  0.17462027928E+04  0.17462027928E+04  0.50400001928E-02 0.  1.
       -1   -1    0    0    0  501  0.00000000000E+00  0.00000000000E+00 -0.88972911753E+03  0.88972911754E+03  0.50400001928E-02 0. -1.
    10030    2    1    2    0    0  0.00000000000E+00  0.00000000000E+00  0.85647367528E+03  0.26359319103E+04  0.24929079164E+04 0.  0.
        3    1    3    3  502    0  0.38209301392E+03  0.11624773748E+04  0.17735033700E+03  0.12364472777E+04  0.10100000352E+00 0. -1.
       -3    1    3    3    0  502 -0.38209301392E+03 -0.11624773748E+04  0.67912333828E+03  0.13994846327E+04  0.10100000352E+00 0.  1.
</event>
<event>
 5   0  0.5104174E-06  0.2430018E+04  0.7818609E-02  0.8428350E-01
       -1   -1    0    0    0  501  0.00000000000E+00  0.00000000000E+00  0.13619012602E+04  0.13619012602E+04  0.50400001928E-02 0.  1.
        1   -1    0    0  501    0  0.00000000000E+00  0.00000000000E+00 -0.10839603571E+04  0.10839603571E+04  0.50400001928E-02 0. -1.
    10030    2    1    2    0    0  0.00000000000E+00  0.00000000000E+00  0.27794090311E+03  0.24458616174E+04  0.24300180875E+04 0.  0.
        3    1    3    3  502    0 -0.71906266999E+03  0.94693196389E+03  0.39063203219E+03  0.12515289299E+04  0.10100000352E+00 0. -1.
       -3    1    3    3    0  502  0.71906266999E+03 -0.94693196389E+03 -0.11269112909E+03  0.11943326875E+04  0.10100000352E+00 0.  1.
</event>
<event>
 5   0  0.1154897E-05  0.2432844E+04  0.7818609E-02  0.8427309E-01
       -2   -1    0    0    0  501  0.00000000000E+00  0.00000000000E+00  0.87952115038E+03  0.87952115039E+03  0.25500000920E-02 0. -1.
        2   -1    0    0  501    0  0.00000000000E+00  0.00000000000E+00 -0.16823723847E+04  0.16823723847E+04  0.25500000920E-02 0.  1.
    10030    2    1    2    0    0  0.00000000000E+00  0.00000000000E+00 -0.80285123431E+03  0.25618935351E+04  0.24328436819E+04 0.  0.
        4    1    3    3  502    0 -0.65837095688E+03  0.10080983270E+04 -0.21913649993E+03  0.12238206455E+04  0.12699999809E+01 0.  1.
       -4    1    3    3    0  502  0.65837095688E+03 -0.10080983270E+04 -0.58371473438E+03  0.13380728896E+04  0.12699999809E+01 0. -1.
</event>
<event>
 5   0  0.1168435E-05  0.2398637E+04  0.7818609E-02  0.8440014E-01
        2   -1    0    0  501    0  0.00000000000E+00  0.00000000000E+00  0.17403021998E+04  0.17403021998E+04  0.25500000920E-02 0. -1.
       -2   -1    0    0    0  501  0.00000000000E+00  0.00000000000E+00 -0.82650259940E+03  0.82650259940E+03  0.25500000920E-02 0.  1.
    10030    2    1    2    0    0  0.00000000000E+00  0.00000000000E+00  0.91379960037E+03  0.25668047992E+04  0.23986365226E+04 0.  0.
        1    1    3    3  502    0 -0.48405547744E+03 -0.13292822570E+03 -0.70867772374E+03  0.86844903971E+03  0.50400001928E-02 0.  1.
       -1    1    3    3    0  502  0.48405547744E+03  0.13292822570E+03  0.16224773241E+04  0.16983557595E+04  0.50400001928E-02 0. -1.
</event>
<event>
 5   0  0.4067750E-06  0.2404884E+04  0.7818609E-02  0.8437677E-01
        4   -1    0    0  501    0  0.00000000000E+00  0.00000000000E+00  0.14561555906E+04  0.14561561444E+04  0.12699999809E+01 0. -1.
       -4   -1    0    0    0  501  0.00000000000E+00  0.00000000000E+00 -0.99293298402E+03  0.99293379621E+03  0.12699999809E+01 0.  1.
    10030    2    1    2    0    0  0.00000000000E+00  0.00000000000E+00  0.46322260658E+03  0.24490899406E+04  0.24048838546E+04 0.  0.
        4    1    3    3  502    0 -0.63349971336E+03  0.67969737318E+03 -0.54567127635E+03  0.10775291925E+04  0.12699999809E+01 0.  1.
       -4    1    3    3    0  502  0.63349971336E+03 -0.67969737318E+03  0.10088938829E+04  0.13715607481E+04  0.12699999809E+01 0. -1.
</event>
<event>
 5   0  0.5034479E-06  0.2400733E+04  0.7818609E-02  0.8439229E-01
        1   -1    0    0  501    0  0.00000000000E+00  0.00000000000E+00  0.13132361150E+04  0.13132361150E+04  0.50400001928E-02 0.  1.
       -1   -1    0    0    0  501  0.00000000000E+00  0.00000000000E+00 -0.10971980980E+04  0.10971980980E+04  0.50400001928E-02 0. -1.
    10030    2    1    2    0    0  0.00000000000E+00  0.00000000000E+00  0.21603801700E+03  0.24104342129E+04  0.24007333609E+04 0.  0.
        4    1    3    3  502    0  0.38626168162E+03 -0.60711406252E+03  0.10726785855E+04  0.12916758619E+04  0.12699999809E+01 0.  1.
       -4    1    3    3    0  502 -0.38626168162E+03  0.60711406252E+03 -0.85664056845E+03  0.11187583510E+04  0.12699999809E+01 0. -1.
</event>
<event>
 5   0  0.5042742E-06  0.2399600E+04  0.7818609E-02  0.8439653E-01
       -1   -1    0    0    0  501  0.00000000000E+00  0.00000000000E+00  0.11220381313E+04  0.11220381314E+04  0.50400001928E-02 0.  1.
        1   -1    0    0  501    0  0.00000000000E+00  0.00000000000E+00 -0.12829514704E+04  0.12829514704E+04  0.50400001928E-02 0. -1.
    10030    2    1    2    0    0  0.00000000000E+00  0.00000000000E+00 -0.16091333903E+03  0.24049896017E+04  0.23996003588E+04 0.  0.
        5    1    3    3  502    0  0.82933293752E+03 -0.66458559028E+03 -0.63851169327E+03  0.12398332148E+04  0.46999998093E+01 0. -1.
       -5    1    3    3    0  502 -0.82933293752E+03  0.66458559028E+03  0.47759835424E+03  0.11651563869E+04  0.46999998093E+01 0.  1.
</event>
<event>
 5   0  0.1169371E-05  0.2416590E+04  0.7818609E-02  0.8433318E-01
        2   -1    0    0  501    0  0.00000000000E+00  0.00000000000E+00  0.22372449369E+04  0.22372449369E+04  0.25500000920E-02 0.  1.
       -2   -1    0    0    0  501  0.00000000000E+00  0.00000000000E+00 -0.65257814399E+03  0.65257814399E+03  0.25500000920E-02 0. -1.
    10030    2    1    2    0    0  0.00000000000E+00  0.00000000000E+00  0.15846667929E+04  0.28898230809E+04  0.24165902827E+04 0.  0.
        2    1    3    3  502    0 -0.10012770624E+04  0.34590525018E+03  0.14873247136E+04  0.18260177988E+04  0.25500000920E-02 0.  1.
       -2    1    3    3    0  502  0.10012770624E+04 -0.34590525018E+03  0.97342079325E+02  0.10638052821E+04  0.25500000920E-02 0. -1.
</event>
<event>
 5   0  0.5034479E-06  0.2416667E+04  0.7818609E-02  0.8433290E-01
       -1   -1    0    0    0  501  0.00000000000E+00  0.00000000000E+00  0.10089647689E+04  0.10089647689E+04  0.50400001928E-02 0.  1.
        1   -1    0    0  501    0  0.00000000000E+00  0.00000000000E+00 -0.14470968128E+04  0.14470968128E+04  0.50400001928E-02 0. -1.
    10030    2    1    2    0    0  0.00000000000E+00  0.00000000000E+00 -0.43813204387E+03  0.24560615817E+04  0.24166668793E+04 0.  0.
        4    1    3    3  502    0 -0.22220826597E+03  0.96170870652E+03 -0.92742722280E+03  0.13543939664E+04  0.12699999809E+01 0. -1.
       -4    1    3    3    0  502  0.22220826597E+03 -0.96170870652E+03  0.48929517894E+03  0.11016676153E+04  0.12699999809E+01 0.  1.
</event>
<event>
 5   0  0.1198313E-05  0.2348866E+04  0.7818609E-02  0.8458899E-01
       -2   -1    0    0    0  501  0.00000000000E+00  0.00000000000E+00  0.12335498010E+04  0.12335498010E+04  0.25500000920E-02 0. -1.
        2   -1    0    0  501    0  0.00000000000E+00  0.00000000000E+00 -0.11181495273E+04  0.11181495273E+04  0.25500000920E-02 0.  1.
    10030    2    1    2    0    0  0.00000000000E+00  0.00000000000E+00  0.11540027368E+03  0.23516993283E+04  0.23488662174E+04 0.  0.
        5    1    3    3  502    0 -0.16145869388E+02  0.11471755464E+04 -0.19359784982E+03  0.11635182168E+04  0.46999998093E+01 0.  1.
       -5    1    3    3    0  502  0.16145869388E+02 -0.11471755464E+04  0.30899812350E+03  0.11881811115E+04  0.46999998093E+01 0. -1.
</event>
<event>
 5   0  0.5042742E-06  0.2417011E+04  0.7818609E-02  0.8433162E-01
        1   -1    0    0  501    0  0.00000000000E+00  0.00000000000E+00  0.68956274705E+03  0.68956274707E+03  0.50400001928E-02 0.  1.
       -1   -1    0    0    0  501  0.00000000000E+00  0.00000000000E+00 -0.21179884344E+04  0.21179884344E+04  0.50400001928E-02 0. -1.
    10030    2    1    2    0    0  0.00000000000E+00  0.00000000000E+00 -0.14284256873E+04  0.28075511814E+04  0.24170113141E+04 0.  0.
        5    1    3    3  502    0 -0.86256510975E+03 -0.84638530737E+03 -0.70400838270E+03  0.13985837658E+04  0.46999998093E+01 0. -1.
       -5    1    3    3    0  502  0.86256510975E+03  0.84638530737E+03 -0.72441730461E+03  0.14089674156E+04  0.46999998093E+01 0.  1.
</event>
<event>
 5   0  0.5196696E-06  0.2325155E+04  0.7818609E-02  0.8468068E-01
        1   -1    0    0  501    0  0.00000000000E+00  0.00000000000E+00  0.12409267885E+04  0.12409267885E+04  0.50400001928E-02 0. -1.
       -1   -1    0    0    0  501  0.00000000000E+00  0.00000000000E+00 -0.10891752354E+04  0.10891752354E+04  0.50400001928E-02 0.  1.
    10030    2    1    2    0    0  0.00000000000E+00  0.00000000000E+00  0.15175155311E+03  0.23301020240E+04  0.23251552439E+04 0.  0.
        1    1    3    3  502    0 -0.95670369384E+03  0.40278339369E+03  0.60050680837E+03  0.11992184317E+04  0.50400001928E-02 0. -1.
       -1    1    3    3    0  502  0.95670369384E+03 -0.40278339369E+03 -0.44875525526E+03  0.11308835922E+04  0.50400001928E-02 0.  1.
</event>
<event>
 5   0  0.1169371E-05  0.2398755E+04  0.7818609E-02  0.8439970E-01
       -2   -1    0    0    0  501  0.00000000000E+00  0.00000000000E+00  0.97462223644E+03  0.97462223644E+03  0.25500000920E-02 0. -1.
        2   -1    0    0  501    0  0.00000000000E+00  0.00000000000E+00 -0.14759631337E+04  0.14759631337E+04  0.25500000920E-02 0.  1.
    10030    2    1    2    0    0  0.00000000000E+00  0.00000000000E+00 -0.50134089725E+03  0.24505853701E+04  0.23987550857E+04 0.  0.
        2    1    3    3  502    0  0.13161285890E+03 -0.10414487297E+04  0.34201060143E+03  0.11040419614E+04  0.25500000920E-02 0. -1.
       -2    1    3    3    0  502 -0.13161285890E+03  0.10414487297E+04 -0.84335149868E+03  0.13465434087E+04  0.25500000920E-02 0.  1.
</event>
<event>
 5   0  0.5042742E-06  0.2399868E+04  0.7818609E-02  0.8439553E-01
       -1   -1    0    0    0  501  0.00000000000E+00  0.00000000000E+00  0.10348255974E+04  0.10348255975E+04  0.50400001928E-02 0. -1.
        1   -1    0    0  501    0  0.00000000000E+00  0.00000000000E+00 -0.13913856074E+04  0.13913856075E+04  0.50400001928E-02 0.  1.
    10030    2    1    2    0    0  0.00000000000E+00  0.00000000000E+00 -0.35656001000E+03  0.24262112049E+04  0.23998678651E+04 0.  0.
        5    1    3    3  502    0 -0.12889886446E+03  0.43544267952E+03  0.94458466375E+03  0.10480875543E+04  0.46999998093E+01 0. -1.
       -5    1    3    3    0  502  0.12889886446E+03 -0.43544267952E+03 -0.13011446738E+04  0.13781236506E+04  0.46999998093E+01 0.  1.
</event>
<event>
 5   0  0.1168435E-05  0.2401433E+04  0.7818609E-02  0.8438967E-01
        2   -1    0    0  501    0  0.00000000000E+00  0.00000000000E+00  0.15503368159E+04  0.15503368159E+04  0.25500000920E-02 0. -1.
       -2   -1    0    0    0  501  0.00000000000E+00  0.00000000000E+00 -0.92994025607E+03  0.92994025608E+03  0.25500000920E-02 0.  1.
    10030    2    1    2    0    0  0.00000000000E+00  0.00000000000E+00  0.62039655981E+03  0.24802770720E+04  0.24014334182E+04 0.  0.
        1    1    3    3  502    0 -0.53953932197E+02  0.43847937798E+03 -0.84294614326E+03  0.95170026383E+03  0.50400001928E-02 0.  1.
       -1    1    3    3    0  502  0.53953932197E+02 -0.43847937798E+03  0.14633427031E+04  0.15285768081E+04  0.50400001928E-02 0. -1.
</event>
<event>
 5   0  0.5196696E-06  0.2401295E+04  0.7818609E-02  0.8439019E-01
        1   -1    0    0  501    0  0.00000000000E+00  0.00000000000E+00  0.84592549034E+03  0.84592549035E+03  0.50400001928E-02 0. -1.
       -1   -1    0    0    0  501  0.00000000000E+00  0.00000000000E+00 -0.17041155126E+04  0.17041155126E+04  0.50400001928E-02 0.  1.
    10030    2    1    2    0    0  0.00000000000E+00  0.00000000000E+00 -0.85819002228E+03  0.25500410030E+04  0.24012952760E+04 0.  0.
        1    1    3    3  502    0 -0.42709368613E+03  0.11166346923E+04 -0.31145051381E+03  0.12354284582E+04  0.50400001928E-02 0.  1.
       -1    1    3    3    0  502  0.42709368613E+03 -0.11166346923E+04 -0.54673950848E+03  0.13146125448E+04  0.50400001928E-02 0. -1.
</event>
<event>
 5   0  0.5064437E-06  0.2342034E+04  0.7818609E-02  0.8461530E-01
       -1   -1    0    0    0  501  0.00000000000E+00  0.00000000000E+00  0.99015896691E+03  0.99015896692E+03  0.50400001928E-02 0.  1.
        1   -1    0    0  501    0  0.00000000000E+00  0.00000000000E+00 -0.13849098402E+04  0.13849098402E+04  0.50400001928E-02 0. -1.
    10030    2    1    2    0    0  0.00000000000E+00  0.00000000000E+00 -0.39475087331E+03  0.23750688071E+04  0.23420340704E+04 0.  0.
        2    1    3    3  502    0  0.11305359219E+03 -0.35690109368E+03  0.92783415615E+03  0.10005177293E+04  0.25500000920E-02 0.  1.
       -2    1    3    3    0  502 -0.11305359219E+03  0.35690109368E+03 -0.13225850295E+04  0.13745510778E+04  0.25500000920E-02 0. -1.
</event>
<event>
 5   0  0.1154897E-05  0.2405454E+04  0.7818609E-02  0.8437465E-01
        2   -1    0    0  501    0  0.00000000000E+00  0.00000000000E+00  0.22461320924E+04  0.22461320924E+04  0.25500000920E-02 0. -1.
       -2   -1    0    0    0  501  0.00000000000E+00  0.00000000000E+00 -0.64401915276E+03  0.64401915277E+03  0.25500000920E-02 0.  1.
    10030    2    1    2    0    0  0.00000000000E+00  0.00000000000E+00  0.16021129397E+04  0.28901512452E+04  0.24054538758E+04 0.  0.
        4    1    3    3  502    0 -0.65973905512E+02  0.17508452620E+03  0.22285384785E+04  0.22363793307E+04  0.12699999809E+01 0. -1.
       -4    1    3    3    0  502  0.65973905512E+02 -0.17508452620E+03 -0.62642553888E+03  0.65377191450E+03  0.12699999809E+01 0.  1.
</event>
<event>
 5   0  0.1169371E-05  0.2393067E+04  0.7818609E-02  0.8442104E-01
        2   -1    0    0  501    0  0.00000000000E+00  0.00000000000E+00  0.91358346333E+03  0.91358346333E+03  0.25500000920E-02 0.  1.
       -2   -1    0    0    0  501  0.00000000000E+00  0.00000000000E+00 -0.15671171564E+04  0.15671171564E+04  0.25500000920E-02 0. -1.
    10030    2    1    2    0    0  0.00000000000E+00  0.00000000000E+00 -0.65353369310E+03  0.24807006198E+04  0.23930669186E+04 0.  0.
        2    1    3    3  502    0 -0.10988456782E+04  0.47352977521E+03 -0.32654283538E+03  0.12402912948E+04  0.25500000920E-02 0.  1.
       -2    1    3    3    0  502  0.10988456782E+04 -0.47352977521E+03 -0.32699085772E+03  0.12404093250E+04  0.25500000920E-02 0. -1.
</event>
<event>
 5   0  0.1154897E-05  0.2400698E+04  0.7818609E-02  0.8439242E-01
        2   -1    0    0  501    0  0.00000000000E+00  0.00000000000E+00  0.14844581355E+04  0.14844581355E+04  0.25500000920E-02 0.  1.
       -2   -1    0    0    0  501  0.00000000000E+00  0.00000000000E+00 -0.97061554712E+03  0.97061554713E+03  0.25500000920E-02 0. -1.
    10030    2    1    2    0    0  0.00000000000E+00  0.00000000000E+00  0.51384258842E+03  0.24550736827E+04  0.24006983529E+04 0.  0.
        4    1    3    3  502    0  0.17668480327E+03 -0.44294157092E+03 -0.86958294118E+03  0.99176149322E+03  0.12699999809E+01 0. -1.
       -4    1    3    3    0  502 -0.17668480327E+03  0.44294157092E+03  0.13834255296E+04  0.14633121894E+04  0.12699999809E+01 0.  1.
</event>
<event>
 5   0  0.5064437E-06  0.2393006E+04  0.7818609E-02  0.8442127E-01
        1   -1    0    0  501    0  0.00000000000E+00  0.00000000000E+00  0.10959259737E+04  0.10959259738E+04  0.50400001928E-02 0. -1.
       -1   -1    0    0    0  501  0.00000000000E+00  0.00000000000E+00 -0.13063101322E+04  0.13063101322E+04  0.50400001928E-02 0.  1.
    10030    2    1    2    0    0  0.00000000000E+00  0.00000000000E+00 -0.21038415850E+03  0.24022361060E+04  0.23930058117E+04 0.  0.
        2    1    3    3  502    0  0.83500428242E+03 -0.42195421203E+03 -0.85395226182E+03  0.12666933229E+04  0.25500000920E-02 0.  1.
       -2    1    3    3    0  502 -0.83500428242E+03  0.42195421203E+03  0.64356810333E+03  0.11355427831E+04  0.25500000920E-02 0. -1.
</event>
<event>
 5   0  0.1168435E-05  0.2418234E+04  0.7818609E-02  0.8432708E-01
       -2   -1    0    0    0  501  0.00000000000E+00  0.00000000000E+00  0.60043843834E+03  0.60043843834E+03  0.25500000920E-02 0.  1.
        2   -1    0    0  501    0  0.00000000000E+00  0.00000000000E+00 -0.24348270874E+04  0.24348270874E+04  0.25500000920E-02 0. -1.
    10030    2    1    2    0    0  0.00000000000E+00  0.00000000000E+00 -0.18343886491E+04  0.30352655258E+04  0.24182338795E+04 0.  0.
        1    1    3    3  502    0  0.11923032654E+04  0.17884003175E+03 -0.80220554754E+03  0.14481383132E+04  0.50400001928E-02 0. -1.
       -1    1    3    3    0  502 -0.11923032654E+04 -0.17884003175E+03 -0.10321831015E+04  0.15871272125E+04  0.50400001928E-02 0.  1.
</event>
<event>
 5   0  0.5034479E-06  0.2400906E+04  0.7818609E-02  0.8439164E-01
       -1   -1    0    0    0  501  0.00000000000E+00  0.00000000000E+00  0.79965555770E+03  0.79965555771E+03  0.50400001928E-02 0. -1.
        1   -1    0    0  501    0  0.00000000000E+00  0.00000000000E+00 -0.18021355396E+04  0.18021355396E+04  0.50400001928E-02 0.  1.
    10030    2    1    2    0    0  0.00000000000E+00  0.00000000000E+00 -0.10024799819E+04  0.26017910973E+04  0.24009062455E+04 0.  0.
        4    1    3    3  502    0 -0.21349672188E+03  0.78418131652E+03 -0.14586583057E+04  0.16697924581E+04  0.12699999809E+01 0.  1.
       -4    1    3    3    0  502  0.21349672188E+03 -0.78418131652E+03  0.45617832383E+03  0.93199863919E+03  0.12699999809E+01 0. -1.
</event>
<event>
 5   0  0.5064437E-06  0.2463105E+04  0.7818609E-02  0.8416249E-01
        1   -1    0    0  501    0  0.00000000000E+00  0.00000000000E+00  0.24128288771E+04  0.24128288771E+04  0.50400001928E-02 0.  1.
       -1   -1    0    0    0  501  0.00000000000E+00  0.00000000000E+00 -0.62860741809E+03  0.62860741811E+03  0.50400001928E-02 0. -1.
    10030    2    1    2    0    0  0.00000000000E+00  0.00000000000E+00  0.17842214591E+04  0.30414362953E+04  0.24631054633E+04 0.  0.
        2    1    3    3  502    0  0.97974047416E+03  0.63084121031E+03  0.13842826168E+04  0.18094447746E+04  0.25500000920E-02 0.  1.
       -2    1    3    3    0  502 -0.97974047416E+03 -0.63084121031E+03  0.39993884230E+03  0.12319915206E+04  0.25500000920E-02 0. -1.
</event>
<event>
 5   0  0.5196696E-06  0.2369442E+04  0.7818609E-02  0.8451033E-01
       -1   -1    0    0    0  501  0.00000000000E+00  0.00000000000E+00  0.15834083302E+04  0.15834083303E+04  0.50400001928E-02 0. -1.
        1   -1    0    0  501    0  0.00000000000E+00  0.00000000000E+00 -0.88641971502E+03  0.88641971503E+03  0.50400001928E-02 0.  1.
    10030    2    1    2    0    0  0.00000000000E+00  0.00000000000E+00  0.69698861523E+03  0.24698280453E+04  0.23694424330E+04 0.  0.
        1    1    3    3  502    0  0.52299129582E+03 -0.60818102778E+03 -0.56031580120E+03  0.97844665422E+03  0.50400001928E-02 0.  1.
       -1    1    3    3    0  502 -0.52299129582E+03  0.60818102778E+03  0.12573044164E+04  0.14913813911E+04  0.50400001928E-02 0. -1.
</event>
<event>
 5   0  0.1168435E-05  0.2413176E+04  0.7818609E-02  0.8434587E-01
        2   -1    0    0  501    0  0.00000000000E+00  0.00000000000E+00  0.10625856801E+04  0.10625856801E+04  0.25500000920E-02 0.  1.
       -2   -1    0    0    0  501  0.00000000000E+00  0.00000000000E+00 -0.13701055803E+04  0.13701055803E+04  0.25500000920E-02 0. -1.
    10030    2    1    2    0    0  0.00000000000E+00  0.00000000000E+00 -0.30751990022E+03  0.24326912604E+04  0.24131759736E+04 0.  0.
        1    1    3    3  502    0 -0.71182241711E+03 -0.12497407925E+03 -0.11277748637E+04  0.13394722160E+04  0.50400001928E-02 0. -1.
       -1    1    3    3    0  502  0.71182241711E+03  0.12497407925E+03  0.82025496352E+03  0.10932190445E+04  0.50400001928E-02 0.  1.
</event>
<event>
 5   0  0.5104174E-06  0.2404957E+04  0.7818609E-02  0.8437650E-01
        1   -1    0    0  501    0  0.00000000000E+00  0.00000000000E+00  0.13570411853E+04  0.13570411854E+04  0.50400001928E-02 0.  1.
       -1   -1    0    0    0  501  0.00000000000E+00  0.00000000000E+00 -0.10655198418E+04  0.10655198418E+04  0.50400001928E-02 0. -1.
    10030    2    1    2    0    0  0.00000000000E+00  0.00000000000E+00  0.29152134358E+03  0.24225610271E+04  0.24049568055E+04 0.  0.
        3    1    3    3  502    0 -0.10932000210E+04 -0.42237281538E+03 -0.12541094616E+03  0.11786488013E+04  0.10100000352E+00 0. -1.
       -3    1    3    3    0  502  0.10932000210E+04  0.42237281538E+03  0.41693228974E+03  0.12439122258E+04  0.10100000352E+00 0.  1.
</event>
<event>
 5   0  0.5042742E-06  0.2397554E+04  0.7818609E-02  0.8440420E-01
       -1   -1    0    0    0  501  0.00000000000E+00  0.00000000000E+00  0.87010761154E+03  0.87010761156E+03  0.50400001928E-02 0.  1.
        1   -1    0    0  501    0  0.00000000000E+00  0.00000000000E+00 -0.16515955708E+04  0.16515955708E+04  0.50400001928E-02 0. -1.
    10030    2    1    2    0    0  0.00000000000E+00  0.00000000000E+00 -0.78148795928E+03  0.25217031824E+04  0.23975536510E+04 0.  0.
        5    1    3    3  502    0 -0.85552483211E+02 -0.95570138047E+03  0.36504697357E+03  0.10266283353E+04  0.46999998093E+01 0.  1.
       -5    1    3    3    0  502  0.85552483211E+02  0.95570138047E+03 -0.11465349329E+04  0.14950748470E+04  0.46999998093E+01 0. -1.
</event>
<event>
 5   0  0.5104174E-06  0.2396624E+04  0.7818609E-02  0.8440768E-01
       -1   -1    0    0    0  501  0.00000000000E+00  0.00000000000E+00  0.12434594041E+04  0.12434594041E+04  0.50400001928E-02 0.  1.
        1   -1    0    0  501    0  0.00000000000E+00  0.00000000000E+00 -0.11548042086E+04  0.11548042086E+04  0.50400001928E-02 0. -1.
    10030    2    1    2    0    0  0.00000000000E+00  0.00000000000E+00  0.88655195584E+02  0.23982636127E+04  0.23966244204E+04 0.  0.
        3    1    3    3  502    0  0.75097664378E+03  0.35416189521E+02  0.97809599184E+03  0.12336498715E+04  0.10100000352E+00 0.  1.
       -3    1    3    3    0  502 -0.75097664378E+03 -0.35416189521E+02 -0.88944079626E+03  0.11646137412E+04  0.10100000352E+00 0. -1.
</event>
<event>
 5   0  0.1169371E-05  0.2394991E+04  0.7818609E-02  0.8441381E-01
        2   -1    0    0  501    0  0.00000000000E+00  0.00000000000E+00  0.14907519270E+04  0.14907519270E+04  0.25500000920E-02 0. -1.
       -2   -1    0    0    0  501  0.00000000000E+00  0.00000000000E+00 -0.96192783610E+03  0.96192783611E+03  0.25500000920E-02 0.  1.
    10030    2    1    2    0    0  0.00000000000E+00  0.00000000000E+00  0.52882409091E+03  0.24526797631E+04  0.23949912529E+04 0.  0.
        2    1    3    3  502    0  0.49345902773E+03  0.57310774615E+03 -0.68641384044E+03  0.10213316117E+04  0.25500000920E-02 0.  1.
       -2    1    3    3    0  502 -0.49345902773E+03 -0.57310774615E+03  0.12152379313E+04  0.14313481514E+04  0.25500000920E-02 0. -1.
</event>
<event>
 5   0  0.1169371E-05  0.2398757E+04  0.7818609E-02  0.8439969E-01
        2   -1    0    0  501    0  0.00000000000E+00  0.00000000000E+00  0.14109733567E+04  0.14109733568E+04  0.25500000920E-02 0.  1.
       -2   -1    0    0    0  501  0.00000000000E+00  0.00000000000E+00 -0.10195153145E+04  0.10195153145E+04  0.25500000920E-02 0. -1.
    10030    2    1    2    0    0  0.00000000000E+00  0.00000000000E+00  0.39145804224E+03  0.24304886713E+04  0.23987571328E+04 0.  0.
        2    1    3    3  502    0  0.21294233388E+03 -0.83813739629E+03 -0.64634248699E+03  0.10796190732E+04  0.25500000920E-02 0. -1.
       -2    1    3    3    0  502 -0.21294233388E+03  0.83813739629E+03  0.10378005292E+04  0.13508695981E+04  0.25500000920E-02 0.  1.
</event>
<event>
 5   0  0.1154897E-05  0.2431513E+04  0.7818609E-02  0.8427799E-01
       -2   -1    0    0    0  501  0.00000000000E+00  0.00000000000E+00  0.12382422507E+04  0.12382422507E+04  0.25500000920E-02 0.  1.
        2   -1    0    0  501    0  0.00000000000E+00  0.00000000000E+00 -0.11936795052E+04  0.11936795052E+04  0.25500000920E-02 0. -1.
    10030    2    1    2    0    0  0.00000000000E+00  0.00000000000E+00  0.44562745480E+02  0.24319217560E+04  0.24315134359E+04 0.  0.
        4    1    3    3  502    0 -0.56684071097E+03 -0.30478548051E+03 -0.10093278257E+04  0.11970575814E+04  0.12699999809E+01 0. -1.
       -4    1    3    3    0  502  0.56684071097E+03  0.30478548051E+03  0.10538905711E+04  0.12348641745E+04  0.12699999809E+01 0.  1.
</event>
<event>
 5   0  0.4067750E-06  0.2404208E+04  0.7818609E-02  0.8437930E-01
        3   -1    0    0  501    0  0.00000000000E+00  0.00000000000E+00  0.78278571027E+03  0.78278571678E+03  0.10100000352E+00 0. -1.
       -3   -1    0    0    0  501  0.00000000000E+00  0.00000000000E+00 -0.18460406100E+04  0.18460406127E+04  0.10100000352E+00 0.  1.
    10030    2    1    2    0    0  0.00000000000E+00  0.00000000000E+00 -0.10632548997E+04  0.26288263295E+04  0.24042081626E+04 0.  0.
        3    1    3    3  502    0  0.41078042146E+02 -0.63053230238E+03  0.58655656600E+03  0.86215254173E+03  0.10100000352E+00 0. -1.
       -3    1    3    3    0  502 -0.41078042146E+02  0.63053230238E+03 -0.16498114657E+04  0.17666737878E+04  0.10100000352E+00 0.  1.
</event>
<event>
 5   0  0.5104174E-06  0.2397525E+04  0.7818609E-02  0.8440431E-01
       -1   -1    0    0    0  501  0.00000000000E+00  0.00000000000E+00  0.97511259876E+03  0.97511259877E+03  0.50400001928E-02 0. -1.
        1   -1    0    0  501    0  0.00000000000E+00  0.00000000000E+00 -0.14737078534E+04  0.14737078534E+04  0.50400001928E-02 0.  1.
    10030    2    1    2    0    0  0.00000000000E+00  0.00000000000E+00 -0.49859525459E+03  0.24488204521E+04  0.23975246357E+04 0.  0.
        3    1    3    3  502    0 -0.92138090248E+03  0.60691486586E+03  0.22949897144E+03  0.11269242255E+04  0.10100000352E+00 0. -1.
       -3    1    3    3    0  502  0.92138090248E+03 -0.60691486586E+03 -0.72809422603E+03  0.13218962267E+04  0.10100000352E+00 0.  1.
</event>
<event>
 5   0  0.5034479E-06  0.2391729E+04  0.7818609E-02  0.8442606E-01
       -1   -1    0    0    0  501  0.00000000000E+00  0.00000000000E+00  0.44059907053E+03  0.44059907056E+03  0.50400001928E-02 0. -1.
        1   -1    0    0  501    0  0.00000000000E+00  0.00000000000E+00 -0.32457908065E+04  0.32457908065E+04  0.50400001928E-02 0.  1.
    10030    2    1    2    0    0  0.00000000000E+00  0.00000000000E+00 -0.28051917359E+04  0.36863898770E+04  0.23917294266E+04 0.  0.
        4    1    3    3  502    0  0.39990098758E+03 -0.57744215468E+03  0.89155902201E+02  0.70803292979E+03  0.12699999809E+01 0. -1.
       -4    1    3    3    0  502 -0.39990098758E+03  0.57744215468E+03 -0.28943476381E+04  0.29783569472E+04  0.12699999809E+01 0.  1.
</event>
<event>
 5   0  0.1198313E-05  0.2270061E+04  0.7818609E-02  0.8489820E-01
        2   -1    0    0  501    0  0.00000000000E+00  0.00000000000E+00  0.10672207812E+04  0.10672207812E+04  0.25500000920E-02 0. -1.
       -2   -1    0    0    0  501  0.00000000000E+00  0.00000000000E+00 -0.12071484205E+04  0.12071484205E+04  0.25500000920E-02 0.  1.
    10030    2    1    2    0    0  0.00000000000E+00  0.00000000000E+00 -0.13992763925E+03  0.22743692017E+04  0.22700606867E+04 0.  0.
        5    1    3    3  502    0 -0.19635810608E+03  0.24463227092E+03  0.10229182909E+04  0.10699464349E+04  0.46999998093E+01 0. -1.
       -5    1    3    3    0  502  0.19635810608E+03 -0.24463227092E+03 -0.11628459302E+04  0.12044227668E+04  0.46999998093E+01 0.  1.
</event>
<event>
 5   0  0.5042742E-06  0.2399298E+04  0.7818609E-02  0.8439767E-01
       -1   -1    0    0    0  501  0.00000000000E+00  0.00000000000E+00  0.19666516300E+04  0.19666516300E+04  0.50400001928E-02 0. -1.
        1   -1    0    0  501    0  0.00000000000E+00  0.00000000000E+00 -0.73178047511E+03  0.73178047513E+03  0.50400001928E-02 0.  1.
    10030    2    1    2    0    0  0.00000000000E+00  0.00000000000E+00  0.12348711549E+04  0.26984321052E+04  0.23992976174E+04 0.  0.
        5    1    3    3  502    0 -0.96513694384E+02  0.10975381068E+04  0.83681922012E+02  0.11049568060E+04  0.46999998093E+01 0.  1.
       -5    1    3    3    0  502  0.96513694384E+02 -0.10975381068E+04  0.11511892329E+04  0.15934752992E+04  0.46999998093E+01 0. -1.
</event>
<event>
 5   0  0.5064437E-06  0.2402455E+04  0.7818609E-02  0.8438585E-01
        1   -1    0    0  501    0  0.00000000000E+00  0.00000000000E+00  0.10598087942E+04  0.10598087942E+04  0.50400001928E-02 0.  1.
       -1   -1    0    0    0  501  0.00000000000E+00  0.00000000000E+00 -0.13615163537E+04  0.13615163537E+04  0.50400001928E-02 0. -1.
    10030    2    1    2    0    0  0.00000000000E+00  0.00000000000E+00 -0.30170755948E+03  0.24213251479E+04  0.24024545824E+04 0.  0.
        2    1    3    3  502    0  0.52680591639E+03  0.96307213557E+02 -0.12345424668E+04  0.13456948596E+04  0.25500000920E-02 0. -1.
       -2    1    3    3    0  502 -0.52680591639E+03 -0.96307213557E+02  0.93283490728E+03  0.10756302883E+04  0.25500000920E-02 0.  1.
</event>
<event>
 5   0  0.1174210E-05  0.2435069E+04  0.7818609E-02  0.8426490E-01
        2   -1    0    0  501    0  0.00000000000E+00  0.00000000000E+00  0.17091107276E+04  0.17091107276E+04  0.25500000920E-02 0. -1.
       -2   -1    0    0    0  501  0.00000000000E+00  0.00000000000E+00 -0.86734584212E+03  0.86734584212E+03  0.25500000920E-02 0.  1.
    10030    2    1    2    0    0  0.00000000000E+00  0.00000000000E+00  0.84176488548E+03  0.25764565697E+04  0.24350688560E+04 0.  0.
        3    1    3    3  502    0  0.96860258027E+03 -0.17627755521E+03  0.11788023431E+04  0.15358514607E+04  0.10100000352E+00 0. -1.
       -3    1    3    3    0  502 -0.96860258027E+03  0.17627755521E+03 -0.33703745761E+03  0.10406051091E+04  0.10100000352E+00 0.  1.
</event>
<event>
 5   0  0.5104174E-06  0.2400763E+04  0.7818609E-02  0.8439218E-01
        1   -1    0    0  501    0  0.00000000000E+00  0.00000000000E+00  0.12172900785E+04  0.12172900785E+04  0.50400001928E-02 0. -1.
       -1   -1    0    0    0  501  0.00000000000E+00  0.00000000000E+00 -0.11837078005E+04  0.11837078005E+04  0.50400001928E-02 0.  1.
    10030    2    1    2    0    0  0.00000000000E+00  0.00000000000E+00  0.33582277982E+02  0.24009978791E+04  0.24007630133E+04 0.  0.
        3    1    3    3  502    0  0.45469326087E+03  0.92095502869E+03 -0.60456798051E+03  0.11918081136E+04  0.10100000352E+00 0.  1.
       -3    1    3    3    0  502 -0.45469326087E+03 -0.92095502869E+03  0.63815025850E+03  0.12091897655E+04  0.10100000352E+00 0. -1.
</event>
<event>
 5   0  0.5104174E-06  0.2407533E+04  0.7818609E-02  0.8436689E-01
       -1   -1    0    0    0  501  0.00000000000E+00  0.00000000000E+00  0.18677408926E+04  0.18677408926E+04  0.50400001928E-02 0.  1.
        1   -1    0    0  501    0  0.00000000000E+00  0.00000000000E+00 -0.77583263699E+03  0.77583263700E+03  0.50400001928E-02 0. -1.
    10030    2    1    2    0    0  0.00000000000E+00  0.00000000000E+00  0.10919082556E+04  0.26435735296E+04  0.24075334614E+04 0.  0.
        3    1    3    3  502    0  0.67684789409E+03  0.77722547973E+03  0.12289080150E+04  0.16038757551E+04  0.10100000352E+00 0.  1.
       -3    1    3    3    0  502 -0.67684789409E+03 -0.77722547973E+03 -0.13699975943E+03  0.10396977745E+04  0.10100000352E+00 0. -1.
</event>
<event>
 5   0  0.5104174E-06  0.2412196E+04  0.7818609E-02  0.8434952E-01
       -1   -1    0    0    0  501  0.00000000000E+00  0.00000000000E+00  0.92252100049E+03  0.92252100051E+03  0.50400001928E-02 0.  1.
        1   -1    0    0  501    0  0.00000000000E+00  0.00000000000E+00 -0.15768449409E+04  0.15768449409E+04  0.50400001928E-02 0. -1.
    10030    2    1    2    0    0  0.00000000000E+00  0.00000000000E+00 -0.65432394037E+03  0.24993659414E+04  0.24121961550E+04 0.  0.
        3    1    3    3  502    0  0.24440681132E+03  0.28201398868E+03 -0.15155195292E+04  0.15607901950E+04  0.10100000352E+00 0. -1.
       -3    1    3    3    0  502 -0.24440681132E+03 -0.28201398868E+03  0.86119558884E+03  0.93857574636E+03  0.10100000352E+00 0.  1.
</event>
<event>
 5   0  0.4067750E-06  0.2403975E+04  0.7818609E-02  0.8438017E-01
        4   -1    0    0  501    0  0.00000000000E+00  0.00000000000E+00  0.12940004357E+04  0.12940010590E+04  0.12699999809E+01 0.  1.
       -4   -1    0    0    0  501  0.00000000000E+00  0.00000000000E+00 -0.11165160819E+04  0.11165168042E+04  0.12699999809E+01 0. -1.
    10030    2    1    2    0    0  0.00000000000E+00  0.00000000000E+00  0.17748435384E+03  0.24105178632E+04  0.24039749734E+04 0.  0.
        1    1    3    3  502    0  0.28534334216E+03 -0.14106177733E+03 -0.10734873930E+04  0.11196849695E+04  0.50400001928E-02 0. -1.
       -1    1    3    3    0  502 -0.28534334216E+03  0.14106177733E+03  0.12509717469E+04  0.12908328937E+04  0.50400001928E-02 0.  1.
</event>
<event>
 5   0  0.5034479E-06  0.2393362E+04  0.7818609E-02  0.8441993E-01
        1   -1    0    0  501    0  0.00000000000E+00  0.00000000000E+00  0.15040910871E+04  0.15040910871E+04  0.50400001928E-02 0.  1.
       -1   -1    0    0    0  501  0.00000000000E+00  0.00000000000E+00 -0.95210048067E+03  0.95210048068E+03  0.50400001928E-02 0. -1.
    10030    2    1    2    0    0  0.00000000000E+00  0.00000000000E+00  0.55199060645E+03  0.24561915678E+04  0.23933623604E+04 0.  0.
        4    1    3    3  502    0 -0.11644899603E+04  0.26525393609E+03  0.35311941893E+03  0.12454282216E+04  0.12699999809E+01 0.  1.
       -4    1    3    3    0  502  0.11644899603E+04 -0.26525393609E+03  0.19887118752E+03  0.12107633462E+04  0.12699999809E+01 0. -1.
</event>
<event>
 5   0  0.5034479E-06  0.2405185E+04  0.7818609E-02  0.8437565E-01
        1   -1    0    0  501    0  0.00000000000E+00  0.00000000000E+00  0.21109020567E+04  0.21109020567E+04  0.50400001928E-02 0.  1.
       -1   -1    0    0    0  501  0.00000000000E+00  0.00000000000E+00 -0.68512339704E+03  0.68512339706E+03  0.50400001928E-02 0. -1.
    10030    2    1    2    0    0  0.00000000000E+00  0.00000000000E+00  0.14257786596E+04  0.27960254537E+04  0.24051847230E+04 0.  0.
        4    1    3    3  502    0 -0.63240107738E+03 -0.73048794315E+03 -0.11948207065E+03  0.97356116185E+03  0.12699999809E+01 0. -1.
       -4    1    3    3    0  502  0.63240107738E+03  0.73048794315E+03  0.15452607303E+04  0.18224642919E+04  0.12699999809E+01 0.  1.
</event>
<event>
 5   0  0.1174210E-05  0.2395178E+04  0.7818609E-02  0.8441311E-01
        2   -1    0    0  501    0  0.00000000000E+00  0.00000000000E+00  0.76937428224E+03  0.76937428224E+03  0.25500000920E-02 0.  1.
       -2   -1    0    0    0  501  0.00000000000E+00  0.00000000000E+00 -0.18641376199E+04  0.18641376199E+04  0.25500000920E-02 0. -1.
    10030    2    1    2    0    0  0.00000000000E+00  0.00000000000E+00 -0.10947633377E+04  0.26335119021E+04  0.23951781089E+04 0.  0.
        3    1    3    3  502    0 -0.47596624026E+03 -0.30007290132E+03  0.61499496517E+03  0.83355049359E+03  0.10100000352E+00 0.  1.
       -3    1    3    3    0  502  0.47596624026E+03  0.30007290132E+03 -0.17097583028E+04  0.17999614086E+04  0.10100000352E+00 0. -1.
</event>
<event>
 5   0  0.1154897E-05  0.2407307E+04  0.7818609E-02  0.8436773E-01
       -2   -1    0    0    0  501  0.00000000000E+00  0.00000000000E+00  0.10625072086E+04  0.10625072086E+04  0.25500000920E-02 0. -1.
        2   -1    0    0  501    0  0.00000000000E+00  0.00000000000E+00 -0.13635497235E+04  0.13635497235E+04  0.25500000920E-02 0.  1.
    10030    2    1    2    0    0  0.00000000000E+00  0.00000000000E+00 -0.30104251492E+03  0.24260569321E+04  0.24073067196E+04 0.  0.
        4    1    3    3  502    0  0.99359675149E+03  0.55743857971E+03  0.24084291303E+03  0.11644651976E+04  0.12699999809E+01 0. -1.
       -4    1    3    3    0  502 -0.99359675149E+03 -0.55743857971E+03 -0.54188542795E+03  0.12615917345E+04  0.12699999809E+01 0.  1.
</event>
<event>
 5   0  0.1154897E-05  0.2398695E+04  0.7818609E-02  0.8439992E-01
        2   -1    0    0  501    0  0.00000000000E+00  0.00000000000E+00  0.17266879475E+04  0.17266879475E+04  0.25500000920E-02 0.  1.
       -2   -1    0    0    0  501  0.00000000000E+00  0.00000000000E+00 -0.83305963312E+03  0.83305963313E+03  0.25500000920E-02 0. -1.
    10030    2    1    2    0    0  0.00000000000E+00  0.00000000000E+00  0.89362831437E+03  0.25597475806E+04  0.23986946684E+04 0.  0.
        4    1    3    3  502    0 -0.97485056879E+03  0.68738667330E+03  0.58009306748E+03  0.13264025218E+04  0.12699999809E+01 0.  1.
       -4    1    3    3    0  502  0.97485056879E+03 -0.68738667330E+03  0.31353524690E+03  0.12333450588E+04  0.12699999809E+01 0. -1.
</event>
<event>
 5   0  0.5042742E-06  0.2415574E+04  0.7818609E-02  0.8433696E-01
        1   -1    0    0  501    0  0.00000000000E+00  0.00000000000E+00  0.58666982313E+03  0.58666982315E+03  0.50400001928E-02 0. -1.
       -1   -1    0    0    0  501  0.00000000000E+00  0.00000000000E+00 -0.24864903798E+04  0.24864903798E+04  0.50400001928E-02 0.  1.
    10030    2    1    2    0    0  0.00000000000E+00  0.00000000000E+00 -0.18998205567E+04  0.30731602030E+04  0.24155735314E+04 0.  0.
        5    1    3    3  502    0  0.56573632699E+03 -0.73084750497E+03  0.39267308507E+02  0.92507279644E+03  0.46999998093E+01 0. -1.
       -5    1    3    3    0  502 -0.56573632699E+03  0.73084750497E+03 -0.19390878652E+04  0.21480874065E+04  0.46999998093E+01 0.  1.
</event>
<event>
 5   0  0.5104174E-06  0.2397904E+04  0.7818609E-02  0.8440289E-01
        1   -1    0    0  501    0  0.00000000000E+00  0.00000000000E+00  0.10066870293E+04  0.10066870293E+04  0.50400001928E-02 0. -1.
       -1   -1    0    0    0  501  0.00000000000E+00  0.00000000000E+00 -0.14279368429E+04  0.14279368429E+04  0.50400001928E-02 0.  1.
    10030    2    1    2    0    0  0.00000000000E+00  0.00000000000E+00 -0.42124981353E+03  0.24346238722E+04  0.23979036665E+04 0.  0.
        3    1    3    3  502    0  0.14957510917E+03 -0.11863120734E+04 -0.12109037994E+03  0.12018202607E+04  0.10100000352E+00 0. -1.
       -3    1    3    3    0  502 -0.14957510917E+03  0.11863120734E+04 -0.30015943360E+03  0.12328036115E+04  0.10100000352E+00 0.  1.
</event>
<event>
 5   0  0.1154897E-05  0.2368526E+04  0.7818609E-02  0.8451382E-01
        2   -1    0    0  501    0  0.00000000000E+00  0.00000000000E+00  0.11767274240E+04  0.11767274240E+04  0.25500000920E-02 0.  1.
       -2   -1    0    0    0  501  0.00000000000E+00  0.00000000000E+00 -0.11918468636E+04  0.11918468636E+04  0.25500000920E-02 0. -1.
    10030    2    1    2    0    0  0.00000000000E+00  0.00000000000E+00 -0.15119439569E+02  0.23685742876E+04  0.23685260308E+04 0.  0.
        4    1    3    3  502    0 -0.25435978642E+03  0.56189910749E+03 -0.10185440995E+04  0.11907406113E+04  0.12699999809E+01 0. -1.
       -4    1    3    3    0  502  0.25435978642E+03 -0.56189910749E+03  0.10034246599E+04  0.11778336763E+04  0.12699999809E+01 0.  1.
</event>
<event>
 5   0  0.1198313E-05  0.2404727E+04  0.7818609E-02  0.8437736E-01
       -2   -1    0    0    0  501  0.00000000000E+00  0.00000000000E+00  0.10645056279E+04  0.10645056279E+04  0.25500000920E-02 0. -1.
        2   -1    0    0  501    0  0.00000000000E+00  0.00000000000E+00 -0.13580743499E+04  0.13580743499E+04  0.25500000920E-02 0.  1.
    10030    2    1    2    0    0  0.00000000000E+00  0.00000000000E+00 -0.29356872202E+03  0.24225799778E+04  0.24047268357E+04 0.  0.
        5    1    3    3  502    0 -0.71319399765E+03  0.95636909694E+03 -0.29745464533E+03  0.12295482438E+04  0.46999998093E+01 0.  1.
       -5    1    3    3    0  502  0.71319399765E+03 -0.95636909694E+03  0.38859233129E+01  0.11930317340E+04  0.46999998093E+01 0. -1.
</event>
<event>
 5   0  0.5042742E-06  0.2390557E+04  0.7818609E-02  0.8443047E-01
        1   -1    0    0  501    0  0.00000000000E+00  0.00000000000E+00  0.12073104769E+04  0.12073104769E+04  0.50400001928E-02 0. -1.
       -1   -1    0    0    0  501  0.00000000000E+00  0.00000000000E+00 -0.11833666851E+04  0.11833666851E+04  0.50400001928E-02 0.  1.
    10030    2    1    2    0    0  0.00000000000E+00  0.00000000000E+00  0.23943791736E+02  0.23906771620E+04  0.23905572546E+04 0.  0.
        5    1    3    3  502    0  0.75902696609E+02 -0.81209424124E+03  0.88574945124E+03  0.12040898872E+04  0.46999998093E+01 0. -1.
       -5    1    3    3    0  502 -0.75902696609E+02  0.81209424124E+03 -0.86180565951E+03  0.11865872748E+04  0.46999998093E+01 0.  1.
</event>
<event>
 5   0  0.5104174E-06  0.2402286E+04  0.7818609E-02  0.8438648E-01
        1   -1    0    0  501    0  0.00000000000E+00  0.00000000000E+00  0.20287387807E+04  0.20287387807E+04  0.50400001928E-02 0. -1.
       -1   -1    0    0    0  501  0.00000000000E+00  0.00000000000E+00 -0.71115367363E+03  0.71115367365E+03  0.50400001928E-02 0.  1.
    10030    2    1    2    0    0  0.00000000000E+00  0.00000000000E+00  0.13175851071E+04  0.27398924544E+04  0.24022864415E+04 0.  0.
        3    1    3    3  502    0 -0.11239142165E+03  0.33356666543E+03 -0.65101004462E+03  0.74007610443E+03  0.10100000352E+00 0.  1.
       -3    1    3    3    0  502  0.11239142165E+03 -0.33356666543E+03  0.19685951517E+04  0.19998163499E+04  0.10100000352E+00 0. -1.
</event>
<event>
 5   0  0.1169371E-05  0.2398371E+04  0.7818609E-02  0.8440114E-01
       -2   -1    0    0    0  501  0.00000000000E+00  0.00000000000E+00  0.10139430618E+04  0.10139430618E+04  0.25500000920E-02 0.  1.
        2   -1    0    0  501    0  0.00000000000E+00  0.00000000000E+00 -0.14182710989E+04  0.14182710989E+04  0.25500000920E-02 0. -1.
    10030    2    1    2    0    0  0.00000000000E+00  0.00000000000E+00 -0.40432803714E+03  0.24322141607E+04  0.23983712310E+04 0.  0.
        2    1    3    3  502    0  0.73488669227E+03  0.94589318559E+03 -0.14413976220E+03  0.12064612054E+04  0.25500000920E-02 0.  1.
       -2    1    3    3    0  502 -0.73488669227E+03 -0.94589318559E+03 -0.26018827494E+03  0.12257529553E+04  0.25500000920E-02 0. -1.
</event>
<event>
 5   0  0.1198313E-05  0.2401144E+04  0.7818609E-02  0.8439076E-01
       -2   -1    0    0    0  501  0.00000000000E+00  0.00000000000E+00  0.67902801746E+03  0.67902801746E+03  0.25500000920E-02 0. -1.
        2   -1    0    0  501    0  0.00000000000E+00  0.00000000000E+00 -0.21226997026E+04  0.21226997026E+04  0.25500000920E-02 0.  1.
    10030    2    1    2    0    0  0.00000000000E+00  0.00000000000E+00 -0.14436716852E+04  0.28017277201E+04  0.24011435365E+04 0.  0.
        5    1    3    3  502    0  0.67268293950E+02 -0.42406477841E+03  0.58636521868E+03  0.72677521927E+03  0.46999998093E+01 0. -1.
       -5    1    3    3    0  502 -0.67268293950E+02  0.42406477841E+03 -0.20300369038E+04  0.20749525008E+04  0.46999998093E+01 0.  1.
</event>
<event>
 5   0  0.1168435E-05  0.2358965E+04  0.7818609E-02  0.8455028E-01
       -2   -1    0    0    0  501  0.00000000000E+00  0.00000000000E+00  0.85075382065E+03  0.85075382066E+03  0.25500000920E-02 0. -1.
        2   -1    0    0  501    0  0.00000000000E+00  0.00000000000E+00 -0.16352309709E+04  0.16352309709E+04  0.25500000920E-02 0.  1.
    10030    2    1    2    0    0  0.00000000000E+00  0.00000000000E+00 -0.78447715022E+03  0.24859847915E+04  0.23589650240E+04 0.  0.
        1    1    3    3  502    0 -0.10778831746E+04  0.27003379654E+03 -0.80904562331E+03  0.13745199926E+04  0.50400001928E-02 0.  1.
       -1    1    3    3    0  502  0.10778831746E+04 -0.27003379654E+03  0.24568473090E+02  0.11114647989E+04  0.50400001928E-02 0. -1.
</event>
<event>
 5   0  0.1154897E-05  0.2405464E+04  0.7818609E-02  0.8437461E-01
        2   -1    0    0  501    0  0.00000000000E+00  0.00000000000E+00  0.16170663976E+04  0.16170663976E+04  0.25500000920E-02 0. -1.
       -2   -1    0    0    0  501  0.00000000000E+00  0.00000000000E+00 -0.89456046212E+03  0.89456046212E+03  0.25500000920E-02 0.  1.
    10030    2    1    2    0    0  0.00000000000E+00  0.00000000000E+00  0.72250593547E+03  0.25116268597E+04  0.24054635012E+04 0.  0.
        4    1    3    3  502    0  0.18445421027E+03  0.96406548369E+03 -0.36448902808E+03  0.10470432069E+04  0.12699999809E+01 0.  1.
       -4    1    3    3    0  502 -0.18445421027E+03 -0.96406548369E+03  0.10869949636E+04  0.14645836529E+04  0.12699999809E+01 0. -1.
</event>
<event>
 5   0  0.1198313E-05  0.2396158E+04  0.7818609E-02  0.8440943E-01
        2   -1    0    0  501    0  0.00000000000E+00  0.00000000000E+00  0.11642498899E+04  0.11642498899E+04  0.25500000920E-02 0. -1.
       -2   -1    0    0    0  501  0.00000000000E+00  0.00000000000E+00 -0.12328910111E+04  0.12328910111E+04  0.25500000920E-02 0.  1.
    10030    2    1    2    0    0  0.00000000000E+00  0.00000000000E+00 -0.68641121264E+02  0.23971409010E+04  0.23961579446E+04 0.  0.
        5    1    3    3  502    0 -0.76909866372E+03 -0.35138492605E+03  0.81478377415E+03  0.11742567051E+04  0.46999998093E+01 0. -1.
       -5    1    3    3    0  502  0.76909866372E+03  0.35138492605E+03 -0.88342489542E+03  0.12228841959E+04  0.46999998093E+01 0.  1.
</event>
<event>
 5   0  0.1174210E-05  0.2398664E+04  0.7818609E-02  0.8440004E-01
       -2   -1    0    0    0  501  0.00000000000E+00  0.00000000000E+00  0.17526149374E+04  0.17526149374E+04  0.25500000920E-02 0.  1.
        2   -1    0    0  501    0  0.00000000000E+00  0.00000000000E+00 -0.82071494348E+03  0.82071494349E+03  0.25500000920E-02 0. -1.
    10030    2    1    2    0    0  0.00000000000E+00  0.00000000000E+00  0.93189999389E+03  0.25733298809E+04  0.23986640192E+04 0.  0.
        3    1    3    3  502    0  0.50271307073E+03 -0.92870766115E+03 -0.14393443378E+03  0.10658027410E+04  0.10100000352E+00 0. -1.
       -3    1    3    3    0  502 -0.50271307073E+03  0.92870766115E+03  0.10758344277E+04  0.15075271398E+04  0.10100000352E+00 0.  1.
</event>
<event>
 5   0  0.5034479E-06  0.2391610E+04  0.7818609E-02  0.8442651E-01
       -1   -1    0    0    0  501  0.00000000000E+00  0.00000000000E+00  0.56499733398E+03  0.56499733400E+03  0.50400001928E-02 0. -1.
        1   -1    0    0  501    0  0.00000000000E+00  0.00000000000E+00 -0.25308957973E+04  0.25308957973E+04  0.50400001928E-02 0.  1.
    10030    2    1    2    0    0  0.00000000000E+00  0.00000000000E+00 -0.19658984633E+04  0.30958931313E+04  0.23916098161E+04 0.  0.
        4    1    3    3  502    0  0.10620233158E+04  0.45830534046E+03 -0.13756070297E+04  0.17972850696E+04  0.12699999809E+01 0. -1.
       -4    1    3    3    0  502 -0.10620233158E+04 -0.45830534046E+03 -0.59029143369E+03  0.12986080617E+04  0.12699999809E+01 0.  1.
</event>
<event>
 5   0  0.1198313E-05  0.2403454E+04  0.7818609E-02  0.8438212E-01
       -2   -1    0    0    0  501  0.00000000000E+00  0.00000000000E+00  0.12128753242E+04  0.12128753242E+04  0.25500000920E-02 0. -1.
        2   -1    0    0  501    0  0.00000000000E+00  0.00000000000E+00 -0.11906809987E+04  0.11906809987E+04  0.25500000920E-02 0.  1.
    10030    2    1    2    0    0  0.00000000000E+00  0.00000000000E+00  0.22194325508E+02  0.24035563229E+04  0.24034538500E+04 0.  0.
        5    1    3    3  502    0  0.78374706853E+03 -0.87848252999E+03 -0.23002406542E+03  0.11995516594E+04  0.46999998093E+01 0. -1.
       -5    1    3    3    0  502 -0.78374706853E+03  0.87848252999E+03  0.25221839092E+03  0.12040046635E+04  0.46999998093E+01 0.  1.
</event>
<event>
 5   0  0.5042742E-06  0.2404671E+04  0.7818609E-02  0.8437757E-01
        1   -1    0    0  501    0  0.00000000000E+00  0.00000000000E+00  0.13522541772E+04  0.13522541772E+04  0.50400001928E-02 0. -1.
       -1   -1    0    0    0  501  0.00000000000E+00  0.00000000000E+00 -0.10690377253E+04  0.10690377253E+04  0.50400001928E-02 0.  1.
    10030    2    1    2    0    0  0.00000000000E+00  0.00000000000E+00  0.28321645194E+03  0.24212919025E+04  0.24046710625E+04 0.  0.
        5    1    3    3  502    0  0.54671502489E+03  0.61654656358E+03 -0.73997845124E+03  0.11075275084E+04  0.46999998093E+01 0.  1.
       -5    1    3    3    0  502 -0.54671502489E+03 -0.61654656358E+03  0.10231949032E+04  0.13137643942E+04  0.46999998093E+01 0. -1.
</event>
<event>
 5   0  0.5042742E-06  0.2399606E+04  0.7818609E-02  0.8439651E-01
        1   -1    0    0  501    0  0.00000000000E+00  0.00000000000E+00  0.89582717446E+03  0.89582717448E+03  0.50400001928E-02 0. -1.
       -1   -1    0    0    0  501  0.00000000000E+00  0.00000000000E+00 -0.16069256621E+04  0.16069256621E+04  0.50400001928E-02 0.  1.
    10030    2    1    2    0    0  0.00000000000E+00  0.00000000000E+00 -0.71109848765E+03  0.25027528366E+04  0.23996063640E+04 0.  0.
        5    1    3    3  502    0  0.69404781463E+03  0.77382321519E+03 -0.98047107188E+03  0.14289332910E+04  0.46999998093E+01 0. -1.
       -5    1    3    3    0  502 -0.69404781463E+03 -0.77382321519E+03  0.26937258423E+03  0.10738195456E+04  0.46999998093E+01 0.  1.
</event>
<event>
 5   0  0.5042742E-06  0.2407835E+04  0.7818609E-02  0.8436576E-01
        1   -1    0    0  501    0  0.00000000000E+00  0.00000000000E+00  0.14673015630E+04  0.14673015630E+04  0.50400001928E-02 0.  1.
       -1   -1    0    0    0  501  0.00000000000E+00  0.00000000000E+00 -0.98781119769E+03  0.98781119770E+03  0.50400001928E-02 0. -1.
    10030    2    1    2    0    0  0.00000000000E+00  0.00000000000E+00  0.47949036533E+03  0.24551127607E+04  0.24078346408E+04 0.  0.
        5    1    3    3  502    0 -0.14506823024E+03 -0.27756263833E+03  0.14250283651E+04  0.14590454896E+04  0.46999998093E+01 0.  1.
       -5    1    3    3    0  502  0.14506823024E+03  0.27756263833E+03 -0.94553799972E+03  0.99606727109E+03  0.46999998093E+01 0. -1.
</event>
<event>
 5   0  0.5196696E-06  0.2353250E+04  0.7818609E-02  0.8457216E-01
       -1   -1    0    0    0  501  0.00000000000E+00  0.00000000000E+00  0.13287755251E+04  0.13287755251E+04  0.50400001928E-02 0.  1.
        1   -1    0    0  501    0  0.00000000000E+00  0.00000000000E+00 -0.10418963562E+04  0.10418963562E+04  0.50400001928E-02 0. -1.
    10030    2    1    2    0    0  0.00000000000E+00  0.00000000000E+00  0.28687916888E+03  0.23706718814E+04  0.23532499892E+04 0.  0.
        1    1    3    3  502    0  0.63402339762E+03 -0.36970186340E+03  0.10699118169E+04  0.12974499731E+04  0.50400001928E-02 0.  1.
       -1    1    3    3    0  502 -0.63402339762E+03  0.36970186340E+03 -0.78303264805E+03  0.10732219083E+04  0.50400001928E-02 0. -1.
</event>
<event>
 5   0  0.1174210E-05  0.2424609E+04  0.7818609E-02  0.8430347E-01
        2   -1    0    0  501    0  0.00000000000E+00  0.00000000000E+00  0.11656522693E+04  0.11656522693E+04  0.25500000920E-02 0. -1.
       -2   -1    0    0    0  501  0.00000000000E+00  0.00000000000E+00 -0.12608240523E+04  0.12608240523E+04  0.25500000920E-02 0.  1.
    10030    2    1    2    0    0  0.00000000000E+00  0.00000000000E+00 -0.95171783027E+02  0.24264763216E+04  0.24246091790E+04 0.  0.
        3    1    3    3  502    0  0.11277779912E+04 -0.23585418394E+03 -0.42493329916E+03  0.12280385631E+04  0.10100000352E+00 0.  1.
       -3    1    3    3    0  502 -0.11277779912E+04  0.23585418394E+03  0.32976151613E+03  0.11984377586E+04  0.10100000352E+00 0. -1.
</event>
<event>
 5   0  0.1198313E-05  0.2406451E+04  0.7818609E-02  0.8437093E-01
       -2   -1    0    0    0  501  0.00000000000E+00  0.00000000000E+00  0.10225390170E+04  0.10225390170E+04  0.25500000920E-02 0. -1.
        2   -1    0    0  501    0  0.00000000000E+00  0.00000000000E+00 -0.14158395073E+04  0.14158395073E+04  0.25500000920E-02 0.  1.
    10030    2    1    2    0    0  0.00000000000E+00  0.00000000000E+00 -0.39330049023E+03  0.24383785243E+04  0.24064506129E+04 0.  0.
        5    1    3    3  502    0  0.62425734848E+03 -0.40299342199E+03  0.76228223759E+03  0.10645173719E+04  0.46999998093E+01 0. -1.
       -5    1    3    3    0  502 -0.62425734848E+03  0.40299342199E+03 -0.11555827278E+04  0.13738611524E+04  0.46999998093E+01 0.  1.
</event>
<event>
 5   0  0.5034479E-06  0.2416453E+04  0.7818609E-02  0.8433369E-01
        1   -1    0    0  501    0  0.00000000000E+00  0.00000000000E+00  0.14100887940E+04  0.14100887940E+04  0.50400001928E-02 0. -1.
       -1   -1    0    0    0  501  0.00000000000E+00  0.00000000000E+00 -0.10352623573E+04  0.10352623573E+04  0.50400001928E-02 0.  1.
    10030    2    1    2    0    0  0.00000000000E+00  0.00000000000E+00  0.37482643670E+03  0.24453511512E+04  0.24164534747E+04 0.  0.
        4    1    3    3  502    0  0.35968956834E+03 -0.44037268963E+03 -0.89140575036E+03  0.10573128752E+04  0.12699999809E+01 0.  1.
       -4    1    3    3    0  502 -0.35968956834E+03  0.44037268963E+03  0.12662321871E+04  0.13880382760E+04  0.12699999809E+01 0. -1.
</event>
<event>
 5   0  0.1169371E-05  0.2413625E+04  0.7818609E-02  0.8434420E-01
        2   -1    0    0  501    0  0.00000000000E+00  0.00000000000E+00  0.82664653817E+03  0.82664653817E+03  0.25500000920E-02 0.  1.
       -2   -1    0    0    0  501  0.00000000000E+00  0.00000000000E+00 -0.17618130095E+04  0.17618130095E+04  0.25500000920E-02 0. -1.
    10030    2    1    2    0    0  0.00000000000E+00  0.00000000000E+00 -0.93516647130E+03  0.25884595477E+04  0.24136251782E+04 0.  0.
        2    1    3    3  502    0  0.51636295280E+03  0.68371435337E+03 -0.13790284001E+04  0.16235194314E+04  0.25500000920E-02 0. -1.
       -2    1    3    3    0  502 -0.51636295280E+03 -0.68371435337E+03  0.44386192878E+03  0.96494011620E+03  0.25500000920E-02 0.  1.
</event>
<event>
 5   0  0.1169371E-05  0.2397176E+04  0.7818609E-02  0.8440561E-01
        2   -1    0    0  501    0  0.00000000000E+00  0.00000000000E+00  0.11668523749E+04  0.11668523749E+04  0.25500000920E-02 0.  1.
       -2   -1    0    0    0  501  0.00000000000E+00  0.00000000000E+00 -0.12311871586E+04  0.12311871586E+04  0.25500000920E-02 0. -1.
    10030    2    1    2    0    0  0.00000000000E+00  0.00000000000E+00 -0.64334783663E+02  0.23980395335E+04  0.23971763890E+04 0.  0.
        2    1    3    3  502    0  0.40143990459E+03  0.84370800777E+03  0.71884686451E+03  0.11788715002E+04  0.25500000920E-02 0.  1.
       -2    1    3    3    0  502 -0.40143990459E+03 -0.84370800777E+03 -0.78318164817E+03  0.12191680333E+04  0.25500000920E-02 0. -1.
</event>
<event>
 5   0  0.5196696E-06  0.2398838E+04  0.7818609E-02  0.8439939E-01
        1   -1    0    0  501    0  0.00000000000E+00  0.00000000000E+00  0.10920394839E+04  0.10920394839E+04  0.50400001928E-02 0. -1.
       -1   -1    0    0    0  501  0.00000000000E+00  0.00000000000E+00 -0.13173569107E+04  0.13173569107E+04  0.50400001928E-02 0.  1.
    10030    2    1    2    0    0  0.00000000000E+00  0.00000000000E+00 -0.22531742674E+03  0.24093963946E+04  0.23988378527E+04 0.  0.
        1    1    3    3  502    0 -0.12815431149E+03  0.50426715561E+03 -0.11981081811E+04  0.13062052310E+04  0.50400001928E-02 0.  1.
       -1    1    3    3    0  502  0.12815431149E+03 -0.50426715561E+03  0.97279075434E+03  0.11031911636E+04  0.50400001928E-02 0. -1.
</event>
<event>
 5   0  0.1198313E-05  0.2391782E+04  0.7818609E-02  0.8442587E-01
       -2   -1    0    0    0  501  0.00000000000E+00  0.00000000000E+00  0.14514947175E+04  0.14514947175E+04  0.25500000920E-02 0.  1.
        2   -1    0    0  501    0  0.00000000000E+00  0.00000000000E+00 -0.98529861489E+03  0.98529861489E+03  0.25500000920E-02 0. -1.
    10030    2    1    2    0    0  0.00000000000E+00  0.00000000000E+00  0.46619610265E+03  0.24367933324E+04  0.23917823770E+04 0.  0.
        5    1    3    3  502    0  0.73273027422E+03  0.67511000637E+03  0.90695765402E+03  0.13473163888E+04  0.46999998093E+01 0.  1.
       -5    1    3    3    0  502 -0.73273027422E+03 -0.67511000637E+03 -0.44076155137E+03  0.10894769436E+04  0.46999998093E+01 0. -1.
</event>
<event>
 5   0  0.5104174E-06  0.2398480E+04  0.7818609E-02  0.8440073E-01
       -1   -1    0    0    0  501  0.00000000000E+00  0.00000000000E+00  0.80957918718E+03  0.80957918719E+03  0.50400001928E-02 0. -1.
        1   -1    0    0  501    0  0.00000000000E+00  0.00000000000E+00 -0.17764491597E+04  0.17764491597E+04  0.50400001928E-02 0.  1.
    10030    2    1    2    0    0  0.00000000000E+00  0.00000000000E+00 -0.96686997251E+03  0.25860283469E+04  0.23984797408E+04 0.  0.
        3    1    3    3  502    0  0.10141716184E+03 -0.66132595859E+03  0.58964716405E+03  0.89180785627E+03  0.10100000352E+00 0. -1.
       -3    1    3    3    0  502 -0.10141716184E+03  0.66132595859E+03 -0.15565171366E+04  0.16942204906E+04  0.10100000352E+00 0.  1.
</event>
<event>
 5   0  0.1154897E-05  0.2399999E+04  0.7818609E-02  0.8439504E-01
        2   -1    0    0  501    0  0.00000000000E+00  0.00000000000E+00  0.16654635180E+04  0.16654635180E+04  0.25500000920E-02 0. -1.
       -2   -1    0    0    0  501  0.00000000000E+00  0.00000000000E+00 -0.86462374790E+03  0.86462374791E+03  0.25500000920E-02 0.  1.
    10030    2    1    2    0    0  0.00000000000E+00  0.00000000000E+00  0.80083977007E+03  0.25300872659E+04  0.23999994241E+04 0.  0.
        4    1    3    3  502    0 -0.53197361038E+02 -0.89007280516E+03  0.12470298833E+04  0.15330181671E+04  0.12699999809E+01 0. -1.
       -4    1    3    3    0  502  0.53197361038E+02  0.89007280516E+03 -0.44619011328E+03  0.99706909881E+03  0.12699999809E+01 0.  1.
</event>
<event>
 5   0  0.1198313E-05  0.2374685E+04  0.7818609E-02  0.8449043E-01
       -2   -1    0    0    0  501  0.00000000000E+00  0.00000000000E+00  0.68544300945E+03  0.68544300946E+03  0.25500000920E-02 0.  1.
        2   -1    0    0  501    0  0.00000000000E+00  0.00000000000E+00 -0.20567453522E+04  0.20567453522E+04  0.25500000920E-02 0. -1.
    10030    2    1    2    0    0  0.00000000000E+00  0.00000000000E+00 -0.13713023428E+04  0.27421883617E+04  0.23746845887E+04 0.  0.
        5    1    3    3  502    0 -0.14580229478E+03  0.87409616376E+03 -0.15981718097E+04  0.18274237702E+04  0.46999998093E+01 0. -1.
       -5    1    3    3    0  502  0.14580229478E+03 -0.87409616376E+03  0.22686946697E+03  0.91476459142E+03  0.46999998093E+01 0.  1.
</event>
<event>
 5   0  0.5196696E-06  0.2399388E+04  0.7818609E-02  0.8439733E-01
        1   -1    0    0  501    0  0.00000000000E+00  0.00000000000E+00  0.20429670233E+04  0.20429670233E+04  0.50400001928E-02 0. -1.
       -1   -1    0    0    0  501  0.00000000000E+00  0.00000000000E+00 -0.70449755046E+03  0.70449755048E+03  0.50400001928E-02 0.  1.
    10030    2    1    2    0    0  0.00000000000E+00  0.00000000000E+00  0.13384694729E+04  0.27474645738E+04  0.23993876416E+04 0.  0.
        1    1    3    3  502    0  0.20568621518E+03 -0.51266243870E+03 -0.55021579765E+03  0.77965827077E+03  0.50400001928E-02 0.  1.
       -1    1    3    3    0  502 -0.20568621518E+03  0.51266243870E+03  0.18886852705E+04  0.19678063030E+04  0.50400001928E-02 0. -1.
</event>
<event>
 5   0  0.5196696E-06  0.2468966E+04  0.7818609E-02  0.8414126E-01
        1   -1    0    0  501    0  0.00000000000E+00  0.00000000000E+00  0.12425930714E+04  0.12425930714E+04  0.50400001928E-02 0.  1.
       -1   -1    0    0    0  501  0.00000000000E+00  0.00000000000E+00 -0.12264262461E+04  0.12264262461E+04  0.50400001928E-02 0. -1.
    10030    2    1    2    0    0  0.00000000000E+00  0.00000000000E+00  0.16166825349E+02  0.24690193175E+04  0.24689663878E+04 0.  0.
        1    1    3    3  502    0 -0.92845722706E+03 -0.80780501282E+03  0.10486872352E+03  0.12351433967E+04  0.50400001928E-02 0.  1.
       -1    1    3    3    0  502  0.92845722706E+03  0.80780501282E+03 -0.88701898176E+02  0.12338759208E+04  0.50400001928E-02 0. -1.
</event>
<event>
 5   0  0.5104174E-06  0.2399302E+04  0.7818609E-02  0.8439765E-01
       -1   -1    0    0    0  501  0.00000000000E+00  0.00000000000E+00  0.14198446224E+04  0.14198446224E+04  0.50400001928E-02 0. -1.
        1   -1    0    0  501    0  0.00000000000E+00  0.00000000000E+00 -0.10136059322E+04  0.10136059323E+04  0.50400001928E-02 0.  1.
    10030    2    1    2    0    0  0.00000000000E+00  0.00000000000E+00  0.40623869020E+03  0.24334505547E+04  0.23993023421E+04 0.  0.
        3    1    3    3  502    0  0.10329321848E+04  0.55786679302E+03  0.45361356703E+03  0.12585426237E+04  0.10100000352E+00 0.  1.
       -3    1    3    3    0  502 -0.10329321848E+04 -0.55786679302E+03 -0.47374876831E+02  0.11749079310E+04  0.10100000352E+00 0. -1.
</event>
<event>
 5   0  0.1154897E-05  0.2386632E+04  0.7818609E-02  0.8444525E-01
       -2   -1    0    0    0  501  0.00000000000E+00  0.00000000000E+00  0.65497756205E+03  0.65497756205E+03  0.25500000920E-02 0. -1.
        2   -1    0    0  501    0  0.00000000000E+00  0.00000000000E+00 -0.21741257585E+04  0.21741257586E+04  0.25500000920E-02 0.  1.
    10030    2    1    2    0    0  0.00000000000E+00  0.00000000000E+00 -0.15191481965E+04  0.28291033206E+04  0.23866324300E+04 0.  0.
        4    1    3    3  502    0  0.84349702296E+02 -0.32987106451E+03  0.59617438181E+03  0.68655320107E+03  0.12699999809E+01 0. -1.
       -4    1    3    3    0  502 -0.84349702296E+02  0.32987106451E+03 -0.21153225783E+04  0.21425501195E+04  0.12699999809E+01 0.  1.
</event>
<event>
 5   0  0.1168435E-05  0.2398501E+04  0.7818609E-02  0.8440065E-01
       -2   -1    0    0    0  501  0.00000000000E+00  0.00000000000E+00  0.57657424626E+03  0.57657424626E+03  0.25500000920E-02 0.  1.
        2   -1    0    0  501    0  0.00000000000E+00  0.00000000000E+00 -0.24943919351E+04  0.24943919351E+04  0.25500000920E-02 0. -1.
    10030    2    1    2    0    0  0.00000000000E+00  0.00000000000E+00 -0.19178176888E+04  0.30709661813E+04  0.23985013236E+04 0.  0.
        1    1    3    3  502    0 -0.23081885270E+03 -0.85895979303E+03 -0.19888800742E+04  0.21786998918E+04  0.50400001928E-02 0. -1.
       -1    1    3    3    0  502  0.23081885270E+03  0.85895979303E+03  0.71062385419E+02  0.89226628954E+03  0.50400001928E-02 0.  1.
</event>
<event>
 5   0  0.4067750E-06  0.2401616E+04  0.7818609E-02  0.8438899E-01
        4   -1    0    0  501    0  0.00000000000E+00  0.00000000000E+00  0.12846160763E+04  0.12846167041E+04  0.12699999809E+01 0. -1.
       -4   -1    0    0    0  501  0.00000000000E+00  0.00000000000E+00 -0.11224658955E+04  0.11224666140E+04  0.12699999809E+01 0.  1.
    10030    2    1    2    0    0  0.00000000000E+00  0.00000000000E+00  0.16215018081E+03  0.24070833180E+04  0.24016155852E+04 0.  0.
        2    1    3    3  502    0 -0.52640464700E+03 -0.10063294688E+04  0.47201247077E+03  0.12298766705E+04  0.25500000920E-02 0. -1.
       -2    1    3    3    0  502  0.52640464700E+03  0.10063294688E+04 -0.30986228996E+03  0.11772066475E+04  0.25500000920E-02 0.  1.
</event>
<event>
 5   0  0.5064437E-06  0.2398882E+04  0.7818609E-02  0.8439922E-01
        1   -1    0    0  501    0  0.00000000000E+00  0.00000000000E+00  0.11359807238E+04  0.11359807238E+04  0.50400001928E-02 0.  1.
       -1   -1    0    0    0  501  0.00000000000E+00  0.00000000000E+00 -0.12664468169E+04  0.12664468169E+04  0.50400001928E-02 0. -1.
    10030    2    1    2    0    0  0.00000000000E+00  0.00000000000E+00 -0.13046609305E+03  0.24024275407E+04  0.23988823829E+04 0.  0.
        2    1    3    3  502    0  0.67624245827E+03 -0.83466209812E+03  0.46912318053E+03  0.11721950516E+04  0.25500000920E-02 0. -1.
       -2    1    3    3    0  502 -0.67624245827E+03  0.83466209812E+03 -0.59958927358E+03  0.12302324892E+04  0.25500000920E-02 0.  1.
</event>
<event>
 5   0  0.4067750E-06  0.2397684E+04  0.7818609E-02  0.8440371E-01
       -3   -1    0    0    0  501  0.00000000000E+00  0.00000000000E+00  0.14313684020E+04  0.14313684056E+04  0.10100000352E+00 0.  1.
        3   -1    0    0  501    0  0.00000000000E+00  0.00000000000E+00 -0.10040899270E+04  0.10040899321E+04  0.10100000352E+00 0. -1.
    10030    2    1    2    0    0  0.00000000000E+00  0.00000000000E+00  0.42727847498E+03  0.24354583377E+04  0.23976843869E+04 0.  0.
        2    1    3    3  502    0 -0.12513625614E+03 -0.49861355923E+03  0.13137288819E+04  0.14107296478E+04  0.25500000920E-02 0.  1.
       -2    1    3    3    0  502  0.12513625614E+03  0.49861355923E+03 -0.88645040687E+03  0.10247286899E+04  0.25500000920E-02 0. -1.
</event>
<event>
 5   0  0.1154897E-05  0.2408089E+04  0.7818609E-02  0.8436481E-01
        2   -1    0    0  501    0  0.00000000000E+00  0.00000000000E+00  0.16108116456E+04  0.16108116456E+04  0.25500000920E-02 0.  1.
       -2   -1    0    0    0  501  0.00000000000E+00  0.00000000000E+00 -0.89999563206E+03  0.89999563206E+03  0.25500000920E-02 0. -1.
    10030    2    1    2    0    0  0.00000000000E+00  0.00000000000E+00  0.71081601355E+03  0.25108072777E+04  0.24080892385E+04 0.  0.
        4    1    3    3  502    0  0.15890824359E+03  0.10090799367E+04  0.10199547901E+04  0.14435385465E+04  0.12699999809E+01 0.  1.
       -4    1    3    3    0  502 -0.15890824359E+03 -0.10090799367E+04 -0.30913877651E+03  0.10672687312E+04  0.12699999809E+01 0. -1.
</event>
<event>
 5   0  0.5104174E-06  0.2404335E+04  0.7818609E-02  0.8437883E-01
       -1   -1    0    0    0  501  0.00000000000E+00  0.00000000000E+00  0.21411549966E+04  0.21411549966E+04  0.50400001928E-02 0. -1.
        1   -1    0    0  501    0  0.00000000000E+00  0.00000000000E+00 -0.67496575727E+03  0.67496575729E+03  0.50400001928E-02 0.  1.
    10030    2    1    2    0    0  0.00000000000E+00  0.00000000000E+00  0.14661892393E+04  0.28161207538E+04  0.24043346720E+04 0.  0.
        3    1    3    3  502    0 -0.74791187065E+03  0.65514494310E+03  0.15245627882E+04  0.18201315249E+04  0.10100000352E+00 0. -1.
       -3    1    3    3    0  502  0.74791187065E+03 -0.65514494310E+03 -0.58373548896E+02  0.99598922893E+03  0.10100000352E+00 0.  1.
</event>
<event>
 5   0  0.1154897E-05  0.2431366E+04  0.7818609E-02  0.8427853E-01
        2   -1    0    0  501    0  0.00000000000E+00  0.00000000000E+00  0.16994821975E+04  0.16994821975E+04  0.25500000920E-02 0.  1.
       -2   -1    0    0    0  501  0.00000000000E+00  0.00000000000E+00 -0.86960884815E+03  0.86960884815E+03  0.25500000920E-02 0. -1.
    10030    2    1    2    0    0  0.00000000000E+00  0.00000000000E+00  0.82987334939E+03  0.25690910457E+04  0.24313656708E+04 0.  0.
        4    1    3    3  502    0 -0.77405366105E+01 -0.10018571371E+04  0.11424931557E+04  0.15195623918E+04  0.12699999809E+01 0.  1.
       -4    1    3    3    0  502  0.77405366105E+01  0.10018571371E+04 -0.31261980627E+03  0.10495286539E+04  0.12699999809E+01 0. -1.
</event>
<event>
 5   0  0.5104174E-06  0.2391249E+04  0.7818609E-02  0.8442787E-01
        1   -1    0    0  501    0  0.00000000000E+00  0.00000000000E+00  0.13949523888E+04  0.13949523888E+04  0.50400001928E-02 0. -1.
       -1   -1    0    0    0  501  0.00000000000E+00  0.00000000000E+00 -0.10247792927E+04  0.10247792928E+04  0.50400001928E-02 0.  1.
    10030    2    1    2    0    0  0.00000000000E+00  0.00000000000E+00  0.37017309609E+03  0.24197316816E+04  0.23912493157E+04 0.  0.
        3    1    3    3  502    0  0.58920236230E+03  0.48005637963E+03 -0.74889409325E+03  0.10669845006E+04  0.10100000352E+00 0.  1.
       -3    1    3    3    0  502 -0.58920236230E+03 -0.48005637963E+03  0.11190671893E+04  0.13527471810E+04  0.10100000352E+00 0. -1.
</event>
<event>
 5   0  0.5104174E-06  0.2420015E+04  0.7818609E-02  0.8432048E-01
        1   -1    0    0  501    0  0.00000000000E+00  0.00000000000E+00  0.13030842828E+04  0.13030842828E+04  0.50400001928E-02 0. -1.
       -1   -1    0    0    0  501  0.00000000000E+00  0.00000000000E+00 -0.11235794346E+04  0.11235794346E+04  0.50400001928E-02 0.  1.
    10030    2    1    2    0    0  0.00000000000E+00  0.00000000000E+00  0.17950484819E+03  0.24266637175E+04  0.24200154560E+04 0.  0.
        3    1    3    3  502    0  0.82589806819E+03 -0.76214817144E+03  0.53947223124E+03  0.12465984729E+04  0.10100000352E+00 0. -1.
       -3    1    3    3    0  502 -0.82589806819E+03  0.76214817144E+03 -0.35996738305E+03  0.11800652445E+04  0.10100000352E+00 0.  1.
</event>
<event>
 5   0  0.1154897E-05  0.2417642E+04  0.7818609E-02  0.8432928E-01
        2   -1    0    0  501    0  0.00000000000E+00  0.00000000000E+00  0.86470918876E+03  0.86470918876E+03  0.25500000920E-02 0.  1.
       -2   -1    0    0    0  501  0.00000000000E+00  0.00000000000E+00 -0.16898726019E+04  0.16898726019E+04  0.25500000920E-02 0. -1.
    10030    2    1    2    0    0  0.00000000000E+00  0.00000000000E+00 -0.82516341316E+03  0.25545817907E+04  0.24176421296E+04 0.  0.
        4    1    3    3  502    0 -0.70304925195E+03  0.74015179164E+03  0.27150213941E+03  0.10563228436E+04  0.12699999809E+01 0.  1.
       -4    1    3    3    0  502  0.70304925195E+03 -0.74015179164E+03 -0.10966655526E+04  0.14982589471E+04  0.12699999809E+01 0. -1.
</event>
<event>
 5   0  0.1168435E-05  0.2390735E+04  0.7818609E-02  0.8442980E-01
        2   -1    0    0  501    0  0.00000000000E+00  0.00000000000E+00  0.21166151937E+04  0.21166151937E+04  0.25500000920E-02 0. -1.
       -2   -1    0    0    0  501  0.00000000000E+00  0.00000000000E+00 -0.67508912025E+03  0.67508912026E+03  0.25500000920E-02 0.  1.
    10030    2    1    2    0    0  0.00000000000E+00  0.00000000000E+00  0.14415260734E+04  0.27917043140E+04  0.23907353589E+04 0.  0.
        1    1    3    3  502    0  0.73612530687E+03 -0.82297694813E+03  0.12555374740E+04  0.16719885984E+04  0.50400001928E-02 0. -1.
       -1    1    3    3    0  502 -0.73612530687E+03  0.82297694813E+03  0.18598859948E+03  0.11197157156E+04  0.50400001928E-02 0.  1.
</event>
<event>
 5   0  0.1169371E-05  0.2300353E+04  0.7818609E-02  0.8477782E-01
        2   -1    0    0  501    0  0.00000000000E+00  0.00000000000E+00  0.14037573883E+04  0.14037573883E+04  0.25500000920E-02 0.  1.
       -2   -1    0    0    0  501  0.00000000000E+00  0.00000000000E+00 -0.94240357775E+03  0.94240357775E+03  0.25500000920E-02 0. -1.
    10030    2    1    2    0    0  0.00000000000E+00  0.00000000000E+00  0.46135381053E+03  0.23461609660E+04  0.23003530033E+04 0.  0.
        2    1    3    3  502    0  0.13585368133E+03 -0.10238401836E+03  0.13908558118E+04  0.14012203963E+04  0.25500000920E-02 0.  1.
       -2    1    3    3    0  502 -0.13585368133E+03  0.10238401836E+03 -0.92950200124E+03  0.94494056970E+03  0.25500000920E-02 0. -1.
</event>
<event>
 5   0  0.1154897E-05  0.2393847E+04  0.7818609E-02  0.8441811E-01
        2   -1    0    0  501    0  0.00000000000E+00  0.00000000000E+00  0.18244941206E+04  0.18244941206E+04  0.25500000920E-02 0.  1.
       -2   -1    0    0    0  501  0.00000000000E+00  0.00000000000E+00 -0.78521807497E+03  0.78521807498E+03  0.25500000920E-02 0. -1.
    10030    2    1    2    0    0  0.00000000000E+00  0.00000000000E+00  0.10392760456E+04  0.26097121955E+04  0.23938469134E+04 0.  0.
        4    1    3    3  502    0 -0.74932880830E+03  0.85933838275E+02 -0.49354809547E+03  0.90137096855E+03  0.12699999809E+01 0. -1.
       -4    1    3    3    0  502  0.74932880830E+03 -0.85933838275E+02  0.15328241411E+04  0.17083412270E+04  0.12699999809E+01 0.  1.
</event>
<event>
 5   0  0.5196696E-06  0.2390879E+04  0.7818609E-02  0.8442926E-01
        1   -1    0    0  501    0  0.00000000000E+00  0.00000000000E+00  0.17109085788E+04  0.17109085788E+04  0.50400001928E-02 0. -1.
       -1   -1    0    0    0  501  0.00000000000E+00  0.00000000000E+00 -0.83527271044E+03  0.83527271045E+03  0.50400001928E-02 0.  1.
    10030    2    1    2    0    0  0.00000000000E+00  0.00000000000E+00  0.87563586835E+03  0.25461812892E+04  0.23908787054E+04 0.  0.
        1    1    3    3  502    0  0.11603633344E+04  0.12610156978E+03  0.16271564583E+03  0.11784825222E+04  0.50400001928E-02 0.  1.
       -1    1    3    3    0  502 -0.11603633344E+04 -0.12610156978E+03  0.71292022252E+03  0.13676987671E+04  0.50400001928E-02 0. -1.
</event>
<event>
 5   0  0.5104174E-06  0.2405073E+04  0.7818609E-02  0.8437607E-01
       -1   -1    0    0    0  501  0.00000000000E+00  0.00000000000E+00  0.12921953956E+04  0.12921953956E+04  0.50400001928E-02 0. -1.
        1   -1    0    0  501    0  0.00000000000E+00  0.00000000000E+00 -0.11190983390E+04  0.11190983390E+04  0.50400001928E-02 0.  1.
    10030    2    1    2    0    0  0.00000000000E+00  0.00000000000E+00  0.17309705661E+03  0.24112937346E+04  0.24050727398E+04 0.  0.
        3    1    3    3  502    0  0.89228773140E+03 -0.20587982785E+03  0.86800663118E+03  0.12617445942E+04  0.10100000352E+00 0. -1.
       -3    1    3    3    0  502 -0.89228773140E+03  0.20587982785E+03 -0.69490957457E+03  0.11495491404E+04  0.10100000352E+00 0.  1.
</event>
<event>
 5   0  0.1169371E-05  0.2388080E+04  0.7818609E-02  0.8443980E-01
        2   -1    0    0  501    0  0.00000000000E+00  0.00000000000E+00  0.16867782693E+04  0.16867782693E+04  0.25500000920E-02 0.  1.
       -2   -1    0    0    0  501  0.00000000000E+00  0.00000000000E+00 -0.84523945083E+03  0.84523945083E+03  0.25500000920E-02 0. -1.
    10030    2    1    2    0    0  0.00000000000E+00  0.00000000000E+00  0.84153881850E+03  0.25320177202E+04  0.23880800138E+04 0.  0.
        2    1    3    3  502    0 -0.39082715250E+03 -0.10782793872E+04  0.77290029797E+03  0.13830427219E+04  0.25500000920E-02 0. -1.
       -2    1    3    3    0  502  0.39082715250E+03  0.10782793872E+04  0.68638520530E+02  0.11489749982E+04  0.25500000920E-02 0.  1.
</event>
<event>
 5   0  0.5064437E-06  0.2418287E+04  0.7818609E-02  0.8432689E-01
       -1   -1    0    0    0  501  0.00000000000E+00  0.00000000000E+00  0.23716537947E+04  0.23716537947E+04  0.50400001928E-02 0.  1.
        1   -1    0    0  501    0  0.00000000000E+00  0.00000000000E+00 -0.61645928069E+03  0.61645928071E+03  0.50400001928E-02 0. -1.
    10030    2    1    2    0    0  0.00000000000E+00  0.00000000000E+00  0.17551945140E+04  0.29881130754E+04  0.24182869907E+04 0.  0.
        2    1    3    3  502    0 -0.10521227548E+03  0.83369295297E+03  0.19518970849E+04  0.21250919492E+04  0.25500000920E-02 0.  1.
       -2    1    3    3    0  502  0.10521227548E+03 -0.83369295297E+03 -0.19670257091E+03  0.86302112613E+03  0.25500000920E-02 0. -1.
</event>
<event>
 5   0  0.5034479E-06  0.2400645E+04  0.7818609E-02  0.8439262E-01
       -1   -1    0    0    0  501  0.00000000000E+00  0.00000000000E+00  0.12106744568E+04  0.12106744568E+04  0.50400001928E-02 0. -1.
        1   -1    0    0  501    0  0.00000000000E+00  0.00000000000E+00 -0.11900592939E+04  0.11900592939E+04  0.50400001928E-02 0.  1.
    10030    2    1    2    0    0  0.00000000000E+00  0.00000000000E+00  0.20615162930E+02  0.24007337507E+04  0.24006452376E+04 0.  0.
        4    1    3    3  502    0  0.44252204559E+03  0.69459567853E+02  0.11239564640E+04  0.12099298072E+04  0.12699999809E+01 0. -1.
       -4    1    3    3    0  502 -0.44252204559E+03 -0.69459567853E+02 -0.11033413011E+04  0.11908039435E+04  0.12699999809E+01 0.  1.
</event>
<event>
 5   0  0.5034479E-06  0.2400714E+04  0.7818609E-02  0.8439236E-01
       -1   -1    0    0    0  501  0.00000000000E+00  0.00000000000E+00  0.60698869830E+03  0.60698869832E+03  0.50400001928E-02 0. -1.
        1   -1    0    0  501    0  0.00000000000E+00  0.00000000000E+00 -0.23737792241E+04  0.23737792241E+04  0.50400001928E-02 0.  1.
    10030    2    1    2    0    0  0.00000000000E+00  0.00000000000E+00 -0.17667905258E+04  0.29807679224E+04  0.24007141948E+04 0.  0.
        4    1    3    3  502    0 -0.52107942713E+02  0.58031510103E+03  0.41963724448E+03  0.71803752272E+03  0.12699999809E+01 0. -1.
       -4    1    3    3    0  502  0.52107942713E+02 -0.58031510103E+03 -0.21864277703E+04  0.22627303997E+04  0.12699999809E+01 0.  1.
</event>
<event>
 5   0  0.1169371E-05  0.2396738E+04  0.7818609E-02  0.8440726E-01
        2   -1    0    0  501    0  0.00000000000E+00  0.00000000000E+00  0.14846377332E+04  0.14846377332E+04  0.25500000920E-02 0. -1.
       -2   -1    0    0    0  501  0.00000000000E+00  0.00000000000E+00 -0.96729886447E+03  0.96729886447E+03  0.25500000920E-02 0.  1.
    10030    2    1    2    0    0  0.00000000000E+00  0.00000000000E+00  0.51733886873E+03  0.24519365977E+04  0.23967381112E+04 0.  0.
        2    1    3    3  502    0  0.11795395118E+03 -0.10641598632E+04 -0.29200151512E+03  0.11097811648E+04  0.25500000920E-02 0.  1.
       -2    1    3    3    0  502 -0.11795395118E+03  0.10641598632E+04  0.80934038385E+03  0.13421554328E+04  0.25500000920E-02 0. -1.
</event>
<event>
 5   0  0.5196696E-06  0.2409273E+04  0.7818609E-02  0.8436040E-01
        1   -1    0    0  501    0  0.00000000000E+00  0.00000000000E+00  0.11877961187E+04  0.11877961188E+04  0.50400001928E-02 0.  1.
       -1   -1    0    0    0  501  0.00000000000E+00  0.00000000000E+00 -0.12217160845E+04  0.12217160846E+04  0.50400001928E-02 0. -1.
    10030    2    1    2    0    0  0.00000000000E+00  0.00000000000E+00 -0.33919965796E+02  0.24095122033E+04  0.24092734369E+04 0.  0.
        1    1    3    3  502    0  0.66933745608E+03 -0.91465627824E+03 -0.42509463845E+03  0.12105016270E+04  0.50400001928E-02 0. -1.
       -1    1    3    3    0  502 -0.66933745608E+03  0.91465627824E+03  0.39117467266E+03  0.11990105763E+04  0.50400001928E-02 0.  1.
</event>
<event>
 5   0  0.1169371E-05  0.2367024E+04  0.7818609E-02  0.8451953E-01
        2   -1    0    0  501    0  0.00000000000E+00  0.00000000000E+00  0.12713326202E+04  0.12713326202E+04  0.25500000920E-02 0. -1.
       -2   -1    0    0    0  501  0.00000000000E+00  0.00000000000E+00 -0.11017578139E+04  0.11017578139E+04  0.25500000920E-02 0.  1.
    10030    2    1    2    0    0  0.00000000000E+00  0.00000000000E+00  0.16957480630E+03  0.23730904342E+04  0.23670239952E+04 0.  0.
        2    1    3    3  502    0  0.23013758007E+02 -0.11025037666E+04  0.51560544354E+03  0.12173303421E+04  0.25500000920E-02 0. -1.
       -2    1    3    3    0  502 -0.23013758007E+02  0.11025037666E+04 -0.34603063724E+03  0.11557600920E+04  0.25500000920E-02 0.  1.
</event>
<event>
 5   0  0.1169371E-05  0.2401420E+04  0.7818609E-02  0.8438972E-01
       -2   -1    0    0    0  501  0.00000000000E+00  0.00000000000E+00  0.14670140674E+04  0.14670140674E+04  0.25500000920E-02 0.  1.
        2   -1    0    0  501    0  0.00000000000E+00  0.00000000000E+00 -0.98274767674E+03  0.98274767674E+03  0.25500000920E-02 0. -1.
    10030    2    1    2    0    0  0.00000000000E+00  0.00000000000E+00  0.48426639062E+03  0.24497617441E+04  0.24014201352E+04 0.  0.
        2    1    3    3  502    0  0.10576909099E+04 -0.44629771650E+03 -0.11682075964E+03  0.11539232222E+04  0.25500000920E-02 0. -1.
       -2    1    3    3    0  502 -0.10576909099E+04  0.44629771650E+03  0.60108715026E+03  0.12958385219E+04  0.25500000920E-02 0.  1.
</event>
<event>
 5   0  0.1169371E-05  0.2409057E+04  0.7818609E-02  0.8436121E-01
       -2   -1    0    0    0  501  0.00000000000E+00  0.00000000000E+00  0.65316459617E+03  0.65316459617E+03  0.25500000920E-02 0. -1.
        2   -1    0    0  501    0  0.00000000000E+00  0.00000000000E+00 -0.22213219448E+04  0.22213219448E+04  0.25500000920E-02 0.  1.
    10030    2    1    2    0    0  0.00000000000E+00  0.00000000000E+00 -0.15681573486E+04  0.28744865410E+04  0.24090569533E+04 0.  0.
        2    1    3    3  502    0  0.52706015011E+03  0.15125468661E+03  0.49560721303E+03  0.73911899696E+03  0.25500000920E-02 0. -1.
       -2    1    3    3    0  502 -0.52706015011E+03 -0.15125468661E+03 -0.20637645616E+04  0.21353675440E+04  0.25500000920E-02 0.  1.
</event>
<event>
 5   0  0.1168435E-05  0.2393747E+04  0.7818609E-02  0.8441848E-01
       -2   -1    0    0    0  501  0.00000000000E+00  0.00000000000E+00  0.54855391997E+03  0.54855391998E+03  0.25500000920E-02 0.  1.
        2   -1    0    0  501    0  0.00000000000E+00  0.00000000000E+00 -0.26114235146E+04  0.26114235146E+04  0.25500000920E-02 0. -1.
    10030    2    1    2    0    0  0.00000000000E+00  0.00000000000E+00 -0.20628695946E+04  0.31599774346E+04  0.23937473598E+04 0.  0.
        1    1    3    3  502    0  0.36766101293E+03  0.11389953053E+04 -0.10252882322E+04  0.15759761689E+04  0.50400001928E-02 0. -1.
       -1    1    3    3    0  502 -0.36766101293E+03 -0.11389953053E+04 -0.10375813624E+04  0.15840012657E+04  0.50400001928E-02 0.  1.
</event>
<event>
 5   0  0.5064437E-06  0.2404411E+04  0.7818609E-02  0.8437854E-01
        1   -1    0    0  501    0  0.00000000000E+00  0.00000000000E+00  0.19247801168E+04  0.19247801168E+04  0.50400001928E-02 0.  1.
       -1   -1    0    0    0  501  0.00000000000E+00  0.00000000000E+00 -0.75088966588E+03  0.75088966589E+03  0.50400001928E-02 0. -1.
    10030    2    1    2    0    0  0.00000000000E+00  0.00000000000E+00  0.11738904509E+04  0.26756697827E+04  0.24044105297E+04 0.  0.
        2    1    3    3  502    0 -0.41582501452E+03  0.50060645303E+03  0.17118160213E+04  0.18313468689E+04  0.25500000920E-02 0.  1.
       -2    1    3    3    0  502  0.41582501452E+03 -0.50060645303E+03 -0.53792557036E+03  0.84432291380E+03  0.25500000920E-02 0. -1.
</event>
<event>
 5   0  0.1154897E-05  0.2400636E+04  0.7818609E-02  0.8439266E-01
       -2   -1    0    0    0  501  0.00000000000E+00  0.00000000000E+00  0.14314951447E+04  0.14314951447E+04  0.25500000920E-02 0. -1.
        2   -1    0    0  501    0  0.00000000000E+00  0.00000000000E+00 -0.10064741904E+04  0.10064741904E+04  0.25500000920E-02 0.  1.
    10030    2    1    2    0    0  0.00000000000E+00  0.00000000000E+00  0.42502095438E+03  0.24379693351E+04  0.24006356798E+04 0.  0.
        4    1    3    3  502    0 -0.10590650900E+02 -0.69962396959E+03 -0.77793893112E+03  0.10463156570E+04  0.12699999809E+01 0.  1.
       -4    1    3    3    0  502  0.10590650900E+02  0.69962396959E+03  0.12029598855E+04  0.13916536781E+04  0.12699999809E+01 0. -1.
</event>
<event>
 5   0  0.1198313E-05  0.2398103E+04  0.7818609E-02  0.8440214E-01
        2   -1    0    0  501    0  0.00000000000E+00  0.00000000000E+00  0.20205292438E+04  0.20205292438E+04  0.25500000920E-02 0.  1.
       -2   -1    0    0    0  501  0.00000000000E+00  0.00000000000E+00 -0.71155846450E+03  0.71155846450E+03  0.25500000920E-02 0. -1.
    10030    2    1    2    0    0  0.00000000000E+00  0.00000000000E+00  0.13089707793E+04  0.27320877083E+04  0.23981031556E+04 0.  0.
        5    1    3    3  502    0  0.38032171409E+03  0.28728192710E+03 -0.59898486446E+03  0.76549361180E+03  0.46999998093E+01 0. -1.
       -5    1    3    3    0  502 -0.38032171409E+03 -0.28728192710E+03  0.19079556438E+04  0.19665940965E+04  0.46999998093E+01 0.  1.
</event>
<event>
 5   0  0.5104174E-06  0.2409189E+04  0.7818609E-02  0.8436071E-01
       -1   -1    0    0    0  501  0.00000000000E+00  0.00000000000E+00  0.11487545643E+04  0.11487545643E+04  0.50400001928E-02 0.  1.
        1   -1    0    0  501    0  0.00000000000E+00  0.00000000000E+00 -0.12631489977E+04  0.12631489977E+04  0.50400001928E-02 0. -1.
    10030    2    1    2    0    0  0.00000000000E+00  0.00000000000E+00 -0.11439443335E+03  0.24119035620E+04  0.24091892217E+04 0.  0.
        3    1    3    3  502    0 -0.11173720616E+04 -0.40989054639E+03  0.12880118496E+03  0.11971300428E+04  0.10100000352E+00 0. -1.
       -3    1    3    3    0  502  0.11173720616E+04  0.40989054639E+03 -0.24319561832E+03  0.12147735192E+04  0.10100000352E+00 0.  1.
</event>
<event>
 5   0  0.1198313E-05  0.2395218E+04  0.7818609E-02  0.8441296E-01
        2   -1    0    0  501    0  0.00000000000E+00  0.00000000000E+00  0.97902827941E+03  0.97902827942E+03  0.25500000920E-02 0.  1.
       -2   -1    0    0    0  501  0.00000000000E+00  0.00000000000E+00 -0.14649902605E+04  0.14649902605E+04  0.25500000920E-02 0. -1.
    10030    2    1    2    0    0  0.00000000000E+00  0.00000000000E+00 -0.48596198106E+03  0.24440185399E+04  0.23952176470E+04 0.  0.
        5    1    3    3  502    0 -0.92190191733E+03  0.20687260697E+03  0.50791008430E+03  0.10727041365E+04  0.46999998093E+01 0.  1.
       -5    1    3    3    0  502  0.92190191733E+03 -0.20687260697E+03 -0.99387206536E+03  0.13713144034E+04  0.46999998093E+01 0. -1.
</event>
<event>
 5   0  0.5042742E-06  0.2405053E+04  0.7818609E-02  0.8437614E-01
       -1   -1    0    0    0  501  0.00000000000E+00  0.00000000000E+00  0.11349407614E+04  0.11349407614E+04  0.50400001928E-02 0.  1.
        1   -1    0    0  501    0  0.00000000000E+00  0.00000000000E+00 -0.12741374641E+04  0.12741374641E+04  0.50400001928E-02 0. -1.
    10030    2    1    2    0    0  0.00000000000E+00  0.00000000000E+00 -0.13919670275E+03  0.24090782255E+04  0.24050534660E+04 0.  0.
        5    1    3    3  502    0 -0.33959034085E+03  0.16421680977E+03 -0.12133321152E+04  0.12706241269E+04  0.46999998093E+01 0. -1.
       -5    1    3    3    0  502  0.33959034085E+03 -0.16421680977E+03  0.10741354124E+04  0.11384540985E+04  0.46999998093E+01 0.  1.
</event>
<event>
 5   0  0.1198313E-05  0.2402253E+04  0.7818609E-02  0.8438661E-01
       -2   -1    0    0    0  501  0.00000000000E+00  0.00000000000E+00  0.18374576853E+04  0.18374576853E+04  0.25500000920E-02 0. -1.
        2   -1    0    0  501    0  0.00000000000E+00  0.00000000000E+00 -0.78516362687E+03  0.78516362687E+03  0.25500000920E-02 0.  1.
    10030    2    1    2    0    0  0.00000000000E+00  0.00000000000E+00  0.10522940584E+04  0.26226213122E+04  0.24022530595E+04 0.  0.
        5    1    3    3  502    0  0.11747171259E+04  0.36431383619E+02  0.79665764875E+03  0.14198496649E+04  0.46999998093E+01 0. -1.
       -5    1    3    3    0  502 -0.11747171259E+04 -0.36431383619E+02  0.25563640968E+03  0.12027716473E+04  0.46999998093E+01 0.  1.
</event>
<event>
 5   0  0.1169371E-05  0.2400455E+04  0.7818609E-02  0.8439333E-01
        2   -1    0    0  501    0  0.00000000000E+00  0.00000000000E+00  0.14024166919E+04  0.14024166919E+04  0.25500000920E-02 0.  1.
       -2   -1    0    0    0  501  0.00000000000E+00  0.00000000000E+00 -0.10271885749E+04  0.10271885749E+04  0.25500000920E-02 0. -1.
    10030    2    1    2    0    0  0.00000000000E+00  0.00000000000E+00  0.37522811696E+03  0.24296052668E+04  0.24004552928E+04 0.  0.
        2    1    3    3  502    0 -0.18138004550E+03 -0.25082379106E+03 -0.98609503736E+03  0.10335350588E+04  0.25500000920E-02 0. -1.
       -2    1    3    3    0  502  0.18138004550E+03  0.25082379106E+03  0.13613231543E+04  0.13960702080E+04  0.25500000920E-02 0.  1.
</event>
<event>
 5   0  0.5196696E-06  0.2391431E+04  0.7818609E-02  0.8442719E-01
        1   -1    0    0  501    0  0.00000000000E+00  0.00000000000E+00  0.12386680019E+04  0.12386680019E+04  0.50400001928E-02 0. -1.
       -1   -1    0    0    0  501  0.00000000000E+00  0.00000000000E+00 -0.11542524728E+04  0.11542524728E+04  0.50400001928E-02 0.  1.
    10030    2    1    2    0    0  0.00000000000E+00  0.00000000000E+00  0.84415529106E+02  0.23929204746E+04  0.23914310394E+04 0.  0.
        1    1    3    3  502    0 -0.11165811108E+04  0.31274448730E+03 -0.24981833190E+03  0.11861583749E+04  0.50400001928E-02 0.  1.
       -1    1    3    3    0  502  0.11165811108E+04 -0.31274448730E+03  0.33423386101E+03  0.12067620997E+04  0.50400001928E-02 0. -1.
</event>
<event>
 5   0  0.5104174E-06  0.2397144E+04  0.7818609E-02  0.8440574E-01
       -1   -1    0    0    0  501  0.00000000000E+00  0.00000000000E+00  0.13450304976E+04  0.13450304976E+04  0.50400001928E-02 0.  1.
        1   -1    0    0  501    0  0.00000000000E+00  0.00000000000E+00 -0.10680612037E+04  0.10680612037E+04  0.50400001928E-02 0. -1.
    10030    2    1    2    0    0  0.00000000000E+00  0.00000000000E+00  0.27696929393E+03  0.24130917014E+04  0.23971440444E+04 0.  0.
        3    1    3    3  502    0  0.40033326875E+03 -0.28746448095E+02  0.12753704080E+04  0.13370350676E+04  0.10100000352E+00 0.  1.
       -3    1    3    3    0  502 -0.40033326875E+03  0.28746448095E+02 -0.99840111402E+03  0.10760566337E+04  0.10100000352E+00 0. -1.
</event>
<event>
 5   0  0.1154897E-05  0.2386987E+04  0.7818609E-02  0.8444391E-01
       -2   -1    0    0    0  501  0.00000000000E+00  0.00000000000E+00  0.85384977802E+03  0.85384977802E+03  0.25500000920E-02 0. -1.
        2   -1    0    0  501    0  0.00000000000E+00  0.00000000000E+00 -0.16682406537E+04  0.16682406537E+04  0.25500000920E-02 0.  1.
    10030    2    1    2    0    0  0.00000000000E+00  0.00000000000E+00 -0.81439087563E+03  0.25220904317E+04  0.23869871485E+04 0.  0.
        4    1    3    3  502    0  0.14010243236E+03 -0.53550063463E+03 -0.15244146747E+04  0.16217987959E+04  0.12699999809E+01 0.  1.
       -4    1    3    3    0  502 -0.14010243236E+03  0.53550063463E+03  0.71002379905E+03  0.90029163573E+03  0.12699999809E+01 0. -1.
</event>
<event>
 5   0  0.1154897E-05  0.2390047E+04  0.7818609E-02  0.8443239E-01
       -2   -1    0    0    0  501  0.00000000000E+00  0.00000000000E+00  0.84586696104E+03  0.84586696105E+03  0.25500000920E-02 0.  1.
        2   -1    0    0  501    0  0.00000000000E+00  0.00000000000E+00 -0.16883046139E+04  0.16883046139E+04  0.25500000920E-02 0. -1.
    10030    2    1    2    0    0  0.00000000000E+00  0.00000000000E+00 -0.84243765288E+03  0.25341715750E+04  0.23900469394E+04 0.  0.
        4    1    3    3  502    0 -0.12672549412E+03  0.61869565369E+03 -0.14969085769E+04  0.16246786030E+04  0.12699999809E+01 0. -1.
       -4    1    3    3    0  502  0.12672549412E+03 -0.61869565369E+03  0.65447092399E+03  0.90949297194E+03  0.12699999809E+01 0.  1.
</event>
<event>
 5   0  0.1168435E-05  0.2402468E+04  0.7818609E-02  0.8438580E-01
       -2   -1    0    0    0  501  0.00000000000E+00  0.00000000000E+00  0.53178001296E+03  0.53178001297E+03  0.25500000920E-02 0.  1.
        2   -1    0    0  501    0  0.00000000000E+00  0.00000000000E+00 -0.27134598373E+04  0.27134598373E+04  0.25500000920E-02 0. -1.
    10030    2    1    2    0    0  0.00000000000E+00  0.00000000000E+00 -0.21816798243E+04  0.32452398503E+04  0.24024684868E+04 0.  0.
        1    1    3    3  502    0  0.52175838128E+03 -0.28818555103E+03 -0.24996091805E+04  0.25696942961E+04  0.50400001928E-02 0. -1.
       -1    1    3    3    0  502 -0.52175838128E+03  0.28818555103E+03  0.31792935613E+03  0.67554555418E+03  0.50400001928E-02 0.  1.
</event>
<event>
 5   0  0.1198313E-05  0.2457150E+04  0.7818609E-02  0.8418412E-01
        2   -1    0    0  501    0  0.00000000000E+00  0.00000000000E+00  0.14311852546E+04  0.14311852546E+04  0.25500000920E-02 0. -1.
       -2   -1    0    0    0  501  0.00000000000E+00  0.00000000000E+00 -0.10546476764E+04  0.10546476764E+04  0.25500000920E-02 0.  1.
    10030    2    1    2    0    0  0.00000000000E+00  0.00000000000E+00  0.37653757823E+03  0.24858329311E+04  0.24571497336E+04 0.  0.
        5    1    3    3  502    0 -0.98628416139E+03 -0.20082538427E+03 -0.52443109892E+03  0.11349613868E+04  0.46999998093E+01 0.  1.
       -5    1    3    3    0  502  0.98628416139E+03  0.20082538427E+03  0.90096867715E+03  0.13508715443E+04  0.46999998093E+01 0. -1.
</event>
<event>
 5   0  0.5104174E-06  0.2394715E+04  0.7818609E-02  0.8441485E-01
        1   -1    0    0  501    0  0.00000000000E+00  0.00000000000E+00  0.85886769314E+03  0.85886769315E+03  0.50400001928E-02 0.  1.
       -1   -1    0    0    0  501  0.00000000000E+00  0.00000000000E+00 -0.16692502540E+04  0.16692502540E+04  0.50400001928E-02 0. -1.
    10030    2    1    2    0    0  0.00000000000E+00  0.00000000000E+00 -0.81038256081E+03  0.25281179471E+04  0.23947151103E+04 0.  0.
        3    1    3    3  502    0  0.38919987939E+03  0.15688904045E+03 -0.15890784639E+04  0.16435513658E+04  0.10100000352E+00 0. -1.
       -3    1    3    3    0  502 -0.38919987939E+03 -0.15688904045E+03  0.77869590312E+03  0.88456658136E+03  0.10100000352E+00 0.  1.
</event>
<event>
 5   0  0.5196696E-06  0.2401695E+04  0.7818609E-02  0.8438869E-01
       -1   -1    0    0    0  501  0.00000000000E+00  0.00000000000E+00  0.95710561987E+03  0.95710561989E+03  0.50400001928E-02 0.  1.
        1   -1    0    0  501    0  0.00000000000E+00  0.00000000000E+00 -0.15066625214E+04  0.15066625214E+04  0.50400001928E-02 0. -1.
    10030    2    1    2    0    0  0.00000000000E+00  0.00000000000E+00 -0.54955690153E+03  0.24637681413E+04  0.24016953733E+04 0.  0.
        1    1    3    3  502    0 -0.18457206366E+03 -0.93478898812E+03  0.47495795140E+03  0.10646512831E+04  0.50400001928E-02 0.  1.
       -1    1    3    3    0  502  0.18457206366E+03  0.93478898812E+03 -0.10245148529E+04  0.13991168582E+04  0.50400001928E-02 0. -1.
</event>
<event>
 5   0  0.1169371E-05  0.2428102E+04  0.7818609E-02  0.8429057E-01
       -2   -1    0    0    0  501  0.00000000000E+00  0.00000000000E+00  0.13481462040E+04  0.13481462040E+04  0.25500000920E-02 0. -1.
        2   -1    0    0  501    0  0.00000000000E+00  0.00000000000E+00 -0.10932941938E+04  0.10932941938E+04  0.25500000920E-02 0.  1.
    10030    2    1    2    0    0  0.00000000000E+00  0.00000000000E+00  0.25485201025E+03  0.24414403978E+04  0.24281024832E+04 0.  0.
        2    1    3    3  502    0  0.35258117022E+03 -0.63771736083E+03 -0.84895055304E+03  0.11188002303E+04  0.25500000920E-02 0.  1.
       -2    1    3    3    0  502 -0.35258117022E+03  0.63771736083E+03  0.11038025633E+04  0.13226401675E+04  0.25500000920E-02 0. -1.
</event>
<event>
 5   0  0.5042742E-06  0.2399335E+04  0.7818609E-02  0.8439753E-01
       -1   -1    0    0    0  501  0.00000000000E+00  0.00000000000E+00  0.10378279579E+04  0.10378279579E+04  0.50400001928E-02 0.  1.
        1   -1    0    0  501    0  0.00000000000E+00  0.00000000000E+00 -0.13867438972E+04  0.13867438972E+04  0.50400001928E-02 0. -1.
    10030    2    1    2    0    0  0.00000000000E+00  0.00000000000E+00 -0.34891593927E+03  0.24245718551E+04  0.23993345635E+04 0.  0.
        5    1    3    3  502    0  0.92586943280E+03 -0.75230853056E+03 -0.30218832248E+03  0.12306673815E+04  0.46999998093E+01 0.  1.
       -5    1    3    3    0  502 -0.92586943280E+03  0.75230853056E+03 -0.46727616795E+02  0.11939044735E+04  0.46999998093E+01 0. -1.
</event>
<event>
 5   0  0.5104174E-06  0.2413329E+04  0.7818609E-02  0.8434530E-01
        1   -1    0    0  501    0  0.00000000000E+00  0.00000000000E+00  0.24373128573E+04  0.24373128573E+04  0.50400001928E-02 0.  1.
       -1   -1    0    0    0  501  0.00000000000E+00  0.00000000000E+00 -0.59739540987E+03  0.59739540989E+03  0.50400001928E-02 0. -1.
    10030    2    1    2    0    0  0.00000000000E+00  0.00000000000E+00  0.18399174474E+04  0.30347082672E+04  0.24133292468E+04 0.  0.
        3    1    3    3  502    0  0.90001587020E+03 -0.17644489158E+03  0.19059995507E+04  0.21151821822E+04  0.10100000352E+00 0.  1.
       -3    1    3    3    0  502 -0.90001587020E+03  0.17644489158E+03 -0.66082103297E+02  0.91952608498E+03  0.10100000352E+00 0. -1.
</event>
<event>
 5   0  0.5064437E-06  0.2399186E+04  0.7818609E-02  0.8439808E-01
        1   -1    0    0  501    0  0.00000000000E+00  0.00000000000E+00  0.16509218837E+04  0.16509218837E+04  0.50400001928E-02 0. -1.
       -1   -1    0    0    0  501  0.00000000000E+00  0.00000000000E+00 -0.87164818019E+03  0.87164818021E+03  0.50400001928E-02 0.  1.
    10030    2    1    2    0    0  0.00000000000E+00  0.00000000000E+00  0.77927370351E+03  0.25225700639E+04  0.23991857415E+04 0.  0.
        2    1    3    3  502    0 -0.56482132555E+03  0.93948396646E+03  0.90189880374E+03  0.14195332702E+04  0.25500000920E-02 0. -1.
       -2    1    3    3    0  502  0.56482132555E+03 -0.93948396646E+03 -0.12262510023E+03  0.11030367937E+04  0.25500000920E-02 0.  1.
</event>
<event>
 5   0  0.1169371E-05  0.2401947E+04  0.7818609E-02  0.8438775E-01
        2   -1    0    0  501    0  0.00000000000E+00  0.00000000000E+00  0.19729366940E+04  0.19729366940E+04  0.25500000920E-02 0. -1.
       -2   -1    0    0    0  501  0.00000000000E+00  0.00000000000E+00 -0.73106137101E+03  0.73106137102E+03  0.25500000920E-02 0.  1.
    10030    2    1    2    0    0  0.00000000000E+00  0.00000000000E+00  0.12418753230E+04  0.27039980650E+04  0.24019473803E+04 0.  0.
        2    1    3    3  502    0  0.40555049802E+03  0.84120168821E+03  0.14710457184E+04  0.17424313451E+04  0.25500000920E-02 0.  1.
       -2    1    3    3    0  502 -0.40555049802E+03 -0.84120168821E+03 -0.22917039543E+03  0.96156671991E+03  0.25500000920E-02 0. -1.
</event>
<event>
 5   0  0.1174210E-05  0.2406175E+04  0.7818609E-02  0.8437195E-01
       -2   -1    0    0    0  501  0.00000000000E+00  0.00000000000E+00  0.94981179551E+03  0.94981179552E+03  0.25500000920E-02 0.  1.
        2   -1    0    0  501    0  0.00000000000E+00  0.00000000000E+00 -0.15239016402E+04  0.15239016402E+04  0.25500000920E-02 0. -1.
    10030    2    1    2    0    0  0.00000000000E+00  0.00000000000E+00 -0.57408984471E+03  0.24737134357E+04  0.24061751832E+04 0.  0.
        3    1    3    3  502    0  0.81938241807E+02  0.45422907961E+03 -0.14292574033E+04  0.15019369719E+04  0.10100000352E+00 0. -1.
       -3    1    3    3    0  502 -0.81938241807E+02 -0.45422907961E+03  0.85516755863E+03  0.97177646388E+03  0.10100000352E+00 0.  1.
</event>
<event>
 5   0  0.5042742E-06  0.2402202E+04  0.7818609E-02  0.8438680E-01
       -1   -1    0    0    0  501  0.00000000000E+00  0.00000000000E+00  0.94854407293E+03  0.94854407294E+03  0.50400001928E-02 0. -1.
        1   -1    0    0  501    0  0.00000000000E+00  0.00000000000E+00 -0.15209031374E+04  0.15209031374E+04  0.50400001928E-02 0.  1.
    10030    2    1    2    0    0  0.00000000000E+00  0.00000000000E+00 -0.57235906443E+03  0.24694472103E+04  0.24022020369E+04 0.  0.
        5    1    3    3  502    0 -0.10237653064E+04  0.60254415692E+03 -0.10382530484E+03  0.11924582372E+04  0.46999998093E+01 0. -1.
       -5    1    3    3    0  502  0.10237653064E+04 -0.60254415692E+03 -0.46853375959E+03  0.12769889731E+04  0.46999998093E+01 0.  1.
</event>
<event>
 5   0  0.5196696E-06  0.2409753E+04  0.7818609E-02  0.8435861E-01
       -1   -1    0    0    0  501  0.00000000000E+00  0.00000000000E+00  0.15482376325E+04  0.15482376325E+04  0.50400001928E-02 0. -1.
        1   -1    0    0  501    0  0.00000000000E+00  0.00000000000E+00 -0.93766463166E+03  0.93766463167E+03  0.50400001928E-02 0.  1.
    10030    2    1    2    0    0  0.00000000000E+00  0.00000000000E+00  0.61057300082E+03  0.24859022642E+04  0.24097532400E+04 0.  0.
        1    1    3    3  502    0 -0.87408799257E+03  0.87512261607E+02 -0.54541761202E+03  0.10340060862E+04  0.50400001928E-02 0.  1.
       -1    1    3    3    0  502  0.87408799257E+03 -0.87512261607E+02  0.11559906128E+04  0.14518961780E+04  0.50400001928E-02 0. -1.
</event>
<event>
 5   0  0.5042742E-06  0.2396240E+04  0.7818609E-02  0.8440913E-01
        1   -1    0    0  501    0  0.00000000000E+00  0.00000000000E+00  0.19946512735E+04  0.19946512735E+04  0.50400001928E-02 0. -1.
       -1   -1    0    0    0  501  0.00000000000E+00  0.00000000000E+00 -0.71967015744E+03  0.71967015746E+03  0.50400001928E-02 0.  1.
    10030    2    1    2    0    0  0.00000000000E+00  0.00000000000E+00  0.12749811161E+04  0.27143214310E+04  0.23962395507E+04 0.  0.
        5    1    3    3  502    0 -0.54965775936E+03  0.36940294917E+03 -0.49348689708E+03  0.82591379627E+03  0.46999998093E+01 0.  1.
       -5    1    3    3    0  502  0.54965775936E+03 -0.36940294917E+03  0.17684680132E+04  0.18884076347E+04  0.46999998093E+01 0. -1.
</event>
<event>
 5   0  0.1198313E-05  0.2374147E+04  0.7818609E-02  0.8449246E-01
        2   -1    0    0  501    0  0.00000000000E+00  0.00000000000E+00  0.17543080419E+04  0.17543080419E+04  0.25500000920E-02 0. -1.
       -2   -1    0    0    0  501  0.00000000000E+00  0.00000000000E+00 -0.80324775273E+03  0.80324775273E+03  0.25500000920E-02 0.  1.
    10030    2    1    2    0    0  0.00000000000E+00  0.00000000000E+00  0.95106028913E+03  0.25575557946E+04  0.23741474194E+04 0.  0.
        5    1    3    3  502    0  0.95492488142E+03  0.22778309712E+03 -0.24337354868E+03  0.10114442361E+04  0.46999998093E+01 0.  1.
       -5    1    3    3    0  502 -0.95492488142E+03 -0.22778309712E+03  0.11944338378E+04  0.15461115585E+04  0.46999998093E+01 0. -1.
</event>
<event>
 5   0  0.4067750E-06  0.2416626E+04  0.7818609E-02  0.8433305E-01
        3   -1    0    0  501    0  0.00000000000E+00  0.00000000000E+00  0.11248611716E+04  0.11248611761E+04  0.10100000352E+00 0.  1.
       -3   -1    0    0    0  501  0.00000000000E+00  0.00000000000E+00 -0.12979555593E+04  0.12979555632E+04  0.10100000352E+00 0. -1.
    10030    2    1    2    0    0  0.00000000000E+00  0.00000000000E+00 -0.17309438770E+03  0.24228167393E+04  0.24166255989E+04 0.  0.
        3    1    3    3  502    0 -0.96556420677E+03 -0.71433277761E+03 -0.21892430837E+03  0.12208658475E+04  0.10100000352E+00 0. -1.
       -3    1    3    3    0  502  0.96556420677E+03  0.71433277761E+03  0.45829920671E+02  0.12019508918E+04  0.10100000352E+00 0.  1.
</event>
<event>
 5   0  0.1169371E-05  0.2399045E+04  0.7818609E-02  0.8439861E-01
        2   -1    0    0  501    0  0.00000000000E+00  0.00000000000E+00  0.18252874480E+04  0.18252874480E+04  0.25500000920E-02 0.  1.
       -2   -1    0    0    0  501  0.00000000000E+00  0.00000000000E+00 -0.78828897613E+03  0.78828897614E+03  0.25500000920E-02 0. -1.
    10030    2    1    2    0    0  0.00000000000E+00  0.00000000000E+00  0.10369984719E+04  0.26135764242E+04  0.23990447879E+04 0.  0.
        2    1    3    3  502    0 -0.76105128964E+03  0.28177289100E+03 -0.44381348399E+03  0.92496780276E+03  0.25500000920E-02 0. -1.
       -2    1    3    3    0  502  0.76105128964E+03 -0.28177289100E+03  0.14808119559E+04  0.16886086214E+04  0.25500000920E-02 0.  1.
</event>
<event>
 5   0  0.1169371E-05  0.2393906E+04  0.7818609E-02  0.8441788E-01
        2   -1    0    0  501    0  0.00000000000E+00  0.00000000000E+00  0.83158681578E+03  0.83158681578E+03  0.25500000920E-02 0. -1.
       -2   -1    0    0    0  501  0.00000000000E+00  0.00000000000E+00 -0.17228469836E+04  0.17228469836E+04  0.25500000920E-02 0.  1.
    10030    2    1    2    0    0  0.00000000000E+00  0.00000000000E+00 -0.89126016781E+03  0.25544337994E+04  0.23939062949E+04 0.  0.
        2    1    3    3  502    0 -0.13615669194E+03 -0.11199079524E+04 -0.18854921770E+02  0.11283120024E+04  0.25500000920E-02 0.  1.
       -2    1    3    3    0  502  0.13615669194E+03  0.11199079524E+04 -0.87240524604E+03  0.14261217970E+04  0.25500000920E-02 0. -1.
</event>
<event>
 5   0  0.1198313E-05  0.2381890E+04  0.7818609E-02  0.8446315E-01
       -2   -1    0    0    0  501  0.00000000000E+00  0.00000000000E+00  0.15246374166E+04  0.15246374166E+04  0.25500000920E-02 0. -1.
        2   -1    0    0  501    0  0.00000000000E+00  0.00000000000E+00 -0.93028694559E+03  0.93028694560E+03  0.25500000920E-02 0.  1.
    10030    2    1    2    0    0  0.00000000000E+00  0.00000000000E+00  0.59435047097E+03  0.24549243622E+04  0.23818902455E+04 0.  0.
        5    1    3    3  502    0 -0.23567315749E+03 -0.11669453466E+04  0.26417929065E+03  0.12194736843E+04  0.46999998093E+01 0.  1.
       -5    1    3    3    0  502  0.23567315749E+03  0.11669453466E+04  0.33017118032E+03  0.12354506779E+04  0.46999998093E+01 0. -1.
</event>
<event>
 5   0  0.1168435E-05  0.2368188E+04  0.7818609E-02  0.8451510E-01
       -2   -1    0    0    0  501  0.00000000000E+00  0.00000000000E+00  0.79909723461E+03  0.79909723461E+03  0.25500000920E-02 0. -1.
        2   -1    0    0  501    0  0.00000000000E+00  0.00000000000E+00 -0.17545778796E+04  0.17545778796E+04  0.25500000920E-02 0.  1.
    10030    2    1    2    0    0  0.00000000000E+00  0.00000000000E+00 -0.95548064503E+03  0.25536751142E+04  0.23681877726E+04 0.  0.
        1    1    3    3  502    0  0.48328232916E+03  0.80340375996E+03  0.30213435013E+03  0.98504039346E+03  0.50400001928E-02 0. -1.
       -1    1    3    3    0  502 -0.48328232916E+03 -0.80340375996E+03 -0.12576149952E+04  0.15686347208E+04  0.50400001928E-02 0.  1.
</event>
<event>
 5   0  0.1169371E-05  0.2401083E+04  0.7818609E-02  0.8439098E-01
       -2   -1    0    0    0  501  0.00000000000E+00  0.00000000000E+00  0.10997461318E+04  0.10997461318E+04  0.25500000920E-02 0. -1.
        2   -1    0    0  501    0  0.00000000000E+00  0.00000000000E+00 -0.13105750712E+04  0.13105750712E+04  0.25500000920E-02 0.  1.
    10030    2    1    2    0    0  0.00000000000E+00  0.00000000000E+00 -0.21082893939E+03  0.24103212030E+04  0.24010829765E+04 0.  0.
        2    1    3    3  502    0 -0.24924118133E+03 -0.11474630250E+04 -0.35639101618E+03  0.12271133268E+04  0.25500000920E-02 0.  1.
       -2    1    3    3    0  502  0.24924118133E+03  0.11474630250E+04  0.14556207678E+03  0.11832078763E+04  0.25500000920E-02 0. -1.
</event>
<event>
 5   0  0.1168435E-05  0.2391777E+04  0.7818609E-02  0.8442588E-01
       -2   -1    0    0    0  501  0.00000000000E+00  0.00000000000E+00  0.64723887162E+03  0.64723887163E+03  0.25500000920E-02 0. -1.
        2   -1    0    0  501    0  0.00000000000E+00  0.00000000000E+00 -0.22096164818E+04  0.22096164818E+04  0.25500000920E-02 0.  1.
    10030    2    1    2    0    0  0.00000000000E+00  0.00000000000E+00 -0.15623776101E+04  0.28568553534E+04  0.23917773127E+04 0.  0.
        1    1    3    3  502    0 -0.11004043966E+04  0.38033861863E+03 -0.11074337897E+04  0.16068468811E+04  0.50400001928E-02 0.  1.
       -1    1    3    3    0  502  0.11004043966E+04 -0.38033861863E+03 -0.45494382048E+03  0.12500084723E+04  0.50400001928E-02 0. -1.
</event>
<event>
 5   0  0.5034479E-06  0.2404699E+04  0.7818609E-02  0.8437746E-01
       -1   -1    0    0    0  501  0.00000000000E+00  0.00000000000E+00  0.16376482584E+04  0.16376482584E+04  0.50400001928E-02 0.  1.
        1   -1    0    0  501    0  0.00000000000E+00  0.00000000000E+00 -0.88275631194E+03  0.88275631196E+03  0.50400001928E-02 0. -1.
    10030    2    1    2    0    0  0.00000000000E+00  0.00000000000E+00  0.75489194643E+03  0.25204045703E+04  0.24046990139E+04 0.  0.
        4    1    3    3  502    0 -0.56049255762E+03 -0.32125442276E+03 -0.68539082350E+03  0.94186968585E+03  0.12699999809E+01 0. -1.
       -4    1    3    3    0  502  0.56049255762E+03  0.32125442276E+03  0.14402827699E+04  0.15785348845E+04  0.12699999809E+01 0.  1.
</event>
<event>
 5   0  0.5034479E-06  0.2397462E+04  0.7818609E-02  0.8440454E-01
       -1   -1    0    0    0  501  0.00000000000E+00  0.00000000000E+00  0.97786341466E+03  0.97786341467E+03  0.50400001928E-02 0.  1.
        1   -1    0    0  501    0  0.00000000000E+00  0.00000000000E+00 -0.14694851573E+04  0.14694851574E+04  0.50400001928E-02 0. -1.
    10030    2    1    2    0    0  0.00000000000E+00  0.00000000000E+00 -0.49162174268E+03  0.24473485720E+04  0.23974618026E+04 0.  0.
        4    1    3    3  502    0 -0.50316673199E+03 -0.10740424258E+04 -0.42323857172E+03  0.12593158437E+04  0.12699999809E+01 0. -1.
       -4    1    3    3    0  502  0.50316673199E+03  0.10740424258E+04 -0.68383170959E+02  0.11880327283E+04  0.12699999809E+01 0.  1.
</event>
<event>
 5   0  0.5034479E-06  0.2380217E+04  0.7818609E-02  0.8446947E-01
        1   -1    0    0  501    0  0.00000000000E+00  0.00000000000E+00  0.10683105892E+04  0.10683105892E+04  0.50400001928E-02 0. -1.
       -1   -1    0    0    0  501  0.00000000000E+00  0.00000000000E+00 -0.13257930792E+04  0.13257930792E+04  0.50400001928E-02 0.  1.
    10030    2    1    2    0    0  0.00000000000E+00  0.00000000000E+00 -0.25748249003E+03  0.23941036684E+04  0.23802174569E+04 0.  0.
        4    1    3    3  502    0 -0.62289998251E+03 -0.72624029040E+03  0.58315039697E+03  0.11204888870E+04  0.12699999809E+01 0. -1.
       -4    1    3    3    0  502  0.62289998251E+03  0.72624029040E+03 -0.84063288700E+03  0.12736147813E+04  0.12699999809E+01 0.  1.
</event>
<event>
 5   0  0.1154897E-05  0.2379432E+04  0.7818609E-02  0.8447244E-01
       -2   -1    0    0    0  501  0.00000000000E+00  0.00000000000E+00  0.12014177598E+04  0.12014177598E+04  0.25500000920E-02 0. -1.
        2   -1    0    0  501    0  0.00000000000E+00  0.00000000000E+00 -0.11781278493E+04  0.11781278493E+04  0.25500000920E-02 0.  1.
    10030    2    1    2    0    0  0.00000000000E+00  0.00000000000E+00  0.23289910438E+02  0.23795456091E+04  0.23794316309E+04 0.  0.
        4    1    3    3  502    0 -0.46197374926E+03 -0.49540744563E+03  0.98973772748E+03  0.11993459319E+04  0.12699999809E+01 0. -1.
       -4    1    3    3    0  502  0.46197374926E+03  0.49540744563E+03 -0.96644781705E+03  0.11801996772E+04  0.12699999809E+01 0.  1.
</event>
<event>
 5   0  0.5042742E-06  0.2396136E+04  0.7818609E-02  0.8440952E-01
        1   -1    0    0  501    0  0.00000000000E+00  0.00000000000E+00  0.12497491872E+04  0.12497491872E+04  0.50400001928E-02 0. -1.
       -1   -1    0    0    0  501  0.00000000000E+00  0.00000000000E+00 -0.11485236876E+04  0.11485236876E+04  0.50400001928E-02 0.  1.
    10030    2    1    2    0    0  0.00000000000E+00  0.00000000000E+00  0.10122549962E+03  0.23982728748E+04  0.23961356765E+04 0.  0.
        5    1    3    3  502    0 -0.15006321405E+03 -0.89156932155E+03 -0.73617339010E+03  0.11659280311E+04  0.46999998093E+01 0.  1.
       -5    1    3    3    0  502  0.15006321405E+03  0.89156932155E+03  0.83739888972E+03  0.12323448437E+04  0.46999998093E+01 0. -1.
</event>
<event>
 5   0  0.5064437E-06  0.2392393E+04  0.7818609E-02  0.8442357E-01
       -1   -1    0    0    0  501  0.00000000000E+00  0.00000000000E+00  0.72803825608E+03  0.72803825610E+03  0.50400001928E-02 0. -1.
        1   -1    0    0  501    0  0.00000000000E+00  0.00000000000E+00 -0.19653989338E+04  0.19653989339E+04  0.50400001928E-02 0.  1.
    10030    2    1    2    0    0  0.00000000000E+00  0.00000000000E+00 -0.12373606778E+04  0.26934371900E+04  0.23923926202E+04 0.  0.
        2    1    3    3  502    0 -0.35175723162E+03  0.77010468814E+03  0.33269359551E+03  0.90965895213E+03  0.25500000920E-02 0. -1.
       -2    1    3    3    0  502  0.35175723162E+03 -0.77010468814E+03 -0.15700542733E+04  0.17837782378E+04  0.25500000920E-02 0.  1.
</event>
<event>
 5   0  0.5034479E-06  0.2400890E+04  0.7818609E-02  0.8439170E-01
       -1   -1    0    0    0  501  0.00000000000E+00  0.00000000000E+00  0.11495923601E+04  0.11495923601E+04  0.50400001928E-02 0. -1.
        1   -1    0    0  501    0  0.00000000000E+00  0.00000000000E+00 -0.12535474300E+04  0.12535474300E+04  0.50400001928E-02 0.  1.
    10030    2    1    2    0    0  0.00000000000E+00  0.00000000000E+00 -0.10395506995E+03  0.24031397901E+04  0.24008902920E+04 0.  0.
        4    1    3    3  502    0  0.86423198867E+03 -0.72748193115E+03 -0.45848616831E+03  0.12191546538E+04  0.12699999809E+01 0. -1.
       -4    1    3    3    0  502 -0.86423198867E+03  0.72748193115E+03  0.35453109835E+03  0.11839851363E+04  0.12699999809E+01 0.  1.
</event>
<event>
 5   0  0.5034479E-06  0.2394623E+04  0.7818609E-02  0.8441519E-01
        1   -1    0    0  501    0  0.00000000000E+00  0.00000000000E+00  0.29565072385E+04  0.29565072385E+04  0.50400001928E-02 0. -1.
       -1   -1    0    0    0  501  0.00000000000E+00  0.00000000000E+00 -0.48488119549E+03  0.48488119552E+03  0.50400001928E-02 0.  1.
    10030    2    1    2    0    0  0.00000000000E+00  0.00000000000E+00  0.24716260430E+04  0.34413884340E+04  0.23946229468E+04 0.  0.
        4    1    3    3  502    0 -0.12773504288E+03 -0.59101888195E+03 -0.24933136674E+03  0.65405451098E+03  0.12699999809E+01 0.  1.
       -4    1    3    3    0  502  0.12773504288E+03  0.59101888195E+03  0.27209574098E+04  0.27873339231E+04  0.12699999809E+01 0. -1.
</event>
<event>
 5   0  0.1174210E-05  0.2405552E+04  0.7818609E-02  0.8437428E-01
       -2   -1    0    0    0  501  0.00000000000E+00  0.00000000000E+00  0.78224734057E+03  0.78224734057E+03  0.25500000920E-02 0. -1.
        2   -1    0    0  501    0  0.00000000000E+00  0.00000000000E+00 -0.18493772301E+04  0.18493772301E+04  0.25500000920E-02 0.  1.
    10030    2    1    2    0    0  0.00000000000E+00  0.00000000000E+00 -0.10671298895E+04  0.26316245707E+04  0.24055522609E+04 0.  0.
        3    1    3    3  502    0  0.10663722412E+04  0.32678284793E+03 -0.10261395605E+04  0.15155524387E+04  0.10100000352E+00 0.  1.
       -3    1    3    3    0  502 -0.10663722412E+04 -0.32678284793E+03 -0.40990329029E+02  0.11160721320E+04  0.10100000352E+00 0. -1.
</event>
<event>
 5   0  0.5064437E-06  0.2446308E+04  0.7818609E-02  0.8422367E-01
        1   -1    0    0  501    0  0.00000000000E+00  0.00000000000E+00  0.89783496770E+03  0.89783496771E+03  0.50400001928E-02 0.  1.
       -1   -1    0    0    0  501  0.00000000000E+00  0.00000000000E+00 -0.16663484614E+04  0.16663484614E+04  0.50400001928E-02 0. -1.
    10030    2    1    2    0    0  0.00000000000E+00  0.00000000000E+00 -0.76851349369E+03  0.25641834291E+04  0.24463081711E+04 0.  0.
        2    1    3    3  502    0  0.63828422948E+03  0.29931229930E+03 -0.14319758446E+04  0.15961044545E+04  0.25500000920E-02 0. -1.
       -2    1    3    3    0  502 -0.63828422948E+03 -0.29931229930E+03  0.66346235088E+03  0.96807897465E+03  0.25500000920E-02 0.  1.
</event>
<event>
 5   0  0.1174210E-05  0.2412734E+04  0.7818609E-02  0.8434752E-01
        2   -1    0    0  501    0  0.00000000000E+00  0.00000000000E+00  0.61780390490E+03  0.61780390490E+03  0.25500000920E-02 0.  1.
       -2   -1    0    0    0  501  0.00000000000E+00  0.00000000000E+00 -0.23556357381E+04  0.23556357381E+04  0.25500000920E-02 0. -1.
    10030    2    1    2    0    0  0.00000000000E+00  0.00000000000E+00 -0.17378318332E+04  0.29734396430E+04  0.24127336840E+04 0.  0.
        3    1    3    3  502    0 -0.71018629221E+03  0.97320731803E+03 -0.94512428264E+03  0.15312599300E+04  0.10100000352E+00 0.  1.
       -3    1    3    3    0  502  0.71018629221E+03 -0.97320731803E+03 -0.79270755051E+03  0.14421797129E+04  0.10100000352E+00 0. -1.
</event>
<event>
 5   0  0.5042742E-06  0.2404456E+04  0.7818609E-02  0.8437837E-01
        1   -1    0    0  501    0  0.00000000000E+00  0.00000000000E+00  0.20272302332E+04  0.20272302332E+04  0.50400001928E-02 0. -1.
       -1   -1    0    0    0  501  0.00000000000E+00  0.00000000000E+00 -0.71296909499E+03  0.71296909501E+03  0.50400001928E-02 0.  1.
    10030    2    1    2    0    0  0.00000000000E+00  0.00000000000E+00  0.13142611382E+04  0.27401993283E+04  0.24044562835E+04 0.  0.
        5    1    3    3  502    0  0.76557303607E+03  0.89892067385E+03  0.39933655851E+03  0.12464558670E+04  0.46999998093E+01 0.  1.
       -5    1    3    3    0  502 -0.76557303607E+03 -0.89892067385E+03  0.91492457974E+03  0.14937434613E+04  0.46999998093E+01 0. -1.
</event>
<event>
 5   0  0.1174210E-05  0.2372345E+04  0.7818609E-02  0.8449930E-01
       -2   -1    0    0    0  501  0.00000000000E+00  0.00000000000E+00  0.15600950419E+04  0.15600950419E+04  0.25500000920E-02 0.  1.
        2   -1    0    0  501    0  0.00000000000E+00  0.00000000000E+00 -0.90187168062E+03  0.90187168063E+03  0.25500000920E-02 0. -1.
    10030    2    1    2    0    0  0.00000000000E+00  0.00000000000E+00  0.65822336131E+03  0.24619667226E+04  0.23723452847E+04 0.  0.
        3    1    3    3  502    0  0.43442114155E+03  0.96514501132E+02  0.14701804448E+04  0.15360557697E+04  0.10100000352E+00 0.  1.
       -3    1    3    3    0  502 -0.43442114155E+03 -0.96514501132E+02 -0.81195708345E+03  0.92591095291E+03  0.10100000352E+00 0. -1.
</event>
<event>
 5   0  0.5104174E-06  0.2405661E+04  0.7818609E-02  0.8437387E-01
       -1   -1    0    0    0  501  0.00000000000E+00  0.00000000000E+00  0.11836562261E+04  0.11836562261E+04  0.50400001928E-02 0. -1.
        1   -1    0    0  501    0  0.00000000000E+00  0.00000000000E+00 -0.12223157368E+04  0.12223157368E+04  0.50400001928E-02 0.  1.
    10030    2    1    2    0    0  0.00000000000E+00  0.00000000000E+00 -0.38659510685E+02  0.24059719628E+04  0.24056613494E+04 0.  0.
        3    1    3    3  502    0 -0.20559911665E+03  0.11550997040E+04 -0.28445887027E+03  0.12072461150E+04  0.10100000352E+00 0. -1.
       -3    1    3    3    0  502  0.20559911665E+03 -0.11550997040E+04  0.24579935958E+03  0.11987258479E+04  0.10100000352E+00 0.  1.
</event>
<event>
 5   0  0.5042742E-06  0.2406700E+04  0.7818609E-02  0.8436999E-01
       -1   -1    0    0    0  501  0.00000000000E+00  0.00000000000E+00  0.15599923917E+04  0.15599923917E+04  0.50400001928E-02 0.  1.
        1   -1    0    0  501    0  0.00000000000E+00  0.00000000000E+00 -0.92824244076E+03  0.92824244077E+03  0.50400001928E-02 0. -1.
    10030    2    1    2    0    0  0.00000000000E+00  0.00000000000E+00  0.63174995095E+03  0.24882348325E+04  0.24066999358E+04 0.  0.
        5    1    3    3  502    0  0.37453639503E+03  0.82529799103E+02  0.14951038790E+04  0.15435175340E+04  0.46999998093E+01 0.  1.
       -5    1    3    3    0  502 -0.37453639503E+03 -0.82529799103E+02 -0.86335392803E+03  0.94471729845E+03  0.46999998093E+01 0. -1.
</event>
<event>
 5   0  0.1198313E-05  0.2414107E+04  0.7818609E-02  0.8434241E-01
        2   -1    0    0  501    0  0.00000000000E+00  0.00000000000E+00  0.18386183877E+04  0.18386183877E+04  0.25500000920E-02 0. -1.
       -2   -1    0    0    0  501  0.00000000000E+00  0.00000000000E+00 -0.79243067311E+03  0.79243067311E+03  0.25500000920E-02 0.  1.
    10030    2    1    2    0    0  0.00000000000E+00  0.00000000000E+00  0.10461877146E+04  0.26310490608E+04  0.24141065483E+04 0.  0.
        5    1    3    3  502    0 -0.48022404308E+02 -0.20351965605E+03 -0.77252959410E+03  0.80034396697E+03  0.46999998093E+01 0.  1.
       -5    1    3    3    0  502  0.48022404308E+02  0.20351965605E+03  0.18187173087E+04  0.18307050939E+04  0.46999998093E+01 0. -1.
</event>
<event>
 5   0  0.5104174E-06  0.2382093E+04  0.7818609E-02  0.8446238E-01
       -1   -1    0    0    0  501  0.00000000000E+00  0.00000000000E+00  0.69573759971E+03  0.69573759973E+03  0.50400001928E-02 0. -1.
        1   -1    0    0  501    0  0.00000000000E+00  0.00000000000E+00 -0.20389761215E+04  0.20389761216E+04  0.50400001928E-02 0.  1.
    10030    2    1    2    0    0  0.00000000000E+00  0.00000000000E+00 -0.13432385218E+04  0.27347137213E+04  0.23820934933E+04 0.  0.
        3    1    3    3  502    0  0.42900330057E+03 -0.11102028581E+04 -0.72293662404E+03  0.13925629575E+04  0.10100000352E+00 0.  1.
       -3    1    3    3    0  502 -0.42900330057E+03  0.11102028581E+04 -0.62030189780E+03  0.13421507638E+04  0.10100000352E+00 0. -1.
</event>
<event>
 5   0  0.5064437E-06  0.2421552E+04  0.7818609E-02  0.8431479E-01
       -1   -1    0    0    0  501  0.00000000000E+00  0.00000000000E+00  0.11013371177E+04  0.11013371177E+04  0.50400001928E-02 0. -1.
        1   -1    0    0  501    0  0.00000000000E+00  0.00000000000E+00 -0.13310895766E+04  0.13310895766E+04  0.50400001928E-02 0.  1.
    10030    2    1    2    0    0  0.00000000000E+00  0.00000000000E+00 -0.22975245891E+03  0.24324266942E+04  0.24215518641E+04 0.  0.
        2    1    3    3  502    0 -0.81488603257E+03 -0.49787399928E+03 -0.86257147108E+03  0.12868361621E+04  0.25500000920E-02 0.  1.
       -2    1    3    3    0  502  0.81488603257E+03  0.49787399928E+03  0.63281901217E+03  0.11455905322E+04  0.25500000920E-02 0. -1.
</event>
<event>
 5   0  0.1169371E-05  0.2397384E+04  0.7818609E-02  0.8440484E-01
       -2   -1    0    0    0  501  0.00000000000E+00  0.00000000000E+00  0.92150585427E+03  0.92150585428E+03  0.25500000920E-02 0.  1.
        2   -1    0    0  501    0  0.00000000000E+00  0.00000000000E+00 -0.15592544899E+04  0.15592544899E+04  0.25500000920E-02 0. -1.
    10030    2    1    2    0    0  0.00000000000E+00  0.00000000000E+00 -0.63774863565E+03  0.24807603442E+04  0.23973836913E+04 0.  0.
        2    1    3    3  502    0 -0.32599668949E+03  0.77800384329E+03 -0.12001374461E+04  0.14669334379E+04  0.25500000920E-02 0. -1.
       -2    1    3    3    0  502  0.32599668949E+03 -0.77800384329E+03  0.56238881047E+03  0.10138269063E+04  0.25500000920E-02 0.  1.
</event>
<event>
 5   0  0.1169371E-05  0.2395014E+04  0.7818609E-02  0.8441373E-01
       -2   -1    0    0    0  501  0.00000000000E+00  0.00000000000E+00  0.60133472245E+03  0.60133472246E+03  0.25500000920E-02 0. -1.
        2   -1    0    0  501    0  0.00000000000E+00  0.00000000000E+00 -0.23847330563E+04  0.23847330563E+04  0.25500000920E-02 0.  1.
    10030    2    1    2    0    0  0.00000000000E+00  0.00000000000E+00 -0.17833983338E+04  0.29860677787E+04  0.23950138125E+04 0.  0.
        2    1    3    3  502    0 -0.11758480280E+04  0.20822259219E+03 -0.10035459984E+04  0.15598332616E+04  0.25500000920E-02 0.  1.
       -2    1    3    3    0  502  0.11758480280E+04 -0.20822259219E+03 -0.77985233539E+03  0.14262345172E+04  0.25500000920E-02 0. -1.
</event>
<event>
 5   0  0.1154897E-05  0.2381908E+04  0.7818609E-02  0.8446308E-01
        2   -1    0    0  501    0  0.00000000000E+00  0.00000000000E+00  0.13480680901E+04  0.13480680901E+04  0.25500000920E-02 0. -1.
       -2   -1    0    0    0  501  0.00000000000E+00  0.00000000000E+00 -0.10521510230E+04  0.10521510230E+04  0.25500000920E-02 0.  1.
    10030    2    1    2    0    0  0.00000000000E+00  0.00000000000E+00  0.29591706708E+03  0.24002191131E+04  0.23819078236E+04 0.  0.
        4    1    3    3  502    0  0.78444080770E+03 -0.46516792398E+03 -0.62385458437E+03  0.11049546297E+04  0.12699999809E+01 0.  1.
       -4    1    3    3    0  502 -0.78444080770E+03  0.46516792398E+03  0.91977165145E+03  0.12952644834E+04  0.12699999809E+01 0. -1.
</event>
<event>
 5   0  0.1168435E-05  0.2400995E+04  0.7818609E-02  0.8439131E-01
       -2   -1    0    0    0  501  0.00000000000E+00  0.00000000000E+00  0.85014982509E+03  0.85014982509E+03  0.25500000920E-02 0.  1.
        2   -1    0    0  501    0  0.00000000000E+00  0.00000000000E+00 -0.16952242491E+04  0.16952242491E+04  0.25500000920E-02 0. -1.
    10030    2    1    2    0    0  0.00000000000E+00  0.00000000000E+00 -0.84507442401E+03  0.25453740742E+04  0.24009952927E+04 0.  0.
        1    1    3    3  502    0 -0.82031718265E+03  0.36991308988E+03  0.41987737747E+03  0.99300200722E+03  0.50400001928E-02 0.  1.
       -1    1    3    3    0  502  0.82031718265E+03 -0.36991308988E+03 -0.12649518015E+04  0.15523720670E+04  0.50400001928E-02 0. -1.
</event>
<event>
 5   0  0.4067750E-06  0.2401101E+04  0.7818609E-02  0.8439092E-01
        4   -1    0    0  501    0  0.00000000000E+00  0.00000000000E+00  0.13140896201E+04  0.13140902338E+04  0.12699999809E+01 0. -1.
       -4   -1    0    0    0  501  0.00000000000E+00  0.00000000000E+00 -0.10968198145E+04  0.10968205497E+04  0.12699999809E+01 0.  1.
    10030    2    1    2    0    0  0.00000000000E+00  0.00000000000E+00  0.21726980561E+03  0.24109107835E+04  0.24011007138E+04 0.  0.
        2    1    3    3  502    0  0.21933377810E+03  0.96091307013E+03 -0.57962895603E+03  0.11434294737E+04  0.25500000920E-02 0.  1.
       -2    1    3    3    0  502 -0.21933377810E+03 -0.96091307013E+03  0.79689876164E+03  0.12674813099E+04  0.25500000920E-02 0. -1.
</event>
<event>
 5   0  0.1169371E-05  0.2386626E+04  0.7818609E-02  0.8444528E-01
       -2   -1    0    0    0  501  0.00000000000E+00  0.00000000000E+00  0.10680008979E+04  0.10680008979E+04  0.25500000920E-02 0. -1.
        2   -1    0    0  501    0  0.00000000000E+00  0.00000000000E+00 -0.13333280810E+04  0.13333280810E+04  0.25500000920E-02 0.  1.
    10030    2    1    2    0    0  0.00000000000E+00  0.00000000000E+00 -0.26532718314E+03  0.24013289790E+04  0.23866257250E+04 0.  0.
        2    1    3    3  502    0  0.91394221600E+03  0.64018998209E+03 -0.55818987105E+03  0.12476816579E+04  0.25500000920E-02 0.  1.
       -2    1    3    3    0  502 -0.91394221600E+03 -0.64018998209E+03  0.29286268791E+03  0.11536473210E+04  0.25500000920E-02 0. -1.
</event>
<event>
 5   0  0.1168435E-05  0.2392595E+04  0.7818609E-02  0.8442281E-01
       -2   -1    0    0    0  501  0.00000000000E+00  0.00000000000E+00  0.10163899221E+04  0.10163899221E+04  0.25500000920E-02 0. -1.
        2   -1    0    0  501    0  0.00000000000E+00  0.00000000000E+00 -0.14080495028E+04  0.14080495028E+04  0.25500000920E-02 0.  1.
    10030    2    1    2    0    0  0.00000000000E+00  0.00000000000E+00 -0.39165958068E+03  0.24244394248E+04  0.23925946789E+04 0.  0.
        1    1    3    3  502    0  0.10261829321E+04 -0.44737112466E+03  0.23160797000E+03  0.11431686599E+04  0.50400001928E-02 0. -1.
       -1    1    3    3    0  502 -0.10261829321E+04  0.44737112466E+03 -0.62326755068E+03  0.12812707649E+04  0.50400001928E-02 0.  1.
</event>
<event>
 5   0  0.4067750E-06  0.2481771E+04  0.7818609E-02  0.8409509E-01
        3   -1    0    0  501    0  0.00000000000E+00  0.00000000000E+00  0.44973142832E+03  0.44973143966E+03  0.10100000352E+00 0. -1.
       -3   -1    0    0    0  501  0.00000000000E+00  0.00000000000E+00 -0.34238143648E+04  0.34238143663E+04  0.10100000352E+00 0.  1.
    10030    2    1    2    0    0  0.00000000000E+00  0.00000000000E+00 -0.29740829365E+04  0.38735458060E+04  0.24817711010E+04 0.  0.
        5    1    3    3  502    0 -0.36611623374E+03 -0.11130884845E+04 -0.21244282572E+04  0.24261542780E+04  0.46999998093E+01 0. -1.
       -5    1    3    3    0  502  0.36611623374E+03  0.11130884845E+04 -0.84965467933E+03  0.14473915279E+04  0.46999998093E+01 0.  1.
</event>
<event>
 5   0  0.5104174E-06  0.2399772E+04  0.7818609E-02  0.8439589E-01
        1   -1    0    0  501    0  0.00000000000E+00  0.00000000000E+00  0.10033081875E+04  0.10033081875E+04  0.50400001928E-02 0. -1.
       -1   -1    0    0    0  501  0.00000000000E+00  0.00000000000E+00 -0.14349795185E+04  0.14349795185E+04  0.50400001928E-02 0.  1.
    10030    2    1    2    0    0  0.00000000000E+00  0.00000000000E+00 -0.43167133101E+03  0.24382877061E+04  0.23997722391E+04 0.  0.
        3    1    3    3  502    0  0.83814991723E+03 -0.58644934750E+03  0.42137293366E+03  0.11063332592E+04  0.10100000352E+00 0. -1.
       -3    1    3    3    0  502 -0.83814991723E+03  0.58644934750E+03 -0.85304426467E+03  0.13319544469E+04  0.10100000352E+00 0.  1.
</event>
<event>
 5   0  0.1198313E-05  0.2485157E+04  0.7818609E-02  0.8408293E-01
        2   -1    0    0  501    0  0.00000000000E+00  0.00000000000E+00  0.20576988415E+04  0.20576988415E+04  0.25500000920E-02 0.  1.
       -2   -1    0    0    0  501  0.00000000000E+00  0.00000000000E+00 -0.75035330078E+03  0.75035330079E+03  0.25500000920E-02 0. -1.
    10030    2    1    2    0    0  0.00000000000E+00  0.00000000000E+00  0.13073455407E+04  0.28080521423E+04  0.24851568303E+04 0.  0.
        5    1    3    3  502    0 -0.16756690484E+03 -0.75441547186E+02  0.20422495050E+04  0.20505060900E+04  0.46999998093E+01 0.  1.
       -5    1    3    3    0  502  0.16756690484E+03  0.75441547186E+02 -0.73490396426E+03  0.75754605227E+03  0.46999998093E+01 0. -1.
</event>
<event>
 5   0  0.5034479E-06  0.2409041E+04  0.7818609E-02  0.8436126E-01
       -1   -1    0    0    0  501  0.00000000000E+00  0.00000000000E+00  0.12323516551E+04  0.12323516551E+04  0.50400001928E-02 0. -1.
        1   -1    0    0  501    0  0.00000000000E+00  0.00000000000E+00 -0.11773182521E+04  0.11773182521E+04  0.50400001928E-02 0.  1.
    10030    2    1    2    0    0  0.00000000000E+00  0.00000000000E+00  0.55033403050E+02  0.24096699072E+04  0.24090413833E+04 0.  0.
        4    1    3    3  502    0  0.95023277957E+03  0.37531180034E+03  0.66570134403E+03  0.12194101751E+04  0.12699999809E+01 0. -1.
       -4    1    3    3    0  502 -0.95023277957E+03 -0.37531180034E+03 -0.61066794098E+03  0.11902597321E+04  0.12699999809E+01 0.  1.
</event>
<event>
 5   0  0.1168435E-05  0.2396873E+04  0.7818609E-02  0.8440675E-01
       -2   -1    0    0    0  501  0.00000000000E+00  0.00000000000E+00  0.87050542735E+03  0.87050542735E+03  0.25500000920E-02 0. -1.
        2   -1    0    0  501    0  0.00000000000E+00  0.00000000000E+00 -0.16499035580E+04  0.16499035580E+04  0.25500000920E-02 0.  1.
    10030    2    1    2    0    0  0.00000000000E+00  0.00000000000E+00 -0.77939813064E+03  0.25204089853E+04  0.23968729644E+04 0.  0.
        1    1    3    3  502    0 -0.93106501433E+03 -0.58947149935E+03 -0.88503077627E+03  0.14133782878E+04  0.50400001928E-02 0.  1.
       -1    1    3    3    0  502  0.93106501433E+03  0.58947149935E+03  0.10563264563E+03  0.11070306975E+04  0.50400001928E-02 0. -1.
</event>
<event>
 5   0  0.1169371E-05  0.2407272E+04  0.7818609E-02  0.8436786E-01
       -2   -1    0    0    0  501  0.00000000000E+00  0.00000000000E+00  0.84074649940E+03  0.84074649940E+03  0.25500000920E-02 0. -1.
        2   -1    0    0  501    0  0.00000000000E+00  0.00000000000E+00 -0.17231583451E+04  0.17231583451E+04  0.25500000920E-02 0.  1.
    10030    2    1    2    0    0  0.00000000000E+00  0.00000000000E+00 -0.88241184568E+03  0.25639048445E+04  0.24072717724E+04 0.  0.
        2    1    3    3  502    0  0.31461554533E+03  0.91285322787E+00  0.79617764410E+03  0.85608563569E+03  0.25500000920E-02 0. -1.
       -2    1    3    3    0  502 -0.31461554533E+03 -0.91285322787E+00 -0.16785894898E+04  0.17078192088E+04  0.25500000920E-02 0.  1.
</event>
<event>
 5   0  0.5042742E-06  0.2391380E+04  0.7818609E-02  0.8442738E-01
       -1   -1    0    0    0  501  0.00000000000E+00  0.00000000000E+00  0.12623073756E+04  0.12623073756E+04  0.50400001928E-02 0. -1.
        1   -1    0    0  501    0  0.00000000000E+00  0.00000000000E+00 -0.11325882242E+04  0.11325882242E+04  0.50400001928E-02 0.  1.
    10030    2    1    2    0    0  0.00000000000E+00  0.00000000000E+00  0.12971915140E+03  0.23948955997E+04  0.23913799103E+04 0.  0.
        5    1    3    3  502    0 -0.36199043355E+03 -0.93946904546E+03  0.71079867585E+03  0.12324349918E+04  0.46999998093E+01 0. -1.
       -5    1    3    3    0  502  0.36199043355E+03  0.93946904546E+03 -0.58107952445E+03  0.11624606080E+04  0.46999998093E+01 0.  1.
</event>
<event>
 5   0  0.1154897E-05  0.2414969E+04  0.7818609E-02  0.8433921E-01
        2   -1    0    0  501    0  0.00000000000E+00  0.00000000000E+00  0.18668293586E+04  0.18668293586E+04  0.25500000920E-02 0. -1.
       -2   -1    0    0    0  501  0.00000000000E+00  0.00000000000E+00 -0.78101343625E+03  0.78101343625E+03  0.25500000920E-02 0.  1.
    10030    2    1    2    0    0  0.00000000000E+00  0.00000000000E+00  0.10858159223E+04  0.26478427948E+04  0.24149689954E+04 0.  0.
        4    1    3    3  502    0 -0.32953550367E+03  0.64366267662E+03  0.16031737633E+04  0.17587106123E+04  0.12699999809E+01 0. -1.
       -4    1    3    3    0  502  0.32953550367E+03 -0.64366267662E+03 -0.51735784101E+03  0.88913218253E+03  0.12699999809E+01 0.  1.
</event>
<event>
 5   0  0.1198313E-05  0.2393495E+04  0.7818609E-02  0.8441943E-01
        2   -1    0    0  501    0  0.00000000000E+00  0.00000000000E+00  0.12387485285E+04  0.12387485285E+04  0.25500000920E-02 0. -1.
       -2   -1    0    0    0  501  0.00000000000E+00  0.00000000000E+00 -0.11561707154E+04  0.11561707154E+04  0.25500000920E-02 0.  1.
    10030    2    1    2    0    0  0.00000000000E+00  0.00000000000E+00  0.82577813034E+02  0.23949192439E+04  0.23934951618E+04 0.  0.
        5    1    3    3  502    0  0.93447050181E+03  0.38093909698E+03  0.68497016254E+03  0.12196540198E+04  0.46999998093E+01 0.  1.
       -5    1    3    3    0  502 -0.93447050181E+03 -0.38093909698E+03 -0.60239234950E+03  0.11752652242E+04  0.46999998093E+01 0. -1.
</event>
<event>
 5   0  0.5034479E-06  0.2410643E+04  0.7818609E-02  0.8435530E-01
       -1   -1    0    0    0  501  0.00000000000E+00  0.00000000000E+00  0.15316592593E+04  0.15316592593E+04  0.50400001928E-02 0.  1.
        1   -1    0    0  501    0  0.00000000000E+00  0.00000000000E+00 -0.94851375176E+03  0.94851375178E+03  0.50400001928E-02 0. -1.
    10030    2    1    2    0    0  0.00000000000E+00  0.00000000000E+00  0.58314550749E+03  0.24801730110E+04  0.24106429602E+04 0.  0.
        4    1    3    3  502    0 -0.44407808511E+03  0.55037365185E+03 -0.71263370299E+03  0.10039745564E+04  0.12699999809E+01 0. -1.
       -4    1    3    3    0  502  0.44407808511E+03 -0.55037365185E+03  0.12957792105E+04  0.14761984547E+04  0.12699999809E+01 0.  1.
</event>
<event>
 5   0  0.1168435E-05  0.2384607E+04  0.7818609E-02  0.8445289E-01
        2   -1    0    0  501    0  0.00000000000E+00  0.00000000000E+00  0.10663768258E+04  0.10663768258E+04  0.25500000920E-02 0.  1.
       -2   -1    0    0    0  501  0.00000000000E+00  0.00000000000E+00 -0.13331003440E+04  0.13331003440E+04  0.25500000920E-02 0. -1.
    10030    2    1    2    0    0  0.00000000000E+00  0.00000000000E+00 -0.26672351817E+03  0.23994771698E+04  0.23846067293E+04 0.  0.
        1    1    3    3  502    0  0.22903100566E+03  0.10563412815E+04  0.37304115700E+03  0.11434473357E+04  0.50400001928E-02 0.  1.
       -1    1    3    3    0  502 -0.22903100566E+03 -0.10563412815E+04 -0.63976467517E+03  0.12560298341E+04  0.50400001928E-02 0. -1.
</event>
<event>
 5   0  0.4067750E-06  0.2404613E+04  0.7818609E-02  0.8437778E-01
       -3   -1    0    0    0  501  0.00000000000E+00  0.00000000000E+00  0.98446910262E+03  0.98446910780E+03  0.10100000352E+00 0.  1.
        3   -1    0    0  501    0  0.00000000000E+00  0.00000000000E+00 -0.14683459745E+04  0.14683459780E+04  0.10100000352E+00 0. -1.
    10030    2    1    2    0    0  0.00000000000E+00  0.00000000000E+00 -0.48387687192E+03  0.24528150858E+04  0.24046132783E+04 0.  0.
        2    1    3    3  502    0  0.59029794813E+03  0.22111803057E+03  0.80239912987E+03  0.10203867966E+04  0.25500000920E-02 0.  1.
       -2    1    3    3    0  502 -0.59029794813E+03 -0.22111803057E+03 -0.12862760018E+04  0.14324282892E+04  0.25500000920E-02 0. -1.
</event>
<event>
 5   0  0.5104174E-06  0.2405218E+04  0.7818609E-02  0.8437553E-01
       -1   -1    0    0    0  501  0.00000000000E+00  0.00000000000E+00  0.91793497935E+03  0.91793497937E+03  0.50400001928E-02 0.  1.
        1   -1    0    0  501    0  0.00000000000E+00  0.00000000000E+00 -0.15755674434E+04  0.15755674434E+04  0.50400001928E-02 0. -1.
    10030    2    1    2    0    0  0.00000000000E+00  0.00000000000E+00 -0.65763246405E+03  0.24935024228E+04  0.24052180514E+04 0.  0.
        3    1    3    3  502    0  0.78390036695E+03 -0.55204289452E+03  0.42378995159E+03  0.10482600231E+04  0.10100000352E+00 0.  1.
       -3    1    3    3    0  502 -0.78390036695E+03  0.55204289452E+03 -0.10814224156E+04  0.14452423997E+04  0.10100000352E+00 0. -1.
</event>
<event>
 5   0  0.5104174E-06  0.2373563E+04  0.7818609E-02  0.8449468E-01
       -1   -1    0    0    0  501  0.00000000000E+00  0.00000000000E+00  0.58933537852E+03  0.58933537854E+03  0.50400001928E-02 0. -1.
        1   -1    0    0  501    0  0.00000000000E+00  0.00000000000E+00 -0.23898959323E+04  0.23898959323E+04  0.50400001928E-02 0.  1.
    10030    2    1    2    0    0  0.00000000000E+00  0.00000000000E+00 -0.18005605538E+04  0.29792313109E+04  0.23735629117E+04 0.  0.
        3    1    3    3  502    0 -0.14597365299E+03  0.26618656705E+02  0.57764669572E+03  0.59639967768E+03  0.10100000352E+00 0. -1.
       -3    1    3    3    0  502  0.14597365299E+03 -0.26618656705E+02 -0.23782072495E+04  0.23828316332E+04  0.10100000352E+00 0.  1.
</event>
<event>
 5   0  0.5196696E-06  0.2404573E+04  0.7818609E-02  0.8437793E-01
       -1   -1    0    0    0  501  0.00000000000E+00  0.00000000000E+00  0.68883928871E+03  0.68883928873E+03  0.50400001928E-02 0.  1.
        1   -1    0    0  501    0  0.00000000000E+00  0.00000000000E+00 -0.20984479196E+04  0.20984479196E+04  0.50400001928E-02 0. -1.
    10030    2    1    2    0    0  0.00000000000E+00  0.00000000000E+00 -0.14096086309E+04  0.27872872084E+04  0.24045734527E+04 0.  0.
        1    1    3    3  502    0  0.10035962933E+04 -0.52726688299E+03 -0.11688705127E+04  0.16283347817E+04  0.50400001928E-02 0. -1.
       -1    1    3    3    0  502 -0.10035962933E+04  0.52726688299E+03 -0.24073811826E+03  0.11589524267E+04  0.50400001928E-02 0.  1.
</event>
<event>
 5   0  0.1174210E-05  0.2399406E+04  0.7818609E-02  0.8439726E-01
        2   -1    0    0  501    0  0.00000000000E+00  0.00000000000E+00  0.12087206592E+04  0.12087206592E+04  0.25500000920E-02 0. -1.
       -2   -1    0    0    0  501  0.00000000000E+00  0.00000000000E+00 -0.11907528828E+04  0.11907528828E+04  0.25500000920E-02 0.  1.
    10030    2    1    2    0    0  0.00000000000E+00  0.00000000000E+00  0.17967776395E+02  0.23994735420E+04  0.23994062678E+04 0.  0.
        3    1    3    3  502    0  0.27874670882E+03 -0.11527493590E+04 -0.17200954773E+03  0.11983814531E+04  0.10100000352E+00 0. -1.
       -3    1    3    3    0  502 -0.27874670882E+03  0.11527493590E+04  0.18997732413E+03  0.12010920890E+04  0.10100000352E+00 0.  1.
</event>
<event>
 5   0  0.4067750E-06  0.2403354E+04  0.7818609E-02  0.8438249E-01
       -3   -1    0    0    0  501  0.00000000000E+00  0.00000000000E+00  0.17419510814E+04  0.17419510844E+04  0.10100000352E+00 0. -1.
        3   -1    0    0  501    0  0.00000000000E+00  0.00000000000E+00 -0.82897130915E+03  0.82897131530E+03  0.10100000352E+00 0.  1.
    10030    2    1    2    0    0  0.00000000000E+00  0.00000000000E+00  0.91297977228E+03  0.25709223997E+04  0.24033538900E+04 0.  0.
        1    1    3    3  502    0 -0.36866916781E+03 -0.58277993248E+03  0.15092178035E+04  0.16593034031E+04  0.50400001928E-02 0. -1.
       -1    1    3    3    0  502  0.36866916781E+03  0.58277993248E+03 -0.59623803124E+03  0.91161899657E+03  0.50400001928E-02 0.  1.
</event>
<event>
 5   0  0.1174210E-05  0.2402485E+04  0.7818609E-02  0.8438574E-01
       -2   -1    0    0    0  501  0.00000000000E+00  0.00000000000E+00  0.12637782582E+04  0.12637782582E+04  0.25500000920E-02 0.  1.
        2   -1    0    0  501    0  0.00000000000E+00  0.00000000000E+00 -0.11418009232E+04  0.11418009232E+04  0.25500000920E-02 0. -1.
    10030    2    1    2    0    0  0.00000000000E+00  0.00000000000E+00  0.12197733497E+03  0.24055791814E+04  0.24024846987E+04 0.  0.
        3    1    3    3  502    0  0.71806463368E+03 -0.69694305105E+03 -0.60442485533E+03  0.11690491224E+04  0.10100000352E+00 0. -1.
       -3    1    3    3    0  502 -0.71806463368E+03  0.69694305105E+03  0.72640219029E+03  0.12365300590E+04  0.10100000352E+00 0.  1.
</event>
<event>
 5   0  0.1198313E-05  0.2395035E+04  0.7818609E-02  0.8441365E-01
        2   -1    0    0  501    0  0.00000000000E+00  0.00000000000E+00  0.14247328726E+04  0.14247328726E+04  0.25500000920E-02 0.  1.
       -2   -1    0    0    0  501  0.00000000000E+00  0.00000000000E+00 -0.10065386212E+04  0.10065386212E+04  0.25500000920E-02 0. -1.
    10030    2    1    2    0    0  0.00000000000E+00  0.00000000000E+00  0.41819425144E+03  0.24312714938E+04  0.23950354162E+04 0.  0.
        5    1    3    3  502    0 -0.44304394607E+03 -0.10567487713E+04  0.56224068527E+03  0.12763786985E+04  0.46999998093E+01 0. -1.
       -5    1    3    3    0  502  0.44304394607E+03  0.10567487713E+04 -0.14404643383E+03  0.11548927954E+04  0.46999998093E+01 0.  1.
</event>
<event>
 5   0  0.5064437E-06  0.2402762E+04  0.7818609E-02  0.8438470E-01
        1   -1    0    0  501    0  0.00000000000E+00  0.00000000000E+00  0.14239188989E+04  0.14239188989E+04  0.50400001928E-02 0. -1.
       -1   -1    0    0    0  501  0.00000000000E+00  0.00000000000E+00 -0.10136228783E+04  0.10136228783E+04  0.50400001928E-02 0.  1.
    10030    2    1    2    0    0  0.00000000000E+00  0.00000000000E+00  0.41029602064E+03  0.24375417772E+04  0.24027623876E+04 0.  0.
        2    1    3    3  502    0  0.31244912778E+03  0.10109119506E+04 -0.37207773211E+03  0.11216101231E+04  0.25500000920E-02 0.  1.
       -2    1    3    3    0  502 -0.31244912778E+03 -0.10109119506E+04  0.78237375275E+03  0.13159316542E+04  0.25500000920E-02 0. -1.
</event>
<event>
 5   0  0.5034479E-06  0.2408264E+04  0.7818609E-02  0.8436416E-01
       -1   -1    0    0    0  501  0.00000000000E+00  0.00000000000E+00  0.82317777589E+03  0.82317777591E+03  0.50400001928E-02 0.  1.
        1   -1    0    0  501    0  0.00000000000E+00  0.00000000000E+00 -0.17613861020E+04  0.17613861020E+04  0.50400001928E-02 0. -1.
    10030    2    1    2    0    0  0.00000000000E+00  0.00000000000E+00 -0.93820832607E+03  0.25845638779E+04  0.24082640170E+04 0.  0.
        4    1    3    3  502    0  0.14004491634E+03 -0.28890388386E+03  0.77639509687E+03  0.84016009906E+03  0.12699999809E+01 0.  1.
       -4    1    3    3    0  502 -0.14004491634E+03  0.28890388386E+03 -0.17146034229E+04  0.17444037788E+04  0.12699999809E+01 0. -1.
</event>
<event>
 5   0  0.1169371E-05  0.2381930E+04  0.7818609E-02  0.8446300E-01
       -2   -1    0    0    0  501  0.00000000000E+00  0.00000000000E+00  0.78305186870E+03  0.78305186870E+03  0.25500000920E-02 0.  1.
        2   -1    0    0  501    0  0.00000000000E+00  0.00000000000E+00 -0.18113715316E+04  0.18113715316E+04  0.25500000920E-02 0. -1.
    10030    2    1    2    0    0  0.00000000000E+00  0.00000000000E+00 -0.10283196629E+04  0.25944234003E+04  0.23819301944E+04 0.  0.
        2    1    3    3  502    0  0.37494929716E+03 -0.10600314014E+04 -0.86522530769E+02  0.11277143680E+04  0.25500000920E-02 0. -1.
       -2    1    3    3    0  502 -0.37494929716E+03  0.10600314014E+04 -0.94179713217E+03  0.14667090324E+04  0.25500000920E-02 0.  1.
</event>
<event>
 5   0  0.1174210E-05  0.2436763E+04  0.7818609E-02  0.8425867E-01
        2   -1    0    0  501    0  0.00000000000E+00  0.00000000000E+00  0.13249331214E+04  0.13249331214E+04  0.25500000920E-02 0. -1.
       -2   -1    0    0    0  501  0.00000000000E+00  0.00000000000E+00 -0.11203990369E+04  0.11203990369E+04  0.25500000920E-02 0.  1.
    10030    2    1    2    0    0  0.00000000000E+00  0.00000000000E+00  0.20453408448E+03  0.24453321582E+04  0.24367632574E+04 0.  0.
        3    1    3    3  502    0  0.10598245460E+04 -0.29240923443E+03 -0.42467235237E+03  0.11785914669E+04  0.10100000352E+00 0.  1.
       -3    1    3    3    0  502 -0.10598245460E+04  0.29240923443E+03  0.62920643685E+03  0.12667406914E+04  0.10100000352E+00 0. -1.
</event>
<event>
 5   0  0.5196696E-06  0.2396771E+04  0.7818609E-02  0.8440714E-01
       -1   -1    0    0    0  501  0.00000000000E+00  0.00000000000E+00  0.94218565971E+03  0.94218565973E+03  0.50400001928E-02 0.  1.
        1   -1    0    0  501    0  0.00000000000E+00  0.00000000000E+00 -0.15242507923E+04  0.15242507924E+04  0.50400001928E-02 0. -1.
    10030    2    1    2    0    0  0.00000000000E+00  0.00000000000E+00 -0.58206513263E+03  0.24664364521E+04  0.23967705258E+04 0.  0.
        1    1    3    3  502    0 -0.17816396780E+03 -0.92468486199E+03 -0.10537526313E+04  0.14132158722E+04  0.50400001928E-02 0. -1.
       -1    1    3    3    0  502  0.17816396780E+03  0.92468486199E+03  0.47168749869E+03  0.10532205799E+04  0.50400001928E-02 0.  1.
</event>
<event>
 5   0  0.1198313E-05  0.2414851E+04  0.7818609E-02  0.8433964E-01
       -2   -1    0    0    0  501  0.00000000000E+00  0.00000000000E+00  0.98656850574E+03  0.98656850574E+03  0.25500000920E-02 0. -1.
        2   -1    0    0  501    0  0.00000000000E+00  0.00000000000E+00 -0.14777244768E+04  0.14777244768E+04  0.25500000920E-02 0.  1.
    10030    2    1    2    0    0  0.00000000000E+00  0.00000000000E+00 -0.49115597101E+03  0.24642929825E+04  0.24148510753E+04 0.  0.
        5    1    3    3  502    0 -0.75409351974E+03  0.51662436686E+03 -0.10505869001E+04  0.13925920786E+04  0.46999998093E+01 0.  1.
       -5    1    3    3    0  502  0.75409351974E+03 -0.51662436686E+03  0.55943092904E+03  0.10717009039E+04  0.46999998093E+01 0. -1.
</event>
<event>
 5   0  0.5034479E-06  0.2380577E+04  0.7818609E-02  0.8446811E-01
        1   -1    0    0  501    0  0.00000000000E+00  0.00000000000E+00  0.16891945947E+04  0.16891945947E+04  0.50400001928E-02 0. -1.
       -1   -1    0    0    0  501  0.00000000000E+00  0.00000000000E+00 -0.83873471787E+03  0.83873471789E+03  0.50400001928E-02 0.  1.
    10030    2    1    2    0    0  0.00000000000E+00  0.00000000000E+00  0.85045987679E+03  0.25279293126E+04  0.23805765283E+04 0.  0.
        4    1    3    3  502    0  0.11044057523E+04  0.35554496103E+03  0.70750361197E+03  0.13589287174E+04  0.12699999809E+01 0. -1.
       -4    1    3    3    0  502 -0.11044057523E+04 -0.35554496103E+03  0.14295626482E+03  0.11690005952E+04  0.12699999809E+01 0.  1.
</event>
<event>
 5   0  0.5042742E-06  0.2402342E+04  0.7818609E-02  0.8438627E-01
       -1   -1    0    0    0  501  0.00000000000E+00  0.00000000000E+00  0.12537847223E+04  0.12537847223E+04  0.50400001928E-02 0. -1.
        1   -1    0    0  501    0  0.00000000000E+00  0.00000000000E+00 -0.11507651795E+04  0.11507651795E+04  0.50400001928E-02 0.  1.
    10030    2    1    2    0    0  0.00000000000E+00  0.00000000000E+00  0.10301954277E+03  0.24045499018E+04  0.24023420248E+04 0.  0.
        5    1    3    3  502    0  0.11435504027E+03 -0.27105622000E+03  0.12171577538E+04  0.12522154916E+04  0.46999998093E+01 0. -1.
       -5    1    3    3    0  502 -0.11435504027E+03  0.27105622000E+03 -0.11141382111E+04  0.11523344102E+04  0.46999998093E+01 0.  1.
</event>
<event>
 5   0  0.1169371E-05  0.2405287E+04  0.7818609E-02  0.8437527E-01
       -2   -1    0    0    0  501  0.00000000000E+00  0.00000000000E+00  0.13870689932E+04  0.13870689932E+04  0.25500000920E-02 0. -1.
        2   -1    0    0  501    0  0.00000000000E+00  0.00000000000E+00 -0.10427393158E+04  0.10427393158E+04  0.25500000920E-02 0.  1.
    10030    2    1    2    0    0  0.00000000000E+00  0.00000000000E+00  0.34432967741E+03  0.24298083089E+04  0.24052869873E+04 0.  0.
        2    1    3    3  502    0 -0.82648772730E+03 -0.55056772926E+03  0.85741992677E+03  0.13120120879E+04  0.25500000920E-02 0. -1.
       -2    1    3    3    0  502  0.82648772730E+03  0.55056772926E+03 -0.51309024936E+03  0.11177962211E+04  0.25500000920E-02 0.  1.
</event>
<event>
 5   0  0.5196696E-06  0.2402196E+04  0.7818609E-02  0.8438682E-01
        1   -1    0    0  501    0  0.00000000000E+00  0.00000000000E+00  0.10223310046E+04  0.10223310046E+04  0.50400001928E-02 0.  1.
       -1   -1    0    0    0  501  0.00000000000E+00  0.00000000000E+00 -0.14111240242E+04  0.14111240242E+04  0.50400001928E-02 0. -1.
    10030    2    1    2    0    0  0.00000000000E+00  0.00000000000E+00 -0.38879301961E+03  0.24334550287E+04  0.24021955301E+04 0.  0.
        1    1    3    3  502    0 -0.58337167393E+03  0.87330853153E+03 -0.78477146854E+03  0.13110516996E+04  0.50400001928E-02 0. -1.
       -1    1    3    3    0  502  0.58337167393E+03 -0.87330853153E+03  0.39597844893E+03  0.11224033291E+04  0.50400001928E-02 0.  1.
</event>
<event>
 5   0  0.5064437E-06  0.2403913E+04  0.7818609E-02  0.8438040E-01
       -1   -1    0    0    0  501  0.00000000000E+00  0.00000000000E+00  0.18911342256E+04  0.18911342256E+04  0.50400001928E-02 0.  1.
        1   -1    0    0  501    0  0.00000000000E+00  0.00000000000E+00 -0.76393246582E+03  0.76393246584E+03  0.50400001928E-02 0. -1.
    10030    2    1    2    0    0  0.00000000000E+00  0.00000000000E+00  0.11272017598E+04  0.26550666915E+04  0.24039125044E+04 0.  0.
        2    1    3    3  502    0 -0.72387769883E+03 -0.87080656418E+03  0.11851458259E+03  0.11385730988E+04  0.25500000920E-02 0. -1.
       -2    1    3    3    0  502  0.72387769883E+03  0.87080656418E+03  0.10086871772E+04  0.15164935927E+04  0.25500000920E-02 0.  1.
</event>
<event>
 5   0  0.1198313E-05  0.2398367E+04  0.7818609E-02  0.8440115E-01
       -2   -1    0    0    0  501  0.00000000000E+00  0.00000000000E+00  0.89717877776E+03  0.89717877776E+03  0.25500000920E-02 0. -1.
        2   -1    0    0  501    0  0.00000000000E+00  0.00000000000E+00 -0.16028484333E+04  0.16028484333E+04  0.25500000920E-02 0.  1.
    10030    2    1    2    0    0  0.00000000000E+00  0.00000000000E+00 -0.70566965557E+03  0.25000272111E+04  0.23983674434E+04 0.  0.
        5    1    3    3  502    0  0.50003209821E+03  0.40643688749E+02  0.78252305250E+03  0.92954205196E+03  0.46999998093E+01 0. -1.
       -5    1    3    3    0  502 -0.50003209821E+03 -0.40643688749E+02 -0.14881927081E+04  0.15704851591E+04  0.46999998093E+01 0.  1.
</event>
<event>
 5   0  0.1154897E-05  0.2397400E+04  0.7818609E-02  0.8440478E-01
        2   -1    0    0  501    0  0.00000000000E+00  0.00000000000E+00  0.20846117595E+04  0.20846117595E+04  0.25500000920E-02 0. -1.
       -2   -1    0    0    0  501  0.00000000000E+00  0.00000000000E+00 -0.68928029076E+03  0.68928029076E+03  0.25500000920E-02 0.  1.
    10030    2    1    2    0    0  0.00000000000E+00  0.00000000000E+00  0.13953314688E+04  0.27738920503E+04  0.23974000915E+04 0.  0.
        4    1    3    3  502    0  0.41780783424E+03 -0.11120795379E+04  0.88277759947E+03  0.14800615487E+04  0.12699999809E+01 0.  1.
       -4    1    3    3    0  502 -0.41780783424E+03  0.11120795379E+04  0.51255386932E+03  0.12938305016E+04  0.12699999809E+01 0. -1.
</event>
<event>
 5   0  0.5064437E-06  0.2400280E+04  0.7818609E-02  0.8439399E-01
        1   -1    0    0  501    0  0.00000000000E+00  0.00000000000E+00  0.24879317006E+04  0.24879317006E+04  0.50400001928E-02 0. -1.
       -1   -1    0    0    0  501  0.00000000000E+00  0.00000000000E+00 -0.57892888152E+03  0.57892888154E+03  0.50400001928E-02 0.  1.
    10030    2    1    2    0    0  0.00000000000E+00  0.00000000000E+00  0.19090028190E+04  0.30668605821E+04  0.24002795810E+04 0.  0.
        2    1    3    3  502    0 -0.83703415107E+03 -0.86005889723E+03  0.95087848608E+03  0.15311751605E+04  0.25500000920E-02 0.  1.
       -2    1    3    3    0  502  0.83703415107E+03  0.86005889723E+03  0.95812433296E+03  0.15356854216E+04  0.25500000920E-02 0. -1.
</event>
<event>
 5   0  0.5104174E-06  0.2305972E+04  0.7818609E-02  0.8475570E-01
       -1   -1    0    0    0  501  0.00000000000E+00  0.00000000000E+00  0.16979009873E+04  0.16979009873E+04  0.50400001928E-02 0. -1.
        1   -1    0    0  501    0  0.00000000000E+00  0.00000000000E+00 -0.78295284050E+03  0.78295284051E+03  0.50400001928E-02 0.  1.
    10030    2    1    2    0    0  0.00000000000E+00  0.00000000000E+00  0.91494814682E+03  0.24808538278E+04  0.23059717266E+04 0.  0.
        3    1    3    3  502    0 -0.32135177911E+03  0.81611563497E+03 -0.34765645948E+03  0.94349176976E+03  0.10100000352E+00 0.  1.
       -3    1    3    3    0  502  0.32135177911E+03 -0.81611563497E+03  0.12626046063E+04  0.15373620581E+04  0.10100000352E+00 0. -1.
</event>
<event>
 5   0  0.5064437E-06  0.2403465E+04  0.7818609E-02  0.8438207E-01
        1   -1    0    0  501    0  0.00000000000E+00  0.00000000000E+00  0.11677595514E+04  0.11677595514E+04  0.50400001928E-02 0.  1.
       -1   -1    0    0    0  501  0.00000000000E+00  0.00000000000E+00 -0.12366940353E+04  0.12366940353E+04  0.50400001928E-02 0. -1.
    10030    2    1    2    0    0  0.00000000000E+00  0.00000000000E+00 -0.68934483867E+02  0.24044535867E+04  0.24034652249E+04 0.  0.
        2    1    3    3  502    0 -0.21287806948E+03  0.74232803563E+03  0.88666830486E+03  0.11758182971E+04  0.25500000920E-02 0.  1.
       -2    1    3    3    0  502  0.21287806948E+03 -0.74232803563E+03 -0.95560278872E+03  0.12286352896E+04  0.25500000920E-02 0. -1.
</event>
<event>
 5   0  0.1174210E-05  0.2402216E+04  0.7818609E-02  0.8438674E-01
        2   -1    0    0  501    0  0.00000000000E+00  0.00000000000E+00  0.31835345268E+04  0.31835345268E+04  0.25500000920E-02 0. -1.
       -2   -1    0    0    0  501  0.00000000000E+00  0.00000000000E+00 -0.45316315094E+03  0.45316315095E+03  0.25500000920E-02 0.  1.
    10030    2    1    2    0    0  0.00000000000E+00  0.00000000000E+00  0.27303713759E+04  0.36366976778E+04  0.24022160913E+04 0.  0.
        3    1    3    3  502    0  0.43847777260E+03  0.65202639510E+03  0.27404632399E+04  0.28508840657E+04  0.10100000352E+00 0. -1.
       -3    1    3    3    0  502 -0.43847777260E+03 -0.65202639510E+03 -0.10091863975E+02  0.78581361206E+03  0.10100000352E+00 0.  1.
</event>
<event>
 5   0  0.4067750E-06  0.2392457E+04  0.7818609E-02  0.8442333E-01
       -3   -1    0    0    0  501  0.00000000000E+00  0.00000000000E+00  0.88522399479E+03  0.88522400056E+03  0.10100000352E+00 0.  1.
        3   -1    0    0  501    0  0.00000000000E+00  0.00000000000E+00 -0.16164981618E+04  0.16164981650E+04  0.10100000352E+00 0. -1.
    10030    2    1    2    0    0  0.00000000000E+00  0.00000000000E+00 -0.73127416704E+03  0.25017221655E+04  0.23924572904E+04 0.  0.
        2    1    3    3  502    0 -0.45652416285E+03 -0.78400377233E+03 -0.11809160158E+04  0.14891738860E+04  0.25500000920E-02 0. -1.
       -2    1    3    3    0  502  0.45652416285E+03  0.78400377233E+03  0.44964184876E+03  0.10125482796E+04  0.25500000920E-02 0.  1.
</event>
<event>
 5   0  0.5034479E-06  0.2412316E+04  0.7818609E-02  0.8434907E-01
       -1   -1    0    0    0  501  0.00000000000E+00  0.00000000000E+00  0.93490290435E+03  0.93490290437E+03  0.50400001928E-02 0. -1.
        1   -1    0    0  501    0  0.00000000000E+00  0.00000000000E+00 -0.15561159496E+04  0.15561159496E+04  0.50400001928E-02 0.  1.
    10030    2    1    2    0    0  0.00000000000E+00  0.00000000000E+00 -0.62121304529E+03  0.24910188540E+04  0.24123161657E+04 0.  0.
        4    1    3    3  502    0  0.34246711656E+03  0.90249218945E+03  0.43620355275E+03  0.10592691019E+04  0.12699999809E+01 0. -1.
       -4    1    3    3    0  502 -0.34246711656E+03 -0.90249218945E+03 -0.10574165980E+04  0.14317497521E+04  0.12699999809E+01 0.  1.
</event>
<event>
 5   0  0.5104174E-06  0.2405257E+04  0.7818609E-02  0.8437538E-01
        1   -1    0    0  501    0  0.00000000000E+00  0.00000000000E+00  0.90310181448E+03  0.90310181449E+03  0.50400001928E-02 0. -1.
       -1   -1    0    0    0  501  0.00000000000E+00  0.00000000000E+00 -0.16014969871E+04  0.16014969871E+04  0.50400001928E-02 0.  1.
    10030    2    1    2    0    0  0.00000000000E+00  0.00000000000E+00 -0.69839517264E+03  0.25045988016E+04  0.24052566058E+04 0.  0.
        3    1    3    3  502    0  0.38343624089E+03  0.54916371574E+03 -0.13893070898E+04  0.15423288681E+04  0.10100000352E+00 0.  1.
       -3    1    3    3    0  502 -0.38343624089E+03 -0.54916371574E+03  0.69091191713E+03  0.96226993351E+03  0.10100000352E+00 0. -1.
</event>
<event>
 5   0  0.1168435E-05  0.2404784E+04  0.7818609E-02  0.8437715E-01
        2   -1    0    0  501    0  0.00000000000E+00  0.00000000000E+00  0.19601435086E+04  0.19601435086E+04  0.25500000920E-02 0.  1.
       -2   -1    0    0    0  501  0.00000000000E+00  0.00000000000E+00 -0.73757147956E+03  0.73757147956E+03  0.25500000920E-02 0. -1.
    10030    2    1    2    0    0  0.00000000000E+00  0.00000000000E+00  0.12225720290E+04  0.26977149881E+04  0.24047835227E+04 0.  0.
        1    1    3    3  502    0  0.45709948987E+03  0.80035830653E+03  0.14775054643E+04  0.17414177441E+04  0.50400001928E-02 0.  1.
       -1    1    3    3    0  502 -0.45709948987E+03 -0.80035830653E+03 -0.25493343528E+03  0.95629724402E+03  0.50400001928E-02 0. -1.
</event>
<event>
 5   0  0.5196696E-06  0.2386389E+04  0.7818609E-02  0.8444617E-01
        1   -1    0    0  501    0  0.00000000000E+00  0.00000000000E+00  0.12308170046E+04  0.12308170046E+04  0.50400001928E-02 0.  1.
       -1   -1    0    0    0  501  0.00000000000E+00  0.00000000000E+00 -0.11567223074E+04  0.11567223074E+04  0.50400001928E-02 0. -1.
    10030    2    1    2    0    0  0.00000000000E+00  0.00000000000E+00  0.74094697220E+02  0.23875393121E+04  0.23863893108E+04 0.  0.
        1    1    3    3  502    0  0.80343858018E+03 -0.82711912389E+03 -0.26981512657E+03  0.11842465114E+04  0.50400001928E-02 0. -1.
       -1    1    3    3    0  502 -0.80343858018E+03  0.82711912389E+03  0.34390982379E+03  0.12032928007E+04  0.50400001928E-02 0.  1.
</event>
<event>
 5   0  0.1174210E-05  0.2462778E+04  0.7818609E-02  0.8416367E-01
        2   -1    0    0  501    0  0.00000000000E+00  0.00000000000E+00  0.13965937220E+04  0.13965937220E+04  0.25500000920E-02 0. -1.
       -2   -1    0    0    0  501  0.00000000000E+00  0.00000000000E+00 -0.10857266149E+04  0.10857266149E+04  0.25500000920E-02 0.  1.
    10030    2    1    2    0    0  0.00000000000E+00  0.00000000000E+00  0.31086710711E+03  0.24823203369E+04  0.24627780852E+04 0.  0.
        3    1    3    3  502    0  0.35838134097E+03  0.11583109725E+04  0.37207504583E+03  0.12682907176E+04  0.10100000352E+00 0.  1.
       -3    1    3    3    0  502 -0.35838134097E+03 -0.11583109725E+04 -0.61207938716E+02  0.12140296193E+04  0.10100000352E+00 0. -1.
</event>
<event>
 5   0  0.1174210E-05  0.2395935E+04  0.7818609E-02  0.8441027E-01
        2   -1    0    0  501    0  0.00000000000E+00  0.00000000000E+00  0.27819913885E+04  0.27819913885E+04  0.25500000920E-02 0.  1.
       -2   -1    0    0    0  501  0.00000000000E+00  0.00000000000E+00 -0.51586285526E+03  0.51586285526E+03  0.25500000920E-02 0. -1.
    10030    2    1    2    0    0  0.00000000000E+00  0.00000000000E+00  0.22661285333E+04  0.32978542438E+04  0.23959349081E+04 0.  0.
        3    1    3    3  502    0 -0.10506447383E+04  0.22763366403E+03  0.18606966883E+04  0.21489215033E+04  0.10100000352E+00 0.  1.
       -3    1    3    3    0  502  0.10506447383E+04 -0.22763366403E+03  0.40543184498E+03  0.11489327405E+04  0.10100000352E+00 0. -1.
</event>
<event>
 5   0  0.1154897E-05  0.2407267E+04  0.7818609E-02  0.8436788E-01
        2   -1    0    0  501    0  0.00000000000E+00  0.00000000000E+00  0.12098917762E+04  0.12098917762E+04  0.25500000920E-02 0.  1.
       -2   -1    0    0    0  501  0.00000000000E+00  0.00000000000E+00 -0.11974072350E+04  0.11974072350E+04  0.25500000920E-02 0. -1.
    10030    2    1    2    0    0  0.00000000000E+00  0.00000000000E+00  0.12484541181E+02  0.24072990112E+04  0.24072666378E+04 0.  0.
        4    1    3    3  502    0  0.89784429408E+03  0.79961202618E+03  0.63056630169E+02  0.12039441517E+04  0.12699999809E+01 0. -1.
       -4    1    3    3    0  502 -0.89784429408E+03 -0.79961202618E+03 -0.50572088987E+02  0.12033548595E+04  0.12699999809E+01 0.  1.
</event>
<event>
 5   0  0.5104174E-06  0.2398545E+04  0.7818609E-02  0.8440049E-01
       -1   -1    0    0    0  501  0.00000000000E+00  0.00000000000E+00  0.99021251757E+03  0.99021251758E+03  0.50400001928E-02 0.  1.
        1   -1    0    0  501    0  0.00000000000E+00  0.00000000000E+00 -0.14524702411E+04  0.14524702411E+04  0.50400001928E-02 0. -1.
    10030    2    1    2    0    0  0.00000000000E+00  0.00000000000E+00 -0.46225772350E+03  0.24426827587E+04  0.23985447372E+04 0.  0.
        3    1    3    3  502    0 -0.13273991853E+03  0.11472755521E+04  0.97916061097E+02  0.11590723203E+04  0.10100000352E+00 0.  1.
       -3    1    3    3    0  502  0.13273991853E+03 -0.11472755521E+04 -0.56017378460E+03  0.12836104384E+04  0.10100000352E+00 0. -1.
</event>
<event>
 5   0  0.1154897E-05  0.2399716E+04  0.7818609E-02  0.8439610E-01
        2   -1    0    0  501    0  0.00000000000E+00  0.00000000000E+00  0.10029999911E+04  0.10029999911E+04  0.25500000920E-02 0. -1.
       -2   -1    0    0    0  501  0.00000000000E+00  0.00000000000E+00 -0.14353534272E+04  0.14353534272E+04  0.25500000920E-02 0.  1.
    10030    2    1    2    0    0  0.00000000000E+00  0.00000000000E+00 -0.43235343613E+03  0.24383534183E+04  0.23997162121E+04 0.  0.
        4    1    3    3  502    0 -0.20058078458E+03  0.10605808936E+04 -0.74863035523E+03  0.13135880270E+04  0.12699999809E+01 0.  1.
       -4    1    3    3    0  502  0.20058078458E+03 -0.10605808936E+04  0.31627691910E+03  0.11247653913E+04  0.12699999809E+01 0. -1.
</event>
<event>
 5   0  0.5042742E-06  0.2401469E+04  0.7818609E-02  0.8438954E-01
        1   -1    0    0  501    0  0.00000000000E+00  0.00000000000E+00  0.15964256629E+04  0.15964256629E+04  0.50400001928E-02 0.  1.
       -1   -1    0    0    0  501  0.00000000000E+00  0.00000000000E+00 -0.90311926541E+03  0.90311926542E+03  0.50400001928E-02 0. -1.
    10030    2    1    2    0    0  0.00000000000E+00  0.00000000000E+00  0.69330639745E+03  0.24995449283E+04  0.24014685273E+04 0.  0.
        5    1    3    3  502    0 -0.28954396071E+03 -0.10662950926E+04  0.83586995281E+03  0.13854680068E+04  0.46999998093E+01 0.  1.
       -5    1    3    3    0  502  0.28954396071E+03  0.10662950926E+04 -0.14256355536E+03  0.11140769215E+04  0.46999998093E+01 0. -1.
</event>
<event>
 5   0  0.1168435E-05  0.2404614E+04  0.7818609E-02  0.8437778E-01
        2   -1    0    0  501    0  0.00000000000E+00  0.00000000000E+00  0.12704912543E+04  0.12704912543E+04  0.25500000920E-02 0. -1.
       -2   -1    0    0    0  501  0.00000000000E+00  0.00000000000E+00 -0.11377819329E+04  0.11377819330E+04  0.25500000920E-02 0.  1.
    10030    2    1    2    0    0  0.00000000000E+00  0.00000000000E+00  0.13270932135E+03  0.24082731873E+04  0.24046138943E+04 0.  0.
        1    1    3    3  502    0  0.90764062640E+03  0.34901022324E+02  0.85527950539E+03  0.12476107648E+04  0.50400001928E-02 0. -1.
       -1    1    3    3    0  502 -0.90764062640E+03 -0.34901022324E+02 -0.72257018403E+03  0.11606624225E+04  0.50400001928E-02 0.  1.
</event>
<event>
 5   0  0.5064437E-06  0.2401486E+04  0.7818609E-02  0.8438947E-01
        1   -1    0    0  501    0  0.00000000000E+00  0.00000000000E+00  0.15246623633E+04  0.15246623633E+04  0.50400001928E-02 0. -1.
       -1   -1    0    0    0  501  0.00000000000E+00  0.00000000000E+00 -0.94564120969E+03  0.94564120970E+03  0.50400001928E-02 0.  1.
    10030    2    1    2    0    0  0.00000000000E+00  0.00000000000E+00  0.57902115365E+03  0.24703035731E+04  0.24014858414E+04 0.  0.
        2    1    3    3  502    0 -0.68697396817E+03  0.54522976282E+03 -0.55409725459E+03  0.10374162592E+04  0.25500000920E-02 0.  1.
       -2    1    3    3    0  502  0.68697396817E+03 -0.54522976282E+03  0.11331184082E+04  0.14328873139E+04  0.25500000920E-02 0. -1.
</event>
<event>
 5   0  0.1198313E-05  0.2387421E+04  0.7818609E-02  0.8444228E-01
       -2   -1    0    0    0  501  0.00000000000E+00  0.00000000000E+00  0.10878481085E+04  0.10878481085E+04  0.25500000920E-02 0.  1.
        2   -1    0    0  501    0  0.00000000000E+00  0.00000000000E+00 -0.13098751806E+04  0.13098751806E+04  0.25500000920E-02 0. -1.
    10030    2    1    2    0    0  0.00000000000E+00  0.00000000000E+00 -0.22202707213E+03  0.23977232891E+04  0.23874214019E+04 0.  0.
        5    1    3    3  502    0  0.56915050864E+03 -0.12630340374E+02 -0.11647460179E+04  0.12964363475E+04  0.46999998093E+01 0. -1.
       -5    1    3    3    0  502 -0.56915050864E+03  0.12630340374E+02  0.94271894578E+03  0.11012869416E+04  0.46999998093E+01 0.  1.
</event>
<event>
 5   0  0.5104174E-06  0.2484489E+04  0.7818609E-02  0.8408532E-01
       -1   -1    0    0    0  501  0.00000000000E+00  0.00000000000E+00  0.82057637873E+03  0.82057637875E+03  0.50400001928E-02 0. -1.
        1   -1    0    0  501    0  0.00000000000E+00  0.00000000000E+00 -0.18805941686E+04  0.18805941687E+04  0.50400001928E-02 0.  1.
    10030    2    1    2    0    0  0.00000000000E+00  0.00000000000E+00 -0.10600177899E+04  0.27011705474E+04  0.24844888028E+04 0.  0.
        3    1    3    3  502    0 -0.33741225549E+03 -0.71006714314E+03  0.51571264589E+03  0.94021376359E+03  0.10100000352E+00 0. -1.
       -3    1    3    3    0  502  0.33741225549E+03  0.71006714314E+03 -0.15757304358E+04  0.17609567838E+04  0.10100000352E+00 0.  1.
</event>
<event>
 5   0  0.5104174E-06  0.2401631E+04  0.7818609E-02  0.8438893E-01
        1   -1    0    0  501    0  0.00000000000E+00  0.00000000000E+00  0.17103838751E+04  0.17103838751E+04  0.50400001928E-02 0. -1.
       -1   -1    0    0    0  501  0.00000000000E+00  0.00000000000E+00 -0.84306078689E+03  0.84306078691E+03  0.50400001928E-02 0.  1.
    10030    2    1    2    0    0  0.00000000000E+00  0.00000000000E+00  0.86732308823E+03  0.25534446620E+04  0.24016307590E+04 0.  0.
        3    1    3    3  502    0 -0.65728658343E+02  0.23780950263E+02  0.17082190738E+04  0.17096485617E+04  0.10100000352E+00 0. -1.
       -3    1    3    3    0  502  0.65728658343E+02 -0.23780950263E+02 -0.84089598561E+03  0.84379610033E+03  0.10100000352E+00 0.  1.
</event>
<event>
 5   0  0.4067750E-06  0.2401824E+04  0.7818609E-02  0.8438821E-01
       -3   -1    0    0    0  501  0.00000000000E+00  0.00000000000E+00  0.15037110500E+04  0.15037110534E+04  0.10100000352E+00 0. -1.
        3   -1    0    0  501    0  0.00000000000E+00  0.00000000000E+00 -0.95908710163E+03  0.95908710695E+03  0.10100000352E+00 0.  1.
    10030    2    1    2    0    0  0.00000000000E+00  0.00000000000E+00  0.54462394838E+03  0.24627981603E+04  0.24018242095E+04 0.  0.
        5    1    3    3  502    0 -0.68141668454E+03  0.28561942095E+03 -0.69843213801E+03  0.10167284264E+04  0.46999998093E+01 0.  1.
       -5    1    3    3    0  502  0.68141668454E+03 -0.28561942095E+03  0.12430560864E+04  0.14460697340E+04  0.46999998093E+01 0. -1.
</event>
<event>
 5   0  0.5104174E-06  0.2405603E+04  0.7818609E-02  0.8437409E-01
       -1   -1    0    0    0  501  0.00000000000E+00  0.00000000000E+00  0.85638834445E+03  0.85638834447E+03  0.50400001928E-02 0.  1.
        1   -1    0    0  501    0  0.00000000000E+00  0.00000000000E+00 -0.16893402437E+04  0.16893402437E+04  0.50400001928E-02 0. -1.
    10030    2    1    2    0    0  0.00000000000E+00  0.00000000000E+00 -0.83295189923E+03  0.25457285882E+04  0.24056028721E+04 0.  0.
        3    1    3    3  502    0 -0.49864037893E+02 -0.10345280287E+04  0.23069945615E+03  0.10611111693E+04  0.10100000352E+00 0.  1.
       -3    1    3    3    0  502  0.49864037893E+02  0.10345280287E+04 -0.10636513554E+04  0.14846174188E+04  0.10100000352E+00 0. -1.
</event>
<event>
 5   0  0.5064437E-06  0.2390951E+04  0.7818609E-02  0.8442899E-01
       -1   -1    0    0    0  501  0.00000000000E+00  0.00000000000E+00  0.59018256036E+03  0.59018256038E+03  0.50400001928E-02 0. -1.
        1   -1    0    0  501    0  0.00000000000E+00  0.00000000000E+00 -0.24215583818E+04  0.24215583818E+04  0.50400001928E-02 0.  1.
    10030    2    1    2    0    0  0.00000000000E+00  0.00000000000E+00 -0.18313758214E+04  0.30117409422E+04  0.23909508785E+04 0.  0.
        2    1    3    3  502    0  0.76683970147E+03 -0.31314620005E+02 -0.20702630977E+04  0.22079431666E+04  0.25500000920E-02 0.  1.
       -2    1    3    3    0  502 -0.76683970147E+03  0.31314620005E+02  0.23888727632E+03  0.80379777554E+03  0.25500000920E-02 0. -1.
</event>
<event>
 5   0  0.5042742E-06  0.2396228E+04  0.7818609E-02  0.8440917E-01
        1   -1    0    0  501    0  0.00000000000E+00  0.00000000000E+00  0.15195647799E+04  0.15195647799E+04  0.50400001928E-02 0. -1.
       -1   -1    0    0    0  501  0.00000000000E+00  0.00000000000E+00 -0.94466322559E+03  0.94466322560E+03  0.50400001928E-02 0.  1.
    10030    2    1    2    0    0  0.00000000000E+00  0.00000000000E+00  0.57490155432E+03  0.24642280055E+04  0.23962278410E+04 0.  0.
        5    1    3    3  502    0  0.60068311764E+03  0.47394618638E+02 -0.77749828827E+03  0.98366261287E+03  0.46999998093E+01 0.  1.
       -5    1    3    3    0  502 -0.60068311764E+03 -0.47394618638E+02  0.13523998426E+04  0.14805653927E+04  0.46999998093E+01 0. -1.
</event>
<event>
 5   0  0.1198313E-05  0.2400197E+04  0.7818609E-02  0.8439430E-01
        2   -1    0    0  501    0  0.00000000000E+00  0.00000000000E+00  0.21240933014E+04  0.21240933014E+04  0.25500000920E-02 0.  1.
       -2   -1    0    0    0  501  0.00000000000E+00  0.00000000000E+00 -0.67804758409E+03  0.67804758409E+03  0.25500000920E-02 0. -1.
    10030    2    1    2    0    0  0.00000000000E+00  0.00000000000E+00  0.14460457174E+04  0.28021408855E+04  0.24001969348E+04 0.  0.
        5    1    3    3  502    0  0.65925484769E+03  0.40866337275E+03 -0.34607713551E+03  0.84936104229E+03  0.46999998093E+01 0. -1.
       -5    1    3    3    0  502 -0.65925484769E+03 -0.40866337275E+03  0.17921228529E+04  0.19527798433E+04  0.46999998093E+01 0.  1.
</event>
<event>
 5   0  0.4067750E-06  0.2402392E+04  0.7818609E-02  0.8438608E-01
       -3   -1    0    0    0  501  0.00000000000E+00  0.00000000000E+00  0.12032129761E+04  0.12032129803E+04  0.10100000352E+00 0. -1.
        3   -1    0    0  501    0  0.00000000000E+00  0.00000000000E+00 -0.11991828332E+04  0.11991828374E+04  0.10100000352E+00 0.  1.
    10030    2    1    2    0    0  0.00000000000E+00  0.00000000000E+00  0.40301429064E+01  0.24023958177E+04  0.24023924374E+04 0.  0.
        2    1    3    3  502    0 -0.59515089038E+03 -0.58987551506E+03 -0.85863394800E+03  0.11997541258E+04  0.25500000920E-02 0.  1.
       -2    1    3    3    0  502  0.59515089038E+03  0.58987551506E+03  0.86266409090E+03  0.12026416920E+04  0.25500000920E-02 0. -1.
</event>
<event>
 5   0  0.1168435E-05  0.2344146E+04  0.7818609E-02  0.8460716E-01
       -2   -1    0    0    0  501  0.00000000000E+00  0.00000000000E+00  0.10050625741E+04  0.10050625741E+04  0.25500000920E-02 0. -1.
        2   -1    0    0  501    0  0.00000000000E+00  0.00000000000E+00 -0.13668348763E+04  0.13668348763E+04  0.25500000920E-02 0.  1.
    10030    2    1    2    0    0  0.00000000000E+00  0.00000000000E+00 -0.36177230224E+03  0.23718974504E+04  0.23441455409E+04 0.  0.
        1    1    3    3  502    0  0.30260607479E+03  0.71506951102E+03  0.70749434917E+03  0.10504489974E+04  0.50400001928E-02 0. -1.
       -1    1    3    3    0  502 -0.30260607479E+03 -0.71506951102E+03 -0.10692666514E+04  0.13214484530E+04  0.50400001928E-02 0.  1.
</event>
<event>
 5   0  0.5196696E-06  0.2389511E+04  0.7818609E-02  0.8443441E-01
       -1   -1    0    0    0  501  0.00000000000E+00  0.00000000000E+00  0.24238596126E+04  0.24238596126E+04  0.50400001928E-02 0.  1.
        1   -1    0    0  501    0  0.00000000000E+00  0.00000000000E+00 -0.58891204064E+03  0.58891204066E+03  0.50400001928E-02 0. -1.
    10030    2    1    2    0    0  0.00000000000E+00  0.00000000000E+00  0.18349475720E+04  0.30127716533E+04  0.23895105028E+04 0.  0.
        1    1    3    3  502    0 -0.65716525571E+03  0.26122749731E+03 -0.29668474378E+03  0.76689491841E+03  0.50400001928E-02 0. -1.
       -1    1    3    3    0  502  0.65716525571E+03 -0.26122749731E+03  0.21316323158E+04  0.22458767349E+04  0.50400001928E-02 0.  1.
</event>
<event>
 5   0  0.1154897E-05  0.2399560E+04  0.7818609E-02  0.8439668E-01
        2   -1    0    0  501    0  0.00000000000E+00  0.00000000000E+00  0.10779466519E+04  0.10779466519E+04  0.25500000920E-02 0. -1.
       -2   -1    0    0    0  501  0.00000000000E+00  0.00000000000E+00 -0.13353836549E+04  0.13353836549E+04  0.25500000920E-02 0.  1.
    10030    2    1    2    0    0  0.00000000000E+00  0.00000000000E+00 -0.25743700299E+03  0.24133303069E+04  0.23995602430E+04 0.  0.
        4    1    3    3  502    0 -0.51195361658E+03  0.86407784439E+03  0.53135846220E+03  0.11362528130E+04  0.12699999809E+01 0. -1.
       -4    1    3    3    0  502  0.51195361658E+03 -0.86407784439E+03 -0.78879546519E+03  0.12770774939E+04  0.12699999809E+01 0.  1.
</event>
<event>
 5   0  0.1174210E-05  0.2401447E+04  0.7818609E-02  0.8438962E-01
       -2   -1    0    0    0  501  0.00000000000E+00  0.00000000000E+00  0.55651462555E+03  0.55651462555E+03  0.25500000920E-02 0.  1.
        2   -1    0    0  501    0  0.00000000000E+00  0.00000000000E+00 -0.25906533227E+04  0.25906533227E+04  0.25500000920E-02 0. -1.
    10030    2    1    2    0    0  0.00000000000E+00  0.00000000000E+00 -0.20341386972E+04  0.31471679483E+04  0.24014466172E+04 0.  0.
        3    1    3    3  502    0  0.12511290484E+03  0.11829930395E+04 -0.80328544856E+03  0.14354070128E+04  0.10100000352E+00 0. -1.
       -3    1    3    3    0  502 -0.12511290484E+03 -0.11829930395E+04 -0.12308532486E+04  0.17117609355E+04  0.10100000352E+00 0.  1.
</event>
<event>
 5   0  0.5104174E-06  0.2395730E+04  0.7818609E-02  0.8441104E-01
       -1   -1    0    0    0  501  0.00000000000E+00  0.00000000000E+00  0.13839248826E+04  0.13839248826E+04  0.50400001928E-02 0. -1.
        1   -1    0    0  501    0  0.00000000000E+00  0.00000000000E+00 -0.10368198951E+04  0.10368198951E+04  0.50400001928E-02 0.  1.
    10030    2    1    2    0    0  0.00000000000E+00  0.00000000000E+00  0.34710498750E+03  0.24207447778E+04  0.23957302450E+04 0.  0.
        3    1    3    3  502    0 -0.61477982086E+03  0.91162139497E+03 -0.30667087705E+03  0.11415142719E+04  0.10100000352E+00 0.  1.
       -3    1    3    3    0  502  0.61477982086E+03 -0.91162139497E+03  0.65377586455E+03  0.12792305059E+04  0.10100000352E+00 0. -1.
</event>
<event>
 5   0  0.5042742E-06  0.2397830E+04  0.7818609E-02  0.8440317E-01
        1   -1    0    0  501    0  0.00000000000E+00  0.00000000000E+00  0.12766980531E+04  0.12766980531E+04  0.50400001928E-02 0. -1.
       -1   -1    0    0    0  501  0.00000000000E+00  0.00000000000E+00 -0.11258705180E+04  0.11258705181E+04  0.50400001928E-02 0.  1.
    10030    2    1    2    0    0  0.00000000000E+00  0.00000000000E+00  0.15082753509E+03  0.24025685712E+04  0.23978296007E+04 0.  0.
        5    1    3    3  502    0 -0.21494009978E+03  0.53769872895E+03 -0.97644927316E+03  0.11352508281E+04  0.46999998093E+01 0.  1.
       -5    1    3    3    0  502  0.21494009978E+03 -0.53769872895E+03  0.11272768082E+04  0.12673177431E+04  0.46999998093E+01 0. -1.
</event>
<event>
 5   0  0.5034479E-06  0.2406989E+04  0.7818609E-02  0.8436892E-01
        1   -1    0    0  501    0  0.00000000000E+00  0.00000000000E+00  0.19012029305E+04  0.19012029305E+04  0.50400001928E-02 0.  1.
       -1   -1    0    0    0  501  0.00000000000E+00  0.00000000000E+00 -0.76183305418E+03  0.76183305419E+03  0.50400001928E-02 0. -1.
    10030    2    1    2    0    0  0.00000000000E+00  0.00000000000E+00  0.11393698763E+04  0.26630359847E+04  0.24069891858E+04 0.  0.
        4    1    3    3  502    0  0.86051277157E+02  0.20773392736E+03 -0.73838672320E+03  0.77186447824E+03  0.12699999809E+01 0. -1.
       -4    1    3    3    0  502 -0.86051277157E+02 -0.20773392736E+03  0.18777565995E+04  0.18911715065E+04  0.12699999809E+01 0.  1.
</event>
<event>
 5   0  0.1174210E-05  0.2410252E+04  0.7818609E-02  0.8435675E-01
       -2   -1    0    0    0  501  0.00000000000E+00  0.00000000000E+00  0.11562993103E+04  0.11562993103E+04  0.25500000920E-02 0. -1.
        2   -1    0    0  501    0  0.00000000000E+00  0.00000000000E+00 -0.12560140526E+04  0.12560140526E+04  0.25500000920E-02 0.  1.
    10030    2    1    2    0    0  0.00000000000E+00  0.00000000000E+00 -0.99714742248E+02  0.24123133629E+04  0.24102515908E+04 0.  0.
        3    1    3    3  502    0  0.10764323331E+04 -0.48441836715E+03  0.19316807049E+03  0.11961110466E+04  0.10100000352E+00 0. -1.
       -3    1    3    3    0  502 -0.10764323331E+04  0.48441836715E+03 -0.29288281274E+03  0.12162023163E+04  0.10100000352E+00 0.  1.
</event>
<event>
 5   0  0.1169371E-05  0.2400022E+04  0.7818609E-02  0.8439495E-01
       -2   -1    0    0    0  501  0.00000000000E+00  0.00000000000E+00  0.11047536303E+04  0.11047536303E+04  0.25500000920E-02 0.  1.
        2   -1    0    0  501    0  0.00000000000E+00  0.00000000000E+00 -0.13034815642E+04  0.13034815642E+04  0.25500000920E-02 0. -1.
    10030    2    1    2    0    0  0.00000000000E+00  0.00000000000E+00 -0.19872793393E+03  0.24082351945E+04  0.24000216583E+04 0.  0.
        2    1    3    3  502    0  0.10599295055E+04  0.21279355234E+03 -0.62200572094E+03  0.12472460741E+04  0.25500000920E-02 0.  1.
       -2    1    3    3    0  502 -0.10599295055E+04 -0.21279355234E+03  0.42327778702E+03  0.11609891204E+04  0.25500000920E-02 0. -1.
</event>
<event>
 5   0  0.1174210E-05  0.2390951E+04  0.7818609E-02  0.8442899E-01
       -2   -1    0    0    0  501  0.00000000000E+00  0.00000000000E+00  0.11066278726E+04  0.11066278726E+04  0.25500000920E-02 0.  1.
        2   -1    0    0  501    0  0.00000000000E+00  0.00000000000E+00 -0.12914564690E+04  0.12914564690E+04  0.25500000920E-02 0. -1.
    10030    2    1    2    0    0  0.00000000000E+00  0.00000000000E+00 -0.18482859642E+03  0.23980843416E+04  0.23909510450E+04 0.  0.
        3    1    3    3  502    0 -0.66435476627E+03  0.55350364823E+03 -0.92036372759E+03  0.12628550769E+04  0.10100000352E+00 0. -1.
       -3    1    3    3    0  502  0.66435476627E+03 -0.55350364823E+03  0.73553513116E+03  0.11352292647E+04  0.10100000352E+00 0.  1.
</event>
<event>
 5   0  0.1169371E-05  0.2392871E+04  0.7818609E-02  0.8442177E-01
        2   -1    0    0  501    0  0.00000000000E+00  0.00000000000E+00  0.15591945612E+04  0.15591945612E+04  0.25500000920E-02 0. -1.
       -2   -1    0    0    0  501  0.00000000000E+00  0.00000000000E+00 -0.91807547247E+03  0.91807547248E+03  0.25500000920E-02 0.  1.
    10030    2    1    2    0    0  0.00000000000E+00  0.00000000000E+00  0.64111908870E+03  0.24772700337E+04  0.23928713157E+04 0.  0.
        2    1    3    3  502    0  0.35542510728E+03  0.38179008688E+03 -0.79415735799E+03  0.95014556074E+03  0.25500000920E-02 0.  1.
       -2    1    3    3    0  502 -0.35542510728E+03 -0.38179008688E+03  0.14352764467E+04  0.15271244729E+04  0.25500000920E-02 0. -1.
</event>
<event>
 5   0  0.1174210E-05  0.2390667E+04  0.7818609E-02  0.8443006E-01
       -2   -1    0    0    0  501  0.00000000000E+00  0.00000000000E+00  0.14583775610E+04  0.14583775610E+04  0.25500000920E-02 0. -1.
        2   -1    0    0  501    0  0.00000000000E+00  0.00000000000E+00 -0.97973395423E+03  0.97973395423E+03  0.25500000920E-02 0.  1.
    10030    2    1    2    0    0  0.00000000000E+00  0.00000000000E+00  0.47864360675E+03  0.24381115152E+04  0.23906668648E+04 0.  0.
        3    1    3    3  502    0 -0.44588645745E+03  0.77584991784E+03 -0.56891107800E+03  0.10603856152E+04  0.10100000352E+00 0.  1.
       -3    1    3    3    0  502  0.44588645745E+03 -0.77584991784E+03  0.10475546848E+04  0.13777259001E+04  0.10100000352E+00 0. -1.
</event>
<event>
 5   0  0.1198313E-05  0.2455564E+04  0.7818609E-02  0.8418989E-01
        2   -1    0    0  501    0  0.00000000000E+00  0.00000000000E+00  0.17887798549E+04  0.17887798549E+04  0.25500000920E-02 0.  1.
       -2   -1    0    0    0  501  0.00000000000E+00  0.00000000000E+00 -0.84272466229E+03  0.84272466229E+03  0.25500000920E-02 0. -1.
    10030    2    1    2    0    0  0.00000000000E+00  0.00000000000E+00  0.94605519262E+03  0.26315045172E+04  0.24555642115E+04 0.  0.
        5    1    3    3  502    0  0.69806016504E+03 -0.13816566607E+03  0.15452392091E+04  0.17012242794E+04  0.46999998093E+01 0.  1.
       -5    1    3    3    0  502 -0.69806016504E+03  0.13816566607E+03 -0.59918401649E+03  0.93028023784E+03  0.46999998093E+01 0. -1.
</event>
<event>
 5   0  0.1154897E-05  0.2377670E+04  0.7818609E-02  0.8447911E-01
       -2   -1    0    0    0  501  0.00000000000E+00  0.00000000000E+00  0.70661569780E+03  0.70661569780E+03  0.25500000920E-02 0.  1.
        2   -1    0    0  501    0  0.00000000000E+00  0.00000000000E+00 -0.20001381704E+04  0.20001381704E+04  0.25500000920E-02 0. -1.
    10030    2    1    2    0    0  0.00000000000E+00  0.00000000000E+00 -0.12935224726E+04  0.27067538682E+04  0.23776703127E+04 0.  0.
        4    1    3    3  502    0 -0.64192819369E+03  0.88823129953E+03 -0.12222811789E+03  0.11027093783E+04  0.12699999809E+01 0.  1.
       -4    1    3    3    0  502  0.64192819369E+03 -0.88823129953E+03 -0.11712943547E+04  0.16040444899E+04  0.12699999809E+01 0. -1.
</event>
<event>
 5   0  0.1154897E-05  0.2367741E+04  0.7818609E-02  0.8451680E-01
        2   -1    0    0  501    0  0.00000000000E+00  0.00000000000E+00  0.10074932483E+04  0.10074932483E+04  0.25500000920E-02 0. -1.
       -2   -1    0    0    0  501  0.00000000000E+00  0.00000000000E+00 -0.13911254114E+04  0.13911254114E+04  0.25500000920E-02 0.  1.
    10030    2    1    2    0    0  0.00000000000E+00  0.00000000000E+00 -0.38363216308E+03  0.23986186597E+04  0.23677410835E+04 0.  0.
        4    1    3    3  502    0 -0.18680097038E+03  0.52630371673E+02 -0.13749001389E+04  0.13885303610E+04  0.12699999809E+01 0.  1.
       -4    1    3    3    0  502  0.18680097038E+03 -0.52630371673E+02  0.99126797580E+03  0.10100882988E+04  0.12699999809E+01 0. -1.
</event>
<event>
 5   0  0.5196696E-06  0.2399147E+04  0.7818609E-02  0.8439823E-01
        1   -1    0    0  501    0  0.00000000000E+00  0.00000000000E+00  0.18820239976E+04  0.18820239976E+04  0.50400001928E-02 0.  1.
       -1   -1    0    0    0  501  0.00000000000E+00  0.00000000000E+00 -0.76459004806E+03  0.76459004807E+03  0.50400001928E-02 0. -1.
    10030    2    1    2    0    0  0.00000000000E+00  0.00000000000E+00  0.11174339495E+04  0.26466140457E+04  0.23991471975E+04 0.  0.
        1    1    3    3  502    0 -0.49023926159E+03 -0.59586608828E+03 -0.45449046945E+03  0.89551801524E+03  0.50400001928E-02 0. -1.
       -1    1    3    3    0  502  0.49023926159E+03  0.59586608828E+03  0.15719244190E+04  0.17510960304E+04  0.50400001928E-02 0.  1.
</event>
<event>
 5   0  0.1169371E-05  0.2394556E+04  0.7818609E-02  0.8441544E-01
        2   -1    0    0  501    0  0.00000000000E+00  0.00000000000E+00  0.15320846791E+04  0.15320846791E+04  0.25500000920E-02 0.  1.
       -2   -1    0    0    0  501  0.00000000000E+00  0.00000000000E+00 -0.93563694216E+03  0.93563694217E+03  0.25500000920E-02 0. -1.
    10030    2    1    2    0    0  0.00000000000E+00  0.00000000000E+00  0.59644773689E+03  0.24677216212E+04  0.23945563466E+04 0.  0.
        2    1    3    3  502    0  0.92938708381E+03  0.60686133848E+03  0.76075128556E+03  0.13456535788E+04  0.25500000920E-02 0. -1.
       -2    1    3    3    0  502 -0.92938708381E+03 -0.60686133848E+03 -0.16430354867E+03  0.11220680424E+04  0.25500000920E-02 0.  1.
</event>
<event>
 5   0  0.5042742E-06  0.2395465E+04  0.7818609E-02  0.8441203E-01
        1   -1    0    0  501    0  0.00000000000E+00  0.00000000000E+00  0.25223867512E+04  0.25223867512E+04  0.50400001928E-02 0. -1.
       -1   -1    0    0    0  501  0.00000000000E+00  0.00000000000E+00 -0.56873239675E+03  0.56873239678E+03  0.50400001928E-02 0.  1.
    10030    2    1    2    0    0  0.00000000000E+00  0.00000000000E+00  0.19536543545E+04  0.30911191480E+04  0.23954649341E+04 0.  0.
        5    1    3    3  502    0  0.17814812729E+03  0.11245781149E+04  0.14564139877E+04  0.18486688415E+04  0.46999998093E+01 0. -1.
       -5    1    3    3    0  502 -0.17814812729E+03 -0.11245781149E+04  0.49724036677E+03  0.12424503065E+04  0.46999998093E+01 0.  1.
</event>
<event>
 5   0  0.5034479E-06  0.2382982E+04  0.7818609E-02  0.8445903E-01
        1   -1    0    0  501    0  0.00000000000E+00  0.00000000000E+00  0.16814547670E+04  0.16814547670E+04  0.50400001928E-02 0. -1.
       -1   -1    0    0    0  501  0.00000000000E+00  0.00000000000E+00 -0.84429884755E+03  0.84429884757E+03  0.50400001928E-02 0.  1.
    10030    2    1    2    0    0  0.00000000000E+00  0.00000000000E+00  0.83715591945E+03  0.25257536146E+04  0.23829815963E+04 0.  0.
        4    1    3    3  502    0 -0.31398714096E+03 -0.69699888564E+03  0.13872558892E+04  0.15839431449E+04  0.12699999809E+01 0. -1.
       -4    1    3    3    0  502  0.31398714096E+03  0.69699888564E+03 -0.55009996971E+03  0.94181046970E+03  0.12699999809E+01 0.  1.
</event>
<event>
 5   0  0.5042742E-06  0.2405493E+04  0.7818609E-02  0.8437450E-01
       -1   -1    0    0    0  501  0.00000000000E+00  0.00000000000E+00  0.27631986069E+04  0.27631986069E+04  0.50400001928E-02 0.  1.
        1   -1    0    0  501    0  0.00000000000E+00  0.00000000000E+00 -0.52352340457E+03  0.52352340459E+03  0.50400001928E-02 0. -1.
    10030    2    1    2    0    0  0.00000000000E+00  0.00000000000E+00  0.22396752023E+04  0.32867220114E+04  0.24054929991E+04 0.  0.
        5    1    3    3  502    0  0.65132949441E+03 -0.44244167033E+03 -0.12239967307E+03  0.79686166422E+03  0.46999998093E+01 0. -1.
       -5    1    3    3    0  502 -0.65132949441E+03  0.44244167033E+03  0.23620748754E+04  0.24898603472E+04  0.46999998093E+01 0.  1.
</event>
<event>
 5   0  0.1168435E-05  0.2401831E+04  0.7818609E-02  0.8438818E-01
       -2   -1    0    0    0  501  0.00000000000E+00  0.00000000000E+00  0.18035891175E+04  0.18035891175E+04  0.25500000920E-02 0. -1.
        2   -1    0    0  501    0  0.00000000000E+00  0.00000000000E+00 -0.79962690923E+03  0.79962690923E+03  0.25500000920E-02 0.  1.
    10030    2    1    2    0    0  0.00000000000E+00  0.00000000000E+00  0.10039622082E+04  0.26032160267E+04  0.24018312943E+04 0.  0.
        1    1    3    3  502    0 -0.47259916459E+03  0.10599920305E+04  0.83651114023E+03  0.14306236272E+04  0.50400001928E-02 0. -1.
       -1    1    3    3    0  502  0.47259916459E+03 -0.10599920305E+04  0.16745106802E+03  0.11725923995E+04  0.50400001928E-02 0.  1.
</event>
<event>
 5   0  0.1174210E-05  0.2384494E+04  0.7818609E-02  0.8445332E-01
       -2   -1    0    0    0  501  0.00000000000E+00  0.00000000000E+00  0.94724735035E+03  0.94724735036E+03  0.25500000920E-02 0.  1.
        2   -1    0    0  501    0  0.00000000000E+00  0.00000000000E+00 -0.15006136780E+04  0.15006136780E+04  0.25500000920E-02 0. -1.
    10030    2    1    2    0    0  0.00000000000E+00  0.00000000000E+00 -0.55336632761E+03  0.24478610283E+04  0.23844935147E+04 0.  0.
        3    1    3    3  502    0  0.86008848272E+03 -0.72170838137E+03 -0.68838592128E+03  0.13170005211E+04  0.10100000352E+00 0.  1.
       -3    1    3    3    0  502 -0.86008848272E+03  0.72170838137E+03  0.13501959367E+03  0.11308605072E+04  0.10100000352E+00 0. -1.
</event>
<event>
 5   0  0.1198313E-05  0.2401971E+04  0.7818609E-02  0.8438766E-01
       -2   -1    0    0    0  501  0.00000000000E+00  0.00000000000E+00  0.69390270834E+03  0.69390270834E+03  0.25500000920E-02 0.  1.
        2   -1    0    0  501    0  0.00000000000E+00  0.00000000000E+00 -0.20786280671E+04  0.20786280671E+04  0.25500000920E-02 0. -1.
    10030    2    1    2    0    0  0.00000000000E+00  0.00000000000E+00 -0.13847253588E+04  0.27725307754E+04  0.24019705622E+04 0.  0.
        5    1    3    3  502    0 -0.32866960981E+02  0.62211309064E+02  0.69151106138E+03  0.69509720335E+03  0.46999998093E+01 0.  1.
       -5    1    3    3    0  502  0.32866960981E+02 -0.62211309064E+02 -0.20762364201E+04  0.20774335721E+04  0.46999998093E+01 0. -1.
</event>
<event>
 5   0  0.5042742E-06  0.2400030E+04  0.7818609E-02  0.8439492E-01
       -1   -1    0    0    0  501  0.00000000000E+00  0.00000000000E+00  0.70449352705E+03  0.70449352707E+03  0.50400001928E-02 0.  1.
        1   -1    0    0  501    0  0.00000000000E+00  0.00000000000E+00 -0.20440724917E+04  0.20440724917E+04  0.50400001928E-02 0. -1.
    10030    2    1    2    0    0  0.00000000000E+00  0.00000000000E+00 -0.13395789646E+04  0.27485660188E+04  0.24000298659E+04 0.  0.
        5    1    3    3  502    0 -0.10751782336E+04 -0.14902837187E+02 -0.59714752234E+02  0.10769485922E+04  0.46999998093E+01 0.  1.
       -5    1    3    3    0  502  0.10751782336E+04  0.14902837187E+02 -0.12798642124E+04  0.16716174266E+04  0.46999998093E+01 0. -1.
</event>
<event>
 5   0  0.1174210E-05  0.2398414E+04  0.7818609E-02  0.8440098E-01
        2   -1    0    0  501    0  0.00000000000E+00  0.00000000000E+00  0.21475562641E+04  0.21475562641E+04  0.25500000920E-02 0.  1.
       -2   -1    0    0    0  501  0.00000000000E+00  0.00000000000E+00 -0.66964358457E+03  0.66964358458E+03  0.25500000920E-02 0. -1.
    10030    2    1    2    0    0  0.00000000000E+00  0.00000000000E+00  0.14779126795E+04  0.28171998487E+04  0.23984138715E+04 0.  0.
        3    1    3    3  502    0 -0.65394885236E+03  0.56212411664E+02  0.19178385927E+04  0.20270455877E+04  0.10100000352E+00 0.  1.
       -3    1    3    3    0  502  0.65394885236E+03 -0.56212411664E+02 -0.43992591323E+03  0.79015426093E+03  0.10100000352E+00 0. -1.
</event>
<event>
 5   0  0.1154897E-05  0.2446896E+04  0.7818609E-02  0.8422152E-01
       -2   -1    0    0    0  501  0.00000000000E+00  0.00000000000E+00  0.10626212197E+04  0.10626212197E+04  0.25500000920E-02 0.  1.
        2   -1    0    0  501    0  0.00000000000E+00  0.00000000000E+00 -0.14086153001E+04  0.14086153001E+04  0.25500000920E-02 0. -1.
    10030    2    1    2    0    0  0.00000000000E+00  0.00000000000E+00 -0.34599408042E+03  0.24712365198E+04  0.24468955909E+04 0.  0.
        4    1    3    3  502    0 -0.16900682117E+03 -0.52807626874E+03  0.92844573155E+03  0.10814069264E+04  0.12699999809E+01 0.  1.
       -4    1    3    3    0  502  0.16900682117E+03  0.52807626874E+03 -0.12744398120E+04  0.13898295933E+04  0.12699999809E+01 0. -1.
</event>
<event>
 5   0  0.1198313E-05  0.2410774E+04  0.7818609E-02  0.8435481E-01
       -2   -1    0    0    0  501  0.00000000000E+00  0.00000000000E+00  0.25476695100E+04  0.25476695100E+04  0.25500000920E-02 0. -1.
        2   -1    0    0  501    0  0.00000000000E+00  0.00000000000E+00 -0.57030851178E+03  0.57030851179E+03  0.25500000920E-02 0.  1.
    10030    2    1    2    0    0  0.00000000000E+00  0.00000000000E+00  0.19773609982E+04  0.31179780218E+04  0.24107738233E+04 0.  0.
        5    1    3    3  502    0  0.15265634923E+03 -0.11903163915E+04  0.11348832586E+04  0.16517079564E+04  0.46999998093E+01 0.  1.
       -5    1    3    3    0  502 -0.15265634923E+03  0.11903163915E+04  0.84247773965E+03  0.14662700654E+04  0.46999998093E+01 0. -1.
</event>
<event>
 5   0  0.5042742E-06  0.2507221E+04  0.7818609E-02  0.8400417E-01
        1   -1    0    0  501    0  0.00000000000E+00  0.00000000000E+00  0.17878216087E+04  0.17878216087E+04  0.50400001928E-02 0. -1.
       -1   -1    0    0    0  501  0.00000000000E+00  0.00000000000E+00 -0.87902498621E+03  0.87902498623E+03  0.50400001928E-02 0.  1.
    10030    2    1    2    0    0  0.00000000000E+00  0.00000000000E+00  0.90879662244E+03  0.26668465949E+04  0.25072214620E+04 0.  0.
        5    1    3    3  502    0  0.92114967020E+03  0.84736935148E+03  0.52935653471E+03  0.13589672415E+04  0.46999998093E+01 0. -1.
       -5    1    3    3    0  502 -0.92114967020E+03 -0.84736935148E+03  0.37944008772E+03  0.13078793533E+04  0.46999998093E+01 0.  1.
</event>
<event>
 5   0  0.1174210E-05  0.2398672E+04  0.7818609E-02  0.8440001E-01
       -2   -1    0    0    0  501  0.00000000000E+00  0.00000000000E+00  0.81613484248E+03  0.81613484248E+03  0.25500000920E-02 0. -1.
        2   -1    0    0  501    0  0.00000000000E+00  0.00000000000E+00 -0.17624621041E+04  0.17624621041E+04  0.25500000920E-02 0.  1.
    10030    2    1    2    0    0  0.00000000000E+00  0.00000000000E+00 -0.94632726165E+03  0.25785969466E+04  0.23986719090E+04 0.  0.
        3    1    3    3  502    0  0.11238898537E+04 -0.35257331480E+02 -0.24695886874E+02  0.11247139101E+04  0.10100000352E+00 0.  1.
       -3    1    3    3    0  502 -0.11238898537E+04  0.35257331480E+02 -0.92163137477E+03  0.14538830365E+04  0.10100000352E+00 0. -1.
</event>
<event>
 5   0  0.1168435E-05  0.2377956E+04  0.7818609E-02  0.8447803E-01
       -2   -1    0    0    0  501  0.00000000000E+00  0.00000000000E+00  0.86306659289E+03  0.86306659289E+03  0.25500000920E-02 0.  1.
        2   -1    0    0  501    0  0.00000000000E+00  0.00000000000E+00 -0.16379604887E+04  0.16379604887E+04  0.25500000920E-02 0. -1.
    10030    2    1    2    0    0  0.00000000000E+00  0.00000000000E+00 -0.77489389579E+03  0.25010270816E+04  0.23779562471E+04 0.  0.
        1    1    3    3  502    0 -0.31534359983E+03  0.26860247796E+03  0.78471963733E+03  0.88734085128E+03  0.50400001928E-02 0.  1.
       -1    1    3    3    0  502  0.31534359983E+03 -0.26860247796E+03 -0.15596135331E+04  0.16136862303E+04  0.50400001928E-02 0. -1.
</event>
<event>
 5   0  0.1154897E-05  0.2397800E+04  0.7818609E-02  0.8440328E-01
       -2   -1    0    0    0  501  0.00000000000E+00  0.00000000000E+00  0.16188738342E+04  0.16188738342E+04  0.25500000920E-02 0.  1.
        2   -1    0    0  501    0  0.00000000000E+00  0.00000000000E+00 -0.88787748968E+03  0.88787748968E+03  0.25500000920E-02 0. -1.
    10030    2    1    2    0    0  0.00000000000E+00  0.00000000000E+00  0.73099634454E+03  0.25067513239E+04  0.23978003554E+04 0.  0.
        4    1    3    3  502    0 -0.40923011671E+03 -0.51842605520E+02 -0.81135245318E+03  0.91019303467E+03  0.12699999809E+01 0. -1.
       -4    1    3    3    0  502  0.40923011671E+03  0.51842605520E+02  0.15423487977E+04  0.15965582892E+04  0.12699999809E+01 0.  1.
</event>
<event>
 5   0  0.1168435E-05  0.2408241E+04  0.7818609E-02  0.8436425E-01
       -2   -1    0    0    0  501  0.00000000000E+00  0.00000000000E+00  0.95230652143E+03  0.95230652143E+03  0.25500000920E-02 0.  1.
        2   -1    0    0  501    0  0.00000000000E+00  0.00000000000E+00 -0.15225211058E+04  0.15225211058E+04  0.25500000920E-02 0. -1.
    10030    2    1    2    0    0  0.00000000000E+00  0.00000000000E+00 -0.57021458436E+03  0.24748276272E+04  0.24082414979E+04 0.  0.
        1    1    3    3  502    0 -0.87130084451E+01  0.14798802566E+03  0.94289291621E+03  0.95447547046E+03  0.50400001928E-02 0.  1.
       -1    1    3    3    0  502  0.87130084451E+01 -0.14798802566E+03 -0.15131075006E+04  0.15203521568E+04  0.50400001928E-02 0. -1.
</event>
<event>
 5   0  0.1174210E-05  0.2398170E+04  0.7818609E-02  0.8440189E-01
       -2   -1    0    0    0  501  0.00000000000E+00  0.00000000000E+00  0.11040033562E+04  0.11040033562E+04  0.25500000920E-02 0.  1.
        2   -1    0    0  501    0  0.00000000000E+00  0.00000000000E+00 -0.13023558295E+04  0.13023558295E+04  0.25500000920E-02 0. -1.
    10030    2    1    2    0    0  0.00000000000E+00  0.00000000000E+00 -0.19835247327E+03  0.24063591856E+04  0.23981703081E+04 0.  0.
        3    1    3    3  502    0  0.63759826606E+03 -0.19790657233E+03 -0.10986228681E+04  0.12855624359E+04  0.10100000352E+00 0. -1.
       -3    1    3    3    0  502 -0.63759826606E+03  0.19790657233E+03  0.90027039478E+03  0.11207967497E+04  0.10100000352E+00 0.  1.
</event>
<event>
 5   0  0.1169371E-05  0.2394623E+04  0.7818609E-02  0.8441519E-01
        2   -1    0    0  501    0  0.00000000000E+00  0.00000000000E+00  0.15786646343E+04  0.15786646343E+04  0.25500000920E-02 0. -1.
       -2   -1    0    0    0  501  0.00000000000E+00  0.00000000000E+00 -0.90808039725E+03  0.90808039725E+03  0.25500000920E-02 0.  1.
    10030    2    1    2    0    0  0.00000000000E+00  0.00000000000E+00  0.67058423702E+03  0.24867450315E+04  0.23946226494E+04 0.  0.
        2    1    3    3  502    0 -0.16611334550E+03  0.94898127042E+02 -0.89210584484E+03  0.91238815012E+03  0.25500000920E-02 0.  1.
       -2    1    3    3    0  502  0.16611334550E+03 -0.94898127042E+02  0.15626900819E+04  0.15743568814E+04  0.25500000920E-02 0. -1.
</event>
<event>
 5   0  0.1168435E-05  0.2383971E+04  0.7818609E-02  0.8445529E-01
        2   -1    0    0  501    0  0.00000000000E+00  0.00000000000E+00  0.95999591909E+03  0.95999591909E+03  0.25500000920E-02 0.  1.
       -2   -1    0    0    0  501  0.00000000000E+00  0.00000000000E+00 -0.14800375385E+04  0.14800375385E+04  0.25500000920E-02 0. -1.
    10030    2    1    2    0    0  0.00000000000E+00  0.00000000000E+00 -0.52004161938E+03  0.24400334576E+04  0.23839714739E+04 0.  0.
        1    1    3    3  502    0  0.60779044262E+03 -0.85668109276E+03 -0.83675950915E+03  0.13429364069E+04  0.50400001928E-02 0. -1.
       -1    1    3    3    0  502 -0.60779044262E+03  0.85668109276E+03  0.31671788977E+03  0.10970970507E+04  0.50400001928E-02 0.  1.
</event>
<event>
 5   0  0.1169371E-05  0.2399919E+04  0.7818609E-02  0.8439534E-01
        2   -1    0    0  501    0  0.00000000000E+00  0.00000000000E+00  0.12750088197E+04  0.12750088197E+04  0.25500000920E-02 0.  1.
       -2   -1    0    0    0  501  0.00000000000E+00  0.00000000000E+00 -0.11293277709E+04  0.11293277709E+04  0.25500000920E-02 0. -1.
    10030    2    1    2    0    0  0.00000000000E+00  0.00000000000E+00  0.14568104878E+03  0.24043365906E+04  0.23999190555E+04 0.  0.
        2    1    3    3  502    0  0.18806931685E+03 -0.54340140846E+03  0.11279874602E+04  0.12661006552E+04  0.25500000920E-02 0.  1.
       -2    1    3    3    0  502 -0.18806931685E+03  0.54340140846E+03 -0.98230641144E+03  0.11382359354E+04  0.25500000920E-02 0. -1.
</event>
<event>
 5   0  0.5196696E-06  0.2403496E+04  0.7818609E-02  0.8438196E-01
       -1   -1    0    0    0  501  0.00000000000E+00  0.00000000000E+00  0.12566703737E+04  0.12566703737E+04  0.50400001928E-02 0.  1.
        1   -1    0    0  501    0  0.00000000000E+00  0.00000000000E+00 -0.11492259522E+04  0.11492259522E+04  0.50400001928E-02 0. -1.
    10030    2    1    2    0    0  0.00000000000E+00  0.00000000000E+00  0.10744442150E+03  0.24058963259E+04  0.24034959595E+04 0.  0.
        1    1    3    3  502    0  0.36401863770E+03 -0.51546717989E+03 -0.97003191425E+03  0.11572285413E+04  0.50400001928E-02 0. -1.
       -1    1    3    3    0  502 -0.36401863770E+03  0.51546717989E+03  0.10774763358E+04  0.12486677846E+04  0.50400001928E-02 0.  1.
</event>
<event>
 5   0  0.5064437E-06  0.2394507E+04  0.7818609E-02  0.8441563E-01
       -1   -1    0    0    0  501  0.00000000000E+00  0.00000000000E+00  0.92328248109E+03  0.92328248110E+03  0.50400001928E-02 0. -1.
        1   -1    0    0  501    0  0.00000000000E+00  0.00000000000E+00 -0.15525216830E+04  0.15525216830E+04  0.50400001928E-02 0.  1.
    10030    2    1    2    0    0  0.00000000000E+00  0.00000000000E+00 -0.62923920194E+03  0.24758041641E+04  0.23945071071E+04 0.  0.
        2    1    3    3  502    0 -0.92096245929E+02 -0.11820498823E+04 -0.48667990373E+03  0.12816321513E+04  0.25500000920E-02 0. -1.
       -2    1    3    3    0  502  0.92096245929E+02  0.11820498823E+04 -0.14255929822E+03  0.11941720128E+04  0.25500000920E-02 0.  1.
</event>
<event>
 5   0  0.5034479E-06  0.2387879E+04  0.7818609E-02  0.8444055E-01
       -1   -1    0    0    0  501  0.00000000000E+00  0.00000000000E+00  0.87640445083E+03  0.87640445084E+03  0.50400001928E-02 0.  1.
        1   -1    0    0  501    0  0.00000000000E+00  0.00000000000E+00 -0.16265227361E+04  0.16265227361E+04  0.50400001928E-02 0. -1.
    10030    2    1    2    0    0  0.00000000000E+00  0.00000000000E+00 -0.75011828523E+03  0.25029271869E+04  0.23878791973E+04 0.  0.
        4    1    3    3  502    0  0.50139929974E+03 -0.93853442010E+03 -0.94266775616E+03  0.14215738556E+04  0.12699999809E+01 0. -1.
       -4    1    3    3    0  502 -0.50139929974E+03  0.93853442010E+03  0.19254947093E+03  0.10813533313E+04  0.12699999809E+01 0.  1.
</event>
<event>
 5   0  0.5042742E-06  0.2398582E+04  0.7818609E-02  0.8440035E-01
       -1   -1    0    0    0  501  0.00000000000E+00  0.00000000000E+00  0.15907251000E+04  0.15907251000E+04  0.50400001928E-02 0.  1.
        1   -1    0    0  501    0  0.00000000000E+00  0.00000000000E+00 -0.90417803443E+03  0.90417803445E+03  0.50400001928E-02 0. -1.
    10030    2    1    2    0    0  0.00000000000E+00  0.00000000000E+00  0.68654706556E+03  0.24949031344E+04  0.23985818262E+04 0.  0.
        5    1    3    3  502    0  0.72261641225E+03 -0.19886227236E+03  0.13171165709E+04  0.15154335465E+04  0.46999998093E+01 0.  1.
       -5    1    3    3    0  502 -0.72261641225E+03  0.19886227236E+03 -0.63056950533E+03  0.97946958793E+03  0.46999998093E+01 0. -1.
</event>
<event>
 5   0  0.1174210E-05  0.2399580E+04  0.7818609E-02  0.8439661E-01
        2   -1    0    0  501    0  0.00000000000E+00  0.00000000000E+00  0.11224659361E+04  0.11224659361E+04  0.25500000920E-02 0. -1.
       -2   -1    0    0    0  501  0.00000000000E+00  0.00000000000E+00 -0.12824403977E+04  0.12824403977E+04  0.25500000920E-02 0.  1.
    10030    2    1    2    0    0  0.00000000000E+00  0.00000000000E+00 -0.15997446167E+03  0.24049063338E+04  0.23995796811E+04 0.  0.
        3    1    3    3  502    0  0.78639180720E+03 -0.84559671209E+02  0.82419794502E+03  0.11423067343E+04  0.10100000352E+00 0. -1.
       -3    1    3    3    0  502 -0.78639180720E+03  0.84559671209E+02 -0.98417240669E+03  0.12625995995E+04  0.10100000352E+00 0.  1.
</event>
<event>
 5   0  0.1174210E-05  0.2343116E+04  0.7818609E-02  0.8461113E-01
       -2   -1    0    0    0  501  0.00000000000E+00  0.00000000000E+00  0.18810992750E+04  0.18810992750E+04  0.25500000920E-02 0. -1.
        2   -1    0    0  501    0  0.00000000000E+00  0.00000000000E+00 -0.72965185221E+03  0.72965185222E+03  0.25500000920E-02 0.  1.
    10030    2    1    2    0    0  0.00000000000E+00  0.00000000000E+00  0.11514474228E+04  0.26107511272E+04  0.23431155074E+04 0.  0.
        3    1    3    3  502    0  0.57312442707E+03  0.10215635085E+04  0.55121211259E+03  0.12945649517E+04  0.10100000352E+00 0.  1.
       -3    1    3    3    0  502 -0.57312442707E+03 -0.10215635085E+04  0.60023531019E+03  0.13161861755E+04  0.10100000352E+00 0. -1.
</event>
<event>
 5   0  0.5104174E-06  0.2413739E+04  0.7818609E-02  0.8434378E-01
       -1   -1    0    0    0  501  0.00000000000E+00  0.00000000000E+00  0.79206669115E+03  0.79206669117E+03  0.50400001928E-02 0. -1.
        1   -1    0    0  501    0  0.00000000000E+00  0.00000000000E+00 -0.18389026405E+04  0.18389026405E+04  0.50400001928E-02 0.  1.
    10030    2    1    2    0    0  0.00000000000E+00  0.00000000000E+00 -0.10468359494E+04  0.26309693317E+04  0.24137386187E+04 0.  0.
        3    1    3    3  502    0  0.23026078696E+03 -0.89299532404E+03 -0.13719885303E+04  0.16531222629E+04  0.10100000352E+00 0.  1.
       -3    1    3    3    0  502 -0.23026078696E+03  0.89299532404E+03  0.32515258094E+03  0.97784706875E+03  0.10100000352E+00 0. -1.
</event>
<event>
 5   0  0.5034479E-06  0.2404509E+04  0.7818609E-02  0.8437817E-01
        1   -1    0    0  501    0  0.00000000000E+00  0.00000000000E+00  0.15275428261E+04  0.15275428261E+04  0.50400001928E-02 0. -1.
       -1   -1    0    0    0  501  0.00000000000E+00  0.00000000000E+00 -0.94623569106E+03  0.94623569107E+03  0.50400001928E-02 0.  1.
    10030    2    1    2    0    0  0.00000000000E+00  0.00000000000E+00  0.58130713501E+03  0.24737785172E+04  0.24045087163E+04 0.  0.
        4    1    3    3  502    0  0.12111987987E+03 -0.76978425067E+03 -0.65124057768E+03  0.10155558679E+04  0.12699999809E+01 0.  1.
       -4    1    3    3    0  502 -0.12111987987E+03  0.76978425067E+03  0.12325477127E+04  0.14582226493E+04  0.12699999809E+01 0. -1.
</event>
<event>
 5   0  0.5042742E-06  0.2390351E+04  0.7818609E-02  0.8443125E-01
       -1   -1    0    0    0  501  0.00000000000E+00  0.00000000000E+00  0.11082457573E+04  0.11082457573E+04  0.50400001928E-02 0. -1.
        1   -1    0    0  501    0  0.00000000000E+00  0.00000000000E+00 -0.12889233931E+04  0.12889233931E+04  0.50400001928E-02 0.  1.
    10030    2    1    2    0    0  0.00000000000E+00  0.00000000000E+00 -0.18067763582E+03  0.23971691504E+04  0.23903505030E+04 0.  0.
        5    1    3    3  502    0 -0.18202911050E+03 -0.46347092641E+03 -0.11799379738E+04  0.12807090258E+04  0.46999998093E+01 0.  1.
       -5    1    3    3    0  502  0.18202911050E+03  0.46347092641E+03  0.99926033799E+03  0.11164601246E+04  0.46999998093E+01 0. -1.
</event>
<event>
 5   0  0.1154897E-05  0.2402227E+04  0.7818609E-02  0.8438670E-01
        2   -1    0    0  501    0  0.00000000000E+00  0.00000000000E+00  0.14523885496E+04  0.14523885496E+04  0.25500000920E-02 0.  1.
       -2   -1    0    0    0  501  0.00000000000E+00  0.00000000000E+00 -0.99331136142E+03  0.99331136142E+03  0.25500000920E-02 0. -1.
    10030    2    1    2    0    0  0.00000000000E+00  0.00000000000E+00  0.45907718821E+03  0.24456999111E+04  0.24022273394E+04 0.  0.
        4    1    3    3  502    0  0.72129038095E+03 -0.66766612156E+03 -0.47334245169E+03  0.10909136322E+04  0.12699999809E+01 0. -1.
       -4    1    3    3    0  502 -0.72129038095E+03  0.66766612156E+03  0.93241963989E+03  0.13547862788E+04  0.12699999809E+01 0.  1.
</event>
<event>
 5   0  0.1154897E-05  0.2400102E+04  0.7818609E-02  0.8439465E-01
        2   -1    0    0  501    0  0.00000000000E+00  0.00000000000E+00  0.18017536975E+04  0.18017536975E+04  0.25500000920E-02 0. -1.
       -2   -1    0    0    0  501  0.00000000000E+00  0.00000000000E+00 -0.79928914063E+03  0.79928914063E+03  0.25500000920E-02 0.  1.
    10030    2    1    2    0    0  0.00000000000E+00  0.00000000000E+00  0.10024645569E+04  0.26010428382E+04  0.24001018016E+04 0.  0.
        4    1    3    3  502    0 -0.50146110859E+03  0.44071175634E+03 -0.57946747000E+03  0.88401032646E+03  0.12699999809E+01 0.  1.
       -4    1    3    3    0  502  0.50146110859E+03 -0.44071175634E+03  0.15819320269E+04  0.17170325117E+04  0.12699999809E+01 0. -1.
</event>
<event>
 5   0  0.1174210E-05  0.2406007E+04  0.7818609E-02  0.8437258E-01
        2   -1    0    0  501    0  0.00000000000E+00  0.00000000000E+00  0.13734042699E+04  0.13734042699E+04  0.25500000920E-02 0. -1.
       -2   -1    0    0    0  501  0.00000000000E+00  0.00000000000E+00 -0.10537443047E+04  0.10537443047E+04  0.25500000920E-02 0.  1.
    10030    2    1    2    0    0  0.00000000000E+00  0.00000000000E+00  0.31965996529E+03  0.24271485746E+04  0.24060065897E+04 0.  0.
        3    1    3    3  502    0  0.79724433190E+03 -0.30904271352E+03 -0.69383942843E+03  0.11011444438E+04  0.10100000352E+00 0.  1.
       -3    1    3    3    0  502 -0.79724433190E+03  0.30904271352E+03  0.10134993937E+04  0.13260041308E+04  0.10100000352E+00 0. -1.
</event>
<event>
 5   0  0.5196696E-06  0.2409424E+04  0.7818609E-02  0.8435984E-01
        1   -1    0    0  501    0  0.00000000000E+00  0.00000000000E+00  0.20650498521E+04  0.20650498521E+04  0.50400001928E-02 0.  1.
       -1   -1    0    0    0  501  0.00000000000E+00  0.00000000000E+00 -0.70280672864E+03  0.70280672866E+03  0.50400001928E-02 0. -1.
    10030    2    1    2    0    0  0.00000000000E+00  0.00000000000E+00  0.13622431235E+04  0.27678565808E+04  0.24094239404E+04 0.  0.
        1    1    3    3  502    0 -0.63879416178E+03  0.72762881598E+03  0.15045763815E+04  0.17892042261E+04  0.50400001928E-02 0.  1.
       -1    1    3    3    0  502  0.63879416178E+03 -0.72762881598E+03 -0.14233325801E+03  0.97865235468E+03  0.50400001928E-02 0. -1.
</event>
<event>
 5   0  0.1154897E-05  0.2242732E+04  0.7818609E-02  0.8500850E-01
        2   -1    0    0  501    0  0.00000000000E+00  0.00000000000E+00  0.23576965510E+04  0.23576965510E+04  0.25500000920E-02 0.  1.
       -2   -1    0    0    0  501  0.00000000000E+00  0.00000000000E+00 -0.53334329668E+03  0.53334329668E+03  0.25500000920E-02 0. -1.
    10030    2    1    2    0    0  0.00000000000E+00  0.00000000000E+00  0.18243532544E+04  0.28910398477E+04  0.22427319511E+04 0.  0.
        4    1    3    3  502    0 -0.82922678321E+03  0.71281082379E+03  0.59186473199E+03  0.12433912507E+04  0.12699999809E+01 0.  1.
       -4    1    3    3    0  502  0.82922678321E+03 -0.71281082379E+03  0.12324885224E+04  0.16476485970E+04  0.12699999809E+01 0. -1.
</event>
<event>
 5   0  0.5034479E-06  0.2402272E+04  0.7818609E-02  0.8438653E-01
       -1   -1    0    0    0  501  0.00000000000E+00  0.00000000000E+00  0.12636976412E+04  0.12636976412E+04  0.50400001928E-02 0.  1.
        1   -1    0    0  501    0  0.00000000000E+00  0.00000000000E+00 -0.11416715959E+04  0.11416715959E+04  0.50400001928E-02 0. -1.
    10030    2    1    2    0    0  0.00000000000E+00  0.00000000000E+00  0.12202604529E+03  0.24053692371E+04  0.24022720103E+04 0.  0.
        4    1    3    3  502    0 -0.11189702849E+04  0.32254624116E+03  0.35566358072E+03  0.12176324452E+04  0.12699999809E+01 0.  1.
       -4    1    3    3    0  502  0.11189702849E+04 -0.32254624116E+03 -0.23363753542E+03  0.11877367919E+04  0.12699999809E+01 0. -1.
</event>
<event>
 5   0  0.1168435E-05  0.2406281E+04  0.7818609E-02  0.8437156E-01
        2   -1    0    0  501    0  0.00000000000E+00  0.00000000000E+00  0.12205305322E+04  0.12205305322E+04  0.25500000920E-02 0.  1.
       -2   -1    0    0    0  501  0.00000000000E+00  0.00000000000E+00 -0.11859981793E+04  0.11859981793E+04  0.25500000920E-02 0. -1.
    10030    2    1    2    0    0  0.00000000000E+00  0.00000000000E+00  0.34532352962E+02  0.24065287115E+04  0.24062809387E+04 0.  0.
        1    1    3    3  502    0  0.71169353797E+03  0.34000110228E+03 -0.89136386136E+03  0.11902260184E+04  0.50400001928E-02 0. -1.
       -1    1    3    3    0  502 -0.71169353797E+03 -0.34000110228E+03  0.92589621432E+03  0.12163026931E+04  0.50400001928E-02 0.  1.
</event>
<event>
 5   0  0.1198313E-05  0.2398390E+04  0.7818609E-02  0.8440106E-01
        2   -1    0    0  501    0  0.00000000000E+00  0.00000000000E+00  0.85474818760E+03  0.85474818761E+03  0.25500000920E-02 0.  1.
       -2   -1    0    0    0  501  0.00000000000E+00  0.00000000000E+00 -0.16824478339E+04  0.16824478339E+04  0.25500000920E-02 0. -1.
    10030    2    1    2    0    0  0.00000000000E+00  0.00000000000E+00 -0.82769964629E+03  0.25371960215E+04  0.23983904909E+04 0.  0.
        5    1    3    3  502    0 -0.43763444131E+03  0.11111721650E+04 -0.52886010299E+03  0.13061173696E+04  0.46999998093E+01 0. -1.
       -5    1    3    3    0  502  0.43763444131E+03 -0.11111721650E+04 -0.29883954330E+03  0.12310786519E+04  0.46999998093E+01 0.  1.
</event>
<event>
 5   0  0.5196696E-06  0.2417299E+04  0.7818609E-02  0.8433055E-01
        1   -1    0    0  501    0  0.00000000000E+00  0.00000000000E+00  0.95156951032E+03  0.95156951033E+03  0.50400001928E-02 0. -1.
       -1   -1    0    0    0  501  0.00000000000E+00  0.00000000000E+00 -0.15351833478E+04  0.15351833479E+04  0.50400001928E-02 0.  1.
    10030    2    1    2    0    0  0.00000000000E+00  0.00000000000E+00 -0.58361383752E+03  0.24867528582E+04  0.24172990436E+04 0.  0.
        1    1    3    3  502    0 -0.93314486285E+03  0.71336263054E+03  0.13150741443E+01  0.11745838868E+04  0.50400001928E-02 0.  1.
       -1    1    3    3    0  502  0.93314486285E+03 -0.71336263054E+03 -0.58492891167E+03  0.13121689714E+04  0.50400001928E-02 0. -1.
</event>
<event>
 5   0  0.5196696E-06  0.2406158E+04  0.7818609E-02  0.8437202E-01
        1   -1    0    0  501    0  0.00000000000E+00  0.00000000000E+00  0.22587335881E+04  0.22587335881E+04  0.50400001928E-02 0. -1.
       -1   -1    0    0    0  501  0.00000000000E+00  0.00000000000E+00 -0.64080091666E+03  0.64080091668E+03  0.50400001928E-02 0.  1.
    10030    2    1    2    0    0  0.00000000000E+00  0.00000000000E+00  0.16179326714E+04  0.28995345048E+04  0.24061575624E+04 0.  0.
        1    1    3    3  502    0  0.26618551127E+03  0.77592250918E+03 -0.25153590243E+03  0.85800977669E+03  0.50400001928E-02 0.  1.
       -1    1    3    3    0  502 -0.26618551127E+03 -0.77592250918E+03  0.18694685739E+04  0.20415247281E+04  0.50400001928E-02 0. -1.
</event>
<event>
 5   0  0.5034479E-06  0.2401020E+04  0.7818609E-02  0.8439122E-01
        1   -1    0    0  501    0  0.00000000000E+00  0.00000000000E+00  0.13763864145E+04  0.13763864145E+04  0.50400001928E-02 0. -1.
       -1   -1    0    0    0  501  0.00000000000E+00  0.00000000000E+00 -0.10471072041E+04  0.10471072041E+04  0.50400001928E-02 0.  1.
    10030    2    1    2    0    0  0.00000000000E+00  0.00000000000E+00  0.32927921044E+03  0.24234936186E+04  0.24010198919E+04 0.  0.
        4    1    3    3  502    0 -0.95935156225E+03  0.39487532434E+03  0.77439717253E+03  0.12945943517E+04  0.12699999809E+01 0. -1.
       -4    1    3    3    0  502  0.95935156225E+03 -0.39487532434E+03 -0.44511796209E+03  0.11288992669E+04  0.12699999809E+01 0.  1.
</event>
<event>
 5   0  0.1154897E-05  0.2389774E+04  0.7818609E-02  0.8443342E-01
        2   -1    0    0  501    0  0.00000000000E+00  0.00000000000E+00  0.96569162700E+03  0.96569162701E+03  0.25500000920E-02 0.  1.
       -2   -1    0    0    0  501  0.00000000000E+00  0.00000000000E+00 -0.14784792707E+04  0.14784792707E+04  0.25500000920E-02 0. -1.
    10030    2    1    2    0    0  0.00000000000E+00  0.00000000000E+00 -0.51278764368E+03  0.24441708977E+04  0.23897740918E+04 0.  0.
        4    1    3    3  502    0 -0.10596189195E+03  0.97716721165E+02  0.95676654281E+03  0.96756411182E+03  0.12699999809E+01 0.  1.
       -4    1    3    3    0  502  0.10596189195E+03 -0.97716721165E+02 -0.14695541865E+04  0.14766067859E+04  0.12699999809E+01 0. -1.
</event>
<event>
 5   0  0.5196696E-06  0.2397760E+04  0.7818609E-02  0.8440343E-01
        1   -1    0    0  501    0  0.00000000000E+00  0.00000000000E+00  0.14908043952E+04  0.14908043952E+04  0.50400001928E-02 0. -1.
       -1   -1    0    0    0  501  0.00000000000E+00  0.00000000000E+00 -0.96411945802E+03  0.96411945804E+03  0.50400001928E-02 0.  1.
    10030    2    1    2    0    0  0.00000000000E+00  0.00000000000E+00  0.52668493713E+03  0.24549238532E+04  0.23977602261E+04 0.  0.
        1    1    3    3  502    0 -0.45580365496E+02 -0.82166150372E+03 -0.62928453229E+03  0.10359557032E+04  0.50400001928E-02 0. -1.
       -1    1    3    3    0  502  0.45580365496E+02  0.82166150372E+03  0.11559694694E+04  0.14189681500E+04  0.50400001928E-02 0.  1.
</event>
<event>
 5   0  0.1168435E-05  0.2369788E+04  0.7818609E-02  0.8450902E-01
        2   -1    0    0  501    0  0.00000000000E+00  0.00000000000E+00  0.10113050525E+04  0.10113050525E+04  0.25500000920E-02 0. -1.
       -2   -1    0    0    0  501  0.00000000000E+00  0.00000000000E+00 -0.13882787118E+04  0.13882787118E+04  0.25500000920E-02 0.  1.
    10030    2    1    2    0    0  0.00000000000E+00  0.00000000000E+00 -0.37697365933E+03  0.23995837642E+04  0.23697875647E+04 0.  0.
        1    1    3    3  502    0 -0.32864671894E+03  0.62885116963E+03 -0.11493708373E+04  0.13507463793E+04  0.50400001928E-02 0.  1.
       -1    1    3    3    0  502  0.32864671894E+03 -0.62885116963E+03  0.77239717802E+03  0.10488373849E+04  0.50400001928E-02 0. -1.
</event>
<event>
 5   0  0.5042742E-06  0.2399029E+04  0.7818609E-02  0.8439867E-01
       -1   -1    0    0    0  501  0.00000000000E+00  0.00000000000E+00  0.12612609676E+04  0.12612609676E+04  0.50400001928E-02 0. -1.
        1   -1    0    0  501    0  0.00000000000E+00  0.00000000000E+00 -0.11407910189E+04  0.11407910189E+04  0.50400001928E-02 0.  1.
    10030    2    1    2    0    0  0.00000000000E+00  0.00000000000E+00  0.12046994872E+03  0.24020519866E+04  0.23990291240E+04 0.  0.
        5    1    3    3  502    0  0.10973982449E+04 -0.40548705142E+03  0.32535236777E+03  0.12143224077E+04  0.46999998093E+01 0.  1.
       -5    1    3    3    0  502 -0.10973982449E+04  0.40548705142E+03 -0.20488241905E+03  0.11877295788E+04  0.46999998093E+01 0. -1.
</event>
<event>
 5   0  0.1174210E-05  0.2285967E+04  0.7818609E-02  0.8483475E-01
       -2   -1    0    0    0  501  0.00000000000E+00  0.00000000000E+00  0.12581296923E+04  0.12581296923E+04  0.25500000920E-02 0.  1.
        2   -1    0    0  501    0  0.00000000000E+00  0.00000000000E+00 -0.10383757602E+04  0.10383757602E+04  0.25500000920E-02 0. -1.
    10030    2    1    2    0    0  0.00000000000E+00  0.00000000000E+00  0.21975393213E+03  0.22965054525E+04  0.22859670826E+04 0.  0.
        3    1    3    3  502    0 -0.43533167889E+03  0.41921999140E+03  0.10844793313E+04  0.12415129891E+04  0.10100000352E+00 0.  1.
       -3    1    3    3    0  502  0.43533167889E+03 -0.41921999140E+03 -0.86472539914E+03  0.10549924635E+04  0.10100000352E+00 0. -1.
</event>
<event>
 5   0  0.5196696E-06  0.2400977E+04  0.7818609E-02  0.8439138E-01
       -1   -1    0    0    0  501  0.00000000000E+00  0.00000000000E+00  0.93504906023E+03  0.93504906024E+03  0.50400001928E-02 0. -1.
        1   -1    0    0  501    0  0.00000000000E+00  0.00000000000E+00 -0.15412808141E+04  0.15412808141E+04  0.50400001928E-02 0.  1.
    10030    2    1    2    0    0  0.00000000000E+00  0.00000000000E+00 -0.60623175388E+03  0.24763298744E+04  0.24009774483E+04 0.  0.
        1    1    3    3  502    0 -0.30472309899E+03 -0.30325462299E+03 -0.14591652111E+04  0.15211780457E+04  0.50400001928E-02 0.  1.
       -1    1    3    3    0  502  0.30472309899E+03  0.30325462299E+03  0.85293345719E+03  0.95515182868E+03  0.50400001928E-02 0. -1.
</event>
<event>
 5   0  0.5042742E-06  0.2395030E+04  0.7818609E-02  0.8441367E-01
        1   -1    0    0  501    0  0.00000000000E+00  0.00000000000E+00  0.25517393706E+04  0.25517393706E+04  0.50400001928E-02 0.  1.
       -1   -1    0    0    0  501  0.00000000000E+00  0.00000000000E+00 -0.56198615237E+03  0.56198615239E+03  0.50400001928E-02 0. -1.
    10030    2    1    2    0    0  0.00000000000E+00  0.00000000000E+00  0.19897532182E+04  0.31137255230E+04  0.23950300130E+04 0.  0.
        5    1    3    3  502    0  0.37044419996E+03 -0.40633790482E+02 -0.48466689642E+03  0.61139520827E+03  0.46999998093E+01 0. -1.
       -5    1    3    3    0  502 -0.37044419996E+03  0.40633790482E+02  0.24744201146E+04  0.25023303147E+04  0.46999998093E+01 0.  1.
</event>
<event>
 5   0  0.1198313E-05  0.2391143E+04  0.7818609E-02  0.8442827E-01
       -2   -1    0    0    0  501  0.00000000000E+00  0.00000000000E+00  0.11330662155E+04  0.11330662156E+04  0.25500000920E-02 0.  1.
        2   -1    0    0  501    0  0.00000000000E+00  0.00000000000E+00 -0.12615253882E+04  0.12615253882E+04  0.25500000920E-02 0. -1.
    10030    2    1    2    0    0  0.00000000000E+00  0.00000000000E+00 -0.12845917266E+03  0.23945916038E+04  0.23911434900E+04 0.  0.
        5    1    3    3  502    0  0.26614142708E+03  0.17478853192E+03  0.10898155553E+04  0.11353864208E+04  0.46999998093E+01 0.  1.
       -5    1    3    3    0  502 -0.26614142708E+03 -0.17478853192E+03 -0.12182747279E+04  0.12592051829E+04  0.46999998093E+01 0. -1.
</event>
<event>
 5   0  0.5196696E-06  0.2377676E+04  0.7818609E-02  0.8447909E-01
       -1   -1    0    0    0  501  0.00000000000E+00  0.00000000000E+00  0.14464755097E+04  0.14464755097E+04  0.50400001928E-02 0.  1.
        1   -1    0    0  501    0  0.00000000000E+00  0.00000000000E+00 -0.97708919941E+03  0.97708919943E+03  0.50400001928E-02 0. -1.
    10030    2    1    2    0    0  0.00000000000E+00  0.00000000000E+00  0.46938631032E+03  0.24235647092E+04  0.23776758381E+04 0.  0.
        1    1    3    3  502    0  0.76126487723E+03  0.88369723552E+03  0.27505503274E+00  0.11663811954E+04  0.50400001928E-02 0. -1.
       -1    1    3    3    0  502 -0.76126487723E+03 -0.88369723552E+03  0.46911125528E+03  0.12571835137E+04  0.50400001928E-02 0.  1.
</event>
<event>
 5   0  0.5042742E-06  0.2402942E+04  0.7818609E-02  0.8438403E-01
        1   -1    0    0  501    0  0.00000000000E+00  0.00000000000E+00  0.18808355899E+04  0.18808355899E+04  0.50400001928E-02 0.  1.
       -1   -1    0    0    0  501  0.00000000000E+00  0.00000000000E+00 -0.76749508243E+03  0.76749508245E+03  0.50400001928E-02 0. -1.
    10030    2    1    2    0    0  0.00000000000E+00  0.00000000000E+00  0.11133405074E+04  0.26483306723E+04  0.24029415857E+04 0.  0.
        5    1    3    3  502    0  0.93869471054E+03 -0.71027043365E+03  0.82181695810E+03  0.14356312379E+04  0.46999998093E+01 0.  1.
       -5    1    3    3    0  502 -0.93869471054E+03  0.71027043365E+03  0.29152354933E+03  0.12126994345E+04  0.46999998093E+01 0. -1.
</event>
<event>
 5   0  0.5104174E-06  0.2409194E+04  0.7818609E-02  0.8436069E-01
        1   -1    0    0  501    0  0.00000000000E+00  0.00000000000E+00  0.16567894907E+04  0.16567894907E+04  0.50400001928E-02 0.  1.
       -1   -1    0    0    0  501  0.00000000000E+00  0.00000000000E+00 -0.87582308172E+03  0.87582308173E+03  0.50400001928E-02 0. -1.
    10030    2    1    2    0    0  0.00000000000E+00  0.00000000000E+00  0.78096640897E+03  0.25326125724E+04  0.24091944525E+04 0.  0.
        3    1    3    3  502    0 -0.20527888559E+03 -0.81115072805E+03 -0.52048303572E+03  0.98539714083E+03  0.10100000352E+00 0. -1.
       -3    1    3    3    0  502  0.20527888559E+03  0.81115072805E+03  0.13014494447E+04  0.15472154316E+04  0.10100000352E+00 0.  1.
</event>
<event>
 5   0  0.1154897E-05  0.2406800E+04  0.7818609E-02  0.8436962E-01
       -2   -1    0    0    0  501  0.00000000000E+00  0.00000000000E+00  0.72162471626E+03  0.72162471627E+03  0.25500000920E-02 0.  1.
        2   -1    0    0  501    0  0.00000000000E+00  0.00000000000E+00 -0.20068210281E+04  0.20068210281E+04  0.25500000920E-02 0. -1.
    10030    2    1    2    0    0  0.00000000000E+00  0.00000000000E+00 -0.12851963118E+04  0.27284457444E+04  0.24068000789E+04 0.  0.
        4    1    3    3  502    0  0.11708905130E+04  0.40300719191E+02 -0.33097837501E+03  0.12174387208E+04  0.12699999809E+01 0.  1.
       -4    1    3    3    0  502 -0.11708905130E+04 -0.40300719191E+02 -0.95421793682E+03  0.15110070235E+04  0.12699999809E+01 0. -1.
</event>
<event>
 5   0  0.5064437E-06  0.2406933E+04  0.7818609E-02  0.8436912E-01
       -1   -1    0    0    0  501  0.00000000000E+00  0.00000000000E+00  0.16149244268E+04  0.16149244268E+04  0.50400001928E-02 0. -1.
        1   -1    0    0  501    0  0.00000000000E+00  0.00000000000E+00 -0.89684206495E+03  0.89684206497E+03  0.50400001928E-02 0.  1.
    10030    2    1    2    0    0  0.00000000000E+00  0.00000000000E+00  0.71808236180E+03  0.25117664917E+04  0.24069334496E+04 0.  0.
        2    1    3    3  502    0  0.26241562185E+03 -0.63830771478E+03 -0.66981764499E+03  0.96174548342E+03  0.25500000920E-02 0.  1.
       -2    1    3    3    0  502 -0.26241562185E+03  0.63830771478E+03  0.13879000068E+04  0.15500210083E+04  0.25500000920E-02 0. -1.
</event>
<event>
 5   0  0.4067750E-06  0.2401525E+04  0.7818609E-02  0.8438933E-01
        3   -1    0    0  501    0  0.00000000000E+00  0.00000000000E+00  0.20341183061E+04  0.20341183086E+04  0.10100000352E+00 0.  1.
       -3   -1    0    0    0  501  0.00000000000E+00  0.00000000000E+00 -0.70882362835E+03  0.70882363555E+03  0.10100000352E+00 0. -1.
    10030    2    1    2    0    0  0.00000000000E+00  0.00000000000E+00  0.13252946778E+04  0.27429419442E+04  0.24015254582E+04 0.  0.
        3    1    3    3  502    0  0.10672416566E+04 -0.13327349597E+03  0.12724664376E+04  0.16661144689E+04  0.10100000352E+00 0.  1.
       -3    1    3    3    0  502 -0.10672416566E+04  0.13327349597E+03  0.52828240182E+02  0.10768274753E+04  0.10100000352E+00 0. -1.
</event>
<event>
 5   0  0.1168435E-05  0.2408763E+04  0.7818609E-02  0.8436230E-01
       -2   -1    0    0    0  501  0.00000000000E+00  0.00000000000E+00  0.17450286874E+04  0.17450286874E+04  0.25500000920E-02 0. -1.
        2   -1    0    0  501    0  0.00000000000E+00  0.00000000000E+00 -0.83123847112E+03  0.83123847113E+03  0.25500000920E-02 0.  1.
    10030    2    1    2    0    0  0.00000000000E+00  0.00000000000E+00  0.91379021626E+03  0.25762671585E+04  0.24087631500E+04 0.  0.
        1    1    3    3  502    0  0.81794609712E+03  0.48801826891E+03 -0.33147758040E+03  0.10085013807E+04  0.50400001928E-02 0.  1.
       -1    1    3    3    0  502 -0.81794609712E+03 -0.48801826891E+03  0.12452677967E+04  0.15677657778E+04  0.50400001928E-02 0. -1.
</event>
<event>
 5   0  0.1154897E-05  0.2401078E+04  0.7818609E-02  0.8439100E-01
       -2   -1    0    0    0  501  0.00000000000E+00  0.00000000000E+00  0.59574529399E+03  0.59574529399E+03  0.25500000920E-02 0. -1.
        2   -1    0    0  501    0  0.00000000000E+00  0.00000000000E+00 -0.24193120332E+04  0.24193120332E+04  0.25500000920E-02 0.  1.
    10030    2    1    2    0    0  0.00000000000E+00  0.00000000000E+00 -0.18235667392E+04  0.30150573272E+04  0.24010778900E+04 0.  0.
        4    1    3    3  502    0  0.42622021029E+03  0.10305053605E+04 -0.35346929200E+03  0.11698491864E+04  0.12699999809E+01 0. -1.
       -4    1    3    3    0  502 -0.42622021029E+03 -0.10305053605E+04 -0.14700974472E+04  0.18452081408E+04  0.12699999809E+01 0.  1.
</event>
<event>
 5   0  0.1154897E-05  0.2408144E+04  0.7818609E-02  0.8436461E-01
       -2   -1    0    0    0  501  0.00000000000E+00  0.00000000000E+00  0.72620266259E+03  0.72620266259E+03  0.25500000920E-02 0. -1.
        2   -1    0    0  501    0  0.00000000000E+00  0.00000000000E+00 -0.19963973726E+04  0.19963973726E+04  0.25500000920E-02 0.  1.
    10030    2    1    2    0    0  0.00000000000E+00  0.00000000000E+00 -0.12701947100E+04  0.27226000352E+04  0.24081437562E+04 0.  0.
        4    1    3    3  502    0 -0.70981849534E+03 -0.50775272400E+03  0.30276137265E+03  0.92375385613E+03  0.12699999809E+01 0. -1.
       -4    1    3    3    0  502  0.70981849534E+03  0.50775272400E+03 -0.15729560827E+04  0.17988461791E+04  0.12699999809E+01 0.  1.
</event>
<event>
 5   0  0.1169371E-05  0.2398620E+04  0.7818609E-02  0.8440021E-01
        2   -1    0    0  501    0  0.00000000000E+00  0.00000000000E+00  0.16935177755E+04  0.16935177755E+04  0.25500000920E-02 0.  1.
       -2   -1    0    0    0  501  0.00000000000E+00  0.00000000000E+00 -0.84932321166E+03  0.84932321166E+03  0.25500000920E-02 0. -1.
    10030    2    1    2    0    0  0.00000000000E+00  0.00000000000E+00  0.84419456383E+03  0.25428409871E+04  0.23986195664E+04 0.  0.
        2    1    3    3  502    0 -0.10848953794E+04  0.39231669682E+03  0.76957571726E+03  0.13867794199E+04  0.25500000920E-02 0.  1.
       -2    1    3    3    0  502  0.10848953794E+04 -0.39231669682E+03  0.74618846567E+02  0.11560615672E+04  0.25500000920E-02 0. -1.
</event>
<event>
 5   0  0.1174210E-05  0.2399891E+04  0.7818609E-02  0.8439545E-01
        2   -1    0    0  501    0  0.00000000000E+00  0.00000000000E+00  0.13927447774E+04  0.13927447774E+04  0.25500000920E-02 0.  1.
       -2   -1    0    0    0  501  0.00000000000E+00  0.00000000000E+00 -0.10338352713E+04  0.10338352713E+04  0.25500000920E-02 0. -1.
    10030    2    1    2    0    0  0.00000000000E+00  0.00000000000E+00  0.35890950608E+03  0.24265800487E+04  0.23998905598E+04 0.  0.
        3    1    3    3  502    0 -0.69558860472E+03  0.70693595677E+03  0.86244197249E+03  0.13143089896E+04  0.10100000352E+00 0.  1.
       -3    1    3    3    0  502  0.69558860472E+03 -0.70693595677E+03 -0.50353246641E+03  0.11122710591E+04  0.10100000352E+00 0. -1.
</event>
<event>
 5   0  0.5104174E-06  0.2475895E+04  0.7818609E-02  0.8411624E-01
        1   -1    0    0  501    0  0.00000000000E+00  0.00000000000E+00  0.24853017083E+04  0.24853017083E+04  0.50400001928E-02 0. -1.
       -1   -1    0    0    0  501  0.00000000000E+00  0.00000000000E+00 -0.61663083283E+03  0.61663083285E+03  0.50400001928E-02 0.  1.
    10030    2    1    2    0    0  0.00000000000E+00  0.00000000000E+00  0.18686708755E+04  0.31019325412E+04  0.24758947169E+04 0.  0.
        3    1    3    3  502    0  0.54857333732E+03  0.11034928118E+04  0.78670828737E+03  0.14620325002E+04  0.10100000352E+00 0.  1.
       -3    1    3    3    0  502 -0.54857333732E+03 -0.11034928118E+04  0.10819625881E+04  0.16399000410E+04  0.10100000352E+00 0. -1.
</event>
<event>
 5   0  0.5034479E-06  0.2393954E+04  0.7818609E-02  0.8441771E-01
        1   -1    0    0  501    0  0.00000000000E+00  0.00000000000E+00  0.78305113253E+03  0.78305113255E+03  0.50400001928E-02 0. -1.
       -1   -1    0    0    0  501  0.00000000000E+00  0.00000000000E+00 -0.18297063905E+04  0.18297063905E+04  0.50400001928E-02 0.  1.
    10030    2    1    2    0    0  0.00000000000E+00  0.00000000000E+00 -0.10466552580E+04  0.26127575231E+04  0.23939537684E+04 0.  0.
        4    1    3    3  502    0 -0.37770642085E+03  0.10847906427E+04 -0.89072414983E+03  0.14535556415E+04  0.12699999809E+01 0.  1.
       -4    1    3    3    0  502  0.37770642085E+03 -0.10847906427E+04 -0.15593110815E+03  0.11592018816E+04  0.12699999809E+01 0. -1.
</event>
<event>
 5   0  0.1174210E-05  0.2410873E+04  0.7818609E-02  0.8435444E-01
       -2   -1    0    0    0  501  0.00000000000E+00  0.00000000000E+00  0.11667310802E+04  0.11667310802E+04  0.25500000920E-02 0.  1.
        2   -1    0    0  501    0  0.00000000000E+00  0.00000000000E+00 -0.12454255452E+04  0.12454255452E+04  0.25500000920E-02 0. -1.
    10030    2    1    2    0    0  0.00000000000E+00  0.00000000000E+00 -0.78694464913E+02  0.24121566254E+04  0.24108726152E+04 0.  0.
        3    1    3    3  502    0  0.11025427084E+04  0.43522324435E+03 -0.25868302128E+03  0.12132339478E+04  0.10100000352E+00 0. -1.
       -3    1    3    3    0  502 -0.11025427084E+04 -0.43522324435E+03  0.17998855637E+03  0.11989226776E+04  0.10100000352E+00 0.  1.
</event>
<event>
 5   0  0.1169371E-05  0.2393938E+04  0.7818609E-02  0.8441776E-01
        2   -1    0    0  501    0  0.00000000000E+00  0.00000000000E+00  0.24363399517E+04  0.24363399517E+04  0.25500000920E-02 0. -1.
       -2   -1    0    0    0  501  0.00000000000E+00  0.00000000000E+00 -0.58806865482E+03  0.58806865483E+03  0.25500000920E-02 0.  1.
    10030    2    1    2    0    0  0.00000000000E+00  0.00000000000E+00  0.18482712968E+04  0.30244086065E+04  0.23939383100E+04 0.  0.
        2    1    3    3  502    0 -0.14380450298E+03 -0.87942618944E+03 -0.85498587933E+02  0.89519839493E+03  0.25500000920E-02 0.  1.
       -2    1    3    3    0  502  0.14380450298E+03  0.87942618944E+03  0.19337698848E+04  0.21292102116E+04  0.25500000920E-02 0. -1.
</event>
<event>
 5   0  0.5196696E-06  0.2236315E+04  0.7818609E-02  0.8503463E-01
        1   -1    0    0  501    0  0.00000000000E+00  0.00000000000E+00  0.13564973177E+04  0.13564973177E+04  0.50400001928E-02 0. -1.
       -1   -1    0    0    0  501  0.00000000000E+00  0.00000000000E+00 -0.92169478920E+03  0.92169478922E+03  0.50400001928E-02 0.  1.
    10030    2    1    2    0    0  0.00000000000E+00  0.00000000000E+00  0.43480252853E+03  0.22781921070E+04  0.22363152813E+04 0.  0.
        1    1    3    3  502    0 -0.58397928190E+03  0.54777261323E+03 -0.57772051342E+03  0.98734372391E+03  0.50400001928E-02 0.  1.
       -1    1    3    3    0  502  0.58397928190E+03 -0.54777261323E+03  0.10125230420E+04  0.12908483830E+04  0.50400001928E-02 0. -1.
</event>
<event>
 5   0  0.1168435E-05  0.2394412E+04  0.7818609E-02  0.8441598E-01
       -2   -1    0    0    0  501  0.00000000000E+00  0.00000000000E+00  0.11125227688E+04  0.11125227688E+04  0.25500000920E-02 0.  1.
        2   -1    0    0  501    0  0.00000000000E+00  0.00000000000E+00 -0.12883355750E+04  0.12883355750E+04  0.25500000920E-02 0. -1.
    10030    2    1    2    0    0  0.00000000000E+00  0.00000000000E+00 -0.17581280612E+03  0.24008583438E+04  0.23944123797E+04 0.  0.
        1    1    3    3  502    0  0.71675534033E+03 -0.80393743002E+03 -0.61204593790E+03  0.12388114624E+04  0.50400001928E-02 0. -1.
       -1    1    3    3    0  502 -0.71675534033E+03  0.80393743002E+03  0.43623313177E+03  0.11620468814E+04  0.50400001928E-02 0.  1.
</event>
<event>
 5   0  0.5064437E-06  0.2391310E+04  0.7818609E-02  0.8442764E-01
       -1   -1    0    0    0  501  0.00000000000E+00  0.00000000000E+00  0.14317122713E+04  0.14317122713E+04  0.50400001928E-02 0.  1.
        1   -1    0    0  501    0  0.00000000000E+00  0.00000000000E+00 -0.99851827233E+03  0.99851827234E+03  0.50400001928E-02 0. -1.
    10030    2    1    2    0    0  0.00000000000E+00  0.00000000000E+00  0.43319399896E+03  0.24302305436E+04  0.23913099871E+04 0.  0.
        2    1    3    3  502    0 -0.92290400881E+03 -0.15559176227E+03 -0.53957659202E+03  0.10803256475E+04  0.25500000920E-02 0. -1.
       -2    1    3    3    0  502  0.92290400881E+03  0.15559176227E+03  0.97277059098E+03  0.13499048961E+04  0.25500000920E-02 0.  1.
</event>
<event>
 5   0  0.1198313E-05  0.2402183E+04  0.7818609E-02  0.8438687E-01
       -2   -1    0    0    0  501  0.00000000000E+00  0.00000000000E+00  0.10509102162E+04  0.10509102162E+04  0.25500000920E-02 0. -1.
        2   -1    0    0  501    0  0.00000000000E+00  0.00000000000E+00 -0.13727346116E+04  0.13727346116E+04  0.25500000920E-02 0.  1.
    10030    2    1    2    0    0  0.00000000000E+00  0.00000000000E+00 -0.32182439547E+03  0.24236448278E+04  0.24021830301E+04 0.  0.
        5    1    3    3  502    0 -0.12623204469E+03 -0.51789462490E+03 -0.12468411449E+04  0.13560178104E+04  0.46999998093E+01 0.  1.
       -5    1    3    3    0  502  0.12623204469E+03  0.51789462490E+03  0.92501674941E+03  0.10676270174E+04  0.46999998093E+01 0. -1.
</event>
<event>
 5   0  0.5064437E-06  0.2398775E+04  0.7818609E-02  0.8439962E-01
        1   -1    0    0  501    0  0.00000000000E+00  0.00000000000E+00  0.22043217076E+04  0.22043217076E+04  0.50400001928E-02 0. -1.
       -1   -1    0    0    0  501  0.00000000000E+00  0.00000000000E+00 -0.65259525218E+03  0.65259525220E+03  0.50400001928E-02 0.  1.
    10030    2    1    2    0    0  0.00000000000E+00  0.00000000000E+00  0.15517264554E+04  0.28569169598E+04  0.23987745877E+04 0.  0.
        2    1    3    3  502    0 -0.53967778868E+02 -0.83044545598E+03  0.18045214494E+04  0.19871713157E+04  0.25500000920E-02 0. -1.
       -2    1    3    3    0  502  0.53967778868E+02  0.83044545598E+03 -0.25279499396E+03  0.86974564413E+03  0.25500000920E-02 0.  1.
</event>
<event>
 5   0  0.5104174E-06  0.2409674E+04  0.7818609E-02  0.8435891E-01
       -1   -1    0    0    0  501  0.00000000000E+00  0.00000000000E+00  0.12452338387E+04  0.12452338387E+04  0.50400001928E-02 0.  1.
        1   -1    0    0  501    0  0.00000000000E+00  0.00000000000E+00 -0.11657502606E+04  0.11657502607E+04  0.50400001928E-02 0. -1.
    10030    2    1    2    0    0  0.00000000000E+00  0.00000000000E+00  0.79483578090E+02  0.24109840994E+04  0.24096735647E+04 0.  0.
        3    1    3    3  502    0 -0.29386528845E+02 -0.96976393736E+03  0.75450136152E+03  0.12290557258E+04  0.10100000352E+00 0.  1.
       -3    1    3    3    0  502  0.29386528845E+02  0.96976393736E+03 -0.67501778343E+03  0.11819283736E+04  0.10100000352E+00 0. -1.
</event>
<event>
 5   0  0.5042742E-06  0.2388753E+04  0.7818609E-02  0.8443726E-01
       -1   -1    0    0    0  501  0.00000000000E+00  0.00000000000E+00  0.67279689292E+03  0.67279689293E+03  0.50400001928E-02 0. -1.
        1   -1    0    0  501    0  0.00000000000E+00  0.00000000000E+00 -0.21203066311E+04  0.21203066311E+04  0.50400001928E-02 0.  1.
    10030    2    1    2    0    0  0.00000000000E+00  0.00000000000E+00 -0.14475097381E+04  0.27931035240E+04  0.23887534100E+04 0.  0.
        5    1    3    3  502    0 -0.14062844812E+03 -0.11858882564E+04 -0.74732394317E+03  0.14087662983E+04  0.46999998093E+01 0. -1.
       -5    1    3    3    0  502  0.14062844812E+03  0.11858882564E+04 -0.70018579497E+03  0.13843372257E+04  0.46999998093E+01 0.  1.
</event>
<event>
 5   0  0.1168435E-05  0.2407036E+04  0.7818609E-02  0.8436874E-01
       -2   -1    0    0    0  501  0.00000000000E+00  0.00000000000E+00  0.14284319955E+04  0.14284319955E+04  0.25500000920E-02 0. -1.
        2   -1    0    0  501    0  0.00000000000E+00  0.00000000000E+00 -0.10140179066E+04  0.10140179066E+04  0.25500000920E-02 0.  1.
    10030    2    1    2    0    0  0.00000000000E+00  0.00000000000E+00  0.41441408892E+03  0.24424499022E+04  0.24070360378E+04 0.  0.
        1    1    3    3  502    0  0.10353832190E+03  0.68201136640E+03 -0.79350539139E+03  0.10514325914E+04  0.50400001928E-02 0.  1.
       -1    1    3    3    0  502 -0.10353832190E+03 -0.68201136640E+03  0.12079194803E+04  0.13910173108E+04  0.50400001928E-02 0. -1.
</event>
<event>
 5   0  0.5104174E-06  0.2401436E+04  0.7818609E-02  0.8438966E-01
       -1   -1    0    0    0  501  0.00000000000E+00  0.00000000000E+00  0.78280204391E+03  0.78280204393E+03  0.50400001928E-02 0.  1.
        1   -1    0    0  501    0  0.00000000000E+00  0.00000000000E+00 -0.18417476298E+04  0.18417476298E+04  0.50400001928E-02 0. -1.
    10030    2    1    2    0    0  0.00000000000E+00  0.00000000000E+00 -0.10589455859E+04  0.26245496737E+04  0.24014360778E+04 0.  0.
        3    1    3    3  502    0  0.61099180106E+03  0.56450165272E+03  0.41685633195E+03  0.93045274387E+03  0.10100000352E+00 0.  1.
       -3    1    3    3    0  502 -0.61099180106E+03 -0.56450165272E+03 -0.14758019178E+04  0.16940969298E+04  0.10100000352E+00 0. -1.
</event>
<event>
 5   0  0.1169371E-05  0.2393852E+04  0.7818609E-02  0.8441809E-01
       -2   -1    0    0    0  501  0.00000000000E+00  0.00000000000E+00  0.13830915189E+04  0.13830915189E+04  0.25500000920E-02 0. -1.
        2   -1    0    0  501    0  0.00000000000E+00  0.00000000000E+00 -0.10358183955E+04  0.10358183955E+04  0.25500000920E-02 0.  1.
    10030    2    1    2    0    0  0.00000000000E+00  0.00000000000E+00  0.34727312348E+03  0.24189099144E+04  0.23938518232E+04 0.  0.
        2    1    3    3  502    0 -0.90440412899E+03  0.39064516605E+03 -0.51324453189E+03  0.11108422137E+04  0.25500000920E-02 0.  1.
       -2    1    3    3    0  502  0.90440412899E+03 -0.39064516605E+03  0.86051765537E+03  0.13080677007E+04  0.25500000920E-02 0. -1.
</event>
<event>
 5   0  0.5034479E-06  0.2406483E+04  0.7818609E-02  0.8437080E-01
        1   -1    0    0  501    0  0.00000000000E+00  0.00000000000E+00  0.94392008619E+03  0.94392008621E+03  0.50400001928E-02 0.  1.
       -1   -1    0    0    0  501  0.00000000000E+00  0.00000000000E+00 -0.15338061092E+04  0.15338061092E+04  0.50400001928E-02 0. -1.
    10030    2    1    2    0    0  0.00000000000E+00  0.00000000000E+00 -0.58988602297E+03  0.24777261954E+04  0.24064832389E+04 0.  0.
        4    1    3    3  502    0  0.35474757422E+03  0.48151552810E+03  0.78003801691E+03  0.98293639974E+03  0.12699999809E+01 0.  1.
       -4    1    3    3    0  502 -0.35474757422E+03 -0.48151552810E+03 -0.13699240399E+04  0.14947897956E+04  0.12699999809E+01 0. -1.
</event>
<event>
 5   0  0.5042742E-06  0.2403380E+04  0.7818609E-02  0.8438239E-01
       -1   -1    0    0    0  501  0.00000000000E+00  0.00000000000E+00  0.10199667806E+04  0.10199667806E+04  0.50400001928E-02 0. -1.
        1   -1    0    0  501    0  0.00000000000E+00  0.00000000000E+00 -0.14157900447E+04  0.14157900447E+04  0.50400001928E-02 0.  1.
    10030    2    1    2    0    0  0.00000000000E+00  0.00000000000E+00 -0.39582326414E+03  0.24357568253E+04  0.24033799648E+04 0.  0.
        5    1    3    3  502    0  0.19037216186E+03  0.28928802771E+03  0.96828862009E+03  0.10283647528E+04  0.46999998093E+01 0. -1.
       -5    1    3    3    0  502 -0.19037216186E+03 -0.28928802771E+03 -0.13641118842E+04  0.14073920725E+04  0.46999998093E+01 0.  1.
</event>
<event>
 5   0  0.1198313E-05  0.2393781E+04  0.7818609E-02  0.8441836E-01
       -2   -1    0    0    0  501  0.00000000000E+00  0.00000000000E+00  0.58424116055E+03  0.58424116056E+03  0.25500000920E-02 0.  1.
        2   -1    0    0  501    0  0.00000000000E+00  0.00000000000E+00 -0.24519788012E+04  0.24519788012E+04  0.25500000920E-02 0. -1.
    10030    2    1    2    0    0  0.00000000000E+00  0.00000000000E+00 -0.18677376406E+04  0.30362199617E+04  0.23937810597E+04 0.  0.
        5    1    3    3  502    0 -0.30530704973E+03  0.85383611037E+03 -0.19247283161E+04  0.21276394617E+04  0.46999998093E+01 0. -1.
       -5    1    3    3    0  502  0.30530704973E+03 -0.85383611037E+03  0.56990675506E+02  0.90858050006E+03  0.46999998093E+01 0.  1.
</event>
<event>
 5   0  0.5042742E-06  0.2404957E+04  0.7818609E-02  0.8437650E-01
        1   -1    0    0  501    0  0.00000000000E+00  0.00000000000E+00  0.20253648945E+04  0.20253648945E+04  0.50400001928E-02 0.  1.
       -1   -1    0    0    0  501  0.00000000000E+00  0.00000000000E+00 -0.71392276068E+03  0.71392276069E+03  0.50400001928E-02 0. -1.
    10030    2    1    2    0    0  0.00000000000E+00  0.00000000000E+00  0.13114421339E+04  0.27392876552E+04  0.24049566291E+04 0.  0.
        5    1    3    3  502    0  0.12318237363E+01 -0.96305236863E+03 -0.16441947536E+03  0.97699909723E+03  0.46999998093E+01 0. -1.
       -5    1    3    3    0  502 -0.12318237363E+01  0.96305236863E+03  0.14758616092E+04  0.17622885580E+04  0.46999998093E+01 0.  1.
</event>
<event>
 5   0  0.5064437E-06  0.2405335E+04  0.7818609E-02  0.8437509E-01
        1   -1    0    0  501    0  0.00000000000E+00  0.00000000000E+00  0.14636577987E+04  0.14636577987E+04  0.50400001928E-02 0.  1.
       -1   -1    0    0    0  501  0.00000000000E+00  0.00000000000E+00 -0.98821561339E+03  0.98821561341E+03  0.50400001928E-02 0. -1.
    10030    2    1    2    0    0  0.00000000000E+00  0.00000000000E+00  0.47544218535E+03  0.24518734122E+04  0.24053353108E+04 0.  0.
        2    1    3    3  502    0 -0.11844780150E+04  0.10696444376E+03  0.42001038789E+03  0.12612843796E+04  0.25500000920E-02 0.  1.
       -2    1    3    3    0  502  0.11844780150E+04 -0.10696444376E+03  0.55431797451E+02  0.11905890326E+04  0.25500000920E-02 0. -1.
</event>
<event>
 5   0  0.1168435E-05  0.2398971E+04  0.7818609E-02  0.8439889E-01
       -2   -1    0    0    0  501  0.00000000000E+00  0.00000000000E+00  0.68364620753E+03  0.68364620754E+03  0.25500000920E-02 0.  1.
        2   -1    0    0  501    0  0.00000000000E+00  0.00000000000E+00 -0.21045467320E+04  0.21045467320E+04  0.25500000920E-02 0. -1.
    10030    2    1    2    0    0  0.00000000000E+00  0.00000000000E+00 -0.14209005245E+04  0.27881929396E+04  0.23989709393E+04 0.  0.
        1    1    3    3  502    0 -0.51462638270E+03 -0.13118489507E+03  0.53955296051E+03  0.75707805917E+03  0.50400001928E-02 0.  1.
       -1    1    3    3    0  502  0.51462638270E+03  0.13118489507E+03 -0.19604534850E+04  0.20311148804E+04  0.50400001928E-02 0. -1.
</event>
<event>
 5   0  0.5034479E-06  0.2406909E+04  0.7818609E-02  0.8436922E-01
        1   -1    0    0  501    0  0.00000000000E+00  0.00000000000E+00  0.14120409509E+04  0.14120409509E+04  0.50400001928E-02 0.  1.
       -1   -1    0    0    0  501  0.00000000000E+00  0.00000000000E+00 -0.10256800120E+04  0.10256800120E+04  0.50400001928E-02 0. -1.
    10030    2    1    2    0    0  0.00000000000E+00  0.00000000000E+00  0.38636093893E+03  0.24377209630E+04  0.24069085396E+04 0.  0.
        4    1    3    3  502    0 -0.98927328248E+03 -0.19138699836E+02 -0.50062389215E+03  0.11088975659E+04  0.12699999809E+01 0. -1.
       -4    1    3    3    0  502  0.98927328248E+03  0.19138699836E+02  0.88698483108E+03  0.13288233971E+04  0.12699999809E+01 0.  1.
</event>
<event>
 5   0  0.1168435E-05  0.2397440E+04  0.7818609E-02  0.8440463E-01
        2   -1    0    0  501    0  0.00000000000E+00  0.00000000000E+00  0.81950242392E+03  0.81950242392E+03  0.25500000920E-02 0.  1.
       -2   -1    0    0    0  501  0.00000000000E+00  0.00000000000E+00 -0.17534171534E+04  0.17534171534E+04  0.25500000920E-02 0. -1.
    10030    2    1    2    0    0  0.00000000000E+00  0.00000000000E+00 -0.93391472946E+03  0.25729195773E+04  0.23974399741E+04 0.  0.
        1    1    3    3  502    0 -0.10861865531E+03  0.62511931918E+03  0.62451762534E+03  0.89027773187E+03  0.50400001928E-02 0.  1.
       -1    1    3    3    0  502  0.10861865531E+03 -0.62511931918E+03 -0.15584323548E+04  0.16826418454E+04  0.50400001928E-02 0. -1.
</event>
<event>
 5   0  0.1168435E-05  0.2405281E+04  0.7818609E-02  0.8437529E-01
        2   -1    0    0  501    0  0.00000000000E+00  0.00000000000E+00  0.26398493280E+04  0.26398493280E+04  0.25500000920E-02 0.  1.
       -2   -1    0    0    0  501  0.00000000000E+00  0.00000000000E+00 -0.54788894551E+03  0.54788894552E+03  0.25500000920E-02 0. -1.
    10030    2    1    2    0    0  0.00000000000E+00  0.00000000000E+00  0.20919603824E+04  0.31877382735E+04  0.24052810768E+04 0.  0.
        1    1    3    3  502    0  0.17290976933E+03  0.11900603171E+04  0.10648591072E+04  0.16062584676E+04  0.50400001928E-02 0. -1.
       -1    1    3    3    0  502 -0.17290976933E+03 -0.11900603171E+04  0.10271012753E+04  0.15814798059E+04  0.50400001928E-02 0.  1.
</event>
<event>
 5   0  0.5034479E-06  0.2422241E+04  0.7818609E-02  0.8431223E-01
       -1   -1    0    0    0  501  0.00000000000E+00  0.00000000000E+00  0.11271835649E+04  0.11271835649E+04  0.50400001928E-02 0. -1.
        1   -1    0    0  501    0  0.00000000000E+00  0.00000000000E+00 -0.13013079917E+04  0.13013079917E+04  0.50400001928E-02 0.  1.
    10030    2    1    2    0    0  0.00000000000E+00  0.00000000000E+00 -0.17412442679E+03  0.24284915566E+04  0.24222410954E+04 0.  0.
        4    1    3    3  502    0 -0.38066652075E+03  0.90418329637E+03 -0.79907571344E+03  0.12652976101E+04  0.12699999809E+01 0.  1.
       -4    1    3    3    0  502  0.38066652075E+03 -0.90418329637E+03  0.62495128665E+03  0.11631939464E+04  0.12699999809E+01 0. -1.
</event>
<event>
 5   0  0.5104174E-06  0.2298540E+04  0.7818609E-02  0.8478497E-01
        1   -1    0    0  501    0  0.00000000000E+00  0.00000000000E+00  0.73259930468E+03  0.73259930470E+03  0.50400001928E-02 0.  1.
       -1   -1    0    0    0  501  0.00000000000E+00  0.00000000000E+00 -0.18029249192E+04  0.18029249192E+04  0.50400001928E-02 0. -1.
    10030    2    1    2    0    0  0.00000000000E+00  0.00000000000E+00 -0.10703256145E+04  0.25355242239E+04  0.22985400081E+04 0.  0.
        3    1    3    3  502    0 -0.37474939127E+03 -0.36434821089E+03 -0.16642322564E+04  0.17443783243E+04  0.10100000352E+00 0. -1.
       -3    1    3    3    0  502  0.37474939127E+03  0.36434821089E+03  0.59390664184E+03  0.79114589960E+03  0.10100000352E+00 0.  1.
</event>
<event>
 5   0  0.1154897E-05  0.2403631E+04  0.7818609E-02  0.8438145E-01
       -2   -1    0    0    0  501  0.00000000000E+00  0.00000000000E+00  0.17306708939E+04  0.17306708939E+04  0.25500000920E-02 0.  1.
        2   -1    0    0  501    0  0.00000000000E+00  0.00000000000E+00 -0.83456715376E+03  0.83456715376E+03  0.25500000920E-02 0. -1.
    10030    2    1    2    0    0  0.00000000000E+00  0.00000000000E+00  0.89610374010E+03  0.25652380476E+04  0.24036314875E+04 0.  0.
        4    1    3    3  502    0  0.62066111852E+02 -0.13251361258E+03 -0.82502378364E+03  0.83790089881E+03  0.12699999809E+01 0. -1.
       -4    1    3    3    0  502 -0.62066111852E+02  0.13251361258E+03  0.17211275237E+04  0.17273371488E+04  0.12699999809E+01 0.  1.
</event>
<event>
 5   0  0.5034479E-06  0.2306418E+04  0.7818609E-02  0.8475395E-01
       -1   -1    0    0    0  501  0.00000000000E+00  0.00000000000E+00  0.10385685063E+04  0.10385685063E+04  0.50400001928E-02 0. -1.
        1   -1    0    0  501    0  0.00000000000E+00  0.00000000000E+00 -0.12805037285E+04  0.12805037285E+04  0.50400001928E-02 0.  1.
    10030    2    1    2    0    0  0.00000000000E+00  0.00000000000E+00 -0.24193522223E+03  0.23190722348E+04  0.23064178673E+04 0.  0.
        4    1    3    3  502    0 -0.57723457029E+03 -0.59376859666E+03  0.68601185667E+03  0.10753486764E+04  0.12699999809E+01 0. -1.
       -4    1    3    3    0  502  0.57723457029E+03  0.59376859666E+03 -0.92794707890E+03  0.12437235584E+04  0.12699999809E+01 0.  1.
</event>
<event>
 5   0  0.5196696E-06  0.2429700E+04  0.7818609E-02  0.8428467E-01
       -1   -1    0    0    0  501  0.00000000000E+00  0.00000000000E+00  0.65779979211E+03  0.65779979213E+03  0.50400001928E-02 0. -1.
        1   -1    0    0  501    0  0.00000000000E+00  0.00000000000E+00 -0.22436325336E+04  0.22436325336E+04  0.50400001928E-02 0.  1.
    10030    2    1    2    0    0  0.00000000000E+00  0.00000000000E+00 -0.15858327415E+04  0.29014323258E+04  0.24297004048E+04 0.  0.
        1    1    3    3  502    0 -0.22825734088E+03 -0.15684336358E+03  0.61959961795E+03  0.67867882017E+03  0.50400001928E-02 0. -1.
       -1    1    3    3    0  502  0.22825734088E+03  0.15684336358E+03 -0.22054323595E+04  0.22227535056E+04  0.50400001928E-02 0.  1.
</event>
<event>
 5   0  0.5042742E-06  0.2400767E+04  0.7818609E-02  0.8439216E-01
        1   -1    0    0  501    0  0.00000000000E+00  0.00000000000E+00  0.10801524455E+04  0.10801524455E+04  0.50400001928E-02 0. -1.
       -1   -1    0    0    0  501  0.00000000000E+00  0.00000000000E+00 -0.13339974120E+04  0.13339974120E+04  0.50400001928E-02 0.  1.
    10030    2    1    2    0    0  0.00000000000E+00  0.00000000000E+00 -0.25384496650E+03  0.24141498575E+04  0.24007670164E+04 0.  0.
        5    1    3    3  502    0  0.46290088894E+03  0.10020102902E+04  0.34750899273E+03  0.11571890272E+04  0.46999998093E+01 0. -1.
       -5    1    3    3    0  502 -0.46290088894E+03 -0.10020102902E+04 -0.60135395923E+03  0.12569608303E+04  0.46999998093E+01 0.  1.
</event>
<event>
 5   0  0.1154897E-05  0.2395842E+04  0.7818609E-02  0.8441062E-01
       -2   -1    0    0    0  501  0.00000000000E+00  0.00000000000E+00  0.83382541939E+03  0.83382541939E+03  0.25500000920E-02 0. -1.
        2   -1    0    0  501    0  0.00000000000E+00  0.00000000000E+00 -0.17210008267E+04  0.17210008267E+04  0.25500000920E-02 0.  1.
    10030    2    1    2    0    0  0.00000000000E+00  0.00000000000E+00 -0.88717540728E+03  0.25548262461E+04  0.23958415942E+04 0.  0.
        4    1    3    3  502    0 -0.11296775401E+04 -0.39829996444E+03 -0.42856692302E+03  0.12721970864E+04  0.12699999809E+01 0.  1.
       -4    1    3    3    0  502  0.11296775401E+04  0.39829996444E+03 -0.45860848427E+03  0.12826291596E+04  0.12699999809E+01 0. -1.
</event>
<event>
 5   0  0.1169371E-05  0.2412023E+04  0.7818609E-02  0.8435016E-01
        2   -1    0    0  501    0  0.00000000000E+00  0.00000000000E+00  0.21554392489E+04  0.21554392489E+04  0.25500000920E-02 0.  1.
       -2   -1    0    0    0  501  0.00000000000E+00  0.00000000000E+00 -0.67478738932E+03  0.67478738933E+03  0.25500000920E-02 0. -1.
    10030    2    1    2    0    0  0.00000000000E+00  0.00000000000E+00  0.14806518596E+04  0.28302266383E+04  0.24120225734E+04 0.  0.
        2    1    3    3  502    0 -0.55753330272E+03  0.79029808433E+03  0.15856902868E+04  0.18573712960E+04  0.25500000920E-02 0.  1.
       -2    1    3    3    0  502  0.55753330272E+03 -0.79029808433E+03 -0.10503842715E+03  0.97285534224E+03  0.25500000920E-02 0. -1.
</event>
<event>
 5   0  0.5042742E-06  0.2395522E+04  0.7818609E-02  0.8441182E-01
       -1   -1    0    0    0  501  0.00000000000E+00  0.00000000000E+00  0.11909958472E+04  0.11909958472E+04  0.50400001928E-02 0.  1.
        1   -1    0    0  501    0  0.00000000000E+00  0.00000000000E+00 -0.12045640973E+04  0.12045640973E+04  0.50400001928E-02 0. -1.
    10030    2    1    2    0    0  0.00000000000E+00  0.00000000000E+00 -0.13568250166E+02  0.23955599445E+04  0.23955215195E+04 0.  0.
        5    1    3    3  502    0 -0.50657013322E+03 -0.55656999964E+03 -0.93858514287E+03  0.12030576149E+04  0.46999998093E+01 0. -1.
       -5    1    3    3    0  502  0.50657013322E+03  0.55656999964E+03  0.92501689271E+03  0.11925023296E+04  0.46999998093E+01 0.  1.
</event>
<event>
 5   0  0.5196696E-06  0.2387113E+04  0.7818609E-02  0.8444344E-01
        1   -1    0    0  501    0  0.00000000000E+00  0.00000000000E+00  0.19534752932E+04  0.19534752932E+04  0.50400001928E-02 0. -1.
       -1   -1    0    0    0  501  0.00000000000E+00  0.00000000000E+00 -0.72925292954E+03  0.72925292956E+03  0.50400001928E-02 0.  1.
    10030    2    1    2    0    0  0.00000000000E+00  0.00000000000E+00  0.12242223636E+04  0.26827282227E+04  0.23871133868E+04 0.  0.
        1    1    3    3  502    0 -0.57654730633E+03 -0.16755895767E+02  0.17864490860E+04  0.18772554151E+04  0.50400001928E-02 0. -1.
       -1    1    3    3    0  502  0.57654730633E+03  0.16755895767E+02 -0.56222672239E+03  0.80547280765E+03  0.50400001928E-02 0.  1.
</event>
<event>
 5   0  0.1174210E-05  0.2408300E+04  0.7818609E-02  0.8436403E-01
        2   -1    0    0  501    0  0.00000000000E+00  0.00000000000E+00  0.11304141715E+04  0.11304141715E+04  0.25500000920E-02 0. -1.
       -2   -1    0    0    0  501  0.00000000000E+00  0.00000000000E+00 -0.12826959823E+04  0.12826959823E+04  0.25500000920E-02 0.  1.
    10030    2    1    2    0    0  0.00000000000E+00  0.00000000000E+00 -0.15228181083E+03  0.24131101539E+04  0.24083004100E+04 0.  0.
        3    1    3    3  502    0 -0.13548654876E+03  0.11952967122E+04 -0.12997782073E+03  0.12099525111E+04  0.10100000352E+00 0.  1.
       -3    1    3    3    0  502  0.13548654876E+03 -0.11952967122E+04 -0.22303990092E+02  0.12031576427E+04  0.10100000352E+00 0. -1.
</event>
<event>
 5   0  0.1154897E-05  0.2400471E+04  0.7818609E-02  0.8439327E-01
       -2   -1    0    0    0  501  0.00000000000E+00  0.00000000000E+00  0.91617414354E+03  0.91617414354E+03  0.25500000920E-02 0.  1.
        2   -1    0    0  501    0  0.00000000000E+00  0.00000000000E+00 -0.15723700205E+04  0.15723700205E+04  0.25500000920E-02 0. -1.
    10030    2    1    2    0    0  0.00000000000E+00  0.00000000000E+00 -0.65619587694E+03  0.24885441640E+04  0.24004705846E+04 0.  0.
        4    1    3    3  502    0 -0.11076354425E+04 -0.27576316620E+03 -0.71273868265E+03  0.13456967118E+04  0.12699999809E+01 0. -1.
       -4    1    3    3    0  502  0.11076354425E+04  0.27576316620E+03  0.56542805708E+02  0.11428474523E+04  0.12699999809E+01 0.  1.
</event>
<event>
 5   0  0.1154897E-05  0.2397139E+04  0.7818609E-02  0.8440575E-01
       -2   -1    0    0    0  501  0.00000000000E+00  0.00000000000E+00  0.59866604441E+03  0.59866604441E+03  0.25500000920E-02 0. -1.
        2   -1    0    0  501    0  0.00000000000E+00  0.00000000000E+00 -0.23996170958E+04  0.23996170958E+04  0.25500000920E-02 0.  1.
    10030    2    1    2    0    0  0.00000000000E+00  0.00000000000E+00 -0.18009510514E+04  0.29982831402E+04  0.23971393575E+04 0.  0.
        4    1    3    3  502    0  0.87753707752E+02  0.10707597989E+04 -0.23586705170E+03  0.10999373342E+04  0.12699999809E+01 0. -1.
       -4    1    3    3    0  502 -0.87753707752E+02 -0.10707597989E+04 -0.15650839997E+04  0.18983458060E+04  0.12699999809E+01 0.  1.
</event>
<event>
 5   0  0.5104174E-06  0.2399207E+04  0.7818609E-02  0.8439800E-01
        1   -1    0    0  501    0  0.00000000000E+00  0.00000000000E+00  0.19864940495E+04  0.19864940495E+04  0.50400001928E-02 0. -1.
       -1   -1    0    0    0  501  0.00000000000E+00  0.00000000000E+00 -0.72441627834E+03  0.72441627836E+03  0.50400001928E-02 0.  1.
    10030    2    1    2    0    0  0.00000000000E+00  0.00000000000E+00  0.12620777711E+04  0.27109103278E+04  0.23992070576E+04 0.  0.
        3    1    3    3  502    0  0.37574084625E+03 -0.58318699026E+03  0.17368370192E+04  0.18702649787E+04  0.10100000352E+00 0. -1.
       -3    1    3    3    0  502 -0.37574084625E+03  0.58318699026E+03 -0.47475924808E+03  0.84064534911E+03  0.10100000352E+00 0.  1.
</event>
<event>
 5   0  0.5104174E-06  0.2372004E+04  0.7818609E-02  0.8450060E-01
       -1   -1    0    0    0  501  0.00000000000E+00  0.00000000000E+00  0.92744864498E+03  0.92744864499E+03  0.50400001928E-02 0. -1.
        1   -1    0    0  501    0  0.00000000000E+00  0.00000000000E+00 -0.15166352031E+04  0.15166352031E+04  0.50400001928E-02 0.  1.
    10030    2    1    2    0    0  0.00000000000E+00  0.00000000000E+00 -0.58918655814E+03  0.24440838481E+04  0.23720044385E+04 0.  0.
        3    1    3    3  502    0 -0.86171710830E+03  0.40782329025E+03  0.43234133690E+03  0.10468023942E+04  0.10100000352E+00 0. -1.
       -3    1    3    3    0  502  0.86171710830E+03 -0.40782329025E+03 -0.10215278950E+04  0.13972814539E+04  0.10100000352E+00 0.  1.
</event>
<event>
 5   0  0.5196696E-06  0.2424900E+04  0.7818609E-02  0.8430240E-01
       -1   -1    0    0    0  501  0.00000000000E+00  0.00000000000E+00  0.10541569244E+04  0.10541569244E+04  0.50400001928E-02 0. -1.
        1   -1    0    0  501    0  0.00000000000E+00  0.00000000000E+00 -0.13945129246E+04  0.13945129246E+04  0.50400001928E-02 0.  1.
    10030    2    1    2    0    0  0.00000000000E+00  0.00000000000E+00 -0.34035600021E+03  0.24486698490E+04  0.24249003738E+04 0.  0.
        1    1    3    3  502    0 -0.56920890476E+01 -0.15992193019E+03  0.10434463663E+04  0.10556456522E+04  0.50400001928E-02 0. -1.
       -1    1    3    3    0  502  0.56920890476E+01  0.15992193019E+03 -0.13838023665E+04  0.13930241969E+04  0.50400001928E-02 0.  1.
</event>
<event>
 5   0  0.5064437E-06  0.2422093E+04  0.7818609E-02  0.8431278E-01
       -1   -1    0    0    0  501  0.00000000000E+00  0.00000000000E+00  0.85864481449E+03  0.85864481451E+03  0.50400001928E-02 0.  1.
        1   -1    0    0  501    0  0.00000000000E+00  0.00000000000E+00 -0.17080794872E+04  0.17080794872E+04  0.50400001928E-02 0. -1.
    10030    2    1    2    0    0  0.00000000000E+00  0.00000000000E+00 -0.84943467273E+03  0.25667243017E+04  0.24220929747E+04 0.  0.
        2    1    3    3  502    0  0.52708583976E+03 -0.73171177775E+03  0.43189033818E+03  0.99987542844E+03  0.25500000920E-02 0.  1.
       -2    1    3    3    0  502 -0.52708583976E+03  0.73171177775E+03 -0.12813250109E+04  0.15668488733E+04  0.25500000920E-02 0. -1.
</event>
<event>
 5   0  0.1174210E-05  0.2400505E+04  0.7818609E-02  0.8439315E-01
        2   -1    0    0  501    0  0.00000000000E+00  0.00000000000E+00  0.21216832822E+04  0.21216832822E+04  0.25500000920E-02 0.  1.
       -2   -1    0    0    0  501  0.00000000000E+00  0.00000000000E+00 -0.67899193269E+03  0.67899193269E+03  0.25500000920E-02 0. -1.
    10030    2    1    2    0    0  0.00000000000E+00  0.00000000000E+00  0.14426913495E+04  0.28006752149E+04  0.24005048072E+04 0.  0.
        3    1    3    3  502    0 -0.14706958986E+03 -0.82414517804E+03 -0.28212782604E+03  0.88342563873E+03  0.10100000352E+00 0. -1.
       -3    1    3    3    0  502  0.14706958986E+03  0.82414517804E+03  0.17248191756E+04  0.19172495762E+04  0.10100000352E+00 0.  1.
</event>
<event>
 5   0  0.1174210E-05  0.2399983E+04  0.7818609E-02  0.8439510E-01
        2   -1    0    0  501    0  0.00000000000E+00  0.00000000000E+00  0.24546635816E+04  0.24546635816E+04  0.25500000920E-02 0. -1.
       -2   -1    0    0    0  501  0.00000000000E+00  0.00000000000E+00 -0.58663032753E+03  0.58663032753E+03  0.25500000920E-02 0.  1.
    10030    2    1    2    0    0  0.00000000000E+00  0.00000000000E+00  0.18680332541E+04  0.30412939091E+04  0.23999834173E+04 0.  0.
        3    1    3    3  502    0 -0.66012010146E+03  0.30775264206E+03  0.21425366645E+04  0.22629479901E+04  0.10100000352E+00 0. -1.
       -3    1    3    3    0  502  0.66012010146E+03 -0.30775264206E+03 -0.27450341046E+03  0.77834591899E+03  0.10100000352E+00 0.  1.
</event>
<event>
 5   0  0.5104174E-06  0.2395581E+04  0.7818609E-02  0.8441160E-01
       -1   -1    0    0    0  501  0.00000000000E+00  0.00000000000E+00  0.60416030894E+03  0.60416030896E+03  0.50400001928E-02 0. -1.
        1   -1    0    0  501    0  0.00000000000E+00  0.00000000000E+00 -0.23747037886E+04  0.23747037886E+04  0.50400001928E-02 0.  1.
    10030    2    1    2    0    0  0.00000000000E+00  0.00000000000E+00 -0.17705434796E+04  0.29788640975E+04  0.23955807434E+04 0.  0.
        3    1    3    3  502    0  0.96527725163E+02 -0.84486253374E+03 -0.19342228356E+04  0.21128957122E+04  0.10100000352E+00 0.  1.
       -3    1    3    3    0  502 -0.96527725163E+02  0.84486253374E+03  0.16367935597E+03  0.86596838535E+03  0.10100000352E+00 0. -1.
</event>
<event>
 5   0  0.1169371E-05  0.2395727E+04  0.7818609E-02  0.8441105E-01
        2   -1    0    0  501    0  0.00000000000E+00  0.00000000000E+00  0.14483724763E+04  0.14483724763E+04  0.25500000920E-02 0.  1.
       -2   -1    0    0    0  501  0.00000000000E+00  0.00000000000E+00 -0.99068230932E+03  0.99068230932E+03  0.25500000920E-02 0. -1.
    10030    2    1    2    0    0  0.00000000000E+00  0.00000000000E+00  0.45769016703E+03  0.24390547857E+04  0.23957270209E+04 0.  0.
        2    1    3    3  502    0 -0.58456413793E+03 -0.76605832413E+03 -0.49558290760E+03  0.10835880239E+04  0.25500000920E-02 0. -1.
       -2    1    3    3    0  502  0.58456413793E+03  0.76605832413E+03  0.95327307463E+03  0.13554667617E+04  0.25500000920E-02 0.  1.
</event>
<event>
 5   0  0.1168435E-05  0.2446598E+04  0.7818609E-02  0.8422261E-01
       -2   -1    0    0    0  501  0.00000000000E+00  0.00000000000E+00  0.65032725382E+03  0.65032725382E+03  0.25500000920E-02 0.  1.
        2   -1    0    0  501    0  0.00000000000E+00  0.00000000000E+00 -0.23010877125E+04  0.23010877125E+04  0.25500000920E-02 0. -1.
    10030    2    1    2    0    0  0.00000000000E+00  0.00000000000E+00 -0.16507604587E+04  0.29514149663E+04  0.24465976808E+04 0.  0.
        1    1    3    3  502    0  0.64875204991E+03 -0.74125669656E+03  0.49623389091E+02  0.98630785925E+03  0.50400001928E-02 0.  1.
       -1    1    3    3    0  502 -0.64875204991E+03  0.74125669656E+03 -0.17003838478E+04  0.19651071071E+04  0.50400001928E-02 0. -1.
</event>
<event>
 5   0  0.1154897E-05  0.2389080E+04  0.7818609E-02  0.8443603E-01
        2   -1    0    0  501    0  0.00000000000E+00  0.00000000000E+00  0.12892298811E+04  0.12892298811E+04  0.25500000920E-02 0. -1.
       -2   -1    0    0    0  501  0.00000000000E+00  0.00000000000E+00 -0.11068049591E+04  0.11068049592E+04  0.25500000920E-02 0.  1.
    10030    2    1    2    0    0  0.00000000000E+00  0.00000000000E+00  0.18242492191E+03  0.23960348402E+04  0.23890801794E+04 0.  0.
        4    1    3    3  502    0 -0.61614637403E+03  0.10077446137E+04  0.26988508382E+03  0.12116208697E+04  0.12699999809E+01 0.  1.
       -4    1    3    3    0  502  0.61614637403E+03 -0.10077446137E+04 -0.87460161911E+02  0.11844139705E+04  0.12699999809E+01 0. -1.
</event>
<event>
 5   0  0.5042742E-06  0.2403059E+04  0.7818609E-02  0.8438359E-01
        1   -1    0    0  501    0  0.00000000000E+00  0.00000000000E+00  0.14120739232E+04  0.14120739233E+04  0.50400001928E-02 0.  1.
       -1   -1    0    0    0  501  0.00000000000E+00  0.00000000000E+00 -0.10223775384E+04  0.10223775384E+04  0.50400001928E-02 0. -1.
    10030    2    1    2    0    0  0.00000000000E+00  0.00000000000E+00  0.38969638483E+03  0.24344514617E+04  0.24030586025E+04 0.  0.
        5    1    3    3  502    0 -0.11696869520E+04 -0.26214391952E+03  0.27816350052E+03  0.12305624824E+04  0.46999998093E+01 0.  1.
       -5    1    3    3    0  502  0.11696869520E+04  0.26214391952E+03  0.11153288431E+03  0.12038889793E+04  0.46999998093E+01 0. -1.
</event>
<event>
 5   0  0.1168435E-05  0.2412446E+04  0.7818609E-02  0.8434859E-01
       -2   -1    0    0    0  501  0.00000000000E+00  0.00000000000E+00  0.15226935916E+04  0.15226935916E+04  0.25500000920E-02 0.  1.
        2   -1    0    0  501    0  0.00000000000E+00  0.00000000000E+00 -0.95552601496E+03  0.95552601496E+03  0.25500000920E-02 0. -1.
    10030    2    1    2    0    0  0.00000000000E+00  0.00000000000E+00  0.56716757668E+03  0.24782196066E+04  0.24124455141E+04 0.  0.
        1    1    3    3  502    0 -0.53350101010E+03 -0.10641398996E+04  0.48371928811E+03  0.12849129945E+04  0.50400001928E-02 0.  1.
       -1    1    3    3    0  502  0.53350101010E+03  0.10641398996E+04  0.83448288571E+02  0.11933066121E+04  0.50400001928E-02 0. -1.
</event>
<event>
 5   0  0.1174210E-05  0.2397875E+04  0.7818609E-02  0.8440300E-01
       -2   -1    0    0    0  501  0.00000000000E+00  0.00000000000E+00  0.91148346531E+03  0.91148346532E+03  0.25500000920E-02 0. -1.
        2   -1    0    0  501    0  0.00000000000E+00  0.00000000000E+00 -0.15770454736E+04  0.15770454736E+04  0.25500000920E-02 0.  1.
    10030    2    1    2    0    0  0.00000000000E+00  0.00000000000E+00 -0.66556200828E+03  0.24885289389E+04  0.23978747867E+04 0.  0.
        3    1    3    3  502    0  0.76329655606E+03  0.83909332291E+03 -0.73572732695E+03  0.13520332640E+04  0.10100000352E+00 0.  1.
       -3    1    3    3    0  502 -0.76329655606E+03 -0.83909332291E+03  0.70165318667E+02  0.11364956750E+04  0.10100000352E+00 0. -1.
</event>
<event>
 5   0  0.5034479E-06  0.2407848E+04  0.7818609E-02  0.8436571E-01
        1   -1    0    0  501    0  0.00000000000E+00  0.00000000000E+00  0.13459840055E+04  0.13459840055E+04  0.50400001928E-02 0.  1.
       -1   -1    0    0    0  501  0.00000000000E+00  0.00000000000E+00 -0.10768578768E+04  0.10768578768E+04  0.50400001928E-02 0. -1.
    10030    2    1    2    0    0  0.00000000000E+00  0.00000000000E+00  0.26912612874E+03  0.24228418823E+04  0.24078483992E+04 0.  0.
        4    1    3    3  502    0  0.67934786275E+03 -0.52553501974E+03  0.98345803832E+03  0.13057150921E+04  0.12699999809E+01 0. -1.
       -4    1    3    3    0  502 -0.67934786275E+03  0.52553501974E+03 -0.71433190958E+03  0.11171267903E+04  0.12699999809E+01 0.  1.
</event>
<event>
 5   0  0.1198313E-05  0.2452114E+04  0.7818609E-02  0.8420246E-01
        2   -1    0    0  501    0  0.00000000000E+00  0.00000000000E+00  0.17827192938E+04  0.17827192938E+04  0.25500000920E-02 0. -1.
       -2   -1    0    0    0  501  0.00000000000E+00  0.00000000000E+00 -0.84321537355E+03  0.84321537356E+03  0.25500000920E-02 0.  1.
    10030    2    1    2    0    0  0.00000000000E+00  0.00000000000E+00  0.93950392021E+03  0.26259346673E+04  0.24521144470E+04 0.  0.
        5    1    3    3  502    0  0.22883413718E+03  0.11765168217E+04  0.19331126373E+03  0.12140626956E+04  0.46999998093E+01 0.  1.
       -5    1    3    3    0  502 -0.22883413718E+03 -0.11765168217E+04  0.74619265647E+03  0.14118719718E+04  0.46999998093E+01 0. -1.
</event>
<event>
 5   0  0.1169371E-05  0.2391143E+04  0.7818609E-02  0.8442827E-01
       -2   -1    0    0    0  501  0.00000000000E+00  0.00000000000E+00  0.61760156957E+03  0.61760156958E+03  0.25500000920E-02 0.  1.
        2   -1    0    0  501    0  0.00000000000E+00  0.00000000000E+00 -0.23144230023E+04  0.23144230023E+04  0.25500000920E-02 0. -1.
    10030    2    1    2    0    0  0.00000000000E+00  0.00000000000E+00 -0.16968214327E+04  0.29320245718E+04  0.23911430562E+04 0.  0.
        2    1    3    3  502    0  0.82607110623E+03 -0.77593741382E+03 -0.13152040170E+04  0.17361549324E+04  0.25500000920E-02 0. -1.
       -2    1    3    3    0  502 -0.82607110623E+03  0.77593741382E+03 -0.38161741566E+03  0.11958696395E+04  0.25500000920E-02 0.  1.
</event>
<event>
 5   0  0.1169371E-05  0.2386467E+04  0.7818609E-02  0.8444588E-01
        2   -1    0    0  501    0  0.00000000000E+00  0.00000000000E+00  0.12198873444E+04  0.12198873444E+04  0.25500000920E-02 0. -1.
       -2   -1    0    0    0  501  0.00000000000E+00  0.00000000000E+00 -0.11671620944E+04  0.11671620944E+04  0.25500000920E-02 0.  1.
    10030    2    1    2    0    0  0.00000000000E+00  0.00000000000E+00  0.52725249949E+02  0.23870494388E+04  0.23864670690E+04 0.  0.
        2    1    3    3  502    0 -0.44037251209E+03 -0.53740983893E+03 -0.94396120644E+03  0.11720921652E+04  0.25500000920E-02 0.  1.
       -2    1    3    3    0  502  0.44037251209E+03  0.53740983893E+03  0.99668645639E+03  0.12149572736E+04  0.25500000920E-02 0. -1.
</event>
<event>
 5   0  0.5104174E-06  0.2393205E+04  0.7818609E-02  0.8442052E-01
        1   -1    0    0  501    0  0.00000000000E+00  0.00000000000E+00  0.18704985166E+04  0.18704985166E+04  0.50400001928E-02 0. -1.
       -1   -1    0    0    0  501  0.00000000000E+00  0.00000000000E+00 -0.76549511745E+03  0.76549511747E+03  0.50400001928E-02 0.  1.
    10030    2    1    2    0    0  0.00000000000E+00  0.00000000000E+00  0.11050033991E+04  0.26359936340E+04  0.23932049487E+04 0.  0.
        3    1    3    3  502    0  0.93235932792E+02 -0.11889511313E+04  0.44480869456E+03  0.12728521190E+04  0.10100000352E+00 0. -1.
       -3    1    3    3    0  502 -0.93235932792E+02  0.11889511313E+04  0.66019470455E+03  0.13631415150E+04  0.10100000352E+00 0.  1.
</event>
<event>
 5   0  0.5064437E-06  0.2359671E+04  0.7818609E-02  0.8454758E-01
       -1   -1    0    0    0  501  0.00000000000E+00  0.00000000000E+00  0.65452122320E+03  0.65452122322E+03  0.50400001928E-02 0. -1.
        1   -1    0    0  501    0  0.00000000000E+00  0.00000000000E+00 -0.21267631565E+04  0.21267631565E+04  0.50400001928E-02 0.  1.
    10030    2    1    2    0    0  0.00000000000E+00  0.00000000000E+00 -0.14722419333E+04  0.27812843797E+04  0.23596708437E+04 0.  0.
        2    1    3    3  502    0 -0.99533085661E+03  0.55342041458E+03 -0.37272587064E+03  0.11982830400E+04  0.25500000920E-02 0. -1.
       -2    1    3    3    0  502  0.99533085661E+03 -0.55342041458E+03 -0.10995160626E+04  0.15830013397E+04  0.25500000920E-02 0.  1.
</event>
<event>
 5   0  0.1168435E-05  0.2406235E+04  0.7818609E-02  0.8437173E-01
       -2   -1    0    0    0  501  0.00000000000E+00  0.00000000000E+00  0.95661185216E+03  0.95661185216E+03  0.25500000920E-02 0. -1.
        2   -1    0    0  501    0  0.00000000000E+00  0.00000000000E+00 -0.15131443455E+04  0.15131443455E+04  0.25500000920E-02 0.  1.
    10030    2    1    2    0    0  0.00000000000E+00  0.00000000000E+00 -0.55653249339E+03  0.24697561977E+04  0.24062350799E+04 0.  0.
        1    1    3    3  502    0  0.44296218905E+03  0.12083981921E+03  0.86314896003E+03  0.97767269066E+03  0.50400001928E-02 0. -1.
       -1    1    3    3    0  502 -0.44296218905E+03 -0.12083981921E+03 -0.14196814534E+04  0.14920835071E+04  0.50400001928E-02 0.  1.
</event>
<event>
 5   0  0.5064437E-06  0.2398253E+04  0.7818609E-02  0.8440158E-01
       -1   -1    0    0    0  501  0.00000000000E+00  0.00000000000E+00  0.12311350075E+04  0.12311350075E+04  0.50400001928E-02 0. -1.
        1   -1    0    0  501    0  0.00000000000E+00  0.00000000000E+00 -0.11679501856E+04  0.11679501856E+04  0.50400001928E-02 0.  1.
    10030    2    1    2    0    0  0.00000000000E+00  0.00000000000E+00  0.63184821946E+02  0.23990851931E+04  0.23982529979E+04 0.  0.
        2    1    3    3  502    0 -0.18641907816E+03  0.11442481352E+04  0.33804572728E+03  0.12076136723E+04  0.25500000920E-02 0. -1.
       -2    1    3    3    0  502  0.18641907816E+03 -0.11442481352E+04 -0.27486090534E+03  0.11914715208E+04  0.25500000920E-02 0.  1.
</event>
<event>
 5   0  0.5042742E-06  0.2375740E+04  0.7818609E-02  0.8448642E-01
        1   -1    0    0  501    0  0.00000000000E+00  0.00000000000E+00  0.10980726199E+04  0.10980726199E+04  0.50400001928E-02 0.  1.
       -1   -1    0    0    0  501  0.00000000000E+00  0.00000000000E+00 -0.12850107943E+04  0.12850107943E+04  0.50400001928E-02 0. -1.
    10030    2    1    2    0    0  0.00000000000E+00  0.00000000000E+00 -0.18693817442E+03  0.23830834142E+04  0.23757400274E+04 0.  0.
        5    1    3    3  502    0  0.11922954147E+03 -0.30121850562E+03 -0.12398334929E+04  0.12814669141E+04  0.46999998093E+01 0. -1.
       -5    1    3    3    0  502 -0.11922954147E+03  0.30121850562E+03  0.10528953185E+04  0.11016165001E+04  0.46999998093E+01 0.  1.
</event>
<event>
 5   0  0.1198313E-05  0.2396650E+04  0.7818609E-02  0.8440759E-01
       -2   -1    0    0    0  501  0.00000000000E+00  0.00000000000E+00  0.97142031947E+03  0.97142031947E+03  0.25500000920E-02 0.  1.
        2   -1    0    0  501    0  0.00000000000E+00  0.00000000000E+00 -0.14782303340E+04  0.14782303340E+04  0.25500000920E-02 0. -1.
    10030    2    1    2    0    0  0.00000000000E+00  0.00000000000E+00 -0.50681001453E+03  0.24496506535E+04  0.23966501483E+04 0.  0.
        5    1    3    3  502    0 -0.62356487126E+03 -0.10186115625E+04 -0.35333324716E+03  0.12454995533E+04  0.46999998093E+01 0.  1.
       -5    1    3    3    0  502  0.62356487126E+03  0.10186115625E+04 -0.15347676737E+03  0.12041511001E+04  0.46999998093E+01 0. -1.
</event>
<event>
 5   0  0.5064437E-06  0.2403078E+04  0.7818609E-02  0.8438352E-01
       -1   -1    0    0    0  501  0.00000000000E+00  0.00000000000E+00  0.95549062646E+03  0.95549062647E+03  0.50400001928E-02 0. -1.
        1   -1    0    0  501    0  0.00000000000E+00  0.00000000000E+00 -0.15109475321E+04  0.15109475321E+04  0.50400001928E-02 0.  1.
    10030    2    1    2    0    0  0.00000000000E+00  0.00000000000E+00 -0.55545690563E+03  0.24664381586E+04  0.24030781960E+04 0.  0.
        2    1    3    3  502    0  0.10115704370E+04  0.18347213428E+03  0.36056851911E+03  0.10894707110E+04  0.25500000920E-02 0. -1.
       -2    1    3    3    0  502 -0.10115704370E+04 -0.18347213428E+03 -0.91602542474E+03  0.13769674476E+04  0.25500000920E-02 0.  1.
</event>
<event>
 5   0  0.5104174E-06  0.2342046E+04  0.7818609E-02  0.8461525E-01
       -1   -1    0    0    0  501  0.00000000000E+00  0.00000000000E+00  0.12266567314E+04  0.12266567314E+04  0.50400001928E-02 0.  1.
        1   -1    0    0  501    0  0.00000000000E+00  0.00000000000E+00 -0.11179129237E+04  0.11179129237E+04  0.50400001928E-02 0. -1.
    10030    2    1    2    0    0  0.00000000000E+00  0.00000000000E+00  0.10874380770E+03  0.23445696551E+04  0.23420464666E+04 0.  0.
        3    1    3    3  502    0  0.31611069399E+03 -0.11263211280E+04  0.16830002662E+01  0.11698410563E+04  0.10100000352E+00 0.  1.
       -3    1    3    3    0  502 -0.31611069399E+03  0.11263211280E+04  0.10706080744E+03  0.11747285988E+04  0.10100000352E+00 0. -1.
</event>
<event>
 5   0  0.5042742E-06  0.2409823E+04  0.7818609E-02  0.8435835E-01
        1   -1    0    0  501    0  0.00000000000E+00  0.00000000000E+00  0.18656021972E+04  0.18656021972E+04  0.50400001928E-02 0. -1.
       -1   -1    0    0    0  501  0.00000000000E+00  0.00000000000E+00 -0.77820014004E+03  0.77820014006E+03  0.50400001928E-02 0.  1.
    10030    2    1    2    0    0  0.00000000000E+00  0.00000000000E+00  0.10874020571E+04  0.26438023373E+04  0.24098231397E+04 0.  0.
        5    1    3    3  502    0 -0.29516539530E+03 -0.68616235452E+02  0.18231021295E+04  0.18481218204E+04  0.46999998093E+01 0. -1.
       -5    1    3    3    0  502  0.29516539530E+03  0.68616235452E+02 -0.73570007240E+03  0.79568051684E+03  0.46999998093E+01 0.  1.
</event>
<event>
 5   0  0.1169371E-05  0.2416340E+04  0.7818609E-02  0.8433411E-01
       -2   -1    0    0    0  501  0.00000000000E+00  0.00000000000E+00  0.10141692968E+04  0.10141692968E+04  0.25500000920E-02 0.  1.
        2   -1    0    0  501    0  0.00000000000E+00  0.00000000000E+00 -0.14392810583E+04  0.14392810583E+04  0.25500000920E-02 0. -1.
    10030    2    1    2    0    0  0.00000000000E+00  0.00000000000E+00 -0.42511176153E+03  0.24534503550E+04  0.24163399254E+04 0.  0.
        2    1    3    3  502    0  0.29658748351E+03  0.41964346778E+02 -0.14009801894E+04  0.14326446290E+04  0.25500000920E-02 0. -1.
       -2    1    3    3    0  502 -0.29658748351E+03 -0.41964346778E+02  0.97586842790E+03  0.10208057261E+04  0.25500000920E-02 0.  1.
</event>
<event>
 5   0  0.1168435E-05  0.2359773E+04  0.7818609E-02  0.8454719E-01
        2   -1    0    0  501    0  0.00000000000E+00  0.00000000000E+00  0.15285027461E+04  0.15285027461E+04  0.25500000920E-02 0. -1.
       -2   -1    0    0    0  501  0.00000000000E+00  0.00000000000E+00 -0.91078166665E+03  0.91078166666E+03  0.25500000920E-02 0.  1.
    10030    2    1    2    0    0  0.00000000000E+00  0.00000000000E+00  0.61772107946E+03  0.24392844128E+04  0.23597731065E+04 0.  0.
        1    1    3    3  502    0  0.90019840346E+02 -0.66882682757E+03 -0.69158236858E+03  0.96629139988E+03  0.50400001928E-02 0.  1.
       -1    1    3    3    0  502 -0.90019840346E+02  0.66882682757E+03  0.13093034480E+04  0.14729930129E+04  0.50400001928E-02 0. -1.
</event>
<event>
 5   0  0.5104174E-06  0.2433583E+04  0.7818609E-02  0.8427036E-01
       -1   -1    0    0    0  501  0.00000000000E+00  0.00000000000E+00  0.89707431095E+03  0.89707431096E+03  0.50400001928E-02 0.  1.
        1   -1    0    0  501    0  0.00000000000E+00  0.00000000000E+00 -0.16504561164E+04  0.16504561164E+04  0.50400001928E-02 0. -1.
    10030    2    1    2    0    0  0.00000000000E+00  0.00000000000E+00 -0.75338180544E+03  0.25475304274E+04  0.24335831881E+04 0.  0.
        3    1    3    3  502    0 -0.46791986948E+01 -0.58264126830E+03  0.74154375581E+03  0.94306940063E+03  0.10100000352E+00 0.  1.
       -3    1    3    3    0  502  0.46791986948E+01  0.58264126830E+03 -0.14949255612E+04  0.16044610267E+04  0.10100000352E+00 0. -1.
</event>
<event>
 5   0  0.1168435E-05  0.2407674E+04  0.7818609E-02  0.8436636E-01
        2   -1    0    0  501    0  0.00000000000E+00  0.00000000000E+00  0.12321385427E+04  0.12321385427E+04  0.25500000920E-02 0.  1.
       -2   -1    0    0    0  501  0.00000000000E+00  0.00000000000E+00 -0.11761852803E+04  0.11761852803E+04  0.25500000920E-02 0. -1.
    10030    2    1    2    0    0  0.00000000000E+00  0.00000000000E+00  0.55953262393E+02  0.24083238231E+04  0.24076737464E+04 0.  0.
        1    1    3    3  502    0 -0.27144440096E+03 -0.90533865011E+03  0.77376702632E+03  0.12214890688E+04  0.50400001928E-02 0.  1.
       -1    1    3    3    0  502  0.27144440096E+03  0.90533865011E+03 -0.71781376392E+03  0.11868347542E+04  0.50400001928E-02 0. -1.
</event>
<event>
 5   0  0.1168435E-05  0.2402022E+04  0.7818609E-02  0.8438747E-01
        2   -1    0    0  501    0  0.00000000000E+00  0.00000000000E+00  0.23192812820E+04  0.23192812820E+04  0.25500000920E-02 0. -1.
       -2   -1    0    0    0  501  0.00000000000E+00  0.00000000000E+00 -0.62192867604E+03  0.62192867605E+03  0.25500000920E-02 0.  1.
    10030    2    1    2    0    0  0.00000000000E+00  0.00000000000E+00  0.16973526059E+04  0.29412099580E+04  0.24020220957E+04 0.  0.
        1    1    3    3  502    0 -0.71345172446E+03 -0.72920604806E+03  0.16247182465E+04  0.19184535971E+04  0.50400001928E-02 0. -1.
       -1    1    3    3    0  502  0.71345172446E+03  0.72920604806E+03  0.72634359455E+02  0.10227563610E+04  0.50400001928E-02 0.  1.
</event>
<event>
 5   0  0.1198313E-05  0.2396595E+04  0.7818609E-02  0.8440779E-01
       -2   -1    0    0    0  501  0.00000000000E+00  0.00000000000E+00  0.73569436338E+03  0.73569436338E+03  0.25500000920E-02 0. -1.
        2   -1    0    0  501    0  0.00000000000E+00  0.00000000000E+00 -0.19517846523E+04  0.19517846523E+04  0.25500000920E-02 0.  1.
    10030    2    1    2    0    0  0.00000000000E+00  0.00000000000E+00 -0.12160902890E+04  0.26874790157E+04  0.23965950574E+04 0.  0.
        5    1    3    3  502    0 -0.11749071925E+04  0.42169275885E+02 -0.86792753975E+03  0.14613368753E+04  0.46999998093E+01 0. -1.
       -5    1    3    3    0  502  0.11749071925E+04 -0.42169275885E+02 -0.34816274921E+03  0.12261421405E+04  0.46999998093E+01 0.  1.
</event>
<event>
 5   0  0.1168435E-05  0.2402041E+04  0.7818609E-02  0.8438740E-01
        2   -1    0    0  501    0  0.00000000000E+00  0.00000000000E+00  0.15271446701E+04  0.15271446701E+04  0.25500000920E-02 0. -1.
       -2   -1    0    0    0  501  0.00000000000E+00  0.00000000000E+00 -0.94454030982E+03  0.94454030982E+03  0.25500000920E-02 0.  1.
    10030    2    1    2    0    0  0.00000000000E+00  0.00000000000E+00  0.58260436030E+03  0.24716849799E+04  0.24020405491E+04 0.  0.
        1    1    3    3  502    0  0.93758442847E+02  0.63783512476E+03 -0.75140193401E+03  0.99006522938E+03  0.50400001928E-02 0.  1.
       -1    1    3    3    0  502 -0.93758442847E+02 -0.63783512476E+03  0.13340062943E+04  0.14816197506E+04  0.50400001928E-02 0. -1.
</event>
<event>
 5   0  0.5196696E-06  0.2405267E+04  0.7818609E-02  0.8437534E-01
       -1   -1    0    0    0  501  0.00000000000E+00  0.00000000000E+00  0.14151499252E+04  0.14151499252E+04  0.50400001928E-02 0. -1.
        1   -1    0    0  501    0  0.00000000000E+00  0.00000000000E+00 -0.10220311140E+04  0.10220311140E+04  0.50400001928E-02 0.  1.
    10030    2    1    2    0    0  0.00000000000E+00  0.00000000000E+00  0.39311881124E+03  0.24371810392E+04  0.24052669328E+04 0.  0.
        1    1    3    3  502    0 -0.49969378541E+03  0.23475863326E+03 -0.88603706566E+03  0.10439670382E+04  0.50400001928E-02 0.  1.
       -1    1    3    3    0  502  0.49969378541E+03 -0.23475863326E+03  0.12791558769E+04  0.13932140010E+04  0.50400001928E-02 0. -1.
</event>
<event>
 5   0  0.5196696E-06  0.2373099E+04  0.7818609E-02  0.8449644E-01
       -1   -1    0    0    0  501  0.00000000000E+00  0.00000000000E+00  0.99266663315E+03  0.99266663316E+03  0.50400001928E-02 0.  1.
        1   -1    0    0  501    0  0.00000000000E+00  0.00000000000E+00 -0.14183003008E+04  0.14183003009E+04  0.50400001928E-02 0. -1.
    10030    2    1    2    0    0  0.00000000000E+00  0.00000000000E+00 -0.42563366770E+03  0.24109669340E+04  0.23730987206E+04 0.  0.
        1    1    3    3  502    0 -0.54146799703E+03  0.29102063079E+03  0.81827660088E+03  0.10234535627E+04  0.50400001928E-02 0.  1.
       -1    1    3    3    0  502  0.54146799703E+03 -0.29102063079E+03 -0.12439102686E+04  0.13875133713E+04  0.50400001928E-02 0. -1.
</event>
<event>
 5   0  0.5196696E-06  0.2431476E+04  0.7818609E-02  0.8427812E-01
        1   -1    0    0  501    0  0.00000000000E+00  0.00000000000E+00  0.12143143622E+04  0.12143143622E+04  0.50400001928E-02 0.  1.
       -1   -1    0    0    0  501  0.00000000000E+00  0.00000000000E+00 -0.12171635182E+04  0.12171635182E+04  0.50400001928E-02 0. -1.
    10030    2    1    2    0    0  0.00000000000E+00  0.00000000000E+00 -0.28491559462E+01  0.24314778804E+04  0.24314762111E+04 0.  0.
        1    1    3    3  502    0 -0.79148974790E+03  0.76561528252E+03  0.51374211720E+03  0.12151352784E+04  0.50400001928E-02 0.  1.
       -1    1    3    3    0  502  0.79148974790E+03 -0.76561528252E+03 -0.51659127314E+03  0.12163426020E+04  0.50400001928E-02 0. -1.
</event>
<event>
 5   0  0.1198313E-05  0.2366238E+04  0.7818609E-02  0.8452253E-01
       -2   -1    0    0    0  501  0.00000000000E+00  0.00000000000E+00  0.11314152048E+04  0.11314152048E+04  0.25500000920E-02 0.  1.
        2   -1    0    0  501    0  0.00000000000E+00  0.00000000000E+00 -0.12371855029E+04  0.12371855029E+04  0.25500000920E-02 0. -1.
    10030    2    1    2    0    0  0.00000000000E+00  0.00000000000E+00 -0.10577029811E+03  0.23686007077E+04  0.23662379332E+04 0.  0.
        5    1    3    3  502    0  0.42519528170E+03  0.71360909799E+03  0.79040453767E+03  0.11466430986E+04  0.46999998093E+01 0.  1.
       -5    1    3    3    0  502 -0.42519528170E+03 -0.71360909799E+03 -0.89617483577E+03  0.12219576092E+04  0.46999998093E+01 0. -1.
</event>
<event>
 5   0  0.1168435E-05  0.2382258E+04  0.7818609E-02  0.8446176E-01
        2   -1    0    0  501    0  0.00000000000E+00  0.00000000000E+00  0.17929693606E+04  0.17929693606E+04  0.25500000920E-02 0.  1.
       -2   -1    0    0    0  501  0.00000000000E+00  0.00000000000E+00 -0.79130674977E+03  0.79130674978E+03  0.25500000920E-02 0. -1.
    10030    2    1    2    0    0  0.00000000000E+00  0.00000000000E+00  0.10016626108E+04  0.25842761104E+04  0.23822583883E+04 0.  0.
        1    1    3    3  502    0 -0.84448620255E+03 -0.82599049973E+03  0.66667287139E+03  0.13564180659E+04  0.50400001928E-02 0.  1.
       -1    1    3    3    0  502  0.84448620255E+03  0.82599049973E+03  0.33498973945E+03  0.12278580445E+04  0.50400001928E-02 0. -1.
</event>
<event>
 5   0  0.5042742E-06  0.2408641E+04  0.7818609E-02  0.8436276E-01
        1   -1    0    0  501    0  0.00000000000E+00  0.00000000000E+00  0.13747200265E+04  0.13747200265E+04  0.50400001928E-02 0.  1.
       -1   -1    0    0    0  501  0.00000000000E+00  0.00000000000E+00 -0.10550421397E+04  0.10550421398E+04  0.50400001928E-02 0. -1.
    10030    2    1    2    0    0  0.00000000000E+00  0.00000000000E+00  0.31967788677E+03  0.24297621663E+04  0.24086407440E+04 0.  0.
        5    1    3    3  502    0 -0.44441075080E+02 -0.90087983608E+03 -0.64515998730E+03  0.11089693357E+04  0.46999998093E+01 0. -1.
       -5    1    3    3    0  502  0.44441075080E+02  0.90087983608E+03  0.96483787407E+03  0.13207928306E+04  0.46999998093E+01 0.  1.
</event>
<event>
 5   0  0.5042742E-06  0.2399571E+04  0.7818609E-02  0.8439664E-01
        1   -1    0    0  501    0  0.00000000000E+00  0.00000000000E+00  0.19451814569E+04  0.19451814569E+04  0.50400001928E-02 0.  1.
       -1   -1    0    0    0  501  0.00000000000E+00  0.00000000000E+00 -0.74002601597E+03  0.74002601599E+03  0.50400001928E-02 0. -1.
    10030    2    1    2    0    0  0.00000000000E+00  0.00000000000E+00  0.12051554410E+04  0.26852074729E+04  0.23995706982E+04 0.  0.
        5    1    3    3  502    0 -0.40788732597E+02  0.55434963257E+03 -0.58723532752E+03  0.80860043020E+03  0.46999998093E+01 0. -1.
       -5    1    3    3    0  502  0.40788732597E+02 -0.55434963257E+03  0.17923907685E+04  0.18766070427E+04  0.46999998093E+01 0.  1.
</event>
<event>
 5   0  0.1168435E-05  0.2340590E+04  0.7818609E-02  0.8462087E-01
       -2   -1    0    0    0  501  0.00000000000E+00  0.00000000000E+00  0.63793271995E+03  0.63793271995E+03  0.25500000920E-02 0.  1.
        2   -1    0    0  501    0  0.00000000000E+00  0.00000000000E+00 -0.21469205346E+04  0.21469205346E+04  0.25500000920E-02 0. -1.
    10030    2    1    2    0    0  0.00000000000E+00  0.00000000000E+00 -0.15089878146E+04  0.27848532545E+04  0.23405904008E+04 0.  0.
        1    1    3    3  502    0  0.44802451261E+03 -0.97049928915E+03 -0.18762058518E+03  0.10852632483E+04  0.50400001928E-02 0.  1.
       -1    1    3    3    0  502 -0.44802451261E+03  0.97049928915E+03 -0.13213672294E+04  0.16995900062E+04  0.50400001928E-02 0. -1.
</event>
<event>
 5   0  0.5104174E-06  0.2401911E+04  0.7818609E-02  0.8438788E-01
        1   -1    0    0  501    0  0.00000000000E+00  0.00000000000E+00  0.97849621486E+03  0.97849621487E+03  0.50400001928E-02 0.  1.
       -1   -1    0    0    0  501  0.00000000000E+00  0.00000000000E+00 -0.14739905988E+04  0.14739905988E+04  0.50400001928E-02 0. -1.
    10030    2    1    2    0    0  0.00000000000E+00  0.00000000000E+00 -0.49549438389E+03  0.24524868136E+04  0.24019110905E+04 0.  0.
        3    1    3    3  502    0 -0.68530203266E+03  0.34188491688E+03  0.69681007215E+03  0.10354073880E+04  0.10100000352E+00 0.  1.
       -3    1    3    3    0  502  0.68530203266E+03 -0.34188491688E+03 -0.11923044560E+04  0.14170794256E+04  0.10100000352E+00 0. -1.
</event>
<event>
 5   0  0.5064437E-06  0.2400764E+04  0.7818609E-02  0.8439218E-01
       -1   -1    0    0    0  501  0.00000000000E+00  0.00000000000E+00  0.12454112035E+04  0.12454112035E+04  0.50400001928E-02 0.  1.
        1   -1    0    0  501    0  0.00000000000E+00  0.00000000000E+00 -0.11569808572E+04  0.11569808572E+04  0.50400001928E-02 0. -1.
    10030    2    1    2    0    0  0.00000000000E+00  0.00000000000E+00  0.88430346296E+02  0.24023920608E+04  0.24007639800E+04 0.  0.
        2    1    3    3  502    0 -0.22430903852E+03 -0.68822923573E+03  0.10024359043E+04  0.12364674553E+04  0.25500000920E-02 0.  1.
       -2    1    3    3    0  502  0.22430903852E+03  0.68822923573E+03 -0.91400555799E+03  0.11659246055E+04  0.25500000920E-02 0. -1.
</event>
<event>
 5   0  0.5034479E-06  0.2410395E+04  0.7818609E-02  0.8435622E-01
       -1   -1    0    0    0  501  0.00000000000E+00  0.00000000000E+00  0.72717618198E+03  0.72717618200E+03  0.50400001928E-02 0.  1.
        1   -1    0    0  501    0  0.00000000000E+00  0.00000000000E+00 -0.19974537799E+04  0.19974537799E+04  0.50400001928E-02 0. -1.
    10030    2    1    2    0    0  0.00000000000E+00  0.00000000000E+00 -0.12702775979E+04  0.27246299619E+04  0.24103948335E+04 0.  0.
        4    1    3    3  502    0  0.50528267430E+03 -0.10747872150E+04 -0.86685310751E+03  0.14703448784E+04  0.12699999809E+01 0.  1.
       -4    1    3    3    0  502 -0.50528267430E+03  0.10747872150E+04 -0.40342449043E+03  0.12542850836E+04  0.12699999809E+01 0. -1.
</event>
<event>
 5   0  0.5034479E-06  0.2397470E+04  0.7818609E-02  0.8440452E-01
       -1   -1    0    0    0  501  0.00000000000E+00  0.00000000000E+00  0.13288105545E+04  0.13288105545E+04  0.50400001928E-02 0.  1.
        1   -1    0    0  501    0  0.00000000000E+00  0.00000000000E+00 -0.10813919652E+04  0.10813919652E+04  0.50400001928E-02 0. -1.
    10030    2    1    2    0    0  0.00000000000E+00  0.00000000000E+00  0.24741858928E+03  0.24102025196E+04  0.23974695467E+04 0.  0.
        4    1    3    3  502    0  0.64070343904E+03 -0.39841524966E+03 -0.81275710928E+03  0.11089685927E+04  0.12699999809E+01 0. -1.
       -4    1    3    3    0  502 -0.64070343904E+03  0.39841524966E+03  0.10601756986E+04  0.13012339270E+04  0.12699999809E+01 0.  1.
</event>
<event>
 5   0  0.5196696E-06  0.2378521E+04  0.7818609E-02  0.8447589E-01
       -1   -1    0    0    0  501  0.00000000000E+00  0.00000000000E+00  0.63673964543E+03  0.63673964545E+03  0.50400001928E-02 0.  1.
        1   -1    0    0  501    0  0.00000000000E+00  0.00000000000E+00 -0.22212234167E+04  0.22212234167E+04  0.50400001928E-02 0. -1.
    10030    2    1    2    0    0  0.00000000000E+00  0.00000000000E+00 -0.15844837713E+04  0.28579630622E+04  0.23785213985E+04 0.  0.
        1    1    3    3  502    0  0.68824989806E+02 -0.11546404253E+04 -0.11243837107E+04  0.16131243349E+04  0.50400001928E-02 0. -1.
       -1    1    3    3    0  502 -0.68824989806E+02  0.11546404253E+04 -0.46010006060E+03  0.12448387272E+04  0.50400001928E-02 0.  1.
</event>
<event>
 5   0  0.5104174E-06  0.2401940E+04  0.7818609E-02  0.8438778E-01
        1   -1    0    0  501    0  0.00000000000E+00  0.00000000000E+00  0.24903897810E+04  0.24903897810E+04  0.50400001928E-02 0.  1.
       -1   -1    0    0    0  501  0.00000000000E+00  0.00000000000E+00 -0.57915773516E+03  0.57915773518E+03  0.50400001928E-02 0. -1.
    10030    2    1    2    0    0  0.00000000000E+00  0.00000000000E+00  0.19112320458E+04  0.30695475162E+04  0.24019396373E+04 0.  0.
        3    1    3    3  502    0 -0.62448709119E+03  0.23188888720E+03  0.22326485068E+04  0.23299090000E+04  0.10100000352E+00 0.  1.
       -3    1    3    3    0  502  0.62448709119E+03 -0.23188888720E+03 -0.32141646097E+03  0.73963851620E+03  0.10100000352E+00 0. -1.
</event>
<event>
 5   0  0.5034479E-06  0.2392313E+04  0.7818609E-02  0.8442387E-01
       -1   -1    0    0    0  501  0.00000000000E+00  0.00000000000E+00  0.11447327530E+04  0.11447327530E+04  0.50400001928E-02 0. -1.
        1   -1    0    0  501    0  0.00000000000E+00  0.00000000000E+00 -0.12498903573E+04  0.12498903573E+04  0.50400001928E-02 0.  1.
    10030    2    1    2    0    0  0.00000000000E+00  0.00000000000E+00 -0.10515760437E+03  0.23946231103E+04  0.23923130478E+04 0.  0.
        4    1    3    3  502    0 -0.82531258014E+03  0.79795431592E+03 -0.38893433746E+03  0.12120822897E+04  0.12699999809E+01 0.  1.
       -4    1    3    3    0  502  0.82531258014E+03 -0.79795431592E+03  0.28377673310E+03  0.11825408206E+04  0.12699999809E+01 0. -1.
</event>
<event>
 5   0  0.1174210E-05  0.2404550E+04  0.7818609E-02  0.8437802E-01
       -2   -1    0    0    0  501  0.00000000000E+00  0.00000000000E+00  0.11739590067E+04  0.11739590067E+04  0.25500000920E-02 0.  1.
        2   -1    0    0  501    0  0.00000000000E+00  0.00000000000E+00 -0.12312744604E+04  0.12312744604E+04  0.25500000920E-02 0. -1.
    10030    2    1    2    0    0  0.00000000000E+00  0.00000000000E+00 -0.57315453629E+02  0.24052334671E+04  0.24045504715E+04 0.  0.
        3    1    3    3  502    0  0.71356738413E+03  0.21404662923E+03 -0.97257366437E+03  0.12251097559E+04  0.10100000352E+00 0. -1.
       -3    1    3    3    0  502 -0.71356738413E+03 -0.21404662923E+03  0.91525821074E+03  0.11801237112E+04  0.10100000352E+00 0.  1.
</event>
<event>
 5   0  0.5064437E-06  0.2400368E+04  0.7818609E-02  0.8439366E-01
       -1   -1    0    0    0  501  0.00000000000E+00  0.00000000000E+00  0.19090423043E+04  0.19090423043E+04  0.50400001928E-02 0. -1.
        1   -1    0    0  501    0  0.00000000000E+00  0.00000000000E+00 -0.75453611821E+03  0.75453611823E+03  0.50400001928E-02 0.  1.
    10030    2    1    2    0    0  0.00000000000E+00  0.00000000000E+00  0.11545061861E+04  0.26635784225E+04  0.24003677800E+04 0.  0.
        2    1    3    3  502    0  0.96092482558E+03 -0.47784932792E+03 -0.18998834553E+02  0.10733487114E+04  0.25500000920E-02 0.  1.
       -2    1    3    3    0  502 -0.96092482558E+03  0.47784932792E+03  0.11735050206E+04  0.15902297111E+04  0.25500000920E-02 0. -1.
</event>
<event>
 5   0  0.5104174E-06  0.2405593E+04  0.7818609E-02  0.8437412E-01
        1   -1    0    0  501    0  0.00000000000E+00  0.00000000000E+00  0.15596381824E+04  0.15596381824E+04  0.50400001928E-02 0. -1.
       -1   -1    0    0    0  501  0.00000000000E+00  0.00000000000E+00 -0.92759976699E+03  0.92759976701E+03  0.50400001928E-02 0.  1.
    10030    2    1    2    0    0  0.00000000000E+00  0.00000000000E+00  0.63203841536E+03  0.24872379494E+04  0.24055934940E+04 0.  0.
        3    1    3    3  502    0 -0.49974337129E+03 -0.55145499345E+03 -0.66097091462E+03  0.99535350862E+03  0.10100000352E+00 0.  1.
       -3    1    3    3    0  502  0.49974337129E+03  0.55145499345E+03  0.12930093300E+04  0.14918844407E+04  0.10100000352E+00 0. -1.
</event>
<event>
 5   0  0.5064437E-06  0.2402289E+04  0.7818609E-02  0.8438647E-01
        1   -1    0    0  501    0  0.00000000000E+00  0.00000000000E+00  0.12920375100E+04  0.12920375100E+04  0.50400001928E-02 0.  1.
       -1   -1    0    0    0  501  0.00000000000E+00  0.00000000000E+00 -0.11166461406E+04  0.11166461406E+04  0.50400001928E-02 0. -1.
    10030    2    1    2    0    0  0.00000000000E+00  0.00000000000E+00  0.17539136933E+03  0.24086836506E+04  0.24022894905E+04 0.  0.
        2    1    3    3  502    0  0.10054887366E+04 -0.48382993181E+03 -0.35806575716E+03  0.11718831379E+04  0.25500000920E-02 0. -1.
       -2    1    3    3    0  502 -0.10054887366E+04  0.48382993181E+03  0.53345712649E+03  0.12368005127E+04  0.25500000920E-02 0.  1.
</event>
<event>
 5   0  0.1168435E-05  0.2394656E+04  0.7818609E-02  0.8441507E-01
       -2   -1    0    0    0  501  0.00000000000E+00  0.00000000000E+00  0.68458632162E+03  0.68458632162E+03  0.25500000920E-02 0.  1.
        2   -1    0    0  501    0  0.00000000000E+00  0.00000000000E+00 -0.20941035803E+04  0.20941035803E+04  0.25500000920E-02 0. -1.
    10030    2    1    2    0    0  0.00000000000E+00  0.00000000000E+00 -0.14095172587E+04  0.27786899020E+04  0.23946562736E+04 0.  0.
        1    1    3    3  502    0  0.70885158860E+03 -0.85336353123E+03 -0.12274343557E+04  0.16544772554E+04  0.50400001928E-02 0. -1.
       -1    1    3    3    0  502 -0.70885158860E+03  0.85336353123E+03 -0.18208290305E+03  0.11242126466E+04  0.50400001928E-02 0.  1.
</event>
<event>
 5   0  0.5196696E-06  0.2391179E+04  0.7818609E-02  0.8442813E-01
        1   -1    0    0  501    0  0.00000000000E+00  0.00000000000E+00  0.20593198703E+04  0.20593198703E+04  0.50400001928E-02 0.  1.
       -1   -1    0    0    0  501  0.00000000000E+00  0.00000000000E+00 -0.69412956237E+03  0.69412956239E+03  0.50400001928E-02 0. -1.
    10030    2    1    2    0    0  0.00000000000E+00  0.00000000000E+00  0.13651903079E+04  0.27534494327E+04  0.23911794582E+04 0.  0.
        1    1    3    3  502    0 -0.58904253903E+03  0.49281933145E+03  0.17377089099E+04  0.18998616428E+04  0.50400001928E-02 0.  1.
       -1    1    3    3    0  502  0.58904253903E+03 -0.49281933145E+03 -0.37251860195E+03  0.85358778990E+03  0.50400001928E-02 0. -1.
</event>
<event>
 5   0  0.1169371E-05  0.2391662E+04  0.7818609E-02  0.8442632E-01
       -2   -1    0    0    0  501  0.00000000000E+00  0.00000000000E+00  0.64379287474E+03  0.64379287475E+03  0.25500000920E-02 0. -1.
        2   -1    0    0  501    0  0.00000000000E+00  0.00000000000E+00 -0.22212288210E+04  0.22212288210E+04  0.25500000920E-02 0.  1.
    10030    2    1    2    0    0  0.00000000000E+00  0.00000000000E+00 -0.15774359462E+04  0.28650216957E+04  0.23916615882E+04 0.  0.
        2    1    3    3  502    0  0.24357818903E+02 -0.18428282265E+03  0.62638011557E+03  0.65338006646E+03  0.25500000920E-02 0. -1.
       -2    1    3    3    0  502 -0.24357818903E+02  0.18428282265E+03 -0.22038160618E+04  0.22116416293E+04  0.25500000920E-02 0.  1.
</event>
<event>
 5   0  0.4067750E-06  0.2405041E+04  0.7818609E-02  0.8437619E-01
        3   -1    0    0  501    0  0.00000000000E+00  0.00000000000E+00  0.55850146991E+03  0.55850147905E+03  0.10100000352E+00 0.  1.
       -3   -1    0    0    0  501  0.00000000000E+00  0.00000000000E+00 -0.25891698383E+04  0.25891698403E+04  0.10100000352E+00 0. -1.
    10030    2    1    2    0    0  0.00000000000E+00  0.00000000000E+00 -0.20306683684E+04  0.31476713193E+04  0.24050406883E+04 0.  0.
        4    1    3    3  502    0 -0.48208405513E+03  0.95879738161E+03 -0.17254079641E+04  0.20319280771E+04  0.12699999809E+01 0. -1.
       -4    1    3    3    0  502  0.48208405513E+03 -0.95879738161E+03 -0.30526040431E+03  0.11157432422E+04  0.12699999809E+01 0.  1.
</event>
<event>
 5   0  0.5196696E-06  0.2404497E+04  0.7818609E-02  0.8437822E-01
       -1   -1    0    0    0  501  0.00000000000E+00  0.00000000000E+00  0.10625963955E+04  0.10625963955E+04  0.50400001928E-02 0. -1.
        1   -1    0    0  501    0  0.00000000000E+00  0.00000000000E+00 -0.13602541722E+04  0.13602541722E+04  0.50400001928E-02 0.  1.
    10030    2    1    2    0    0  0.00000000000E+00  0.00000000000E+00 -0.29765777669E+03  0.24228505677E+04  0.24044967709E+04 0.  0.
        1    1    3    3  502    0 -0.13301572589E+03 -0.86202710946E+03  0.68490288556E+03  0.11089976932E+04  0.50400001928E-02 0. -1.
       -1    1    3    3    0  502  0.13301572589E+03  0.86202710946E+03 -0.98256066224E+03  0.13138528745E+04  0.50400001928E-02 0.  1.
</event>
<event>
 5   0  0.5104174E-06  0.2403734E+04  0.7818609E-02  0.8438107E-01
        1   -1    0    0  501    0  0.00000000000E+00  0.00000000000E+00  0.17700026456E+04  0.17700026456E+04  0.50400001928E-02 0. -1.
       -1   -1    0    0    0  501  0.00000000000E+00  0.00000000000E+00 -0.81609148286E+03  0.81609148287E+03  0.50400001928E-02 0.  1.
    10030    2    1    2    0    0  0.00000000000E+00  0.00000000000E+00  0.95391116276E+03  0.25860941285E+04  0.24037338320E+04 0.  0.
        3    1    3    3  502    0 -0.94311074657E+02 -0.91426423695E+03 -0.35620505348E+03  0.98572598834E+03  0.10100000352E+00 0. -1.
       -3    1    3    3    0  502  0.94311074657E+02  0.91426423695E+03  0.13101162162E+04  0.16003681402E+04  0.10100000352E+00 0.  1.
</event>
<event>
 5   0  0.1174210E-05  0.2395318E+04  0.7818609E-02  0.8441258E-01
       -2   -1    0    0    0  501  0.00000000000E+00  0.00000000000E+00  0.10273810320E+04  0.10273810320E+04  0.25500000920E-02 0. -1.
        2   -1    0    0  501    0  0.00000000000E+00  0.00000000000E+00 -0.13961589399E+04  0.13961589399E+04  0.25500000920E-02 0.  1.
    10030    2    1    2    0    0  0.00000000000E+00  0.00000000000E+00 -0.36877790790E+03  0.24235399718E+04  0.23953181103E+04 0.  0.
        3    1    3    3  502    0 -0.52415735074E+03 -0.88154032754E+03  0.44139064337E+03  0.11165482469E+04  0.10100000352E+00 0. -1.
       -3    1    3    3    0  502  0.52415735074E+03  0.88154032754E+03 -0.81016855127E+03  0.13069917249E+04  0.10100000352E+00 0.  1.
</event>
<event>
 5   0  0.1154897E-05  0.2367859E+04  0.7818609E-02  0.8451636E-01
        2   -1    0    0  501    0  0.00000000000E+00  0.00000000000E+00  0.24095110341E+04  0.24095110341E+04  0.25500000920E-02 0.  1.
       -2   -1    0    0    0  501  0.00000000000E+00  0.00000000000E+00 -0.58173170863E+03  0.58173170863E+03  0.25500000920E-02 0. -1.
    10030    2    1    2    0    0  0.00000000000E+00  0.00000000000E+00  0.18277793254E+04  0.29912427427E+04  0.23678589238E+04 0.  0.
        4    1    3    3  502    0  0.34192840250E+03  0.78096975424E+03  0.19516623044E+04  0.21297455605E+04  0.12699999809E+01 0.  1.
       -4    1    3    3    0  502 -0.34192840250E+03 -0.78096975424E+03 -0.12388297893E+03  0.86149718215E+03  0.12699999809E+01 0. -1.
</event>
<event>
 5   0  0.5196696E-06  0.2393695E+04  0.7818609E-02  0.8441868E-01
       -1   -1    0    0    0  501  0.00000000000E+00  0.00000000000E+00  0.13783853391E+04  0.13783853391E+04  0.50400001928E-02 0. -1.
        1   -1    0    0  501    0  0.00000000000E+00  0.00000000000E+00 -0.10392183718E+04  0.10392183718E+04  0.50400001928E-02 0.  1.
    10030    2    1    2    0    0  0.00000000000E+00  0.00000000000E+00  0.33916696733E+03  0.24176037109E+04  0.23936945234E+04 0.  0.
        1    1    3    3  502    0  0.62062734196E+03  0.35369638511E+03  0.11394689571E+04  0.13448676272E+04  0.50400001928E-02 0. -1.
       -1    1    3    3    0  502 -0.62062734196E+03 -0.35369638511E+03 -0.80030198981E+03  0.10727360837E+04  0.50400001928E-02 0.  1.
</event>
<event>
 5   0  0.5042742E-06  0.2399166E+04  0.7818609E-02  0.8439816E-01
        1   -1    0    0  501    0  0.00000000000E+00  0.00000000000E+00  0.92434538587E+03  0.92434538589E+03  0.50400001928E-02 0. -1.
       -1   -1    0    0    0  501  0.00000000000E+00  0.00000000000E+00 -0.15567762972E+04  0.15567762973E+04  0.50400001928E-02 0.  1.
    10030    2    1    2    0    0  0.00000000000E+00  0.00000000000E+00 -0.63243091137E+03  0.24811216831E+04  0.23991656777E+04 0.  0.
        5    1    3    3  502    0  0.52006709957E+03 -0.90572052037E+03  0.29400694104E+03  0.10850168757E+04  0.46999998093E+01 0. -1.
       -5    1    3    3    0  502 -0.52006709957E+03  0.90572052037E+03 -0.92643785241E+03  0.13961048075E+04  0.46999998093E+01 0.  1.
</event>
<event>
 5   0  0.1174210E-05  0.2397565E+04  0.7818609E-02  0.8440416E-01
       -2   -1    0    0    0  501  0.00000000000E+00  0.00000000000E+00  0.11169516289E+04  0.11169516289E+04  0.25500000920E-02 0. -1.
        2   -1    0    0  501    0  0.00000000000E+00  0.00000000000E+00 -0.12866090191E+04  0.12866090191E+04  0.25500000920E-02 0.  1.
    10030    2    1    2    0    0  0.00000000000E+00  0.00000000000E+00 -0.16965739025E+03  0.24035606480E+04  0.23975654649E+04 0.  0.
        3    1    3    3  502    0 -0.95254160437E+03  0.10952389656E+03 -0.80617574628E+03  0.12526972244E+04  0.10100000352E+00 0.  1.
       -3    1    3    3    0  502  0.95254160437E+03 -0.10952389656E+03  0.63651835603E+03  0.11508634236E+04  0.10100000352E+00 0. -1.
</event>
<event>
 5   0  0.5034479E-06  0.2416269E+04  0.7818609E-02  0.8433438E-01
        1   -1    0    0  501    0  0.00000000000E+00  0.00000000000E+00  0.13128588983E+04  0.13128588983E+04  0.50400001928E-02 0. -1.
       -1   -1    0    0    0  501  0.00000000000E+00  0.00000000000E+00 -0.11117641871E+04  0.11117641871E+04  0.50400001928E-02 0.  1.
    10030    2    1    2    0    0  0.00000000000E+00  0.00000000000E+00  0.20109471124E+03  0.24246230854E+04  0.24162694435E+04 0.  0.
        4    1    3    3  502    0  0.48118183129E+03 -0.14528016143E+03  0.12029562901E+04  0.13037437359E+04  0.12699999809E+01 0. -1.
       -4    1    3    3    0  502 -0.48118183129E+03  0.14528016143E+03 -0.10018615789E+04  0.11208793495E+04  0.12699999809E+01 0.  1.
</event>
<event>
 5   0  0.1174210E-05  0.2416471E+04  0.7818609E-02  0.8433363E-01
        2   -1    0    0  501    0  0.00000000000E+00  0.00000000000E+00  0.14193957514E+04  0.14193957514E+04  0.25500000920E-02 0.  1.
       -2   -1    0    0    0  501  0.00000000000E+00  0.00000000000E+00 -0.10284886778E+04  0.10284886778E+04  0.25500000920E-02 0. -1.
    10030    2    1    2    0    0  0.00000000000E+00  0.00000000000E+00  0.39090707363E+03  0.24478844292E+04  0.24164705334E+04 0.  0.
        3    1    3    3  502    0 -0.80175853146E+03 -0.83817315802E+03 -0.14729609201E+03  0.11692079090E+04  0.10100000352E+00 0. -1.
       -3    1    3    3    0  502  0.80175853146E+03  0.83817315802E+03  0.53820316564E+03  0.12786765202E+04  0.10100000352E+00 0.  1.
</event>
<event>
 5   0  0.4067750E-06  0.2403450E+04  0.7818609E-02  0.8438213E-01
        3   -1    0    0  501    0  0.00000000000E+00  0.00000000000E+00  0.13720816692E+04  0.13720816729E+04  0.10100000352E+00 0.  1.
       -3   -1    0    0    0  501  0.00000000000E+00  0.00000000000E+00 -0.10525195324E+04  0.10525195372E+04  0.10100000352E+00 0. -1.
    10030    2    1    2    0    0  0.00000000000E+00  0.00000000000E+00  0.31956213686E+03  0.24246012101E+04  0.24034498266E+04 0.  0.
        2    1    3    3  502    0 -0.10180506991E+04 -0.42667245332E+03  0.63900497531E+03  0.12754622562E+04  0.25500000920E-02 0.  1.
       -2    1    3    3    0  502  0.10180506991E+04  0.42667245332E+03 -0.31944283845E+03  0.11491389540E+04  0.25500000920E-02 0. -1.
</event>
<event>
 5   0  0.5064437E-06  0.2342038E+04  0.7818609E-02  0.8461528E-01
        1   -1    0    0  501    0  0.00000000000E+00  0.00000000000E+00  0.22357274008E+04  0.22357274008E+04  0.50400001928E-02 0.  1.
       -1   -1    0    0    0  501  0.00000000000E+00  0.00000000000E+00 -0.61335114735E+03  0.61335114737E+03  0.50400001928E-02 0. -1.
    10030    2    1    2    0    0  0.00000000000E+00  0.00000000000E+00  0.16223762535E+04  0.28490785482E+04  0.23420383998E+04 0.  0.
        2    1    3    3  502    0  0.53313749513E+03 -0.77631316662E+03 -0.35468299366E+02  0.94242014073E+03  0.25500000920E-02 0. -1.
       -2    1    3    3    0  502 -0.53313749513E+03  0.77631316662E+03  0.16578445528E+04  0.19066584075E+04  0.25500000920E-02 0.  1.
</event>
<event>
 5   0  0.1198313E-05  0.2403519E+04  0.7818609E-02  0.8438187E-01
       -2   -1    0    0    0  501  0.00000000000E+00  0.00000000000E+00  0.13960802288E+04  0.13960802288E+04  0.25500000920E-02 0. -1.
        2   -1    0    0  501    0  0.00000000000E+00  0.00000000000E+00 -0.10344863257E+04  0.10344863257E+04  0.25500000920E-02 0.  1.
    10030    2    1    2    0    0  0.00000000000E+00  0.00000000000E+00  0.36159390309E+03  0.24305665545E+04  0.24035190087E+04 0.  0.
        5    1    3    3  502    0 -0.44453687871E+02 -0.11983518400E+04  0.26029814424E+03  0.12271106212E+04  0.46999998093E+01 0.  1.
       -5    1    3    3    0  502  0.44453687871E+02  0.11983518400E+04  0.10129575886E+03  0.12034559333E+04  0.46999998093E+01 0. -1.
</event>
<event>
 5   0  0.5196696E-06  0.2391260E+04  0.7818609E-02  0.8442783E-01
        1   -1    0    0  501    0  0.00000000000E+00  0.00000000000E+00  0.69994976025E+03  0.69994976026E+03  0.50400001928E-02 0. -1.
       -1   -1    0    0    0  501  0.00000000000E+00  0.00000000000E+00 -0.20423342907E+04  0.20423342907E+04  0.50400001928E-02 0.  1.
    10030    2    1    2    0    0  0.00000000000E+00  0.00000000000E+00 -0.13423845305E+04  0.27422840510E+04  0.23912602511E+04 0.  0.
        1    1    3    3  502    0 -0.22087174353E+03  0.66096967662E+03  0.44295038619E+03  0.82575437337E+03  0.50400001928E-02 0. -1.
       -1    1    3    3    0  502  0.22087174353E+03 -0.66096967662E+03 -0.17853349167E+04  0.19165296776E+04  0.50400001928E-02 0.  1.
</event>
<event>
 5   0  0.5196696E-06  0.2396047E+04  0.7818609E-02  0.8440985E-01
       -1   -1    0    0    0  501  0.00000000000E+00  0.00000000000E+00  0.12255726052E+04  0.12255726052E+04  0.50400001928E-02 0. -1.
        1   -1    0    0  501    0  0.00000000000E+00  0.00000000000E+00 -0.11710938737E+04  0.11710938737E+04  0.50400001928E-02 0.  1.
    10030    2    1    2    0    0  0.00000000000E+00  0.00000000000E+00  0.54478731503E+02  0.23966664789E+04  0.23960472197E+04 0.  0.
        1    1    3    3  502    0  0.85310870434E+03  0.52493113461E+03 -0.63013168428E+03  0.11833905091E+04  0.50400001928E-02 0.  1.
       -1    1    3    3    0  502 -0.85310870434E+03 -0.52493113461E+03  0.68461041578E+03  0.12132759698E+04  0.50400001928E-02 0. -1.
</event>
<event>
 5   0  0.1174210E-05  0.2397868E+04  0.7818609E-02  0.8440302E-01
        2   -1    0    0  501    0  0.00000000000E+00  0.00000000000E+00  0.17062281733E+04  0.17062281733E+04  0.25500000920E-02 0.  1.
       -2   -1    0    0    0  501  0.00000000000E+00  0.00000000000E+00 -0.84246794895E+03  0.84246794895E+03  0.25500000920E-02 0. -1.
    10030    2    1    2    0    0  0.00000000000E+00  0.00000000000E+00  0.86376022436E+03  0.25486961223E+04  0.23978678442E+04 0.  0.
        3    1    3    3  502    0  0.27970868392E+02  0.10783552093E+04  0.98806301646E+03  0.14628399986E+04  0.10100000352E+00 0.  1.
       -3    1    3    3    0  502 -0.27970868392E+02 -0.10783552093E+04 -0.12430279210E+03  0.10858561236E+04  0.10100000352E+00 0. -1.
</event>
<event>
 5   0  0.5034479E-06  0.2378265E+04  0.7818609E-02  0.8447686E-01
        1   -1    0    0  501    0  0.00000000000E+00  0.00000000000E+00  0.14840311370E+04  0.14840311370E+04  0.50400001928E-02 0.  1.
       -1   -1    0    0    0  501  0.00000000000E+00  0.00000000000E+00 -0.95283486131E+03  0.95283486133E+03  0.50400001928E-02 0. -1.
    10030    2    1    2    0    0  0.00000000000E+00  0.00000000000E+00  0.53119627565E+03  0.24368659983E+04  0.23782654205E+04 0.  0.
        4    1    3    3  502    0 -0.37170143727E+02  0.72054117406E+03 -0.70292998252E+03  0.10073099703E+04  0.12699999809E+01 0. -1.
       -4    1    3    3    0  502  0.37170143727E+02 -0.72054117406E+03  0.12341262582E+04  0.14295560280E+04  0.12699999809E+01 0.  1.
</event>
<event>
 5   0  0.5196696E-06  0.2389549E+04  0.7818609E-02  0.8443427E-01
        1   -1    0    0  501    0  0.00000000000E+00  0.00000000000E+00  0.16100066584E+04  0.16100066584E+04  0.50400001928E-02 0.  1.
       -1   -1    0    0    0  501  0.00000000000E+00  0.00000000000E+00 -0.88663332034E+03  0.88663332035E+03  0.50400001928E-02 0. -1.
    10030    2    1    2    0    0  0.00000000000E+00  0.00000000000E+00  0.72337333806E+03  0.24966399788E+04  0.23895485342E+04 0.  0.
        1    1    3    3  502    0  0.49742374253E+03 -0.10801479981E+04  0.48234137282E+03  0.12832783320E+04  0.50400001928E-02 0. -1.
       -1    1    3    3    0  502 -0.49742374253E+03  0.10801479981E+04  0.24103196524E+03  0.12133616467E+04  0.50400001928E-02 0.  1.
</event>
<event>
 5   0  0.1198313E-05  0.2410397E+04  0.7818609E-02  0.8435621E-01
        2   -1    0    0  501    0  0.00000000000E+00  0.00000000000E+00  0.11481564440E+04  0.11481564440E+04  0.25500000920E-02 0.  1.
       -2   -1    0    0    0  501  0.00000000000E+00  0.00000000000E+00 -0.12650740969E+04  0.12650740969E+04  0.25500000920E-02 0. -1.
    10030    2    1    2    0    0  0.00000000000E+00  0.00000000000E+00 -0.11691765289E+03  0.24132305410E+04  0.24103966284E+04 0.  0.
        5    1    3    3  502    0 -0.14680108847E+03  0.33800771354E+03  0.10903575151E+04  0.11509567215E+04  0.46999998093E+01 0.  1.
       -5    1    3    3    0  502  0.14680108847E+03 -0.33800771354E+03 -0.12072751680E+04  0.12622738195E+04  0.46999998093E+01 0. -1.
</event>
<event>
 5   0  0.5042742E-06  0.2402838E+04  0.7818609E-02  0.8438442E-01
        1   -1    0    0  501    0  0.00000000000E+00  0.00000000000E+00  0.91965978403E+03  0.91965978404E+03  0.50400001928E-02 0.  1.
       -1   -1    0    0    0  501  0.00000000000E+00  0.00000000000E+00 -0.15695021308E+04  0.15695021308E+04  0.50400001928E-02 0. -1.
    10030    2    1    2    0    0  0.00000000000E+00  0.00000000000E+00 -0.64984234678E+03  0.24891619149E+04  0.24028383139E+04 0.  0.
        5    1    3    3  502    0 -0.81406462132E+03  0.39622953042E+03 -0.11430315360E+04  0.14581639931E+04  0.46999998093E+01 0. -1.
       -5    1    3    3    0  502  0.81406462132E+03 -0.39622953042E+03  0.49318918917E+03  0.10309979218E+04  0.46999998093E+01 0.  1.
</event>
<event>
 5   0  0.1174210E-05  0.2395652E+04  0.7818609E-02  0.8441133E-01
       -2   -1    0    0    0  501  0.00000000000E+00  0.00000000000E+00  0.72120951664E+03  0.72120951664E+03  0.25500000920E-02 0. -1.
        2   -1    0    0  501    0  0.00000000000E+00  0.00000000000E+00 -0.19894180356E+04  0.19894180356E+04  0.25500000920E-02 0.  1.
    10030    2    1    2    0    0  0.00000000000E+00  0.00000000000E+00 -0.12682085190E+04  0.27106275522E+04  0.23956520781E+04 0.  0.
        3    1    3    3  502    0  0.74397051865E+02  0.47139799918E+03 -0.18772047939E+04  0.19369173558E+04  0.10100000352E+00 0.  1.
       -3    1    3    3    0  502 -0.74397051865E+02 -0.47139799918E+03  0.60899627492E+03  0.77371019641E+03  0.10100000352E+00 0. -1.
</event>
<event>
 5   0  0.5064437E-06  0.2395775E+04  0.7818609E-02  0.8441087E-01
       -1   -1    0    0    0  501  0.00000000000E+00  0.00000000000E+00  0.95150034980E+03  0.95150034982E+03  0.50400001928E-02 0. -1.
        1   -1    0    0  501    0  0.00000000000E+00  0.00000000000E+00 -0.15080760147E+04  0.15080760147E+04  0.50400001928E-02 0.  1.
    10030    2    1    2    0    0  0.00000000000E+00  0.00000000000E+00 -0.55657566491E+03  0.24595763645E+04  0.23957753280E+04 0.  0.
        2    1    3    3  502    0 -0.53805449296E+03 -0.42188563338E+03 -0.12880690877E+04  0.14582908145E+04  0.25500000920E-02 0.  1.
       -2    1    3    3    0  502  0.53805449296E+03  0.42188563338E+03  0.73149342280E+03  0.10012855500E+04  0.25500000920E-02 0. -1.
</event>
<event>
 5   0  0.5034479E-06  0.2387745E+04  0.7818609E-02  0.8444106E-01
        1   -1    0    0  501    0  0.00000000000E+00  0.00000000000E+00  0.14768511874E+04  0.14768511874E+04  0.50400001928E-02 0.  1.
       -1   -1    0    0    0  501  0.00000000000E+00  0.00000000000E+00 -0.96511547160E+03  0.96511547161E+03  0.50400001928E-02 0. -1.
    10030    2    1    2    0    0  0.00000000000E+00  0.00000000000E+00  0.51173571581E+03  0.24419666590E+04  0.23877453216E+04 0.  0.
        4    1    3    3  502    0  0.29434422447E+03  0.16624516841E+03 -0.91514610447E+03  0.97558699454E+03  0.12699999809E+01 0. -1.
       -4    1    3    3    0  502 -0.29434422447E+03 -0.16624516841E+03  0.14268818203E+04  0.14663796645E+04  0.12699999809E+01 0.  1.
</event>
<event>
 5   0  0.5196696E-06  0.2420164E+04  0.7818609E-02  0.8431993E-01
        1   -1    0    0  501    0  0.00000000000E+00  0.00000000000E+00  0.91681890235E+03  0.91681890237E+03  0.50400001928E-02 0.  1.
       -1   -1    0    0    0  501  0.00000000000E+00  0.00000000000E+00 -0.15971514422E+04  0.15971514422E+04  0.50400001928E-02 0. -1.
    10030    2    1    2    0    0  0.00000000000E+00  0.00000000000E+00 -0.68033253981E+03  0.25139703445E+04  0.24201641532E+04 0.  0.
        1    1    3    3  502    0  0.76866481505E+03  0.68330084381E+03  0.32216293690E+03  0.10777451457E+04  0.50400001928E-02 0.  1.
       -1    1    3    3    0  502 -0.76866481505E+03 -0.68330084381E+03 -0.10024954767E+04  0.14362251989E+04  0.50400001928E-02 0. -1.
</event>
<event>
 5   0  0.5034479E-06  0.2384942E+04  0.7818609E-02  0.8445162E-01
        1   -1    0    0  501    0  0.00000000000E+00  0.00000000000E+00  0.10515717453E+04  0.10515717453E+04  0.50400001928E-02 0.  1.
       -1   -1    0    0    0  501  0.00000000000E+00  0.00000000000E+00 -0.13522497272E+04  0.13522497272E+04  0.50400001928E-02 0. -1.
    10030    2    1    2    0    0  0.00000000000E+00  0.00000000000E+00 -0.30067798189E+03  0.24038214725E+04  0.23849424360E+04 0.  0.
        4    1    3    3  502    0 -0.29741467682E+02  0.87438997457E+02 -0.13486386462E+04  0.13517980412E+04  0.12699999809E+01 0. -1.
       -4    1    3    3    0  502  0.29741467682E+02 -0.87438997457E+02  0.10479606643E+04  0.10520234313E+04  0.12699999809E+01 0.  1.
</event>
<event>
 5   0  0.1169371E-05  0.2399930E+04  0.7818609E-02  0.8439530E-01
       -2   -1    0    0    0  501  0.00000000000E+00  0.00000000000E+00  0.64855228401E+03  0.64855228402E+03  0.25500000920E-02 0. -1.
        2   -1    0    0  501    0  0.00000000000E+00  0.00000000000E+00 -0.22201996656E+04  0.22201996657E+04  0.25500000920E-02 0.  1.
    10030    2    1    2    0    0  0.00000000000E+00  0.00000000000E+00 -0.15716473816E+04  0.28687519497E+04  0.23999296357E+04 0.  0.
        2    1    3    3  502    0 -0.36929006989E+03  0.68522912344E+03  0.30581242119E+03  0.83632251213E+03  0.25500000920E-02 0. -1.
       -2    1    3    3    0  502  0.36929006989E+03 -0.68522912344E+03 -0.18774598028E+04  0.20324294375E+04  0.25500000920E-02 0.  1.
</event>
<event>
 5   0  0.1168435E-05  0.2408835E+04  0.7818609E-02  0.8436203E-01
        2   -1    0    0  501    0  0.00000000000E+00  0.00000000000E+00  0.20160551242E+04  0.20160551242E+04  0.25500000920E-02 0. -1.
       -2   -1    0    0    0  501  0.00000000000E+00  0.00000000000E+00 -0.71953439557E+03  0.71953439558E+03  0.25500000920E-02 0.  1.
    10030    2    1    2    0    0  0.00000000000E+00  0.00000000000E+00  0.12965207287E+04  0.27355895198E+04  0.24088345774E+04 0.  0.
        1    1    3    3  502    0  0.92567962616E+03  0.45567813797E+02 -0.22527546582E+03  0.95378626089E+03  0.50400001928E-02 0.  1.
       -1    1    3    3    0  502 -0.92567962616E+03 -0.45567813797E+02  0.15217961945E+04  0.17818032589E+04  0.50400001928E-02 0. -1.
</event>
<event>
 5   0  0.1174210E-05  0.2301653E+04  0.7818609E-02  0.8477270E-01
       -2   -1    0    0    0  501  0.00000000000E+00  0.00000000000E+00  0.11246570083E+04  0.11246570083E+04  0.25500000920E-02 0.  1.
        2   -1    0    0  501    0  0.00000000000E+00  0.00000000000E+00 -0.11776045430E+04  0.11776045430E+04  0.25500000920E-02 0. -1.
    10030    2    1    2    0    0  0.00000000000E+00  0.00000000000E+00 -0.52947534688E+02  0.23022615513E+04  0.23016526257E+04 0.  0.
        3    1    3    3  502    0  0.49539015785E+03  0.63579978483E+03  0.79517426411E+03  0.11322344701E+04  0.10100000352E+00 0.  1.
       -3    1    3    3    0  502 -0.49539015785E+03 -0.63579978483E+03 -0.84812179879E+03  0.11700270812E+04  0.10100000352E+00 0. -1.
</event>
<event>
 5   0  0.1168435E-05  0.2395279E+04  0.7818609E-02  0.8441273E-01
       -2   -1    0    0    0  501  0.00000000000E+00  0.00000000000E+00  0.18316644083E+04  0.18316644083E+04  0.25500000920E-02 0. -1.
        2   -1    0    0  501    0  0.00000000000E+00  0.00000000000E+00 -0.78308024429E+03  0.78308024430E+03  0.25500000920E-02 0.  1.
    10030    2    1    2    0    0  0.00000000000E+00  0.00000000000E+00  0.10485841640E+04  0.26147446526E+04  0.23952788667E+04 0.  0.
        1    1    3    3  502    0 -0.34916293809E+03 -0.10133620496E+04 -0.59010107232E+02  0.10734521851E+04  0.50400001928E-02 0.  1.
       -1    1    3    3    0  502  0.34916293809E+03  0.10133620496E+04  0.11075942713E+04  0.15412924676E+04  0.50400001928E-02 0. -1.
</event>
<event>
 5   0  0.1154897E-05  0.2400427E+04  0.7818609E-02  0.8439344E-01
       -2   -1    0    0    0  501  0.00000000000E+00  0.00000000000E+00  0.89997271923E+03  0.89997271923E+03  0.25500000920E-02 0. -1.
        2   -1    0    0  501    0  0.00000000000E+00  0.00000000000E+00 -0.16006172869E+04  0.16006172869E+04  0.25500000920E-02 0.  1.
    10030    2    1    2    0    0  0.00000000000E+00  0.00000000000E+00 -0.70064456766E+03  0.25005900061E+04  0.24004265389E+04 0.  0.
        4    1    3    3  502    0 -0.50309198802E+03 -0.66145777993E+03  0.55176930484E+03  0.99753642625E+03  0.12699999809E+01 0. -1.
       -4    1    3    3    0  502  0.50309198802E+03  0.66145777993E+03 -0.12524138725E+04  0.15030535799E+04  0.12699999809E+01 0.  1.
</event>
<event>
 5   0  0.5104174E-06  0.2357830E+04  0.7818609E-02  0.8455462E-01
       -1   -1    0    0    0  501  0.00000000000E+00  0.00000000000E+00  0.87362635746E+03  0.87362635748E+03  0.50400001928E-02 0.  1.
        1   -1    0    0  501    0  0.00000000000E+00  0.00000000000E+00 -0.15908872699E+04  0.15908872699E+04  0.50400001928E-02 0. -1.
    10030    2    1    2    0    0  0.00000000000E+00  0.00000000000E+00 -0.71726091243E+03  0.24645136274E+04  0.23578304017E+04 0.  0.
        3    1    3    3  502    0 -0.83969085926E+03  0.30059052641E+03  0.44723051034E+03  0.99772267854E+03  0.10100000352E+00 0.  1.
       -3    1    3    3    0  502  0.83969085926E+03 -0.30059052641E+03 -0.11644914228E+04  0.14667909488E+04  0.10100000352E+00 0. -1.
</event>
<event>
 5   0  0.5196696E-06  0.2411304E+04  0.7818609E-02  0.8435284E-01
       -1   -1    0    0    0  501  0.00000000000E+00  0.00000000000E+00  0.81304797385E+03  0.81304797387E+03  0.50400001928E-02 0.  1.
        1   -1    0    0  501    0  0.00000000000E+00  0.00000000000E+00 -0.17878364860E+04  0.17878364860E+04  0.50400001928E-02 0. -1.
    10030    2    1    2    0    0  0.00000000000E+00  0.00000000000E+00 -0.97478851211E+03  0.26008844598E+04  0.24113040725E+04 0.  0.
        1    1    3    3  502    0  0.10576629326E+03  0.80415906776E+03  0.47478119112E+03  0.93982737485E+03  0.50400001928E-02 0.  1.
       -1    1    3    3    0  502 -0.10576629326E+03 -0.80415906776E+03 -0.14495697032E+04  0.16610570850E+04  0.50400001928E-02 0. -1.
</event>
<event>
 5   0  0.4067750E-06  0.2398789E+04  0.7818609E-02  0.8439957E-01
       -3   -1    0    0    0  501  0.00000000000E+00  0.00000000000E+00  0.15860409726E+04  0.15860409758E+04  0.10100000352E+00 0.  1.
        3   -1    0    0  501    0  0.00000000000E+00  0.00000000000E+00 -0.90700527901E+03  0.90700528463E+03  0.10100000352E+00 0. -1.
    10030    2    1    2    0    0  0.00000000000E+00  0.00000000000E+00  0.67903569357E+03  0.24930462604E+04  0.23987893162E+04 0.  0.
        4    1    3    3  502    0  0.60694709654E+03 -0.31499030003E+03 -0.68456462944E+03  0.96759186225E+03  0.12699999809E+01 0. -1.
       -4    1    3    3    0  502 -0.60694709654E+03  0.31499030003E+03  0.13636003230E+04  0.15254543982E+04  0.12699999809E+01 0.  1.
</event>
<event>
 5   0  0.5196696E-06  0.2397974E+04  0.7818609E-02  0.8440263E-01
       -1   -1    0    0    0  501  0.00000000000E+00  0.00000000000E+00  0.89301207175E+03  0.89301207176E+03  0.50400001928E-02 0.  1.
        1   -1    0    0  501    0  0.00000000000E+00  0.00000000000E+00 -0.16097985239E+04  0.16097985239E+04  0.50400001928E-02 0. -1.
    10030    2    1    2    0    0  0.00000000000E+00  0.00000000000E+00 -0.71678645210E+03  0.25028105956E+04  0.23979737404E+04 0.  0.
        1    1    3    3  502    0 -0.54200412997E+03  0.95574730051E+03 -0.85932192369E+03  0.13948675736E+04  0.50400001928E-02 0. -1.
       -1    1    3    3    0  502  0.54200412997E+03 -0.95574730051E+03  0.14253547158E+03  0.11079430220E+04  0.50400001928E-02 0.  1.
</event>
<event>
 5   0  0.5034479E-06  0.2392581E+04  0.7818609E-02  0.8442286E-01
        1   -1    0    0  501    0  0.00000000000E+00  0.00000000000E+00  0.59832083491E+03  0.59832083493E+03  0.50400001928E-02 0.  1.
       -1   -1    0    0    0  501  0.00000000000E+00  0.00000000000E+00 -0.23918792480E+04  0.23918792480E+04  0.50400001928E-02 0. -1.
    10030    2    1    2    0    0  0.00000000000E+00  0.00000000000E+00 -0.17935584131E+04  0.29902000829E+04  0.23925811908E+04 0.  0.
        4    1    3    3  502    0  0.93103095954E+03  0.44738624256E+03 -0.16509429655E+04  0.19474566454E+04  0.12699999809E+01 0. -1.
       -4    1    3    3    0  502 -0.93103095954E+03 -0.44738624256E+03 -0.14261544760E+03  0.10427434375E+04  0.12699999809E+01 0.  1.
</event>
<event>
 5   0  0.5104174E-06  0.2403504E+04  0.7818609E-02  0.8438193E-01
       -1   -1    0    0    0  501  0.00000000000E+00  0.00000000000E+00  0.97048461609E+03  0.97048461610E+03  0.50400001928E-02 0. -1.
        1   -1    0    0  501    0  0.00000000000E+00  0.00000000000E+00 -0.14881305581E+04  0.14881305581E+04  0.50400001928E-02 0.  1.
    10030    2    1    2    0    0  0.00000000000E+00  0.00000000000E+00 -0.51764594199E+03  0.24586151742E+04  0.24035039533E+04 0.  0.
        3    1    3    3  502    0 -0.70386066858E+03 -0.91135024616E+03 -0.61055114542E+03  0.13033617392E+04  0.10100000352E+00 0. -1.
       -3    1    3    3    0  502  0.70386066858E+03  0.91135024616E+03  0.92905203429E+02  0.11552534350E+04  0.10100000352E+00 0.  1.
</event>
<event>
 5   0  0.1154897E-05  0.2417086E+04  0.7818609E-02  0.8433135E-01
       -2   -1    0    0    0  501  0.00000000000E+00  0.00000000000E+00  0.10959596654E+04  0.10959596654E+04  0.25500000920E-02 0. -1.
        2   -1    0    0  501    0  0.00000000000E+00  0.00000000000E+00 -0.13326911383E+04  0.13326911383E+04  0.25500000920E-02 0.  1.
    10030    2    1    2    0    0  0.00000000000E+00  0.00000000000E+00 -0.23673147292E+03  0.24286508037E+04  0.24170856286E+04 0.  0.
        4    1    3    3  502    0 -0.56883888441E+03 -0.10294718746E+04  0.16078384009E+03  0.11871154422E+04  0.12699999809E+01 0. -1.
       -4    1    3    3    0  502  0.56883888441E+03  0.10294718746E+04 -0.39751531301E+03  0.12415353615E+04  0.12699999809E+01 0.  1.
</event>
<event>
 5   0  0.5064437E-06  0.2371234E+04  0.7818609E-02  0.8450352E-01
        1   -1    0    0  501    0  0.00000000000E+00  0.00000000000E+00  0.14693661571E+04  0.14693661571E+04  0.50400001928E-02 0.  1.
       -1   -1    0    0    0  501  0.00000000000E+00  0.00000000000E+00 -0.95666245237E+03  0.95666245238E+03  0.50400001928E-02 0. -1.
    10030    2    1    2    0    0  0.00000000000E+00  0.00000000000E+00  0.51270370475E+03  0.24260286095E+04  0.23712337981E+04 0.  0.
        2    1    3    3  502    0 -0.88498221523E+02  0.10796400050E+04 -0.23668963660E+03  0.11088175954E+04  0.25500000920E-02 0. -1.
       -2    1    3    3    0  502  0.88498221523E+02 -0.10796400050E+04  0.74939334135E+03  0.13172110141E+04  0.25500000920E-02 0.  1.
</event>
<event>
 5   0  0.5104174E-06  0.2393340E+04  0.7818609E-02  0.8442001E-01
        1   -1    0    0  501    0  0.00000000000E+00  0.00000000000E+00  0.16284704961E+04  0.16284704961E+04  0.50400001928E-02 0. -1.
       -1   -1    0    0    0  501  0.00000000000E+00  0.00000000000E+00 -0.87936451559E+03  0.87936451560E+03  0.50400001928E-02 0.  1.
    10030    2    1    2    0    0  0.00000000000E+00  0.00000000000E+00  0.74910598052E+03  0.25078350117E+04  0.23933400669E+04 0.  0.
        3    1    3    3  502    0 -0.81570814335E+03 -0.56369940766E+02  0.12901159399E+04  0.15274018770E+04  0.10100000352E+00 0. -1.
       -3    1    3    3    0  502  0.81570814335E+03  0.56369940766E+02 -0.54100995935E+03  0.98043313472E+03  0.10100000352E+00 0.  1.
</event>
<event>
 5   0  0.1198313E-05  0.2405968E+04  0.7818609E-02  0.8437273E-01
        2   -1    0    0  501    0  0.00000000000E+00  0.00000000000E+00  0.17072087053E+04  0.17072087053E+04  0.25500000920E-02 0.  1.
       -2   -1    0    0    0  501  0.00000000000E+00  0.00000000000E+00 -0.84768201988E+03  0.84768201989E+03  0.25500000920E-02 0. -1.
    10030    2    1    2    0    0  0.00000000000E+00  0.00000000000E+00  0.85952668539E+03  0.25548907252E+04  0.24059676836E+04 0.  0.
        5    1    3    3  502    0 -0.88714850739E+03  0.76569091103E+03  0.71830449580E+03  0.13745175459E+04  0.46999998093E+01 0.  1.
       -5    1    3    3    0  502  0.88714850739E+03 -0.76569091103E+03  0.14122218959E+03  0.11803731792E+04  0.46999998093E+01 0. -1.
</event>
<event>
 5   0  0.5064437E-06  0.2378134E+04  0.7818609E-02  0.8447735E-01
       -1   -1    0    0    0  501  0.00000000000E+00  0.00000000000E+00  0.76129136326E+03  0.76129136328E+03  0.50400001928E-02 0.  1.
        1   -1    0    0  501    0  0.00000000000E+00  0.00000000000E+00 -0.18572137513E+04  0.18572137513E+04  0.50400001928E-02 0. -1.
    10030    2    1    2    0    0  0.00000000000E+00  0.00000000000E+00 -0.10959223880E+04  0.26185051145E+04  0.23781343853E+04 0.  0.
        2    1    3    3  502    0  0.50899915845E+03 -0.66965483206E+02  0.63297291145E+03  0.81499645759E+03  0.25500000920E-02 0.  1.
       -2    1    3    3    0  502 -0.50899915845E+03  0.66965483206E+02 -0.17288952994E+04  0.18035086570E+04  0.25500000920E-02 0. -1.
</event>
<event>
 5   0  0.5042742E-06  0.2399118E+04  0.7818609E-02  0.8439834E-01
       -1   -1    0    0    0  501  0.00000000000E+00  0.00000000000E+00  0.20747021943E+04  0.20747021943E+04  0.50400001928E-02 0.  1.
        1   -1    0    0  501    0  0.00000000000E+00  0.00000000000E+00 -0.69356538277E+03  0.69356538279E+03  0.50400001928E-02 0. -1.
    10030    2    1    2    0    0  0.00000000000E+00  0.00000000000E+00  0.13811368115E+04  0.27682675771E+04  0.23991178558E+04 0.  0.
        5    1    3    3  502    0  0.99916627890E+03 -0.44409097867E+03  0.12133609786E+03  0.11001338959E+04  0.46999998093E+01 0. -1.
       -5    1    3    3    0  502 -0.99916627890E+03  0.44409097867E+03  0.12598007137E+04  0.16681336812E+04  0.46999998093E+01 0.  1.
</event>
<event>
 5   0  0.5042742E-06  0.2392403E+04  0.7818609E-02  0.8442353E-01
       -1   -1    0    0    0  501  0.00000000000E+00  0.00000000000E+00  0.15736095026E+04  0.15736095026E+04  0.50400001928E-02 0.  1.
        1   -1    0    0  501    0  0.00000000000E+00  0.00000000000E+00 -0.90930969433E+03  0.90930969435E+03  0.50400001928E-02 0. -1.
    10030    2    1    2    0    0  0.00000000000E+00  0.00000000000E+00  0.66429980822E+03  0.24829191969E+04  0.23924032903E+04 0.  0.
        5    1    3    3  502    0  0.25500907112E+03 -0.99834373742E+00  0.15450611121E+04  0.15659714408E+04  0.46999998093E+01 0.  1.
       -5    1    3    3    0  502 -0.25500907112E+03  0.99834373742E+00 -0.88076130391E+03  0.91694775615E+03  0.46999998093E+01 0. -1.
</event>
<event>
 5   0  0.1169371E-05  0.2391037E+04  0.7818609E-02  0.8442867E-01
        2   -1    0    0  501    0  0.00000000000E+00  0.00000000000E+00  0.10227243613E+04  0.10227243613E+04  0.25500000920E-02 0.  1.
       -2   -1    0    0    0  501  0.00000000000E+00  0.00000000000E+00 -0.13975072211E+04  0.13975072211E+04  0.25500000920E-02 0. -1.
    10030    2    1    2    0    0  0.00000000000E+00  0.00000000000E+00 -0.37478285982E+03  0.24202315824E+04  0.23910371642E+04 0.  0.
        2    1    3    3  502    0 -0.13343210075E+03 -0.22980110285E+03  0.99245291395E+03  0.10274120200E+04  0.25500000920E-02 0.  1.
       -2    1    3    3    0  502  0.13343210075E+03  0.22980110285E+03 -0.13672357738E+04  0.13928195624E+04  0.25500000920E-02 0. -1.
</event>
<event>
 5   0  0.1169371E-05  0.2415146E+04  0.7818609E-02  0.8433855E-01
        2   -1    0    0  501    0  0.00000000000E+00  0.00000000000E+00  0.72389884757E+03  0.72389884758E+03  0.25500000920E-02 0.  1.
       -2   -1    0    0    0  501  0.00000000000E+00  0.00000000000E+00 -0.20144151462E+04  0.20144151462E+04  0.25500000920E-02 0. -1.
    10030    2    1    2    0    0  0.00000000000E+00  0.00000000000E+00 -0.12905162987E+04  0.27383139938E+04  0.24151462092E+04 0.  0.
        2    1    3    3  502    0  0.39578565091E+03  0.51527377171E+03 -0.17993393078E+04  0.19130539161E+04  0.25500000920E-02 0. -1.
       -2    1    3    3    0  502 -0.39578565091E+03 -0.51527377171E+03  0.50882300912E+03  0.82526007773E+03  0.25500000920E-02 0.  1.
</event>
<event>
 5   0  0.1174210E-05  0.2397024E+04  0.7818609E-02  0.8440619E-01
        2   -1    0    0  501    0  0.00000000000E+00  0.00000000000E+00  0.10146139974E+04  0.10146139974E+04  0.25500000920E-02 0.  1.
       -2   -1    0    0    0  501  0.00000000000E+00  0.00000000000E+00 -0.14157415087E+04  0.14157415087E+04  0.25500000920E-02 0. -1.
    10030    2    1    2    0    0  0.00000000000E+00  0.00000000000E+00 -0.40112751137E+03  0.24303555061E+04  0.23970241145E+04 0.  0.
        3    1    3    3  502    0  0.32714234856E+03  0.10969867295E+04 -0.56050605729E+03  0.12745858353E+04  0.10100000352E+00 0. -1.
       -3    1    3    3    0  502 -0.32714234856E+03 -0.10969867295E+04  0.15937854591E+03  0.11557696709E+04  0.10100000352E+00 0.  1.
</event>
<event>
 5   0  0.1154897E-05  0.2401087E+04  0.7818609E-02  0.8439097E-01
       -2   -1    0    0    0  501  0.00000000000E+00  0.00000000000E+00  0.16048630904E+04  0.16048630904E+04  0.25500000920E-02 0.  1.
        2   -1    0    0  501    0  0.00000000000E+00  0.00000000000E+00 -0.89808569156E+03  0.89808569157E+03  0.25500000920E-02 0. -1.
    10030    2    1    2    0    0  0.00000000000E+00  0.00000000000E+00  0.70677739879E+03  0.25029487819E+04  0.24010869025E+04 0.  0.
        4    1    3    3  502    0 -0.64931102820E+03 -0.39973848343E+03  0.13200401379E+04  0.15244353857E+04  0.12699999809E+01 0.  1.
       -4    1    3    3    0  502  0.64931102820E+03  0.39973848343E+03 -0.61326273915E+03  0.97851339623E+03  0.12699999809E+01 0. -1.
</event>
<event>
 5   0  0.5196696E-06  0.2398385E+04  0.7818609E-02  0.8440108E-01
       -1   -1    0    0    0  501  0.00000000000E+00  0.00000000000E+00  0.12638691267E+04  0.12638691267E+04  0.50400001928E-02 0. -1.
        1   -1    0    0  501    0  0.00000000000E+00  0.00000000000E+00 -0.11378260697E+04  0.11378260697E+04  0.50400001928E-02 0.  1.
    10030    2    1    2    0    0  0.00000000000E+00  0.00000000000E+00  0.12604305695E+03  0.24016951964E+04  0.23983854912E+04 0.  0.
        1    1    3    3  502    0 -0.30726772480E+03 -0.89756221135E+03 -0.67149724303E+03  0.11622994130E+04  0.50400001928E-02 0.  1.
       -1    1    3    3    0  502  0.30726772480E+03  0.89756221135E+03  0.79754029998E+03  0.12393957835E+04  0.50400001928E-02 0. -1.
</event>
<event>
 5   0  0.1154897E-05  0.2397775E+04  0.7818609E-02  0.8440337E-01
        2   -1    0    0  501    0  0.00000000000E+00  0.00000000000E+00  0.24616747420E+04  0.24616747420E+04  0.25500000920E-02 0.  1.
       -2   -1    0    0    0  501  0.00000000000E+00  0.00000000000E+00 -0.58388336683E+03  0.58388336684E+03  0.25500000920E-02 0. -1.
    10030    2    1    2    0    0  0.00000000000E+00  0.00000000000E+00  0.18777913751E+04  0.30455581088E+04  0.23977747487E+04 0.  0.
        4    1    3    3  502    0  0.83704732242E+03  0.68770055947E+03  0.28658580977E+03  0.11205861496E+04  0.12699999809E+01 0. -1.
       -4    1    3    3    0  502 -0.83704732242E+03 -0.68770055947E+03  0.15912055654E+04  0.19249719592E+04  0.12699999809E+01 0.  1.
</event>
<event>
 5   0  0.5034479E-06  0.2397804E+04  0.7818609E-02  0.8440326E-01
       -1   -1    0    0    0  501  0.00000000000E+00  0.00000000000E+00  0.10667578400E+04  0.10667578400E+04  0.50400001928E-02 0.  1.
        1   -1    0    0  501    0  0.00000000000E+00  0.00000000000E+00 -0.13474154328E+04  0.13474154328E+04  0.50400001928E-02 0. -1.
    10030    2    1    2    0    0  0.00000000000E+00  0.00000000000E+00 -0.28065759286E+03  0.24141732728E+04  0.23978039759E+04 0.  0.
        4    1    3    3  502    0 -0.13129588572E+03  0.48798229701E+02  0.10584905561E+04  0.10677189458E+04  0.12699999809E+01 0.  1.
       -4    1    3    3    0  502  0.13129588572E+03 -0.48798229701E+02 -0.13391481490E+04  0.13464543270E+04  0.12699999809E+01 0. -1.
</event>
<event>
 5   0  0.1168435E-05  0.2402360E+04  0.7818609E-02  0.8438620E-01
       -2   -1    0    0    0  501  0.00000000000E+00  0.00000000000E+00  0.11527249911E+04  0.11527249911E+04  0.25500000920E-02 0.  1.
        2   -1    0    0  501    0  0.00000000000E+00  0.00000000000E+00 -0.12516721392E+04  0.12516721392E+04  0.25500000920E-02 0. -1.
    10030    2    1    2    0    0  0.00000000000E+00  0.00000000000E+00 -0.98947148096E+02  0.24043971302E+04  0.24023603022E+04 0.  0.
        1    1    3    3  502    0  0.18544634646E+01  0.11726805999E+04  0.21084409701E+03  0.11914858210E+04  0.50400001928E-02 0. -1.
       -1    1    3    3    0  502 -0.18544634646E+01 -0.11726805999E+04 -0.30979124510E+03  0.12129113092E+04  0.50400001928E-02 0.  1.
</event>
<event>
 5   0  0.5104174E-06  0.2425596E+04  0.7818609E-02  0.8429983E-01
        1   -1    0    0  501    0  0.00000000000E+00  0.00000000000E+00  0.12764797264E+04  0.12764797264E+04  0.50400001928E-02 0. -1.
       -1   -1    0    0    0  501  0.00000000000E+00  0.00000000000E+00 -0.11522931464E+04  0.11522931464E+04  0.50400001928E-02 0.  1.
    10030    2    1    2    0    0  0.00000000000E+00  0.00000000000E+00  0.12418657999E+03  0.24287728728E+04  0.24255958775E+04 0.  0.
        3    1    3    3  502    0 -0.39679215667E+03  0.89382105316E+00 -0.10854592736E+04  0.11557104565E+04  0.10100000352E+00 0.  1.
       -3    1    3    3    0  502  0.39679215667E+03 -0.89382105316E+00  0.12096458536E+04  0.12730624163E+04  0.10100000352E+00 0. -1.
</event>
<event>
 5   0  0.1174210E-05  0.2407730E+04  0.7818609E-02  0.8436615E-01
       -2   -1    0    0    0  501  0.00000000000E+00  0.00000000000E+00  0.15744580614E+04  0.15744580614E+04  0.25500000920E-02 0. -1.
        2   -1    0    0  501    0  0.00000000000E+00  0.00000000000E+00 -0.92050155974E+03  0.92050155975E+03  0.25500000920E-02 0.  1.
    10030    2    1    2    0    0  0.00000000000E+00  0.00000000000E+00  0.65395650169E+03  0.24949596212E+04  0.24077301355E+04 0.  0.
        3    1    3    3  502    0 -0.10825092602E+04 -0.11241836770E+03  0.86023549495E+03  0.13872524301E+04  0.10100000352E+00 0. -1.
       -3    1    3    3    0  502  0.10825092602E+04  0.11241836770E+03 -0.20627899326E+03  0.11077071911E+04  0.10100000352E+00 0.  1.
</event>
<event>
 5   0  0.5042742E-06  0.2401466E+04  0.7818609E-02  0.8438955E-01
       -1   -1    0    0    0  501  0.00000000000E+00  0.00000000000E+00  0.11526769853E+04  0.11526769853E+04  0.50400001928E-02 0. -1.
        1   -1    0    0  501    0  0.00000000000E+00  0.00000000000E+00 -0.12507924143E+04  0.12507924143E+04  0.50400001928E-02 0.  1.
    10030    2    1    2    0    0  0.00000000000E+00  0.00000000000E+00 -0.98115429011E+02  0.24034693997E+04  0.24014659102E+04 0.  0.
        5    1    3    3  502    0  0.11855771534E+04 -0.93048729336E+02  0.11687048751E+03  0.11949611097E+04  0.46999998093E+01 0. -1.
       -5    1    3    3    0  502 -0.11855771534E+04  0.93048729336E+02 -0.21498591652E+03  0.12085082900E+04  0.46999998093E+01 0.  1.
</event>
<event>
 5   0  0.1168435E-05  0.2402858E+04  0.7818609E-02  0.8438435E-01
       -2   -1    0    0    0  501  0.00000000000E+00  0.00000000000E+00  0.66515076514E+03  0.66515076515E+03  0.25500000920E-02 0.  1.
        2   -1    0    0  501    0  0.00000000000E+00  0.00000000000E+00 -0.21700810655E+04  0.21700810655E+04  0.25500000920E-02 0. -1.
    10030    2    1    2    0    0  0.00000000000E+00  0.00000000000E+00 -0.15049303004E+04  0.28352318306E+04  0.24028575331E+04 0.  0.
        1    1    3    3  502    0  0.51688769873E+03  0.99178222997E+03 -0.23459816079E+03  0.11427340819E+04  0.50400001928E-02 0.  1.
       -1    1    3    3    0  502 -0.51688769873E+03 -0.99178222997E+03 -0.12703321396E+04  0.16924977488E+04  0.50400001928E-02 0. -1.
</event>
<event>
 5   0  0.1174210E-05  0.2391895E+04  0.7818609E-02  0.8442544E-01
        2   -1    0    0  501    0  0.00000000000E+00  0.00000000000E+00  0.88002127352E+03  0.88002127352E+03  0.25500000920E-02 0. -1.
       -2   -1    0    0    0  501  0.00000000000E+00  0.00000000000E+00 -0.16252902964E+04  0.16252902964E+04  0.25500000920E-02 0.  1.
    10030    2    1    2    0    0  0.00000000000E+00  0.00000000000E+00 -0.74526902287E+03  0.25053115699E+04  0.23918946770E+04 0.  0.
        3    1    3    3  502    0  0.26412980718E+03  0.52434541314E+03 -0.14639544264E+04  0.15772968142E+04  0.10100000352E+00 0.  1.
       -3    1    3    3    0  502 -0.26412980718E+03 -0.52434541314E+03  0.71868540355E+03  0.92801475570E+03  0.10100000352E+00 0. -1.
</event>
<event>
 5   0  0.4067750E-06  0.2397445E+04  0.7818609E-02  0.8440461E-01
        3   -1    0    0  501    0  0.00000000000E+00  0.00000000000E+00  0.15880482359E+04  0.15880482391E+04  0.10100000352E+00 0.  1.
       -3   -1    0    0    0  501  0.00000000000E+00  0.00000000000E+00 -0.90484349579E+03  0.90484350142E+03  0.10100000352E+00 0. -1.
    10030    2    1    2    0    0  0.00000000000E+00  0.00000000000E+00  0.68320474013E+03  0.24928917406E+04  0.23974445798E+04 0.  0.
        4    1    3    3  502    0  0.11545516644E+04  0.15808808407E+03  0.49431603239E+02  0.11663732183E+04  0.12699999809E+01 0.  1.
       -4    1    3    3    0  502 -0.11545516644E+04 -0.15808808407E+03  0.63377313690E+03  0.13265185223E+04  0.12699999809E+01 0. -1.
</event>
<event>
 5   0  0.5034479E-06  0.2405946E+04  0.7818609E-02  0.8437281E-01
       -1   -1    0    0    0  501  0.00000000000E+00  0.00000000000E+00  0.11666000806E+04  0.11666000806E+04  0.50400001928E-02 0. -1.
        1   -1    0    0  501    0  0.00000000000E+00  0.00000000000E+00 -0.12404800288E+04  0.12404800288E+04  0.50400001928E-02 0.  1.
    10030    2    1    2    0    0  0.00000000000E+00  0.00000000000E+00 -0.73879948188E+02  0.24070801094E+04  0.24059460522E+04 0.  0.
        4    1    3    3  502    0 -0.15938739057E+01  0.80412173102E+03  0.85820416811E+03  0.11760656044E+04  0.12699999809E+01 0. -1.
       -4    1    3    3    0  502  0.15938739057E+01 -0.80412173102E+03 -0.93208411630E+03  0.12310145050E+04  0.12699999809E+01 0.  1.
</event>
<event>
 5   0  0.5064437E-06  0.2394071E+04  0.7818609E-02  0.8441727E-01
       -1   -1    0    0    0  501  0.00000000000E+00  0.00000000000E+00  0.97266431859E+03  0.97266431860E+03  0.50400001928E-02 0. -1.
        1   -1    0    0  501    0  0.00000000000E+00  0.00000000000E+00 -0.14731635793E+04  0.14731635793E+04  0.50400001928E-02 0.  1.
    10030    2    1    2    0    0  0.00000000000E+00  0.00000000000E+00 -0.50049926069E+03  0.24458278979E+04  0.23940707166E+04 0.  0.
        2    1    3    3  502    0 -0.76073609171E+03 -0.64690746046E+03 -0.92458387750E+03  0.13609055846E+04  0.25500000920E-02 0.  1.
       -2    1    3    3    0  502  0.76073609171E+03  0.64690746046E+03  0.42408461681E+03  0.10849223133E+04  0.25500000920E-02 0. -1.
</event>
<event>
 5   0  0.1154897E-05  0.2399418E+04  0.7818609E-02  0.8439721E-01
       -2   -1    0    0    0  501  0.00000000000E+00  0.00000000000E+00  0.90109297580E+03  0.90109297580E+03  0.25500000920E-02 0.  1.
        2   -1    0    0  501    0  0.00000000000E+00  0.00000000000E+00 -0.15972843129E+04  0.15972843129E+04  0.25500000920E-02 0. -1.
    10030    2    1    2    0    0  0.00000000000E+00  0.00000000000E+00 -0.69619133707E+03  0.24983772887E+04  0.23994179917E+04 0.  0.
        4    1    3    3  502    0 -0.19523298536E+03  0.56130644799E+03 -0.14332483821E+04  0.15515744857E+04  0.12699999809E+01 0. -1.
       -4    1    3    3    0  502  0.19523298536E+03 -0.56130644799E+03  0.73705704502E+03  0.94680280293E+03  0.12699999809E+01 0.  1.
</event>
<event>
 5   0  0.1168435E-05  0.2391993E+04  0.7818609E-02  0.8442507E-01
       -2   -1    0    0    0  501  0.00000000000E+00  0.00000000000E+00  0.72894585551E+03  0.72894585552E+03  0.25500000920E-02 0. -1.
        2   -1    0    0  501    0  0.00000000000E+00  0.00000000000E+00 -0.19622958797E+04  0.19622958797E+04  0.25500000920E-02 0.  1.
    10030    2    1    2    0    0  0.00000000000E+00  0.00000000000E+00 -0.12333500242E+04  0.26912417352E+04  0.23919928502E+04 0.  0.
        1    1    3    3  502    0 -0.13145014867E+03  0.98605218874E+03 -0.13636879122E+04  0.16879640939E+04  0.50400001928E-02 0.  1.
       -1    1    3    3    0  502  0.13145014867E+03 -0.98605218874E+03  0.13033788798E+03  0.10032776413E+04  0.50400001928E-02 0. -1.
</event>
<event>
 5   0  0.5196696E-06  0.2403574E+04  0.7818609E-02  0.8438167E-01
       -1   -1    0    0    0  501  0.00000000000E+00  0.00000000000E+00  0.11053195050E+04  0.11053195050E+04  0.50400001928E-02 0. -1.
        1   -1    0    0  501    0  0.00000000000E+00  0.00000000000E+00 -0.13066732224E+04  0.13066732224E+04  0.50400001928E-02 0.  1.
    10030    2    1    2    0    0  0.00000000000E+00  0.00000000000E+00 -0.20135371739E+03  0.24119927274E+04  0.24035735057E+04 0.  0.
        1    1    3    3  502    0  0.83629329482E+02  0.81502871847E+03  0.78162167710E+03  0.11323418754E+04  0.50400001928E-02 0. -1.
       -1    1    3    3    0  502 -0.83629329482E+02 -0.81502871847E+03 -0.98297539449E+03  0.12796508519E+04  0.50400001928E-02 0.  1.
</event>
<event>
 5   0  0.1198313E-05  0.2392321E+04  0.7818609E-02  0.8442384E-01
       -2   -1    0    0    0  501  0.00000000000E+00  0.00000000000E+00  0.13620088890E+04  0.13620088890E+04  0.25500000920E-02 0.  1.
        2   -1    0    0  501    0  0.00000000000E+00  0.00000000000E+00 -0.10505073943E+04  0.10505073943E+04  0.25500000920E-02 0. -1.
    10030    2    1    2    0    0  0.00000000000E+00  0.00000000000E+00  0.31150149477E+03  0.24125162833E+04  0.23923213906E+04 0.  0.
        5    1    3    3  502    0  0.10868848028E+04  0.79181542818E+02  0.65305664651E+03  0.12704697418E+04  0.46999998093E+01 0.  1.
       -5    1    3    3    0  502 -0.10868848028E+04 -0.79181542818E+02 -0.34155515174E+03  0.11420465415E+04  0.46999998093E+01 0. -1.
</event>
<event>
 5   0  0.5034479E-06  0.2396917E+04  0.7818609E-02  0.8440659E-01
       -1   -1    0    0    0  501  0.00000000000E+00  0.00000000000E+00  0.12850602428E+04  0.12850602428E+04  0.50400001928E-02 0. -1.
        1   -1    0    0  501    0  0.00000000000E+00  0.00000000000E+00 -0.11176928215E+04  0.11176928215E+04  0.50400001928E-02 0.  1.
    10030    2    1    2    0    0  0.00000000000E+00  0.00000000000E+00  0.16736742133E+03  0.24027530643E+04  0.23969168601E+04 0.  0.
        4    1    3    3  502    0  0.64937921878E+02 -0.99822686171E+03 -0.57794396171E+03  0.11552898497E+04  0.12699999809E+01 0.  1.
       -4    1    3    3    0  502 -0.64937921878E+02  0.99822686171E+03  0.74531138304E+03  0.12474632146E+04  0.12699999809E+01 0. -1.
</event>
<event>
 5   0  0.5104174E-06  0.2394727E+04  0.7818609E-02  0.8441480E-01
        1   -1    0    0  501    0  0.00000000000E+00  0.00000000000E+00  0.10008972153E+04  0.10008972153E+04  0.50400001928E-02 0. -1.
       -1   -1    0    0    0  501  0.00000000000E+00  0.00000000000E+00 -0.14323937983E+04  0.14323937983E+04  0.50400001928E-02 0.  1.
    10030    2    1    2    0    0  0.00000000000E+00  0.00000000000E+00 -0.43149658301E+03  0.24332910136E+04  0.23947266766E+04 0.  0.
        3    1    3    3  502    0  0.44628631648E+03 -0.98591837407E+03 -0.73631926897E+03  0.13089585909E+04  0.10100000352E+00 0. -1.
       -3    1    3    3    0  502 -0.44628631648E+03  0.98591837407E+03  0.30482268596E+03  0.11243324227E+04  0.10100000352E+00 0.  1.
</event>
<event>
 5   0  0.5064437E-06  0.2417895E+04  0.7818609E-02  0.8432834E-01
       -1   -1    0    0    0  501  0.00000000000E+00  0.00000000000E+00  0.13122593422E+04  0.13122593422E+04  0.50400001928E-02 0.  1.
        1   -1    0    0  501    0  0.00000000000E+00  0.00000000000E+00 -0.11137692184E+04  0.11137692184E+04  0.50400001928E-02 0. -1.
    10030    2    1    2    0    0  0.00000000000E+00  0.00000000000E+00  0.19849012378E+03  0.24260285606E+04  0.24178950034E+04 0.  0.
        2    1    3    3  502    0  0.33181506169E+03 -0.53521284602E+03 -0.93621483347E+03  0.11282961669E+04  0.25500000920E-02 0. -1.
       -2    1    3    3    0  502 -0.33181506169E+03  0.53521284602E+03  0.11347049573E+04  0.12977323937E+04  0.25500000920E-02 0.  1.
</event>
<event>
 5   0  0.1154897E-05  0.2397615E+04  0.7818609E-02  0.8440397E-01
       -2   -1    0    0    0  501  0.00000000000E+00  0.00000000000E+00  0.81880607224E+03  0.81880607224E+03  0.25500000920E-02 0. -1.
        2   -1    0    0  501    0  0.00000000000E+00  0.00000000000E+00 -0.17551642615E+04  0.17551642615E+04  0.25500000920E-02 0.  1.
    10030    2    1    2    0    0  0.00000000000E+00  0.00000000000E+00 -0.93635818927E+03  0.25739703338E+04  0.23976147773E+04 0.  0.
        4    1    3    3  502    0 -0.51886565676E+03 -0.74410653262E+03 -0.13095483079E+04  0.15930582178E+04  0.12699999809E+01 0.  1.
       -4    1    3    3    0  502  0.51886565676E+03  0.74410653262E+03  0.37319011865E+03  0.98091211594E+03  0.12699999809E+01 0. -1.
</event>
<event>
 5   0  0.5196696E-06  0.2402836E+04  0.7818609E-02  0.8438443E-01
       -1   -1    0    0    0  501  0.00000000000E+00  0.00000000000E+00  0.99554938934E+03  0.99554938935E+03  0.50400001928E-02 0. -1.
        1   -1    0    0  501    0  0.00000000000E+00  0.00000000000E+00 -0.14498579540E+04  0.14498579540E+04  0.50400001928E-02 0.  1.
    10030    2    1    2    0    0  0.00000000000E+00  0.00000000000E+00 -0.45430856465E+03  0.24454073433E+04  0.24028359917E+04 0.  0.
        1    1    3    3  502    0 -0.74850538173E+03  0.65907343080E+03 -0.90892381937E+03  0.13493630361E+04  0.50400001928E-02 0.  1.
       -1    1    3    3    0  502  0.74850538173E+03 -0.65907343080E+03  0.45461525472E+03  0.10960443073E+04  0.50400001928E-02 0. -1.
</event>
<event>
 5   0  0.5104174E-06  0.2388934E+04  0.7818609E-02  0.8443658E-01
        1   -1    0    0  501    0  0.00000000000E+00  0.00000000000E+00  0.20594497600E+04  0.20594497600E+04  0.50400001928E-02 0.  1.
       -1   -1    0    0    0  501  0.00000000000E+00  0.00000000000E+00 -0.69278298357E+03  0.69278298359E+03  0.50400001928E-02 0. -1.
    10030    2    1    2    0    0  0.00000000000E+00  0.00000000000E+00  0.13666667764E+04  0.27522327436E+04  0.23889342806E+04 0.  0.
        3    1    3    3  502    0  0.25587229891E+03 -0.57483461326E+03 -0.48637581641E+03  0.79527788285E+03  0.10100000352E+00 0. -1.
       -3    1    3    3    0  502 -0.25587229891E+03  0.57483461326E+03  0.18530425929E+04  0.19569548608E+04  0.10100000352E+00 0.  1.
</event>
<event>
 5   0  0.1169371E-05  0.2387051E+04  0.7818609E-02  0.8444367E-01
        2   -1    0    0  501    0  0.00000000000E+00  0.00000000000E+00  0.11924663848E+04  0.11924663848E+04  0.25500000920E-02 0.  1.
       -2   -1    0    0    0  501  0.00000000000E+00  0.00000000000E+00 -0.11945854791E+04  0.11945854791E+04  0.25500000920E-02 0. -1.
    10030    2    1    2    0    0  0.00000000000E+00  0.00000000000E+00 -0.21190942168E+01  0.23870518639E+04  0.23870509233E+04 0.  0.
        2    1    3    3  502    0 -0.29866826212E+03  0.11208354442E+04 -0.28217921200E+03  0.11937754946E+04  0.25500000920E-02 0.  1.
       -2    1    3    3    0  502  0.29866826212E+03 -0.11208354442E+04  0.28006011779E+03  0.11932763693E+04  0.25500000920E-02 0. -1.
</event>
<event>
 5   0  0.1154897E-05  0.2398939E+04  0.7818609E-02  0.8439901E-01
        2   -1    0    0  501    0  0.00000000000E+00  0.00000000000E+00  0.11745777531E+04  0.11745777531E+04  0.25500000920E-02 0. -1.
       -2   -1    0    0    0  501  0.00000000000E+00  0.00000000000E+00 -0.12248892425E+04  0.12248892425E+04  0.25500000920E-02 0.  1.
    10030    2    1    2    0    0  0.00000000000E+00  0.00000000000E+00 -0.50311489387E+02  0.23994669955E+04  0.23989394775E+04 0.  0.
        4    1    3    3  502    0  0.11930383246E+04 -0.66184915789E+02 -0.13008426666E+03  0.12019336156E+04  0.12699999809E+01 0.  1.
       -4    1    3    3    0  502 -0.11930383246E+04  0.66184915789E+02  0.79772777275E+02  0.11975333799E+04  0.12699999809E+01 0. -1.
</event>
<event>
 5   0  0.5042742E-06  0.2394205E+04  0.7818609E-02  0.8441676E-01
        1   -1    0    0  501    0  0.00000000000E+00  0.00000000000E+00  0.97850416005E+03  0.97850416006E+03  0.50400001928E-02 0.  1.
       -1   -1    0    0    0  501  0.00000000000E+00  0.00000000000E+00 -0.14645358421E+04  0.14645358421E+04  0.50400001928E-02 0. -1.
    10030    2    1    2    0    0  0.00000000000E+00  0.00000000000E+00 -0.48603168206E+03  0.24430400022E+04  0.23942050155E+04 0.  0.
        5    1    3    3  502    0 -0.26320642535E+03  0.11285270369E+04  0.63411701059E+02  0.11605576372E+04  0.46999998093E+01 0.  1.
       -5    1    3    3    0  502  0.26320642535E+03 -0.11285270369E+04 -0.54944338312E+03  0.12824823650E+04  0.46999998093E+01 0. -1.
</event>
<event>
 5   0  0.1154897E-05  0.2385323E+04  0.7818609E-02  0.8445019E-01
        2   -1    0    0  501    0  0.00000000000E+00  0.00000000000E+00  0.14057087839E+04  0.14057087839E+04  0.25500000920E-02 0. -1.
       -2   -1    0    0    0  501  0.00000000000E+00  0.00000000000E+00 -0.10119030777E+04  0.10119030777E+04  0.25500000920E-02 0.  1.
    10030    2    1    2    0    0  0.00000000000E+00  0.00000000000E+00  0.39380570623E+03  0.24176118615E+04  0.23853226572E+04 0.  0.
        4    1    3    3  502    0 -0.72679495655E+03 -0.64543860246E+03  0.89735678120E+03  0.13229031348E+04  0.12699999809E+01 0. -1.
       -4    1    3    3    0  502  0.72679495655E+03  0.64543860246E+03 -0.50355107497E+03  0.10947087267E+04  0.12699999809E+01 0.  1.
</event>
<event>
 5   0  0.5064437E-06  0.2397969E+04  0.7818609E-02  0.8440264E-01
       -1   -1    0    0    0  501  0.00000000000E+00  0.00000000000E+00  0.79905174511E+03  0.79905174512E+03  0.50400001928E-02 0.  1.
        1   -1    0    0  501    0  0.00000000000E+00  0.00000000000E+00 -0.17990866960E+04  0.17990866960E+04  0.50400001928E-02 0. -1.
    10030    2    1    2    0    0  0.00000000000E+00  0.00000000000E+00 -0.10000349509E+04  0.25981384411E+04  0.23979686104E+04 0.  0.
        2    1    3    3  502    0  0.26811233319E+03 -0.71351380107E+03 -0.15027891297E+04  0.16850404553E+04  0.25500000920E-02 0. -1.
       -2    1    3    3    0  502 -0.26811233319E+03  0.71351380107E+03  0.50275417879E+03  0.91309798588E+03  0.25500000920E-02 0.  1.
</event>
<event>
 5   0  0.1198313E-05  0.2390932E+04  0.7818609E-02  0.8442906E-01
       -2   -1    0    0    0  501  0.00000000000E+00  0.00000000000E+00  0.15510349641E+04  0.15510349641E+04  0.25500000920E-02 0.  1.
        2   -1    0    0  501    0  0.00000000000E+00  0.00000000000E+00 -0.92140980681E+03  0.92140980681E+03  0.25500000920E-02 0. -1.
    10030    2    1    2    0    0  0.00000000000E+00  0.00000000000E+00  0.62962515730E+03  0.24724447709E+04  0.23909318908E+04 0.  0.
        5    1    3    3  502    0 -0.20551252956E+03 -0.33838527114E+03 -0.85164045222E+03  0.93917705540E+03  0.46999998093E+01 0. -1.
       -5    1    3    3    0  502  0.20551252956E+03  0.33838527114E+03  0.14812656095E+04  0.15332677155E+04  0.46999998093E+01 0.  1.
</event>
<event>
 5   0  0.5034479E-06  0.2384056E+04  0.7818609E-02  0.8445497E-01
       -1   -1    0    0    0  501  0.00000000000E+00  0.00000000000E+00  0.84890781950E+03  0.84890781951E+03  0.50400001928E-02 0.  1.
        1   -1    0    0  501    0  0.00000000000E+00  0.00000000000E+00 -0.16738334105E+04  0.16738334105E+04  0.50400001928E-02 0. -1.
    10030    2    1    2    0    0  0.00000000000E+00  0.00000000000E+00 -0.82492559101E+03  0.25227412300E+04  0.23840555956E+04 0.  0.
        4    1    3    3  502    0 -0.35955942766E+03  0.36510001249E+03  0.72641149338E+03  0.88896359417E+03  0.12699999809E+01 0.  1.
       -4    1    3    3    0  502  0.35955942766E+03 -0.36510001249E+03 -0.15513370844E+04  0.16337776359E+04  0.12699999809E+01 0. -1.
</event>
<event>
 5   0  0.1174210E-05  0.2416468E+04  0.7818609E-02  0.8433364E-01
        2   -1    0    0  501    0  0.00000000000E+00  0.00000000000E+00  0.12695775607E+04  0.12695775607E+04  0.25500000920E-02 0. -1.
       -2   -1    0    0    0  501  0.00000000000E+00  0.00000000000E+00 -0.11498548992E+04  0.11498548992E+04  0.25500000920E-02 0.  1.
    10030    2    1    2    0    0  0.00000000000E+00  0.00000000000E+00  0.11972266152E+03  0.24194324599E+04  0.24164684795E+04 0.  0.
        3    1    3    3  502    0 -0.71874776991E+03  0.22218006106E+03 -0.88674406127E+03  0.11628746178E+04  0.10100000352E+00 0.  1.
       -3    1    3    3    0  502  0.71874776991E+03 -0.22218006106E+03  0.10064667228E+04  0.12565578421E+04  0.10100000352E+00 0. -1.
</event>
<event>
 5   0  0.4067750E-06  0.2383697E+04  0.7818609E-02  0.8445632E-01
       -4   -1    0    0    0  501  0.00000000000E+00  0.00000000000E+00  0.77996885746E+03  0.77996989141E+03  0.12699999809E+01 0.  1.
        4   -1    0    0  501    0  0.00000000000E+00  0.00000000000E+00 -0.18212277741E+04  0.18212282169E+04  0.12699999809E+01 0. -1.
    10030    2    1    2    0    0  0.00000000000E+00  0.00000000000E+00 -0.10412589166E+04  0.26011981083E+04  0.23836970166E+04 0.  0.
        1    1    3    3  502    0 -0.22080658935E+03  0.58459328048E+03 -0.16281213877E+04  0.17439277814E+04  0.50400001928E-02 0. -1.
       -1    1    3    3    0  502  0.22080658935E+03 -0.58459328048E+03  0.58686247107E+03  0.85727032694E+03  0.50400001928E-02 0.  1.
</event>
<event>
 5   0  0.1169371E-05  0.2419916E+04  0.7818609E-02  0.8432085E-01
       -2   -1    0    0    0  501  0.00000000000E+00  0.00000000000E+00  0.91302477407E+03  0.91302477407E+03  0.25500000920E-02 0.  1.
        2   -1    0    0  501    0  0.00000000000E+00  0.00000000000E+00 -0.16034592670E+04  0.16034592670E+04  0.25500000920E-02 0. -1.
    10030    2    1    2    0    0  0.00000000000E+00  0.00000000000E+00 -0.69043449289E+03  0.25164840410E+04  0.24199157299E+04 0.  0.
        2    1    3    3  502    0  0.53985121854E+03  0.10794083765E+04 -0.25554232008E+03  0.12336383825E+04  0.25500000920E-02 0.  1.
       -2    1    3    3    0  502 -0.53985121854E+03 -0.10794083765E+04 -0.43489217280E+03  0.12828456585E+04  0.25500000920E-02 0. -1.
</event>
<event>
 5   0  0.4067750E-06  0.2385404E+04  0.7818609E-02  0.8444988E-01
        3   -1    0    0  501    0  0.00000000000E+00  0.00000000000E+00  0.18471022053E+04  0.18471022080E+04  0.10100000352E+00 0.  1.
       -3   -1    0    0    0  501  0.00000000000E+00  0.00000000000E+00 -0.77014558311E+03  0.77014558973E+03  0.10100000352E+00 0. -1.
    10030    2    1    2    0    0  0.00000000000E+00  0.00000000000E+00  0.10769566222E+04  0.26172477978E+04  0.23854036281E+04 0.  0.
        3    1    3    3  502    0 -0.28569054869E+02  0.77903328860E+03  0.15288907512E+04  0.17161631609E+04  0.10100000352E+00 0.  1.
       -3    1    3    3    0  502  0.28569054869E+02 -0.77903328860E+03 -0.45193412899E+03  0.90108463686E+03  0.10100000352E+00 0. -1.
</event>
<event>
 5   0  0.1154897E-05  0.2380522E+04  0.7818609E-02  0.8446832E-01
       -2   -1    0    0    0  501  0.00000000000E+00  0.00000000000E+00  0.60615462074E+03  0.60615462074E+03  0.25500000920E-02 0. -1.
        2   -1    0    0  501    0  0.00000000000E+00  0.00000000000E+00 -0.23372269977E+04  0.23372269977E+04  0.25500000920E-02 0.  1.
    10030    2    1    2    0    0  0.00000000000E+00  0.00000000000E+00 -0.17310723770E+04  0.29433816185E+04  0.23805217448E+04 0.  0.
        4    1    3    3  502    0  0.97045676523E+02  0.86499062715E+03  0.13826490782E+03  0.88133163226E+03  0.12699999809E+01 0. -1.
       -4    1    3    3    0  502 -0.97045676523E+02 -0.86499062715E+03 -0.18693372848E+04  0.20620499862E+04  0.12699999809E+01 0.  1.
</event>
<event>
 5   0  0.1198313E-05  0.2413502E+04  0.7818609E-02  0.8434466E-01
       -2   -1    0    0    0  501  0.00000000000E+00  0.00000000000E+00  0.69068000330E+03  0.69068000330E+03  0.25500000920E-02 0.  1.
        2   -1    0    0  501    0  0.00000000000E+00  0.00000000000E+00 -0.21084260297E+04  0.21084260297E+04  0.25500000920E-02 0. -1.
    10030    2    1    2    0    0  0.00000000000E+00  0.00000000000E+00 -0.14177460264E+04  0.27991060330E+04  0.24135017689E+04 0.  0.
        5    1    3    3  502    0 -0.76911252995E+03 -0.32102306035E+03 -0.17210241803E+04  0.19122071562E+04  0.46999998093E+01 0. -1.
       -5    1    3    3    0  502  0.76911252995E+03  0.32102306035E+03  0.30327815392E+03  0.88689887679E+03  0.46999998093E+01 0.  1.
</event>
<event>
 5   0  0.5034479E-06  0.2393443E+04  0.7818609E-02  0.8441963E-01
        1   -1    0    0  501    0  0.00000000000E+00  0.00000000000E+00  0.13378044306E+04  0.13378044306E+04  0.50400001928E-02 0. -1.
       -1   -1    0    0    0  501  0.00000000000E+00  0.00000000000E+00 -0.10705168474E+04  0.10705168474E+04  0.50400001928E-02 0.  1.
    10030    2    1    2    0    0  0.00000000000E+00  0.00000000000E+00  0.26728758319E+03  0.24083212779E+04  0.23934428603E+04 0.  0.
        4    1    3    3  502    0 -0.11510422528E+04  0.25650463971E+03 -0.71208781283E+02  0.11814250722E+04  0.12699999809E+01 0.  1.
       -4    1    3    3    0  502  0.11510422528E+04 -0.25650463971E+03  0.33849636447E+03  0.12268962057E+04  0.12699999809E+01 0. -1.
</event>
<event>
 5   0  0.5064437E-06  0.2390761E+04  0.7818609E-02  0.8442971E-01
       -1   -1    0    0    0  501  0.00000000000E+00  0.00000000000E+00  0.75040165512E+03  0.75040165514E+03  0.50400001928E-02 0.  1.
        1   -1    0    0  501    0  0.00000000000E+00  0.00000000000E+00 -0.19042259492E+04  0.19042259492E+04  0.50400001928E-02 0. -1.
    10030    2    1    2    0    0  0.00000000000E+00  0.00000000000E+00 -0.11538242941E+04  0.26546276043E+04  0.23907608028E+04 0.  0.
        2    1    3    3  502    0  0.10464924019E+04  0.57630880113E+03 -0.62209916826E+03  0.13469541776E+04  0.25500000920E-02 0.  1.
       -2    1    3    3    0  502 -0.10464924019E+04 -0.57630880113E+03 -0.53172512579E+03  0.13076734267E+04  0.25500000920E-02 0. -1.
</event>
<event>
 5   0  0.1198313E-05  0.2396518E+04  0.7818609E-02  0.8440808E-01
       -2   -1    0    0    0  501  0.00000000000E+00  0.00000000000E+00  0.12580871649E+04  0.12580871649E+04  0.25500000920E-02 0. -1.
        2   -1    0    0  501    0  0.00000000000E+00  0.00000000000E+00 -0.11412759982E+04  0.11412759982E+04  0.25500000920E-02 0.  1.
    10030    2    1    2    0    0  0.00000000000E+00  0.00000000000E+00  0.11681116674E+03  0.23993631631E+04  0.23965180449E+04 0.  0.
        5    1    3    3  502    0  0.11711621304E+04 -0.86404360220E+02 -0.18002866579E+03  0.11880735919E+04  0.46999998093E+01 0. -1.
       -5    1    3    3    0  502 -0.11711621304E+04  0.86404360220E+02  0.29683983253E+03  0.12112895712E+04  0.46999998093E+01 0.  1.
</event>
<event>
 5   0  0.5104174E-06  0.2384968E+04  0.7818609E-02  0.8445153E-01
        1   -1    0    0  501    0  0.00000000000E+00  0.00000000000E+00  0.17894707967E+04  0.17894707967E+04  0.50400001928E-02 0.  1.
       -1   -1    0    0    0  501  0.00000000000E+00  0.00000000000E+00 -0.79465838737E+03  0.79465838738E+03  0.50400001928E-02 0. -1.
    10030    2    1    2    0    0  0.00000000000E+00  0.00000000000E+00  0.99481240929E+03  0.25841291840E+04  0.23849679055E+04 0.  0.
        3    1    3    3  502    0  0.14296041561E+03 -0.82636275093E+03  0.14159650462E+04  0.16456822594E+04  0.10100000352E+00 0.  1.
       -3    1    3    3    0  502 -0.14296041561E+03  0.82636275093E+03 -0.42115263695E+03  0.93844692464E+03  0.10100000352E+00 0. -1.
</event>
<event>
 5   0  0.1168435E-05  0.2395305E+04  0.7818609E-02  0.8441263E-01
        2   -1    0    0  501    0  0.00000000000E+00  0.00000000000E+00  0.15737118043E+04  0.15737118043E+04  0.25500000920E-02 0. -1.
       -2   -1    0    0    0  501  0.00000000000E+00  0.00000000000E+00 -0.91145748017E+03  0.91145748017E+03  0.25500000920E-02 0.  1.
    10030    2    1    2    0    0  0.00000000000E+00  0.00000000000E+00  0.66225432415E+03  0.24851692845E+04  0.23953049039E+04 0.  0.
        1    1    3    3  502    0 -0.76407523091E+03 -0.86214421296E+03  0.67093222609E+03  0.13331367726E+04  0.50400001928E-02 0. -1.
       -1    1    3    3    0  502  0.76407523091E+03  0.86214421296E+03 -0.86779019458E+01  0.11520325119E+04  0.50400001928E-02 0.  1.
</event>
<event>
 5   0  0.5196696E-06  0.2410247E+04  0.7818609E-02  0.8435677E-01
        1   -1    0    0  501    0  0.00000000000E+00  0.00000000000E+00  0.16238491447E+04  0.16238491447E+04  0.50400001928E-02 0. -1.
       -1   -1    0    0    0  501  0.00000000000E+00  0.00000000000E+00 -0.89437028965E+03  0.89437028966E+03  0.50400001928E-02 0.  1.
    10030    2    1    2    0    0  0.00000000000E+00  0.00000000000E+00  0.72947885501E+03  0.25182194343E+04  0.24102468171E+04 0.  0.
        1    1    3    3  502    0  0.11053060659E+04  0.45012497795E+03  0.18988506461E+03  0.12084578325E+04  0.50400001928E-02 0.  1.
       -1    1    3    3    0  502 -0.11053060659E+04 -0.45012497795E+03  0.53959379039E+03  0.13097616019E+04  0.50400001928E-02 0. -1.
</event>
<event>
 5   0  0.1168435E-05  0.2399680E+04  0.7818609E-02  0.8439623E-01
        2   -1    0    0  501    0  0.00000000000E+00  0.00000000000E+00  0.77974147135E+03  0.77974147135E+03  0.25500000920E-02 0.  1.
       -2   -1    0    0    0  501  0.00000000000E+00  0.00000000000E+00 -0.18462741492E+04  0.18462741492E+04  0.25500000920E-02 0. -1.
    10030    2    1    2    0    0  0.00000000000E+00  0.00000000000E+00 -0.10665326778E+04  0.26260156205E+04  0.23996804134E+04 0.  0.
        1    1    3    3  502    0 -0.62518383537E+00 -0.12174191068E+03 -0.18394976666E+04  0.18435219416E+04  0.50400001928E-02 0. -1.
       -1    1    3    3    0  502  0.62518383537E+00  0.12174191068E+03  0.77296498878E+03  0.78249367894E+03  0.50400001928E-02 0.  1.
</event>
<event>
 5   0  0.1168435E-05  0.2400631E+04  0.7818609E-02  0.8439267E-01
        2   -1    0    0  501    0  0.00000000000E+00  0.00000000000E+00  0.13090356389E+04  0.13090356389E+04  0.25500000920E-02 0. -1.
       -2   -1    0    0    0  501  0.00000000000E+00  0.00000000000E+00 -0.11006251767E+04  0.11006251767E+04  0.25500000920E-02 0.  1.
    10030    2    1    2    0    0  0.00000000000E+00  0.00000000000E+00  0.20841046221E+03  0.24096608156E+04  0.24006312348E+04 0.  0.
        1    1    3    3  502    0  0.20245457404E+03 -0.47961276378E+03  0.11898190912E+04  0.12987246542E+04  0.50400001928E-02 0. -1.
       -1    1    3    3    0  502 -0.20245457404E+03  0.47961276378E+03 -0.98140862894E+03  0.11109361614E+04  0.50400001928E-02 0.  1.
</event>
<event>
 5   0  0.1198313E-05  0.2377671E+04  0.7818609E-02  0.8447911E-01
        2   -1    0    0  501    0  0.00000000000E+00  0.00000000000E+00  0.78304012530E+03  0.78304012531E+03  0.25500000920E-02 0. -1.
       -2   -1    0    0    0  501  0.00000000000E+00  0.00000000000E+00 -0.18049267222E+04  0.18049267222E+04  0.25500000920E-02 0.  1.
    10030    2    1    2    0    0  0.00000000000E+00  0.00000000000E+00 -0.10218865969E+04  0.25879668475E+04  0.23776711688E+04 0.  0.
        5    1    3    3  502    0  0.95941975152E+03 -0.67167970231E+03 -0.28876142035E+03  0.12062525150E+04  0.46999998093E+01 0.  1.
       -5    1    3    3    0  502 -0.95941975152E+03  0.67167970231E+03 -0.73312517654E+03  0.13817143325E+04  0.46999998093E+01 0. -1.
</event>
<event>
 5   0  0.1174210E-05  0.2386715E+04  0.7818609E-02  0.8444494E-01
        2   -1    0    0  501    0  0.00000000000E+00  0.00000000000E+00  0.10278673043E+04  0.10278673043E+04  0.25500000920E-02 0.  1.
       -2   -1    0    0    0  501  0.00000000000E+00  0.00000000000E+00 -0.13854921807E+04  0.13854921807E+04  0.25500000920E-02 0. -1.
    10030    2    1    2    0    0  0.00000000000E+00  0.00000000000E+00 -0.35762487641E+03  0.24133594850E+04  0.23867149917E+04 0.  0.
        3    1    3    3  502    0  0.27920796173E+03 -0.31562741932E+03 -0.13077549822E+04  0.13739726553E+04  0.10100000352E+00 0. -1.
       -3    1    3    3    0  502 -0.27920796173E+03  0.31562741932E+03  0.95013010581E+03  0.10393868298E+04  0.10100000352E+00 0.  1.
</event>
<event>
 5   0  0.5064437E-06  0.2403815E+04  0.7818609E-02  0.8438077E-01
        1   -1    0    0  501    0  0.00000000000E+00  0.00000000000E+00  0.12889257794E+04  0.12889257794E+04  0.50400001928E-02 0. -1.
       -1   -1    0    0    0  501  0.00000000000E+00  0.00000000000E+00 -0.11207639410E+04  0.11207639411E+04  0.50400001928E-02 0.  1.
    10030    2    1    2    0    0  0.00000000000E+00  0.00000000000E+00  0.16816183836E+03  0.24096897205E+04  0.24038149149E+04 0.  0.
        2    1    3    3  502    0 -0.94524635432E+01 -0.32213497341E+03 -0.10766440990E+04  0.11238428743E+04  0.25500000920E-02 0.  1.
       -2    1    3    3    0  502  0.94524635432E+01  0.32213497341E+03  0.12448059374E+04  0.12858468462E+04  0.25500000920E-02 0. -1.
</event>
<event>
 5   0  0.5104174E-06  0.2347443E+04  0.7818609E-02  0.8459446E-01
       -1   -1    0    0    0  501  0.00000000000E+00  0.00000000000E+00  0.12599737096E+04  0.12599737096E+04  0.50400001928E-02 0. -1.
        1   -1    0    0  501    0  0.00000000000E+00  0.00000000000E+00 -0.10933741637E+04  0.10933741637E+04  0.50400001928E-02 0.  1.
    10030    2    1    2    0    0  0.00000000000E+00  0.00000000000E+00  0.16659954593E+03  0.23533478733E+04  0.23474434613E+04 0.  0.
        3    1    3    3  502    0  0.29155198651E+03  0.96834992216E+03  0.68054865149E+03  0.12189547202E+04  0.10100000352E+00 0. -1.
       -3    1    3    3    0  502 -0.29155198651E+03 -0.96834992216E+03 -0.51394910556E+03  0.11343931531E+04  0.10100000352E+00 0.  1.
</event>
<event>
 5   0  0.5064437E-06  0.2366208E+04  0.7818609E-02  0.8452264E-01
        1   -1    0    0  501    0  0.00000000000E+00  0.00000000000E+00  0.27133924002E+04  0.27133924002E+04  0.50400001928E-02 0. -1.
       -1   -1    0    0    0  501  0.00000000000E+00  0.00000000000E+00 -0.51586160043E+03  0.51586160045E+03  0.50400001928E-02 0.  1.
    10030    2    1    2    0    0  0.00000000000E+00  0.00000000000E+00  0.21975307997E+04  0.32292540006E+04  0.23662078913E+04 0.  0.
        2    1    3    3  502    0  0.37052640944E+03  0.43231688287E+03  0.25141160631E+04  0.25777834055E+04  0.25500000920E-02 0. -1.
       -2    1    3    3    0  502 -0.37052640944E+03 -0.43231688287E+03 -0.31658526332E+03  0.65147059509E+03  0.25500000920E-02 0.  1.
</event>
<event>
 5   0  0.5196696E-06  0.2393399E+04  0.7818609E-02  0.8441979E-01
        1   -1    0    0  501    0  0.00000000000E+00  0.00000000000E+00  0.16772387832E+04  0.16772387832E+04  0.50400001928E-02 0. -1.
       -1   -1    0    0    0  501  0.00000000000E+00  0.00000000000E+00 -0.85383775790E+03  0.85383775792E+03  0.50400001928E-02 0.  1.
    10030    2    1    2    0    0  0.00000000000E+00  0.00000000000E+00  0.82340102529E+03  0.25310765411E+04  0.23933990909E+04 0.  0.
        1    1    3    3  502    0 -0.10048928735E+04  0.23829989722E+02  0.10984498727E+04  0.14889491860E+04  0.50400001928E-02 0. -1.
       -1    1    3    3    0  502  0.10048928735E+04 -0.23829989722E+02 -0.27504884742E+03  0.10421273551E+04  0.50400001928E-02 0.  1.
</event>
<event>
 5   0  0.1154897E-05  0.2391036E+04  0.7818609E-02  0.8442867E-01
       -2   -1    0    0    0  501  0.00000000000E+00  0.00000000000E+00  0.14431421389E+04  0.14431421390E+04  0.25500000920E-02 0.  1.
        2   -1    0    0  501    0  0.00000000000E+00  0.00000000000E+00 -0.99038280484E+03  0.99038280485E+03  0.25500000920E-02 0. -1.
    10030    2    1    2    0    0  0.00000000000E+00  0.00000000000E+00  0.45275933410E+03  0.24335249438E+04  0.23910358921E+04 0.  0.
        4    1    3    3  502    0 -0.28828531455E+03 -0.52507503052E+03 -0.82663098715E+03  0.10208489663E+04  0.12699999809E+01 0. -1.
       -4    1    3    3    0  502  0.28828531455E+03  0.52507503052E+03  0.12793903213E+04  0.14126759775E+04  0.12699999809E+01 0.  1.
</event>
<event>
 5   0  0.5104174E-06  0.2412506E+04  0.7818609E-02  0.8434836E-01
        1   -1    0    0  501    0  0.00000000000E+00  0.00000000000E+00  0.97971533836E+03  0.97971533837E+03  0.50400001928E-02 0.  1.
       -1   -1    0    0    0  501  0.00000000000E+00  0.00000000000E+00 -0.14851729508E+04  0.14851729508E+04  0.50400001928E-02 0. -1.
    10030    2    1    2    0    0  0.00000000000E+00  0.00000000000E+00 -0.50545761243E+03  0.24648882892E+04  0.24125063482E+04 0.  0.
        3    1    3    3  502    0 -0.83975743702E+03  0.62276675067E+03 -0.86747025748E+03  0.13585049270E+04  0.10100000352E+00 0. -1.
       -3    1    3    3    0  502  0.83975743702E+03 -0.62276675067E+03  0.36201264505E+03  0.11063833622E+04  0.10100000352E+00 0.  1.
</event>
<event>
 5   0  0.1169371E-05  0.2393073E+04  0.7818609E-02  0.8442102E-01
        2   -1    0    0  501    0  0.00000000000E+00  0.00000000000E+00  0.10580608211E+04  0.10580608211E+04  0.25500000920E-02 0.  1.
       -2   -1    0    0    0  501  0.00000000000E+00  0.00000000000E+00 -0.13531350982E+04  0.13531350982E+04  0.25500000920E-02 0. -1.
    10030    2    1    2    0    0  0.00000000000E+00  0.00000000000E+00 -0.29507427709E+03  0.24111959193E+04  0.23930726968E+04 0.  0.
        2    1    3    3  502    0 -0.54807109961E+02  0.16438719356E+03  0.10453513512E+04  0.10596161645E+04  0.25500000920E-02 0.  1.
       -2    1    3    3    0  502  0.54807109961E+02 -0.16438719356E+03 -0.13404256282E+04  0.13515797548E+04  0.25500000920E-02 0. -1.
</event>
<event>
 5   0  0.5042742E-06  0.2352952E+04  0.7818609E-02  0.8457331E-01
        1   -1    0    0  501    0  0.00000000000E+00  0.00000000000E+00  0.20411790097E+04  0.20411790097E+04  0.50400001928E-02 0. -1.
       -1   -1    0    0    0  501  0.00000000000E+00  0.00000000000E+00 -0.67808636598E+03  0.67808636600E+03  0.50400001928E-02 0.  1.
    10030    2    1    2    0    0  0.00000000000E+00  0.00000000000E+00  0.13630926437E+04  0.27192653757E+04  0.23529518967E+04 0.  0.
        5    1    3    3  502    0 -0.34514304829E+03 -0.25902867365E+02 -0.61790491420E+03  0.70825366594E+03  0.46999998093E+01 0.  1.
       -5    1    3    3    0  502  0.34514304829E+03  0.25902867365E+02  0.19809975579E+04  0.20110117098E+04  0.46999998093E+01 0. -1.
</event>
<event>
 5   0  0.1154897E-05  0.2401700E+04  0.7818609E-02  0.8438867E-01
        2   -1    0    0  501    0  0.00000000000E+00  0.00000000000E+00  0.13517190600E+04  0.13517190600E+04  0.25500000920E-02 0. -1.
       -2   -1    0    0    0  501  0.00000000000E+00  0.00000000000E+00 -0.10668199844E+04  0.10668199844E+04  0.25500000920E-02 0.  1.
    10030    2    1    2    0    0  0.00000000000E+00  0.00000000000E+00  0.28489907560E+03  0.24185390445E+04  0.24017001533E+04 0.  0.
        4    1    3    3  502    0 -0.26583616394E+03 -0.23070254210E+03 -0.10137058335E+04  0.10730767255E+04  0.12699999809E+01 0.  1.
       -4    1    3    3    0  502  0.26583616394E+03  0.23070254210E+03  0.12986049091E+04  0.13454623190E+04  0.12699999809E+01 0. -1.
</event>
<event>
 5   0  0.1168435E-05  0.2379860E+04  0.7818609E-02  0.8447082E-01
        2   -1    0    0  501    0  0.00000000000E+00  0.00000000000E+00  0.12333611354E+04  0.12333611354E+04  0.25500000920E-02 0.  1.
       -2   -1    0    0    0  501  0.00000000000E+00  0.00000000000E+00 -0.11480285330E+04  0.11480285330E+04  0.25500000920E-02 0. -1.
    10030    2    1    2    0    0  0.00000000000E+00  0.00000000000E+00  0.85332602411E+02  0.23813896684E+04  0.23798603110E+04 0.  0.
        1    1    3    3  502    0 -0.43221990590E+02 -0.11874985225E+04 -0.19927022893E+02  0.11884519206E+04  0.50400001928E-02 0. -1.
       -1    1    3    3    0  502  0.43221990590E+02  0.11874985225E+04  0.10525962530E+03  0.11929377478E+04  0.50400001928E-02 0.  1.
</event>
<event>
 5   0  0.1168435E-05  0.2405809E+04  0.7818609E-02  0.8437332E-01
       -2   -1    0    0    0  501  0.00000000000E+00  0.00000000000E+00  0.84686263356E+03  0.84686263357E+03  0.25500000920E-02 0.  1.
        2   -1    0    0  501    0  0.00000000000E+00  0.00000000000E+00 -0.17086356809E+04  0.17086356809E+04  0.25500000920E-02 0. -1.
    10030    2    1    2    0    0  0.00000000000E+00  0.00000000000E+00 -0.86177304734E+03  0.25554983145E+04  0.24058093961E+04 0.  0.
        1    1    3    3  502    0 -0.62278063691E+03 -0.38582975050E+03 -0.14443240159E+04  0.16195036836E+04  0.50400001928E-02 0. -1.
       -1    1    3    3    0  502  0.62278063691E+03  0.38582975050E+03  0.58255096858E+03  0.93599463091E+03  0.50400001928E-02 0.  1.
</event>
<event>
 5   0  0.5034479E-06  0.2396031E+04  0.7818609E-02  0.8440991E-01
        1   -1    0    0  501    0  0.00000000000E+00  0.00000000000E+00  0.13746561198E+04  0.13746561198E+04  0.50400001928E-02 0.  1.
       -1   -1    0    0    0  501  0.00000000000E+00  0.00000000000E+00 -0.10440726812E+04  0.10440726812E+04  0.50400001928E-02 0. -1.
    10030    2    1    2    0    0  0.00000000000E+00  0.00000000000E+00  0.33058343857E+03  0.24187288010E+04  0.23960308018E+04 0.  0.
        4    1    3    3  502    0 -0.55978959947E+02 -0.10768455214E+04 -0.36167780121E+03  0.11373400396E+04  0.12699999809E+01 0. -1.
       -4    1    3    3    0  502  0.55978959947E+02  0.10768455214E+04  0.69226123978E+03  0.12813887614E+04  0.12699999809E+01 0.  1.
</event>
<event>
 5   0  0.1154897E-05  0.2394481E+04  0.7818609E-02  0.8441573E-01
        2   -1    0    0  501    0  0.00000000000E+00  0.00000000000E+00  0.20752261254E+04  0.20752261255E+04  0.25500000920E-02 0. -1.
       -2   -1    0    0    0  501  0.00000000000E+00  0.00000000000E+00 -0.69071265438E+03  0.69071265438E+03  0.25500000920E-02 0.  1.
    10030    2    1    2    0    0  0.00000000000E+00  0.00000000000E+00  0.13845134711E+04  0.27659387798E+04  0.23944811092E+04 0.  0.
        4    1    3    3  502    0  0.33768823645E+03 -0.11469763405E+04  0.76341937158E+03  0.14185904344E+04  0.12699999809E+01 0. -1.
       -4    1    3    3    0  502 -0.33768823645E+03  0.11469763405E+04  0.62109409949E+03  0.13473483455E+04  0.12699999809E+01 0.  1.
</event>
<event>
 5   0  0.1154897E-05  0.2398489E+04  0.7818609E-02  0.8440070E-01
        2   -1    0    0  501    0  0.00000000000E+00  0.00000000000E+00  0.16478967674E+04  0.16478967674E+04  0.25500000920E-02 0.  1.
       -2   -1    0    0    0  501  0.00000000000E+00  0.00000000000E+00 -0.87274102308E+03  0.87274102309E+03  0.25500000920E-02 0. -1.
    10030    2    1    2    0    0  0.00000000000E+00  0.00000000000E+00  0.77515574431E+03  0.25206377905E+04  0.23984887831E+04 0.  0.
        4    1    3    3  502    0  0.85021617282E+03 -0.74349817028E+03  0.81125734089E+03  0.13906103537E+04  0.12699999809E+01 0. -1.
       -4    1    3    3    0  502 -0.85021617282E+03  0.74349817028E+03 -0.36101596581E+02  0.11300274368E+04  0.12699999809E+01 0.  1.
</event>
<event>
 5   0  0.5064437E-06  0.2384002E+04  0.7818609E-02  0.8445517E-01
       -1   -1    0    0    0  501  0.00000000000E+00  0.00000000000E+00  0.10649199423E+04  0.10649199423E+04  0.50400001928E-02 0. -1.
        1   -1    0    0  501    0  0.00000000000E+00  0.00000000000E+00 -0.13342468205E+04  0.13342468205E+04  0.50400001928E-02 0.  1.
    10030    2    1    2    0    0  0.00000000000E+00  0.00000000000E+00 -0.26932687816E+03  0.23991667628E+04  0.23840017174E+04 0.  0.
        2    1    3    3  502    0 -0.63822185875E+03  0.90198068516E+03 -0.58468780003E+03  0.12501024442E+04  0.25500000920E-02 0. -1.
       -2    1    3    3    0  502  0.63822185875E+03 -0.90198068516E+03  0.31536092187E+03  0.11490643187E+04  0.25500000920E-02 0.  1.
</event>
<event>
 5   0  0.1154897E-05  0.2399614E+04  0.7818609E-02  0.8439648E-01
        2   -1    0    0  501    0  0.00000000000E+00  0.00000000000E+00  0.14321649028E+04  0.14321649028E+04  0.25500000920E-02 0. -1.
       -2   -1    0    0    0  501  0.00000000000E+00  0.00000000000E+00 -0.10051471675E+04  0.10051471675E+04  0.25500000920E-02 0.  1.
    10030    2    1    2    0    0  0.00000000000E+00  0.00000000000E+00  0.42701773534E+03  0.24373120704E+04  0.23996137152E+04 0.  0.
        4    1    3    3  502    0 -0.85775963975E+03 -0.46327518000E+03  0.92389586128E+03  0.13431160290E+04  0.12699999809E+01 0. -1.
       -4    1    3    3    0  502  0.85775963975E+03  0.46327518000E+03 -0.49687812594E+03  0.10941960414E+04  0.12699999809E+01 0.  1.
</event>
<event>
 5   0  0.5042742E-06  0.2378089E+04  0.7818609E-02  0.8447752E-01
        1   -1    0    0  501    0  0.00000000000E+00  0.00000000000E+00  0.21865199884E+04  0.21865199884E+04  0.50400001928E-02 0. -1.
       -1   -1    0    0    0  501  0.00000000000E+00  0.00000000000E+00 -0.64661063523E+03  0.64661063525E+03  0.50400001928E-02 0.  1.
    10030    2    1    2    0    0  0.00000000000E+00  0.00000000000E+00  0.15399093532E+04  0.28331306237E+04  0.23780892151E+04 0.  0.
        5    1    3    3  502    0  0.93238497107E+03 -0.63810751708E+03  0.12113678954E+04  0.16564894222E+04  0.46999998093E+01 0. -1.
       -5    1    3    3    0  502 -0.93238497107E+03  0.63810751708E+03  0.32854145774E+03  0.11766412015E+04  0.46999998093E+01 0.  1.
</event>
<event>
 5   0  0.5042742E-06  0.2371728E+04  0.7818609E-02  0.8450165E-01
       -1   -1    0    0    0  501  0.00000000000E+00  0.00000000000E+00  0.18058697201E+04  0.18058697201E+04  0.50400001928E-02 0. -1.
        1   -1    0    0  501    0  0.00000000000E+00  0.00000000000E+00 -0.77872372579E+03  0.77872372581E+03  0.50400001928E-02 0.  1.
    10030    2    1    2    0    0  0.00000000000E+00  0.00000000000E+00  0.10271459943E+04  0.25845934459E+04  0.23717281436E+04 0.  0.
        5    1    3    3  502    0  0.11225675465E+04  0.36695079057E+03  0.63013423557E+03  0.13386194471E+04  0.46999998093E+01 0.  1.
       -5    1    3    3    0  502 -0.11225675465E+04 -0.36695079057E+03  0.39701175873E+03  0.12459739988E+04  0.46999998093E+01 0. -1.
</event>
<event>
 5   0  0.5042742E-06  0.2393033E+04  0.7818609E-02  0.8442117E-01
       -1   -1    0    0    0  501  0.00000000000E+00  0.00000000000E+00  0.77193224972E+03  0.77193224974E+03  0.50400001928E-02 0.  1.
        1   -1    0    0  501    0  0.00000000000E+00  0.00000000000E+00 -0.18546334244E+04  0.18546334244E+04  0.50400001928E-02 0. -1.
    10030    2    1    2    0    0  0.00000000000E+00  0.00000000000E+00 -0.10827011747E+04  0.26265656742E+04  0.23930326799E+04 0.  0.
        5    1    3    3  502    0 -0.93575001311E+03 -0.89080935527E+02  0.27121040681E+03  0.97833566574E+03  0.46999998093E+01 0.  1.
       -5    1    3    3    0  502  0.93575001311E+03  0.89080935527E+02 -0.13539115815E+04  0.16482300084E+04  0.46999998093E+01 0. -1.
</event>
<event>
 5   0  0.5064437E-06  0.2400088E+04  0.7818609E-02  0.8439471E-01
        1   -1    0    0  501    0  0.00000000000E+00  0.00000000000E+00  0.10702017143E+04  0.10702017143E+04  0.50400001928E-02 0.  1.
       -1   -1    0    0    0  501  0.00000000000E+00  0.00000000000E+00 -0.13456390507E+04  0.13456390507E+04  0.50400001928E-02 0. -1.
    10030    2    1    2    0    0  0.00000000000E+00  0.00000000000E+00 -0.27543733644E+03  0.24158407650E+04  0.24000876808E+04 0.  0.
        2    1    3    3  502    0  0.46961493946E+03  0.84229195310E+03  0.58118991153E+03  0.11259554338E+04  0.25500000920E-02 0.  1.
       -2    1    3    3    0  502 -0.46961493946E+03 -0.84229195310E+03 -0.85662724798E+03  0.12898853312E+04  0.25500000920E-02 0. -1.
</event>
<event>
 5   0  0.1174210E-05  0.2401532E+04  0.7818609E-02  0.8438930E-01
       -2   -1    0    0    0  501  0.00000000000E+00  0.00000000000E+00  0.15198045036E+04  0.15198045036E+04  0.25500000920E-02 0.  1.
        2   -1    0    0  501    0  0.00000000000E+00  0.00000000000E+00 -0.94870064512E+03  0.94870064512E+03  0.25500000920E-02 0. -1.
    10030    2    1    2    0    0  0.00000000000E+00  0.00000000000E+00  0.57110385851E+03  0.24685051487E+04  0.24015324383E+04 0.  0.
        3    1    3    3  502    0 -0.82491597638E+03 -0.79016407025E+03  0.66600067641E+03  0.13222717335E+04  0.10100000352E+00 0.  1.
       -3    1    3    3    0  502  0.82491597638E+03  0.79016407025E+03 -0.94896817901E+02  0.11462334153E+04  0.10100000352E+00 0. -1.
</event>
<event>
 5   0  0.1198313E-05  0.2385717E+04  0.7818609E-02  0.8444870E-01
       -2   -1    0    0    0  501  0.00000000000E+00  0.00000000000E+00  0.74878392307E+03  0.74878392307E+03  0.25500000920E-02 0. -1.
        2   -1    0    0  501    0  0.00000000000E+00  0.00000000000E+00 -0.19002961119E+04  0.19002961119E+04  0.25500000920E-02 0.  1.
    10030    2    1    2    0    0  0.00000000000E+00  0.00000000000E+00 -0.11515121888E+04  0.26490800350E+04  0.23857168128E+04 0.  0.
        5    1    3    3  502    0 -0.86398625254E+03 -0.50380907479E+02  0.33576562895E+03  0.92831628661E+03  0.46999998093E+01 0.  1.
       -5    1    3    3    0  502  0.86398625254E+03  0.50380907479E+02 -0.14872778178E+04  0.17207637484E+04  0.46999998093E+01 0. -1.
</event>
<event>
 5   0  0.1169371E-05  0.2389031E+04  0.7818609E-02  0.8443622E-01
       -2   -1    0    0    0  501  0.00000000000E+00  0.00000000000E+00  0.82270639111E+03  0.82270639111E+03  0.25500000920E-02 0. -1.
        2   -1    0    0  501    0  0.00000000000E+00  0.00000000000E+00 -0.17343576817E+04  0.17343576817E+04  0.25500000920E-02 0.  1.
    10030    2    1    2    0    0  0.00000000000E+00  0.00000000000E+00 -0.91165129062E+03  0.25570640728E+04  0.23890308907E+04 0.  0.
        2    1    3    3  502    0  0.21462039148E+03 -0.65278616201E+03  0.58997215834E+03  0.90568141936E+03  0.25500000920E-02 0. -1.
       -2    1    3    3    0  502 -0.21462039148E+03  0.65278616201E+03 -0.15016234490E+04  0.16513826535E+04  0.25500000920E-02 0.  1.
</event>
<event>
 5   0  0.5064437E-06  0.2393370E+04  0.7818609E-02  0.8441990E-01
        1   -1    0    0  501    0  0.00000000000E+00  0.00000000000E+00  0.16974998796E+04  0.16974998796E+04  0.50400001928E-02 0. -1.
       -1   -1    0    0    0  501  0.00000000000E+00  0.00000000000E+00 -0.84362614834E+03  0.84362614835E+03  0.50400001928E-02 0.  1.
    10030    2    1    2    0    0  0.00000000000E+00  0.00000000000E+00  0.85387373124E+03  0.25411260279E+04  0.23933702474E+04 0.  0.
        2    1    3    3  502    0  0.35974744468E+03 -0.81947307075E+03  0.12703992763E+04  0.15539847679E+04  0.25500000920E-02 0. -1.
       -2    1    3    3    0  502 -0.35974744468E+03  0.81947307075E+03 -0.41652554503E+03  0.98714126006E+03  0.25500000920E-02 0.  1.
</event>
<event>
 5   0  0.1168435E-05  0.2400963E+04  0.7818609E-02  0.8439143E-01
       -2   -1    0    0    0  501  0.00000000000E+00  0.00000000000E+00  0.88016922646E+03  0.88016922646E+03  0.25500000920E-02 0. -1.
        2   -1    0    0  501    0  0.00000000000E+00  0.00000000000E+00 -0.16373621518E+04  0.16373621518E+04  0.25500000920E-02 0.  1.
    10030    2    1    2    0    0  0.00000000000E+00  0.00000000000E+00 -0.75719292537E+03  0.25175313783E+04  0.24009629557E+04 0.  0.
        1    1    3    3  502    0 -0.10095254575E+04  0.29577665527E+02 -0.10590560128E+04  0.14634261600E+04  0.50400001928E-02 0. -1.
       -1    1    3    3    0  502  0.10095254575E+04 -0.29577665527E+02  0.30186308744E+03  0.10541052183E+04  0.50400001928E-02 0.  1.
</event>
<event>
 5   0  0.4067750E-06  0.2399042E+04  0.7818609E-02  0.8439862E-01
       -4   -1    0    0    0  501  0.00000000000E+00  0.00000000000E+00  0.12347059795E+04  0.12347066327E+04  0.12699999809E+01 0.  1.
        4   -1    0    0  501    0  0.00000000000E+00  0.00000000000E+00 -0.11653375982E+04  0.11653382903E+04  0.12699999809E+01 0. -1.
    10030    2    1    2    0    0  0.00000000000E+00  0.00000000000E+00  0.69368381259E+02  0.24000449229E+04  0.23990422380E+04 0.  0.
        5    1    3    3  502    0  0.11908392887E+04 -0.64006148827E+02 -0.94341905591E+02  0.11962932265E+04  0.46999998093E+01 0. -1.
       -5    1    3    3    0  502 -0.11908392887E+04  0.64006148827E+02  0.16371028685E+03  0.12037516964E+04  0.46999998093E+01 0.  1.
</event>
<event>
 5   0  0.5196696E-06  0.2394300E+04  0.7818609E-02  0.8441641E-01
       -1   -1    0    0    0  501  0.00000000000E+00  0.00000000000E+00  0.76561922479E+03  0.76561922481E+03  0.50400001928E-02 0. -1.
        1   -1    0    0  501    0  0.00000000000E+00  0.00000000000E+00 -0.18719076562E+04  0.18719076562E+04  0.50400001928E-02 0.  1.
    10030    2    1    2    0    0  0.00000000000E+00  0.00000000000E+00 -0.11062884314E+04  0.26375268810E+04  0.23943003058E+04 0.  0.
        1    1    3    3  502    0  0.19439810929E+03  0.40794874998E+02 -0.18536283224E+04  0.18642405436E+04  0.50400001928E-02 0.  1.
       -1    1    3    3    0  502 -0.19439810929E+03 -0.40794874998E+02  0.74733989107E+03  0.77328633735E+03  0.50400001928E-02 0. -1.
</event>
<event>
 5   0  0.5104174E-06  0.2302630E+04  0.7818609E-02  0.8476885E-01
        1   -1    0    0  501    0  0.00000000000E+00  0.00000000000E+00  0.10166123273E+04  0.10166123273E+04  0.50400001928E-02 0.  1.
       -1   -1    0    0    0  501  0.00000000000E+00  0.00000000000E+00 -0.13038658050E+04  0.13038658050E+04  0.50400001928E-02 0. -1.
    10030    2    1    2    0    0  0.00000000000E+00  0.00000000000E+00 -0.28725347768E+03  0.23204781323E+04  0.23026298448E+04 0.  0.
        3    1    3    3  502    0  0.14273321623E+02  0.45207521643E+03  0.92332931449E+03  0.10281598914E+04  0.10100000352E+00 0.  1.
       -3    1    3    3    0  502 -0.14273321623E+02 -0.45207521643E+03 -0.12105827922E+04  0.12923182410E+04  0.10100000352E+00 0. -1.
</event>
<event>
 5   0  0.5064437E-06  0.2395042E+04  0.7818609E-02  0.8441362E-01
       -1   -1    0    0    0  501  0.00000000000E+00  0.00000000000E+00  0.82727181142E+03  0.82727181144E+03  0.50400001928E-02 0.  1.
        1   -1    0    0  501    0  0.00000000000E+00  0.00000000000E+00 -0.17334761681E+04  0.17334761681E+04  0.50400001928E-02 0. -1.
    10030    2    1    2    0    0  0.00000000000E+00  0.00000000000E+00 -0.90620435671E+03  0.25607479796E+04  0.23950415192E+04 0.  0.
        2    1    3    3  502    0 -0.18212424949E+03  0.12792688928E+03  0.80496442773E+03  0.83516600815E+03  0.25500000920E-02 0.  1.
       -2    1    3    3    0  502  0.18212424949E+03 -0.12792688928E+03 -0.17111687844E+04  0.17255819714E+04  0.25500000920E-02 0. -1.
</event>
<event>
 5   0  0.5104174E-06  0.2395538E+04  0.7818609E-02  0.8441176E-01
        1   -1    0    0  501    0  0.00000000000E+00  0.00000000000E+00  0.13170600665E+04  0.13170600665E+04  0.50400001928E-02 0.  1.
       -1   -1    0    0    0  501  0.00000000000E+00  0.00000000000E+00 -0.10892829594E+04  0.10892829594E+04  0.50400001928E-02 0. -1.
    10030    2    1    2    0    0  0.00000000000E+00  0.00000000000E+00  0.22777710715E+03  0.24063430259E+04  0.23955384255E+04 0.  0.
        3    1    3    3  502    0  0.11970217320E+03 -0.55972864957E+03 -0.94301015023E+03  0.11031286983E+04  0.10100000352E+00 0. -1.
       -3    1    3    3    0  502 -0.11970217320E+03  0.55972864957E+03  0.11707872574E+04  0.13032143276E+04  0.10100000352E+00 0.  1.
</event>
<event>
 5   0  0.5034479E-06  0.2413612E+04  0.7818609E-02  0.8434425E-01
       -1   -1    0    0    0  501  0.00000000000E+00  0.00000000000E+00  0.92149443933E+03  0.92149443934E+03  0.50400001928E-02 0. -1.
        1   -1    0    0  501    0  0.00000000000E+00  0.00000000000E+00 -0.15804554698E+04  0.15804554699E+04  0.50400001928E-02 0.  1.
    10030    2    1    2    0    0  0.00000000000E+00  0.00000000000E+00 -0.65896103052E+03  0.25019499092E+04  0.24136121703E+04 0.  0.
        4    1    3    3  502    0 -0.16346822797E+03 -0.54578172937E+03 -0.14322686491E+04  0.15414261752E+04  0.12699999809E+01 0.  1.
       -4    1    3    3    0  502  0.16346822797E+03  0.54578172937E+03  0.77330761856E+03  0.96052373396E+03  0.12699999809E+01 0. -1.
</event>
<event>
 5   0  0.5064437E-06  0.2409140E+04  0.7818609E-02  0.8436089E-01
        1   -1    0    0  501    0  0.00000000000E+00  0.00000000000E+00  0.14202582258E+04  0.14202582258E+04  0.50400001928E-02 0. -1.
       -1   -1    0    0    0  501  0.00000000000E+00  0.00000000000E+00 -0.10216376609E+04  0.10216376609E+04  0.50400001928E-02 0.  1.
    10030    2    1    2    0    0  0.00000000000E+00  0.00000000000E+00  0.39862056488E+03  0.24418958867E+04  0.24091403377E+04 0.  0.
        2    1    3    3  502    0 -0.11112755737E+02  0.98915163159E+03 -0.49738136309E+03  0.11072184355E+04  0.25500000920E-02 0. -1.
       -2    1    3    3    0  502  0.11112755737E+02 -0.98915163159E+03  0.89600192797E+03  0.13346774511E+04  0.25500000920E-02 0.  1.
</event>
<event>
 5   0  0.1169371E-05  0.2390911E+04  0.7818609E-02  0.8442914E-01
       -2   -1    0    0    0  501  0.00000000000E+00  0.00000000000E+00  0.86820886179E+03  0.86820886179E+03  0.25500000920E-02 0.  1.
        2   -1    0    0  501    0  0.00000000000E+00  0.00000000000E+00 -0.16460485953E+04  0.16460485953E+04  0.25500000920E-02 0. -1.
    10030    2    1    2    0    0  0.00000000000E+00  0.00000000000E+00 -0.77783973349E+03  0.25142574571E+04  0.23909111045E+04 0.  0.
        2    1    3    3  502    0  0.89543159462E+02  0.59852872262E+03  0.69521726730E+03  0.92172753999E+03  0.25500000920E-02 0.  1.
       -2    1    3    3    0  502 -0.89543159462E+02 -0.59852872262E+03 -0.14730570008E+04  0.15925299171E+04  0.25500000920E-02 0. -1.
</event>
<event>
 5   0  0.5064437E-06  0.2398713E+04  0.7818609E-02  0.8439986E-01
        1   -1    0    0  501    0  0.00000000000E+00  0.00000000000E+00  0.15168360908E+04  0.15168360908E+04  0.50400001928E-02 0.  1.
       -1   -1    0    0    0  501  0.00000000000E+00  0.00000000000E+00 -0.94832665752E+03  0.94832665753E+03  0.50400001928E-02 0. -1.
    10030    2    1    2    0    0  0.00000000000E+00  0.00000000000E+00  0.56850943327E+03  0.24651627483E+04  0.23987130716E+04 0.  0.
        2    1    3    3  502    0  0.71532087969E+03  0.69649964801E+03  0.96724026633E+03  0.13900897286E+04  0.25500000920E-02 0.  1.
       -2    1    3    3    0  502 -0.71532087969E+03 -0.69649964801E+03 -0.39873083306E+03  0.10750730198E+04  0.25500000920E-02 0. -1.
</event>
<event>
 5   0  0.5042742E-06  0.2402523E+04  0.7818609E-02  0.8438559E-01
       -1   -1    0    0    0  501  0.00000000000E+00  0.00000000000E+00  0.13648632865E+04  0.13648632865E+04  0.50400001928E-02 0.  1.
        1   -1    0    0  501    0  0.00000000000E+00  0.00000000000E+00 -0.10572704001E+04  0.10572704002E+04  0.50400001928E-02 0. -1.
    10030    2    1    2    0    0  0.00000000000E+00  0.00000000000E+00  0.30759288634E+03  0.24221336866E+04  0.24025233011E+04 0.  0.
        5    1    3    3  502    0 -0.53682128732E+03  0.12555867527E+03 -0.92218511815E+03  0.10744252220E+04  0.46999998093E+01 0. -1.
       -5    1    3    3    0  502  0.53682128732E+03 -0.12555867527E+03  0.12297780045E+04  0.13477084647E+04  0.46999998093E+01 0.  1.
</event>
<event>
 5   0  0.4067750E-06  0.2348299E+04  0.7818609E-02  0.8459117E-01
       -3   -1    0    0    0  501  0.00000000000E+00  0.00000000000E+00  0.64532110942E+03  0.64532111732E+03  0.10100000352E+00 0.  1.
        3   -1    0    0  501    0  0.00000000000E+00  0.00000000000E+00 -0.21363422388E+04  0.21363422412E+04  0.10100000352E+00 0. -1.
    10030    2    1    2    0    0  0.00000000000E+00  0.00000000000E+00 -0.14910211294E+04  0.27816633585E+04  0.23482987527E+04 0.  0.
        5    1    3    3  502    0  0.13123647434E+03 -0.46435128538E+03 -0.20134484055E+04  0.20704689566E+04  0.46999998093E+01 0. -1.
       -5    1    3    3    0  502 -0.13123647434E+03  0.46435128538E+03  0.52242727617E+03  0.71119440191E+03  0.46999998093E+01 0.  1.
</event>
<event>
 5   0  0.1174210E-05  0.2395644E+04  0.7818609E-02  0.8441136E-01
        2   -1    0    0  501    0  0.00000000000E+00  0.00000000000E+00  0.15464371621E+04  0.15464371621E+04  0.25500000920E-02 0. -1.
       -2   -1    0    0    0  501  0.00000000000E+00  0.00000000000E+00 -0.92779550418E+03  0.92779550418E+03  0.25500000920E-02 0.  1.
    10030    2    1    2    0    0  0.00000000000E+00  0.00000000000E+00  0.61864165791E+03  0.24742326663E+04  0.23956439189E+04 0.  0.
        3    1    3    3  502    0 -0.45590995876E+02  0.34623663749E+02  0.15450234314E+04  0.15460836817E+04  0.10100000352E+00 0. -1.
       -3    1    3    3    0  502  0.45590995876E+02 -0.34623663749E+02 -0.92638177353E+03  0.92814898455E+03  0.10100000352E+00 0.  1.
</event>
<event>
 5   0  0.1174210E-05  0.2395629E+04  0.7818609E-02  0.8441142E-01
        2   -1    0    0  501    0  0.00000000000E+00  0.00000000000E+00  0.10024363838E+04  0.10024363839E+04  0.25500000920E-02 0. -1.
       -2   -1    0    0    0  501  0.00000000000E+00  0.00000000000E+00 -0.14312718891E+04  0.14312718891E+04  0.25500000920E-02 0.  1.
    10030    2    1    2    0    0  0.00000000000E+00  0.00000000000E+00 -0.42883550530E+03  0.24337082730E+04  0.23956285329E+04 0.  0.
        3    1    3    3  502    0  0.12322091456E+03  0.85545163784E+02 -0.14216921967E+04  0.14295838839E+04  0.10100000352E+00 0.  1.
       -3    1    3    3    0  502 -0.12322091456E+03 -0.85545163784E+02  0.99285669141E+03  0.10041243891E+04  0.10100000352E+00 0. -1.
</event>
<event>
 5   0  0.1154897E-05  0.2399961E+04  0.7818609E-02  0.8439518E-01
       -2   -1    0    0    0  501  0.00000000000E+00  0.00000000000E+00  0.13082655991E+04  0.13082655991E+04  0.25500000920E-02 0.  1.
        2   -1    0    0  501    0  0.00000000000E+00  0.00000000000E+00 -0.11006577687E+04  0.11006577687E+04  0.25500000920E-02 0. -1.
    10030    2    1    2    0    0  0.00000000000E+00  0.00000000000E+00  0.20760783032E+03  0.24089233678E+04  0.23999605790E+04 0.  0.
        4    1    3    3  502    0 -0.87358408644E+03 -0.43524261578E+03 -0.59691912513E+03  0.11440713900E+04  0.12699999809E+01 0. -1.
       -4    1    3    3    0  502  0.87358408644E+03  0.43524261578E+03  0.80452695545E+03  0.12648519778E+04  0.12699999809E+01 0.  1.
</event>
<event>
 5   0  0.1174210E-05  0.2398838E+04  0.7818609E-02  0.8439939E-01
       -2   -1    0    0    0  501  0.00000000000E+00  0.00000000000E+00  0.88393305948E+03  0.88393305949E+03  0.25500000920E-02 0.  1.
        2   -1    0    0  501    0  0.00000000000E+00  0.00000000000E+00 -0.16275055745E+04  0.16275055745E+04  0.25500000920E-02 0. -1.
    10030    2    1    2    0    0  0.00000000000E+00  0.00000000000E+00 -0.74357251499E+03  0.25114386340E+04  0.23988380369E+04 0.  0.
        3    1    3    3  502    0  0.51977974554E+03  0.75712932440E+03  0.43591269679E+03  0.10165803889E+04  0.10100000352E+00 0.  1.
       -3    1    3    3    0  502 -0.51977974554E+03 -0.75712932440E+03 -0.11794852118E+04  0.14948582450E+04  0.10100000352E+00 0. -1.
</event>
<event>
 5   0  0.1168435E-05  0.2397072E+04  0.7818609E-02  0.8440601E-01
        2   -1    0    0  501    0  0.00000000000E+00  0.00000000000E+00  0.19700530343E+04  0.19700530343E+04  0.25500000920E-02 0.  1.
       -2   -1    0    0    0  501  0.00000000000E+00  0.00000000000E+00 -0.72916216833E+03  0.72916216834E+03  0.25500000920E-02 0. -1.
    10030    2    1    2    0    0  0.00000000000E+00  0.00000000000E+00  0.12408908660E+04  0.26992152027E+04  0.23970716654E+04 0.  0.
        1    1    3    3  502    0  0.41252786892E+02  0.23368193762E+03  0.19433369043E+04  0.19577710193E+04  0.50400001928E-02 0.  1.
       -1    1    3    3    0  502 -0.41252786892E+02 -0.23368193762E+03 -0.70244603826E+03  0.74144418340E+03  0.50400001928E-02 0. -1.
</event>
<event>
 5   0  0.1174210E-05  0.2400627E+04  0.7818609E-02  0.8439269E-01
        2   -1    0    0  501    0  0.00000000000E+00  0.00000000000E+00  0.18416857717E+04  0.18416857717E+04  0.25500000920E-02 0.  1.
       -2   -1    0    0    0  501  0.00000000000E+00  0.00000000000E+00 -0.78230094786E+03  0.78230094786E+03  0.25500000920E-02 0. -1.
    10030    2    1    2    0    0  0.00000000000E+00  0.00000000000E+00  0.10593848239E+04  0.26239867196E+04  0.24006270222E+04 0.  0.
        3    1    3    3  502    0  0.75504947021E+02 -0.11593648261E+04  0.85928536920E+03  0.14450602592E+04  0.10100000352E+00 0.  1.
       -3    1    3    3    0  502 -0.75504947021E+02  0.11593648261E+04  0.20009945467E+03  0.11789264603E+04  0.10100000352E+00 0. -1.
</event>
<event>
 5   0  0.1198313E-05  0.2400511E+04  0.7818609E-02  0.8439312E-01
        2   -1    0    0  501    0  0.00000000000E+00  0.00000000000E+00  0.10917202746E+04  0.10917202746E+04  0.25500000920E-02 0.  1.
       -2   -1    0    0    0  501  0.00000000000E+00  0.00000000000E+00 -0.13195809717E+04  0.13195809717E+04  0.25500000920E-02 0. -1.
    10030    2    1    2    0    0  0.00000000000E+00  0.00000000000E+00 -0.22786069718E+03  0.24113012463E+04  0.24005110296E+04 0.  0.
        5    1    3    3  502    0  0.99059659536E+03  0.48640602778E+03  0.36012186270E+03  0.11608541186E+04  0.46999998093E+01 0.  1.
       -5    1    3    3    0  502 -0.99059659536E+03 -0.48640602778E+03 -0.58798255987E+03  0.12504471278E+04  0.46999998093E+01 0. -1.
</event>
<event>
 5   0  0.5104174E-06  0.2400078E+04  0.7818609E-02  0.8439474E-01
       -1   -1    0    0    0  501  0.00000000000E+00  0.00000000000E+00  0.89336839635E+03  0.89336839636E+03  0.50400001928E-02 0. -1.
        1   -1    0    0  501    0  0.00000000000E+00  0.00000000000E+00 -0.16119824466E+04  0.16119824466E+04  0.50400001928E-02 0.  1.
    10030    2    1    2    0    0  0.00000000000E+00  0.00000000000E+00 -0.71861405029E+03  0.25053508430E+04  0.24000784765E+04 0.  0.
        3    1    3    3  502    0 -0.11380283965E+04  0.38075654024E+03 -0.36260617105E+03  0.12536217211E+04  0.10100000352E+00 0.  1.
       -3    1    3    3    0  502  0.11380283965E+04 -0.38075654024E+03 -0.35600787923E+03  0.12517291219E+04  0.10100000352E+00 0. -1.
</event>
<event>
 5   0  0.5196696E-06  0.2446319E+04  0.7818609E-02  0.8422363E-01
       -1   -1    0    0    0  501  0.00000000000E+00  0.00000000000E+00  0.11223430990E+04  0.11223430990E+04  0.50400001928E-02 0. -1.
        1   -1    0    0  501    0  0.00000000000E+00  0.00000000000E+00 -0.13330323133E+04  0.13330323133E+04  0.50400001928E-02 0.  1.
    10030    2    1    2    0    0  0.00000000000E+00  0.00000000000E+00 -0.21068921430E+03  0.24553754122E+04  0.24463193720E+04 0.  0.
        1    1    3    3  502    0 -0.78578655106E+03 -0.48441941204E+03  0.70012035325E+03  0.11585729065E+04  0.50400001928E-02 0. -1.
       -1    1    3    3    0  502  0.78578655106E+03  0.48441941204E+03 -0.91080956755E+03  0.12968025058E+04  0.50400001928E-02 0.  1.
</event>
<event>
 5   0  0.5104174E-06  0.2391590E+04  0.7818609E-02  0.8442659E-01
       -1   -1    0    0    0  501  0.00000000000E+00  0.00000000000E+00  0.10254410040E+04  0.10254410040E+04  0.50400001928E-02 0. -1.
        1   -1    0    0  501    0  0.00000000000E+00  0.00000000000E+00 -0.13944489450E+04  0.13944489450E+04  0.50400001928E-02 0.  1.
    10030    2    1    2    0    0  0.00000000000E+00  0.00000000000E+00 -0.36900794100E+03  0.24198899490E+04  0.23915895352E+04 0.  0.
        3    1    3    3  502    0  0.11871449296E+04 -0.14071640353E+03 -0.21331770466E+03  0.12143387680E+04  0.10100000352E+00 0.  1.
       -3    1    3    3    0  502 -0.11871449296E+04  0.14071640353E+03 -0.15569023634E+03  0.12055511810E+04  0.10100000352E+00 0. -1.
</event>
<event>
 5   0  0.5196696E-06  0.2403951E+04  0.7818609E-02  0.8438026E-01
       -1   -1    0    0    0  501  0.00000000000E+00  0.00000000000E+00  0.72308270734E+03  0.72308270736E+03  0.50400001928E-02 0.  1.
        1   -1    0    0  501    0  0.00000000000E+00  0.00000000000E+00 -0.19980362859E+04  0.19980362859E+04  0.50400001928E-02 0. -1.
    10030    2    1    2    0    0  0.00000000000E+00  0.00000000000E+00 -0.12749535786E+04  0.27211189933E+04  0.24039513198E+04 0.  0.
        1    1    3    3  502    0 -0.56823784503E+02 -0.11967981718E+03 -0.19897463172E+04  0.19941521025E+04  0.50400001928E-02 0. -1.
       -1    1    3    3    0  502  0.56823784503E+02  0.11967981718E+03  0.71479273860E+03  0.72696689079E+03  0.50400001928E-02 0.  1.
</event>
<event>
 5   0  0.5034479E-06  0.2379979E+04  0.7818609E-02  0.8447037E-01
       -1   -1    0    0    0  501  0.00000000000E+00  0.00000000000E+00  0.12576121722E+04  0.12576121722E+04  0.50400001928E-02 0.  1.
        1   -1    0    0  501    0  0.00000000000E+00  0.00000000000E+00 -0.11260030075E+04  0.11260030075E+04  0.50400001928E-02 0. -1.
    10030    2    1    2    0    0  0.00000000000E+00  0.00000000000E+00  0.13160916472E+03  0.23836151797E+04  0.23799790656E+04 0.  0.
        4    1    3    3  502    0 -0.77757830879E+02  0.91139955339E+03 -0.69652719597E+03  0.11497161275E+04  0.12699999809E+01 0. -1.
       -4    1    3    3    0  502  0.77757830879E+02 -0.91139955339E+03  0.82813636070E+03  0.12338990522E+04  0.12699999809E+01 0.  1.
</event>
<event>
 5   0  0.1154897E-05  0.2396411E+04  0.7818609E-02  0.8440848E-01
       -2   -1    0    0    0  501  0.00000000000E+00  0.00000000000E+00  0.11054071805E+04  0.11054071805E+04  0.25500000920E-02 0.  1.
        2   -1    0    0  501    0  0.00000000000E+00  0.00000000000E+00 -0.12987941961E+04  0.12987941961E+04  0.25500000920E-02 0. -1.
    10030    2    1    2    0    0  0.00000000000E+00  0.00000000000E+00 -0.19338701564E+03  0.24042013766E+04  0.23964110084E+04 0.  0.
        4    1    3    3  502    0  0.35012321544E+03  0.21348383813E+03  0.10328142227E+04  0.11112463483E+04  0.12699999809E+01 0.  1.
       -4    1    3    3    0  502 -0.35012321544E+03 -0.21348383813E+03 -0.12262012384E+04  0.12929550282E+04  0.12699999809E+01 0. -1.
</event>
<event>
 5   0  0.1198313E-05  0.2397474E+04  0.7818609E-02  0.8440450E-01
        2   -1    0    0  501    0  0.00000000000E+00  0.00000000000E+00  0.22249737287E+04  0.22249737287E+04  0.25500000920E-02 0. -1.
       -2   -1    0    0    0  501  0.00000000000E+00  0.00000000000E+00 -0.64583721283E+03  0.64583721283E+03  0.25500000920E-02 0.  1.
    10030    2    1    2    0    0  0.00000000000E+00  0.00000000000E+00  0.15791365159E+04  0.28708109416E+04  0.23974743641E+04 0.  0.
        5    1    3    3  502    0 -0.58381044131E+03 -0.36233134247E+02 -0.46333710181E+03  0.74622438403E+03  0.46999998093E+01 0.  1.
       -5    1    3    3    0  502  0.58381044131E+03  0.36233134247E+02  0.20424736177E+04  0.21245865575E+04  0.46999998093E+01 0. -1.
</event>
<event>
 5   0  0.5196696E-06  0.2404734E+04  0.7818609E-02  0.8437733E-01
        1   -1    0    0  501    0  0.00000000000E+00  0.00000000000E+00  0.13412809768E+04  0.13412809768E+04  0.50400001928E-02 0.  1.
       -1   -1    0    0    0  501  0.00000000000E+00  0.00000000000E+00 -0.10778399013E+04  0.10778399014E+04  0.50400001928E-02 0. -1.
    10030    2    1    2    0    0  0.00000000000E+00  0.00000000000E+00  0.26344107543E+03  0.24191208781E+04  0.24047337946E+04 0.  0.
        1    1    3    3  502    0 -0.11114122098E+03  0.10006950095E+04  0.79287650972E+03  0.12815599997E+04  0.50400001928E-02 0.  1.
       -1    1    3    3    0  502  0.11114122098E+03 -0.10006950095E+04 -0.52943543429E+03  0.11375608785E+04  0.50400001928E-02 0. -1.
</event>
<event>
 5   0  0.1174210E-05  0.2393563E+04  0.7818609E-02  0.8441917E-01
       -2   -1    0    0    0  501  0.00000000000E+00  0.00000000000E+00  0.10438900115E+04  0.10438900115E+04  0.25500000920E-02 0. -1.
        2   -1    0    0  501    0  0.00000000000E+00  0.00000000000E+00 -0.13720664015E+04  0.13720664015E+04  0.25500000920E-02 0.  1.
    10030    2    1    2    0    0  0.00000000000E+00  0.00000000000E+00 -0.32817639004E+03  0.24159564130E+04  0.23935633784E+04 0.  0.
        3    1    3    3  502    0  0.62385077579E+03 -0.99983419616E+03  0.46255759004E+02  0.11794057045E+04  0.10100000352E+00 0. -1.
       -3    1    3    3    0  502 -0.62385077579E+03  0.99983419616E+03 -0.37443214904E+03  0.12365507085E+04  0.10100000352E+00 0.  1.
</event>
<event>
 5   0  0.1168435E-05  0.2398373E+04  0.7818609E-02  0.8440113E-01
       -2   -1    0    0    0  501  0.00000000000E+00  0.00000000000E+00  0.11449987225E+04  0.11449987225E+04  0.25500000920E-02 0. -1.
        2   -1    0    0  501    0  0.00000000000E+00  0.00000000000E+00 -0.12559388602E+04  0.12559388602E+04  0.25500000920E-02 0.  1.
    10030    2    1    2    0    0  0.00000000000E+00  0.00000000000E+00 -0.11094013768E+03  0.24009375828E+04  0.23983731074E+04 0.  0.
        1    1    3    3  502    0 -0.81754824872E+03  0.43833319652E+03  0.70529465819E+03  0.11653161309E+04  0.50400001928E-02 0. -1.
       -1    1    3    3    0  502  0.81754824872E+03 -0.43833319652E+03 -0.81623479587E+03  0.12356214518E+04  0.50400001928E-02 0.  1.
</event>
<event>
 5   0  0.1169371E-05  0.2388249E+04  0.7818609E-02  0.8443916E-01
       -2   -1    0    0    0  501  0.00000000000E+00  0.00000000000E+00  0.94203089859E+03  0.94203089859E+03  0.25500000920E-02 0.  1.
        2   -1    0    0  501    0  0.00000000000E+00  0.00000000000E+00 -0.15136801888E+04  0.15136801888E+04  0.25500000920E-02 0. -1.
    10030    2    1    2    0    0  0.00000000000E+00  0.00000000000E+00 -0.57164929018E+03  0.24557110874E+04  0.23882491565E+04 0.  0.
        2    1    3    3  502    0 -0.64721382990E+03 -0.85412818403E+03  0.25585081026E+03  0.11017623761E+04  0.25500000920E-02 0.  1.
       -2    1    3    3    0  502  0.64721382990E+03  0.85412818403E+03 -0.82750010044E+03  0.13539487112E+04  0.25500000920E-02 0. -1.
</event>
<event>
 5   0  0.5064437E-06  0.2392588E+04  0.7818609E-02  0.8442284E-01
        1   -1    0    0  501    0  0.00000000000E+00  0.00000000000E+00  0.15826807399E+04  0.15826807399E+04  0.50400001928E-02 0.  1.
       -1   -1    0    0    0  501  0.00000000000E+00  0.00000000000E+00 -0.90423729461E+03  0.90423729462E+03  0.50400001928E-02 0. -1.
    10030    2    1    2    0    0  0.00000000000E+00  0.00000000000E+00  0.67844344531E+03  0.24869180345E+04  0.23925876791E+04 0.  0.
        2    1    3    3  502    0  0.30109066223E+03  0.10779491425E+04  0.77835803430E+03  0.13632575583E+04  0.25500000920E-02 0.  1.
       -2    1    3    3    0  502 -0.30109066223E+03 -0.10779491425E+04 -0.99914588988E+02  0.11236604762E+04  0.25500000920E-02 0. -1.
</event>
<event>
 5   0  0.5034479E-06  0.2404371E+04  0.7818609E-02  0.8437869E-01
       -1   -1    0    0    0  501  0.00000000000E+00  0.00000000000E+00  0.11237510781E+04  0.11237510781E+04  0.50400001928E-02 0.  1.
        1   -1    0    0  501    0  0.00000000000E+00  0.00000000000E+00 -0.12860948791E+04  0.12860948791E+04  0.50400001928E-02 0. -1.
    10030    2    1    2    0    0  0.00000000000E+00  0.00000000000E+00 -0.16234380099E+03  0.24098459572E+04  0.24043714412E+04 0.  0.
        4    1    3    3  502    0  0.19278110401E+03 -0.90831652905E+03 -0.84648459419E+03  0.12564797062E+04  0.12699999809E+01 0. -1.
       -4    1    3    3    0  502 -0.19278110401E+03  0.90831652905E+03  0.68414079320E+03  0.11533662509E+04  0.12699999809E+01 0.  1.
</event>
<event>
 5   0  0.1198313E-05  0.2408661E+04  0.7818609E-02  0.8436268E-01
        2   -1    0    0  501    0  0.00000000000E+00  0.00000000000E+00  0.13256877076E+04  0.13256877076E+04  0.25500000920E-02 0. -1.
       -2   -1    0    0    0  501  0.00000000000E+00  0.00000000000E+00 -0.10940829684E+04  0.10940829684E+04  0.25500000920E-02 0.  1.
    10030    2    1    2    0    0  0.00000000000E+00  0.00000000000E+00  0.23160473917E+03  0.24197706760E+04  0.24086613230E+04 0.  0.
        5    1    3    3  502    0 -0.10300945624E+04 -0.29629595724E+03  0.66742886509E+03  0.12626834448E+04  0.46999998093E+01 0. -1.
       -5    1    3    3    0  502  0.10300945624E+04  0.29629595724E+03 -0.43582412592E+03  0.11570872312E+04  0.46999998093E+01 0.  1.
</event>
<event>
 5   0  0.4067750E-06  0.2410037E+04  0.7818609E-02  0.8435755E-01
        4   -1    0    0  501    0  0.00000000000E+00  0.00000000000E+00  0.10209724741E+04  0.10209732640E+04  0.12699999809E+01 0.  1.
       -4   -1    0    0    0  501  0.00000000000E+00  0.00000000000E+00 -0.14222403807E+04  0.14222409477E+04  0.12699999809E+01 0. -1.
    10030    2    1    2    0    0  0.00000000000E+00  0.00000000000E+00 -0.40126790660E+03  0.24432142117E+04  0.24100372925E+04 0.  0.
        1    1    3    3  502    0  0.73140978469E+03  0.93131971886E+03  0.25491001410E+02  0.11844688612E+04  0.50400001928E-02 0. -1.
       -1    1    3    3    0  502 -0.73140978469E+03 -0.93131971886E+03 -0.42675890801E+03  0.12587453505E+04  0.50400001928E-02 0.  1.
</event>
<event>
 5   0  0.5042742E-06  0.2407944E+04  0.7818609E-02  0.8436535E-01
        1   -1    0    0  501    0  0.00000000000E+00  0.00000000000E+00  0.17997568381E+04  0.17997568381E+04  0.50400001928E-02 0.  1.
       -1   -1    0    0    0  501  0.00000000000E+00  0.00000000000E+00 -0.80541381619E+03  0.80541381621E+03  0.50400001928E-02 0. -1.
    10030    2    1    2    0    0  0.00000000000E+00  0.00000000000E+00  0.99434302189E+03  0.26051706543E+04  0.24079443708E+04 0.  0.
        5    1    3    3  502    0  0.23931519399E+03 -0.26118968094E+03  0.17420858830E+04  0.17777449550E+04  0.46999998093E+01 0.  1.
       -5    1    3    3    0  502 -0.23931519399E+03  0.26118968094E+03 -0.74774286108E+03  0.82742569926E+03  0.46999998093E+01 0. -1.
</event>
<event>
 5   0  0.5034479E-06  0.2278384E+04  0.7818609E-02  0.8486493E-01
       -1   -1    0    0    0  501  0.00000000000E+00  0.00000000000E+00  0.14479514996E+04  0.14479514996E+04  0.50400001928E-02 0. -1.
        1   -1    0    0  501    0  0.00000000000E+00  0.00000000000E+00 -0.89627195956E+03  0.89627195958E+03  0.50400001928E-02 0.  1.
    10030    2    1    2    0    0  0.00000000000E+00  0.00000000000E+00  0.55167954004E+03  0.23442234592E+04  0.22783839254E+04 0.  0.
        4    1    3    3  502    0  0.22372259083E+03 -0.76522122979E+03  0.11130749463E+04  0.13691430813E+04  0.12699999809E+01 0. -1.
       -4    1    3    3    0  502 -0.22372259083E+03  0.76522122979E+03 -0.56139540628E+03  0.97508037785E+03  0.12699999809E+01 0.  1.
</event>
<event>
 5   0  0.5104174E-06  0.2419616E+04  0.7818609E-02  0.8432196E-01
        1   -1    0    0  501    0  0.00000000000E+00  0.00000000000E+00  0.16369415790E+04  0.16369415790E+04  0.50400001928E-02 0. -1.
       -1   -1    0    0    0  501  0.00000000000E+00  0.00000000000E+00 -0.89412794337E+03  0.89412794339E+03  0.50400001928E-02 0.  1.
    10030    2    1    2    0    0  0.00000000000E+00  0.00000000000E+00  0.74281363561E+03  0.25310695224E+04  0.24196158434E+04 0.  0.
        3    1    3    3  502    0 -0.10585299599E+04 -0.19535522534E+03  0.94910034976E+03  0.14350751981E+04  0.10100000352E+00 0. -1.
       -3    1    3    3    0  502  0.10585299599E+04  0.19535522534E+03 -0.20628671416E+03  0.10959943242E+04  0.10100000352E+00 0.  1.
</event>
<event>
 5   0  0.5042742E-06  0.2393321E+04  0.7818609E-02  0.8442008E-01
        1   -1    0    0  501    0  0.00000000000E+00  0.00000000000E+00  0.17796053545E+04  0.17796053545E+04  0.50400001928E-02 0. -1.
       -1   -1    0    0    0  501  0.00000000000E+00  0.00000000000E+00 -0.80467054558E+03  0.80467054559E+03  0.50400001928E-02 0.  1.
    10030    2    1    2    0    0  0.00000000000E+00  0.00000000000E+00  0.97493480893E+03  0.25842759001E+04  0.23933207153E+04 0.  0.
        5    1    3    3  502    0 -0.11917612605E+04 -0.10418080467E+03  0.45644575886E+03  0.12804348335E+04  0.46999998093E+01 0. -1.
       -5    1    3    3    0  502  0.11917612605E+04  0.10418080467E+03  0.51848905008E+03  0.13038410666E+04  0.46999998093E+01 0.  1.
</event>
<event>
 5   0  0.5196696E-06  0.2477811E+04  0.7818609E-02  0.8410933E-01
        1   -1    0    0  501    0  0.00000000000E+00  0.00000000000E+00  0.19171924599E+04  0.19171924599E+04  0.50400001928E-02 0.  1.
       -1   -1    0    0    0  501  0.00000000000E+00  0.00000000000E+00 -0.80059068027E+03  0.80059068028E+03  0.50400001928E-02 0. -1.
    10030    2    1    2    0    0  0.00000000000E+00  0.00000000000E+00  0.11166017796E+04  0.27177831402E+04  0.24778106592E+04 0.  0.
        1    1    3    3  502    0 -0.62478999191E+03  0.10427845849E+04  0.29614675302E+03  0.12511854874E+04  0.50400001928E-02 0.  1.
       -1    1    3    3    0  502  0.62478999191E+03 -0.10427845849E+04  0.82045502657E+03  0.14665976528E+04  0.50400001928E-02 0. -1.
</event>
<event>
 5   0  0.4067750E-06  0.2384075E+04  0.7818609E-02  0.8445490E-01
       -3   -1    0    0    0  501  0.00000000000E+00  0.00000000000E+00  0.93140173219E+03  0.93140173767E+03  0.10100000352E+00 0.  1.
        3   -1    0    0  501    0  0.00000000000E+00  0.00000000000E+00 -0.15256073967E+04  0.15256074000E+04  0.10100000352E+00 0. -1.
    10030    2    1    2    0    0  0.00000000000E+00  0.00000000000E+00 -0.59420566448E+03  0.24570091377E+04  0.23840749843E+04 0.  0.
        5    1    3    3  502    0  0.56061753842E+03 -0.95473778109E+03 -0.75233425497E+03  0.13385982131E+04  0.46999998093E+01 0. -1.
       -5    1    3    3    0  502 -0.56061753842E+03  0.95473778109E+03  0.15812859049E+03  0.11184109245E+04  0.46999998093E+01 0.  1.
</event>
<event>
 5   0  0.1168435E-05  0.2412575E+04  0.7818609E-02  0.8434811E-01
       -2   -1    0    0    0  501  0.00000000000E+00  0.00000000000E+00  0.98356839056E+03  0.98356839056E+03  0.25500000920E-02 0. -1.
        2   -1    0    0  501    0  0.00000000000E+00  0.00000000000E+00 -0.14794388148E+04  0.14794388148E+04  0.25500000920E-02 0.  1.
    10030    2    1    2    0    0  0.00000000000E+00  0.00000000000E+00 -0.49587042425E+03  0.24630072054E+04  0.24125747690E+04 0.  0.
        1    1    3    3  502    0  0.23559090539E+03 -0.11316837709E+04  0.10411834676E+03  0.11606256340E+04  0.50400001928E-02 0. -1.
       -1    1    3    3    0  502 -0.23559090539E+03  0.11316837709E+04 -0.59998877101E+03  0.13023815714E+04  0.50400001928E-02 0.  1.
</event>
<event>
 5   0  0.5196696E-06  0.2392785E+04  0.7818609E-02  0.8442210E-01
       -1   -1    0    0    0  501  0.00000000000E+00  0.00000000000E+00  0.13624054110E+04  0.13624054111E+04  0.50400001928E-02 0. -1.
        1   -1    0    0  501    0  0.00000000000E+00  0.00000000000E+00 -0.10506086106E+04  0.10506086106E+04  0.50400001928E-02 0.  1.
    10030    2    1    2    0    0  0.00000000000E+00  0.00000000000E+00  0.31179680042E+03  0.24130140217E+04  0.23927848679E+04 0.  0.
        1    1    3    3  502    0 -0.35898226296E+03  0.33769255477E+03  0.12552755592E+04  0.13485626630E+04  0.50400001928E-02 0. -1.
       -1    1    3    3    0  502  0.35898226296E+03 -0.33769255477E+03 -0.94347875876E+03  0.10644513586E+04  0.50400001928E-02 0.  1.
</event>
<event>
 5   0  0.1154897E-05  0.2397526E+04  0.7818609E-02  0.8440430E-01
       -2   -1    0    0    0  501  0.00000000000E+00  0.00000000000E+00  0.82348751022E+03  0.82348751022E+03  0.25500000920E-02 0.  1.
        2   -1    0    0  501    0  0.00000000000E+00  0.00000000000E+00 -0.17450576699E+04  0.17450576699E+04  0.25500000920E-02 0. -1.
    10030    2    1    2    0    0  0.00000000000E+00  0.00000000000E+00 -0.92157015967E+03  0.25685451801E+04  0.23975263884E+04 0.  0.
        4    1    3    3  502    0  0.98679327620E+03 -0.65250809528E+03 -0.25331214912E+03  0.12098332291E+04  0.12699999809E+01 0.  1.
       -4    1    3    3    0  502 -0.98679327620E+03  0.65250809528E+03 -0.66825801055E+03  0.13587119511E+04  0.12699999809E+01 0. -1.
</event>
<event>
 5   0  0.1198313E-05  0.2425389E+04  0.7818609E-02  0.8430059E-01
        2   -1    0    0  501    0  0.00000000000E+00  0.00000000000E+00  0.15304211272E+04  0.15304211273E+04  0.25500000920E-02 0.  1.
       -2   -1    0    0    0  501  0.00000000000E+00  0.00000000000E+00 -0.96093049297E+03  0.96093049297E+03  0.25500000920E-02 0. -1.
    10030    2    1    2    0    0  0.00000000000E+00  0.00000000000E+00  0.56949063428E+03  0.24913516202E+04  0.24253893116E+04 0.  0.
        5    1    3    3  502    0  0.49434648348E+03 -0.24315536004E+03 -0.82496138487E+03  0.99201126575E+03  0.46999998093E+01 0. -1.
       -5    1    3    3    0  502 -0.49434648348E+03  0.24315536004E+03  0.13944520192E+04  0.14993403545E+04  0.46999998093E+01 0.  1.
</event>
<event>
 5   0  0.5064437E-06  0.2389553E+04  0.7818609E-02  0.8443425E-01
        1   -1    0    0  501    0  0.00000000000E+00  0.00000000000E+00  0.20015886842E+04  0.20015886842E+04  0.50400001928E-02 0.  1.
       -1   -1    0    0    0  501  0.00000000000E+00  0.00000000000E+00 -0.71317897479E+03  0.71317897481E+03  0.50400001928E-02 0. -1.
    10030    2    1    2    0    0  0.00000000000E+00  0.00000000000E+00  0.12884097094E+04  0.27147676590E+04  0.23895530676E+04 0.  0.
        2    1    3    3  502    0 -0.99162380241E+03 -0.66554363484E+03  0.60444351120E+03  0.13385133745E+04  0.25500000920E-02 0.  1.
       -2    1    3    3    0  502  0.99162380241E+03  0.66554363484E+03  0.68396619817E+03  0.13762542845E+04  0.25500000920E-02 0. -1.
</event>
<event>
 5   0  0.5196696E-06  0.2401875E+04  0.7818609E-02  0.8438802E-01
        1   -1    0    0  501    0  0.00000000000E+00  0.00000000000E+00  0.21162509758E+04  0.21162509758E+04  0.50400001928E-02 0.  1.
       -1   -1    0    0    0  501  0.00000000000E+00  0.00000000000E+00 -0.68151236000E+03  0.68151236002E+03  0.50400001928E-02 0. -1.
    10030    2    1    2    0    0  0.00000000000E+00  0.00000000000E+00  0.14347386158E+04  0.27977633358E+04  0.24018752648E+04 0.  0.
        1    1    3    3  502    0  0.90296615161E+03 -0.66171155712E+03  0.12238217737E+04  0.16585987428E+04  0.50400001928E-02 0.  1.
       -1    1    3    3    0  502 -0.90296615161E+03  0.66171155712E+03  0.21091684214E+03  0.11391645931E+04  0.50400001928E-02 0. -1.
</event>
<event>
 5   0  0.1169371E-05  0.2392365E+04  0.7818609E-02  0.8442368E-01
        2   -1    0    0  501    0  0.00000000000E+00  0.00000000000E+00  0.11169263800E+04  0.11169263800E+04  0.25500000920E-02 0. -1.
       -2   -1    0    0    0  501  0.00000000000E+00  0.00000000000E+00 -0.12810624677E+04  0.12810624678E+04  0.25500000920E-02 0.  1.
    10030    2    1    2    0    0  0.00000000000E+00  0.00000000000E+00 -0.16413608771E+03  0.23979888478E+04  0.23923649092E+04 0.  0.
        2    1    3    3  502    0 -0.20707401642E+03 -0.11741306519E+04 -0.17919800027E+03  0.12056427163E+04  0.25500000920E-02 0. -1.
       -2    1    3    3    0  502  0.20707401642E+03  0.11741306519E+04  0.15061912557E+02  0.11923461315E+04  0.25500000920E-02 0.  1.
</event>
<event>
 5   0  0.5104174E-06  0.2397075E+04  0.7818609E-02  0.8440600E-01
       -1   -1    0    0    0  501  0.00000000000E+00  0.00000000000E+00  0.58834272346E+03  0.58834272348E+03  0.50400001928E-02 0. -1.
        1   -1    0    0  501    0  0.00000000000E+00  0.00000000000E+00 -0.24415897306E+04  0.24415897306E+04  0.50400001928E-02 0.  1.
    10030    2    1    2    0    0  0.00000000000E+00  0.00000000000E+00 -0.18532470072E+04  0.30299324541E+04  0.23970745101E+04 0.  0.
        3    1    3    3  502    0 -0.71093462082E+03  0.96279114353E+03 -0.84571958161E+03  0.14654816417E+04  0.10100000352E+00 0. -1.
       -3    1    3    3    0  502  0.71093462082E+03 -0.96279114353E+03 -0.10075274256E+04  0.15644508125E+04  0.10100000352E+00 0.  1.
</event>
<event>
 5   0  0.5104174E-06  0.2397649E+04  0.7818609E-02  0.8440384E-01
       -1   -1    0    0    0  501  0.00000000000E+00  0.00000000000E+00  0.49519168395E+03  0.49519168398E+03  0.50400001928E-02 0.  1.
        1   -1    0    0  501    0  0.00000000000E+00  0.00000000000E+00 -0.29022694207E+04  0.29022694207E+04  0.50400001928E-02 0. -1.
    10030    2    1    2    0    0  0.00000000000E+00  0.00000000000E+00 -0.24070777368E+04  0.33974611047E+04  0.23976485829E+04 0.  0.
        3    1    3    3  502    0 -0.61912190809E+03  0.66638506212E+03 -0.97011386333E+02  0.91476347073E+03  0.10100000352E+00 0.  1.
       -3    1    3    3    0  502  0.61912190809E+03 -0.66638506212E+03 -0.23100663505E+04  0.24826976340E+04  0.10100000352E+00 0. -1.
</event>
<event>
 5   0  0.1169371E-05  0.2405859E+04  0.7818609E-02  0.8437313E-01
       -2   -1    0    0    0  501  0.00000000000E+00  0.00000000000E+00  0.15073913104E+04  0.15073913104E+04  0.25500000920E-02 0. -1.
        2   -1    0    0  501    0  0.00000000000E+00  0.00000000000E+00 -0.95996296173E+03  0.95996296173E+03  0.25500000920E-02 0.  1.
    10030    2    1    2    0    0  0.00000000000E+00  0.00000000000E+00  0.54742834867E+03  0.24673542721E+04  0.24058593698E+04 0.  0.
        2    1    3    3  502    0  0.83402218935E+03 -0.82855267218E+03  0.53507576857E+03  0.12916650576E+04  0.25500000920E-02 0.  1.
       -2    1    3    3    0  502 -0.83402218935E+03  0.82855267218E+03  0.12352580103E+02  0.11756892145E+04  0.25500000920E-02 0. -1.
</event>
<event>
 5   0  0.5042742E-06  0.2432440E+04  0.7818609E-02  0.8427457E-01
       -1   -1    0    0    0  501  0.00000000000E+00  0.00000000000E+00  0.52681134996E+03  0.52681134998E+03  0.50400001928E-02 0. -1.
        1   -1    0    0  501    0  0.00000000000E+00  0.00000000000E+00 -0.28078201144E+04  0.28078201144E+04  0.50400001928E-02 0.  1.
    10030    2    1    2    0    0  0.00000000000E+00  0.00000000000E+00 -0.22810087644E+04  0.33346314644E+04  0.24324403425E+04 0.  0.
        5    1    3    3  502    0  0.35788058651E+03  0.50650634568E+03 -0.25747446306E+04  0.26483880371E+04  0.46999998093E+01 0.  1.
       -5    1    3    3    0  502 -0.35788058651E+03 -0.50650634568E+03  0.29373586614E+03  0.68624342727E+03  0.46999998093E+01 0. -1.
</event>
<event>
 5   0  0.1174210E-05  0.2399129E+04  0.7818609E-02  0.8439830E-01
        2   -1    0    0  501    0  0.00000000000E+00  0.00000000000E+00  0.14813938747E+04  0.14813938747E+04  0.25500000920E-02 0. -1.
       -2   -1    0    0    0  501  0.00000000000E+00  0.00000000000E+00 -0.97135214116E+03  0.97135214116E+03  0.25500000920E-02 0.  1.
    10030    2    1    2    0    0  0.00000000000E+00  0.00000000000E+00  0.51004173354E+03  0.24527460159E+04  0.23991291021E+04 0.  0.
        3    1    3    3  502    0 -0.88403282878E+03  0.40450275158E+03 -0.46340618135E+03  0.10769780952E+04  0.10100000352E+00 0.  1.
       -3    1    3    3    0  502  0.88403282878E+03 -0.40450275158E+03  0.97344791489E+03  0.13757679207E+04  0.10100000352E+00 0. -1.
</event>
<event>
 5   0  0.1174210E-05  0.2380615E+04  0.7818609E-02  0.8446797E-01
       -2   -1    0    0    0  501  0.00000000000E+00  0.00000000000E+00  0.98063719158E+03  0.98063719158E+03  0.25500000920E-02 0. -1.
        2   -1    0    0  501    0  0.00000000000E+00  0.00000000000E+00 -0.14448075279E+04  0.14448075279E+04  0.25500000920E-02 0.  1.
    10030    2    1    2    0    0  0.00000000000E+00  0.00000000000E+00 -0.46417033635E+03  0.24254447195E+04  0.23806150437E+04 0.  0.
        3    1    3    3  502    0 -0.71180463574E+03  0.33239929384E+03  0.67900103612E+03  0.10383629169E+04  0.10100000352E+00 0. -1.
       -3    1    3    3    0  502  0.71180463574E+03 -0.33239929384E+03 -0.11431713725E+04  0.13870818026E+04  0.10100000352E+00 0.  1.
</event>
<event>
 5   0  0.1169371E-05  0.2399048E+04  0.7818609E-02  0.8439860E-01
        2   -1    0    0  501    0  0.00000000000E+00  0.00000000000E+00  0.10177437122E+04  0.10177437122E+04  0.25500000920E-02 0.  1.
       -2   -1    0    0    0  501  0.00000000000E+00  0.00000000000E+00 -0.14137727467E+04  0.14137727467E+04  0.25500000920E-02 0. -1.
    10030    2    1    2    0    0  0.00000000000E+00  0.00000000000E+00 -0.39602903450E+03  0.24315164589E+04  0.23990484142E+04 0.  0.
        2    1    3    3  502    0 -0.67303424191E+03 -0.90445772553E+03  0.21721214472E+03  0.11481289056E+04  0.25500000920E-02 0.  1.
       -2    1    3    3    0  502  0.67303424191E+03  0.90445772553E+03 -0.61324117921E+03  0.12833875533E+04  0.25500000920E-02 0. -1.
</event>
<event>
 5   0  0.5034479E-06  0.2395056E+04  0.7818609E-02  0.8441357E-01
       -1   -1    0    0    0  501  0.00000000000E+00  0.00000000000E+00  0.81450988288E+03  0.81450988290E+03  0.50400001928E-02 0.  1.
        1   -1    0    0  501    0  0.00000000000E+00  0.00000000000E+00 -0.17606579101E+04  0.17606579101E+04  0.50400001928E-02 0. -1.
    10030    2    1    2    0    0  0.00000000000E+00  0.00000000000E+00 -0.94614802724E+03  0.25751677930E+04  0.23950559644E+04 0.  0.
        4    1    3    3  502    0  0.13245949014E+03  0.53856765978E+03 -0.16142427808E+04  0.17068632075E+04  0.12699999809E+01 0. -1.
       -4    1    3    3    0  502 -0.13245949014E+03 -0.53856765978E+03  0.66809475357E+03  0.86830458557E+03  0.12699999809E+01 0.  1.
</event>
<event>
 5   0  0.1168435E-05  0.2400743E+04  0.7818609E-02  0.8439225E-01
        2   -1    0    0  501    0  0.00000000000E+00  0.00000000000E+00  0.10182524718E+04  0.10182524718E+04  0.25500000920E-02 0.  1.
       -2   -1    0    0    0  501  0.00000000000E+00  0.00000000000E+00 -0.14150634018E+04  0.14150634018E+04  0.25500000920E-02 0. -1.
    10030    2    1    2    0    0  0.00000000000E+00  0.00000000000E+00 -0.39681092996E+03  0.24333158736E+04  0.24007430571E+04 0.  0.
        1    1    3    3  502    0 -0.79333523797E+03  0.60397615684E+03 -0.87584783755E+03  0.13271312793E+04  0.50400001928E-02 0. -1.
       -1    1    3    3    0  502  0.79333523797E+03 -0.60397615684E+03  0.47903690759E+03  0.11061845943E+04  0.50400001928E-02 0.  1.
</event>
<event>
 5   0  0.1169371E-05  0.2400328E+04  0.7818609E-02  0.8439381E-01
        2   -1    0    0  501    0  0.00000000000E+00  0.00000000000E+00  0.12165505084E+04  0.12165505084E+04  0.25500000920E-02 0.  1.
       -2   -1    0    0    0  501  0.00000000000E+00  0.00000000000E+00 -0.11839981468E+04  0.11839981468E+04  0.25500000920E-02 0. -1.
    10030    2    1    2    0    0  0.00000000000E+00  0.00000000000E+00  0.32552361626E+02  0.24005486552E+04  0.24003279338E+04 0.  0.
        2    1    3    3  502    0  0.77658021200E+03 -0.71302837717E+03 -0.55728091928E+03  0.11924966731E+04  0.25500000920E-02 0. -1.
       -2    1    3    3    0  502 -0.77658021200E+03  0.71302837717E+03  0.58983328091E+03  0.12080519822E+04  0.25500000920E-02 0.  1.
</event>
<event>
 5   0  0.1154897E-05  0.2386707E+04  0.7818609E-02  0.8444497E-01
        2   -1    0    0  501    0  0.00000000000E+00  0.00000000000E+00  0.12655877134E+04  0.12655877134E+04  0.25500000920E-02 0.  1.
       -2   -1    0    0    0  501  0.00000000000E+00  0.00000000000E+00 -0.11252421492E+04  0.11252421493E+04  0.25500000920E-02 0. -1.
    10030    2    1    2    0    0  0.00000000000E+00  0.00000000000E+00  0.14034556414E+03  0.23908298626E+04  0.23867070526E+04 0.  0.
        4    1    3    3  502    0  0.52552939160E+02 -0.10091319457E+04  0.70607793161E+03  0.12327435879E+04  0.12699999809E+01 0.  1.
       -4    1    3    3    0  502 -0.52552939160E+02  0.10091319457E+04 -0.56573236747E+03  0.11580862747E+04  0.12699999809E+01 0. -1.
</event>
<event>
 5   0  0.1174210E-05  0.2394142E+04  0.7818609E-02  0.8441700E-01
       -2   -1    0    0    0  501  0.00000000000E+00  0.00000000000E+00  0.10137851834E+04  0.10137851834E+04  0.25500000920E-02 0. -1.
        2   -1    0    0  501    0  0.00000000000E+00  0.00000000000E+00 -0.14134935270E+04  0.14134935270E+04  0.25500000920E-02 0.  1.
    10030    2    1    2    0    0  0.00000000000E+00  0.00000000000E+00 -0.39970834364E+03  0.24272787104E+04  0.23941418458E+04 0.  0.
        3    1    3    3  502    0 -0.38667341614E+03 -0.67717557236E+03 -0.11206626058E+04  0.13652720509E+04  0.10100000352E+00 0.  1.
       -3    1    3    3    0  502  0.38667341614E+03  0.67717557236E+03  0.72095426220E+03  0.10620066595E+04  0.10100000352E+00 0. -1.
</event>
<event>
 5   0  0.5064437E-06  0.2401857E+04  0.7818609E-02  0.8438809E-01
       -1   -1    0    0    0  501  0.00000000000E+00  0.00000000000E+00  0.11886673379E+04  0.11886673379E+04  0.50400001928E-02 0.  1.
        1   -1    0    0  501    0  0.00000000000E+00  0.00000000000E+00 -0.12133156685E+04  0.12133156685E+04  0.50400001928E-02 0. -1.
    10030    2    1    2    0    0  0.00000000000E+00  0.00000000000E+00 -0.24648330608E+02  0.24019830064E+04  0.24018565366E+04 0.  0.
        2    1    3    3  502    0 -0.70577187903E+03 -0.48202336400E+02  0.95818625597E+03  0.11910324562E+04  0.25500000920E-02 0.  1.
       -2    1    3    3    0  502  0.70577187903E+03  0.48202336400E+02 -0.98283458658E+03  0.12109505502E+04  0.25500000920E-02 0. -1.
</event>
<event>
 5   0  0.1168435E-05  0.2405385E+04  0.7818609E-02  0.8437490E-01
        2   -1    0    0  501    0  0.00000000000E+00  0.00000000000E+00  0.17769990591E+04  0.17769990591E+04  0.25500000920E-02 0. -1.
       -2   -1    0    0    0  501  0.00000000000E+00  0.00000000000E+00 -0.81399559612E+03  0.81399559613E+03  0.25500000920E-02 0.  1.
    10030    2    1    2    0    0  0.00000000000E+00  0.00000000000E+00  0.96300346299E+03  0.25909946552E+04  0.24053851321E+04 0.  0.
        1    1    3    3  502    0  0.83711111546E+03 -0.80243436949E+03  0.82520567701E+03  0.14232428979E+04  0.50400001928E-02 0. -1.
       -1    1    3    3    0  502 -0.83711111546E+03  0.80243436949E+03  0.13779778598E+03  0.11677517574E+04  0.50400001928E-02 0.  1.
</event>
<event>
 5   0  0.1154897E-05  0.2397782E+04  0.7818609E-02  0.8440335E-01
       -2   -1    0    0    0  501  0.00000000000E+00  0.00000000000E+00  0.14576290880E+04  0.14576290880E+04  0.25500000920E-02 0. -1.
        2   -1    0    0  501    0  0.00000000000E+00  0.00000000000E+00 -0.98608016886E+03  0.98608016886E+03  0.25500000920E-02 0.  1.
    10030    2    1    2    0    0  0.00000000000E+00  0.00000000000E+00  0.47154891909E+03  0.24437092568E+04  0.23977815890E+04 0.  0.
        4    1    3    3  502    0  0.72571242807E+02  0.11943906871E+04  0.16017941655E+03  0.12072674754E+04  0.12699999809E+01 0.  1.
       -4    1    3    3    0  502 -0.72571242807E+02 -0.11943906871E+04  0.31136950254E+03  0.12364417814E+04  0.12699999809E+01 0. -1.
</event>
<event>
 5   0  0.5196696E-06  0.2402443E+04  0.7818609E-02  0.8438590E-01
       -1   -1    0    0    0  501  0.00000000000E+00  0.00000000000E+00  0.89546677054E+03  0.89546677056E+03  0.50400001928E-02 0.  1.
        1   -1    0    0  501    0  0.00000000000E+00  0.00000000000E+00 -0.16113750281E+04  0.16113750281E+04  0.50400001928E-02 0. -1.
    10030    2    1    2    0    0  0.00000000000E+00  0.00000000000E+00 -0.71590825757E+03  0.25068417987E+04  0.24024427507E+04 0.  0.
        1    1    3    3  502    0  0.33451964173E+03 -0.85337491126E+03  0.45217367191E+03  0.10220631876E+04  0.50400001928E-02 0.  1.
       -1    1    3    3    0  502 -0.33451964173E+03  0.85337491126E+03 -0.11680819295E+04  0.14847786111E+04  0.50400001928E-02 0. -1.
</event>
<event>
 5   0  0.5064437E-06  0.2298830E+04  0.7818609E-02  0.8478382E-01
       -1   -1    0    0    0  501  0.00000000000E+00  0.00000000000E+00  0.91394539087E+03  0.91394539089E+03  0.50400001928E-02 0.  1.
        1   -1    0    0  501    0  0.00000000000E+00  0.00000000000E+00 -0.14455517032E+04  0.14455517033E+04  0.50400001928E-02 0. -1.
    10030    2    1    2    0    0  0.00000000000E+00  0.00000000000E+00 -0.53160631237E+03  0.23594970941E+04  0.22988304126E+04 0.  0.
        2    1    3    3  502    0 -0.64285022009E+02  0.57702481216E+03  0.75237653851E+03  0.95034764882E+03  0.25500000920E-02 0.  1.
       -2    1    3    3    0  502  0.64285022009E+02 -0.57702481216E+03 -0.12839828509E+04  0.14091494453E+04  0.25500000920E-02 0. -1.
</event>
<event>
 5   0  0.5042742E-06  0.2393428E+04  0.7818609E-02  0.8441968E-01
        1   -1    0    0  501    0  0.00000000000E+00  0.00000000000E+00  0.11241772970E+04  0.11241772970E+04  0.50400001928E-02 0.  1.
       -1   -1    0    0    0  501  0.00000000000E+00  0.00000000000E+00 -0.12739309262E+04  0.12739309262E+04  0.50400001928E-02 0. -1.
    10030    2    1    2    0    0  0.00000000000E+00  0.00000000000E+00 -0.14975362920E+03  0.23981082233E+04  0.23934278558E+04 0.  0.
        5    1    3    3  502    0  0.67501641721E+03  0.61814355714E+03  0.69757403401E+03  0.11508172069E+04  0.46999998093E+01 0.  1.
       -5    1    3    3    0  502 -0.67501641721E+03 -0.61814355714E+03 -0.84732766321E+03  0.12472910164E+04  0.46999998093E+01 0. -1.
</event>
<event>
 5   0  0.4067750E-06  0.2402757E+04  0.7818609E-02  0.8438472E-01
       -3   -1    0    0    0  501  0.00000000000E+00  0.00000000000E+00  0.12270098444E+04  0.12270098485E+04  0.10100000352E+00 0. -1.
        3   -1    0    0  501    0  0.00000000000E+00  0.00000000000E+00 -0.11762821638E+04  0.11762821682E+04  0.10100000352E+00 0.  1.
    10030    2    1    2    0    0  0.00000000000E+00  0.00000000000E+00  0.50727680529E+02  0.24032920167E+04  0.24027565877E+04 0.  0.
        5    1    3    3  502    0  0.70487856735E+03 -0.27833103691E+02  0.99803066191E+03  0.12221766519E+04  0.46999998093E+01 0. -1.
       -5    1    3    3    0  502 -0.70487856735E+03  0.27833103691E+02 -0.94730298138E+03  0.11811153648E+04  0.46999998093E+01 0.  1.
</event>
<event>
 5   0  0.5104174E-06  0.2402226E+04  0.7818609E-02  0.8438671E-01
       -1   -1    0    0    0  501  0.00000000000E+00  0.00000000000E+00  0.11452402933E+04  0.11452402933E+04  0.50400001928E-02 0. -1.
        1   -1    0    0  501    0  0.00000000000E+00  0.00000000000E+00 -0.12597115207E+04  0.12597115207E+04  0.50400001928E-02 0.  1.
    10030    2    1    2    0    0  0.00000000000E+00  0.00000000000E+00 -0.11447122741E+03  0.24049518140E+04  0.24022259606E+04 0.  0.
        3    1    3    3  502    0  0.78848554189E+03  0.61650168353E+03 -0.72198349328E+03  0.12341166680E+04  0.10100000352E+00 0.  1.
       -3    1    3    3    0  502 -0.78848554189E+03 -0.61650168353E+03  0.60751226586E+03  0.11708351459E+04  0.10100000352E+00 0. -1.
</event>
<event>
 5   0  0.1154897E-05  0.2375431E+04  0.7818609E-02  0.8448759E-01
        2   -1    0    0  501    0  0.00000000000E+00  0.00000000000E+00  0.20383275675E+04  0.20383275675E+04  0.25500000920E-02 0. -1.
       -2   -1    0    0    0  501  0.00000000000E+00  0.00000000000E+00 -0.69207158882E+03  0.69207158882E+03  0.25500000920E-02 0.  1.
    10030    2    1    2    0    0  0.00000000000E+00  0.00000000000E+00  0.13462559787E+04  0.27303991563E+04  0.23754314119E+04 0.  0.
        4    1    3    3  502    0  0.92664134015E+03 -0.73543641175E+03  0.79442501017E+03  0.14250065258E+04  0.12699999809E+01 0. -1.
       -4    1    3    3    0  502 -0.92664134015E+03  0.73543641175E+03  0.55183096851E+03  0.13053926305E+04  0.12699999809E+01 0.  1.
</event>
<event>
 5   0  0.5196696E-06  0.2405741E+04  0.7818609E-02  0.8437357E-01
        1   -1    0    0  501    0  0.00000000000E+00  0.00000000000E+00  0.13777117331E+04  0.13777117331E+04  0.50400001928E-02 0. -1.
       -1   -1    0    0    0  501  0.00000000000E+00  0.00000000000E+00 -0.10502179093E+04  0.10502179093E+04  0.50400001928E-02 0.  1.
    10030    2    1    2    0    0  0.00000000000E+00  0.00000000000E+00  0.32749382377E+03  0.24279296424E+04  0.24057410799E+04 0.  0.
        1    1    3    3  502    0  0.11892672456E+03  0.28667362113E+03 -0.10091129314E+04  0.10557623971E+04  0.50400001928E-02 0.  1.
       -1    1    3    3    0  502 -0.11892672456E+03 -0.28667362113E+03  0.13366067552E+04  0.13721672452E+04  0.50400001928E-02 0. -1.
</event>
<event>
 5   0  0.1198313E-05  0.2400549E+04  0.7818609E-02  0.8439298E-01
       -2   -1    0    0    0  501  0.00000000000E+00  0.00000000000E+00  0.14120622682E+04  0.14120622682E+04  0.25500000920E-02 0. -1.
        2   -1    0    0  501    0  0.00000000000E+00  0.00000000000E+00 -0.10202516362E+04  0.10202516363E+04  0.25500000920E-02 0.  1.
    10030    2    1    2    0    0  0.00000000000E+00  0.00000000000E+00  0.39181063195E+03  0.24323139045E+04  0.24005489702E+04 0.  0.
        5    1    3    3  502    0 -0.70493151723E+03 -0.56699817956E+02  0.11785283427E+04  0.13744433265E+04  0.46999998093E+01 0. -1.
       -5    1    3    3    0  502  0.70493151723E+03  0.56699817956E+02 -0.78671771071E+03  0.10578705779E+04  0.46999998093E+01 0.  1.
</event>
<event>
 5   0  0.1198313E-05  0.2400617E+04  0.7818609E-02  0.8439273E-01
        2   -1    0    0  501    0  0.00000000000E+00  0.00000000000E+00  0.20495196509E+04  0.20495196509E+04  0.25500000920E-02 0.  1.
       -2   -1    0    0    0  501  0.00000000000E+00  0.00000000000E+00 -0.70296469347E+03  0.70296469347E+03  0.25500000920E-02 0. -1.
    10030    2    1    2    0    0  0.00000000000E+00  0.00000000000E+00  0.13465549575E+04  0.27524843444E+04  0.24006165485E+04 0.  0.
        5    1    3    3  502    0  0.10432241680E+04  0.58137620663E+03  0.81088022674E+03  0.14435594170E+04  0.46999998093E+01 0. -1.
       -5    1    3    3    0  502 -0.10432241680E+04 -0.58137620663E+03  0.53567473072E+03  0.13089249274E+04  0.46999998093E+01 0.  1.
</event>
<event>
 5   0  0.1198313E-05  0.2396799E+04  0.7818609E-02  0.8440703E-01
       -2   -1    0    0    0  501  0.00000000000E+00  0.00000000000E+00  0.66017528735E+03  0.66017528735E+03  0.25500000920E-02 0. -1.
        2   -1    0    0  501    0  0.00000000000E+00  0.00000000000E+00 -0.21754246658E+04  0.21754246658E+04  0.25500000920E-02 0.  1.
    10030    2    1    2    0    0  0.00000000000E+00  0.00000000000E+00 -0.15152493785E+04  0.28355999532E+04  0.23967992022E+04 0.  0.
        5    1    3    3  502    0 -0.41489609637E+03 -0.57210614602E+03 -0.19026431264E+04  0.20296593728E+04  0.46999998093E+01 0.  1.
       -5    1    3    3    0  502  0.41489609637E+03  0.57210614602E+03  0.38739374796E+03  0.80594058035E+03  0.46999998093E+01 0. -1.
</event>
<event>
 5   0  0.1169371E-05  0.2448058E+04  0.7818609E-02  0.8421727E-01
       -2   -1    0    0    0  501  0.00000000000E+00  0.00000000000E+00  0.12138340223E+04  0.12138340223E+04  0.25500000920E-02 0.  1.
        2   -1    0    0  501    0  0.00000000000E+00  0.00000000000E+00 -0.12343096219E+04  0.12343096219E+04  0.25500000920E-02 0. -1.
    10030    2    1    2    0    0  0.00000000000E+00  0.00000000000E+00 -0.20475599608E+02  0.24481436441E+04  0.24480580165E+04 0.  0.
        2    1    3    3  502    0 -0.11798360680E+04 -0.28725848791E+03 -0.16424457198E+03  0.12253598923E+04  0.25500000920E-02 0. -1.
       -2    1    3    3    0  502  0.11798360680E+04  0.28725848791E+03  0.14376897237E+03  0.12227837518E+04  0.25500000920E-02 0.  1.
</event>
<event>
 5   0  0.5034479E-06  0.2406882E+04  0.7818609E-02  0.8436931E-01
        1   -1    0    0  501    0  0.00000000000E+00  0.00000000000E+00  0.11196566712E+04  0.11196566712E+04  0.50400001928E-02 0.  1.
       -1   -1    0    0    0  501  0.00000000000E+00  0.00000000000E+00 -0.12934953065E+04  0.12934953065E+04  0.50400001928E-02 0. -1.
    10030    2    1    2    0    0  0.00000000000E+00  0.00000000000E+00 -0.17383863527E+03  0.24131519778E+04  0.24068823396E+04 0.  0.
        4    1    3    3  502    0  0.74089859652E+03 -0.73351766500E+03 -0.68955919936E+03  0.12499889590E+04  0.12699999809E+01 0. -1.
       -4    1    3    3    0  502 -0.74089859652E+03  0.73351766500E+03  0.51572056409E+03  0.11631630188E+04  0.12699999809E+01 0.  1.
</event>
<event>
 5   0  0.1168435E-05  0.2399007E+04  0.7818609E-02  0.8439875E-01
        2   -1    0    0  501    0  0.00000000000E+00  0.00000000000E+00  0.10913490213E+04  0.10913490213E+04  0.25500000920E-02 0.  1.
       -2   -1    0    0    0  501  0.00000000000E+00  0.00000000000E+00 -0.13183762063E+04  0.13183762063E+04  0.25500000920E-02 0. -1.
    10030    2    1    2    0    0  0.00000000000E+00  0.00000000000E+00 -0.22702718498E+03  0.24097252276E+04  0.23990069466E+04 0.  0.
        1    1    3    3  502    0  0.79004097326E+03 -0.89479391596E+03 -0.23231156618E+03  0.12160549146E+04  0.50400001928E-02 0.  1.
       -1    1    3    3    0  502 -0.79004097326E+03  0.89479391596E+03  0.52843811971E+01  0.11936703130E+04  0.50400001928E-02 0. -1.
</event>
<event>
 5   0  0.1198313E-05  0.2420627E+04  0.7818609E-02  0.8431821E-01
        2   -1    0    0  501    0  0.00000000000E+00  0.00000000000E+00  0.92428747147E+03  0.92428747148E+03  0.25500000920E-02 0.  1.
       -2   -1    0    0    0  501  0.00000000000E+00  0.00000000000E+00 -0.15848523617E+04  0.15848523617E+04  0.25500000920E-02 0. -1.
    10030    2    1    2    0    0  0.00000000000E+00  0.00000000000E+00 -0.66056489024E+03  0.25091398332E+04  0.24206273419E+04 0.  0.
        5    1    3    3  502    0 -0.12198450473E+03  0.81689330900E+03  0.58673703119E+03  0.10131521759E+04  0.46999998093E+01 0.  1.
       -5    1    3    3    0  502  0.12198450473E+03 -0.81689330900E+03 -0.12473019214E+04  0.14959876573E+04  0.46999998093E+01 0. -1.
</event>
<event>
 5   0  0.1154897E-05  0.2392288E+04  0.7818609E-02  0.8442396E-01
        2   -1    0    0  501    0  0.00000000000E+00  0.00000000000E+00  0.11050271798E+04  0.11050271798E+04  0.25500000920E-02 0.  1.
       -2   -1    0    0    0  501  0.00000000000E+00  0.00000000000E+00 -0.12947741412E+04  0.12947741412E+04  0.25500000920E-02 0. -1.
    10030    2    1    2    0    0  0.00000000000E+00  0.00000000000E+00 -0.18974696141E+03  0.23998013210E+04  0.23922881246E+04 0.  0.
        4    1    3    3  502    0  0.39777009753E+03 -0.61289713958E+03  0.85514623304E+03  0.11247847114E+04  0.12699999809E+01 0.  1.
       -4    1    3    3    0  502 -0.39777009753E+03  0.61289713958E+03 -0.10448931945E+04  0.12750166097E+04  0.12699999809E+01 0. -1.
</event>
<event>
 5   0  0.1174210E-05  0.2403608E+04  0.7818609E-02  0.8438154E-01
        2   -1    0    0  501    0  0.00000000000E+00  0.00000000000E+00  0.11269627566E+04  0.11269627566E+04  0.25500000920E-02 0.  1.
       -2   -1    0    0    0  501  0.00000000000E+00  0.00000000000E+00 -0.12816152669E+04  0.12816152669E+04  0.25500000920E-02 0. -1.
    10030    2    1    2    0    0  0.00000000000E+00  0.00000000000E+00 -0.15465251031E+03  0.24085780235E+04  0.24036078500E+04 0.  0.
        3    1    3    3  502    0 -0.70626325441E+03  0.69067546000E+03 -0.76320655491E+03  0.12483287352E+04  0.10100000352E+00 0. -1.
       -3    1    3    3    0  502  0.70626325441E+03 -0.69067546000E+03  0.60855404460E+03  0.11602492883E+04  0.10100000352E+00 0.  1.
</event>
<event>
 5   0  0.1198313E-05  0.2406203E+04  0.7818609E-02  0.8437185E-01
       -2   -1    0    0    0  501  0.00000000000E+00  0.00000000000E+00  0.11050221214E+04  0.11050221214E+04  0.25500000920E-02 0.  1.
        2   -1    0    0  501    0  0.00000000000E+00  0.00000000000E+00 -0.13098863794E+04  0.13098863794E+04  0.25500000920E-02 0. -1.
    10030    2    1    2    0    0  0.00000000000E+00  0.00000000000E+00 -0.20486425799E+03  0.24149085009E+04  0.24062031717E+04 0.  0.
        5    1    3    3  502    0  0.94735370207E+03 -0.50872834866E+03  0.43910110763E+03  0.11615142885E+04  0.46999998093E+01 0.  1.
       -5    1    3    3    0  502 -0.94735370207E+03  0.50872834866E+03 -0.64396536563E+03  0.12533942124E+04  0.46999998093E+01 0. -1.
</event>
<event>
 5   0  0.5034479E-06  0.2433816E+04  0.7818609E-02  0.8426951E-01
        1   -1    0    0  501    0  0.00000000000E+00  0.00000000000E+00  0.96137477670E+03  0.96137477671E+03  0.50400001928E-02 0.  1.
       -1   -1    0    0    0  501  0.00000000000E+00  0.00000000000E+00 -0.15403623959E+04  0.15403623959E+04  0.50400001928E-02 0. -1.
    10030    2    1    2    0    0  0.00000000000E+00  0.00000000000E+00 -0.57898761918E+03  0.25017371726E+04  0.24338163895E+04 0.  0.
        4    1    3    3  502    0 -0.12050277087E+04 -0.83396955998E+02 -0.44132202433E+03  0.12860068325E+04  0.12699999809E+01 0. -1.
       -4    1    3    3    0  502  0.12050277087E+04  0.83396955998E+02 -0.13766559485E+03  0.12157303401E+04  0.12699999809E+01 0.  1.
</event>
<event>
 5   0  0.5104174E-06  0.2399669E+04  0.7818609E-02  0.8439627E-01
       -1   -1    0    0    0  501  0.00000000000E+00  0.00000000000E+00  0.12459772488E+04  0.12459772488E+04  0.50400001928E-02 0.  1.
        1   -1    0    0  501    0  0.00000000000E+00  0.00000000000E+00 -0.11554010241E+04  0.11554010241E+04  0.50400001928E-02 0. -1.
    10030    2    1    2    0    0  0.00000000000E+00  0.00000000000E+00  0.90576224758E+02  0.24013782729E+04  0.23996694683E+04 0.  0.
        3    1    3    3  502    0  0.30399940627E+03  0.74726675282E+03  0.93405350372E+03  0.12342119740E+04  0.10100000352E+00 0.  1.
       -3    1    3    3    0  502 -0.30399940627E+03 -0.74726675282E+03 -0.84347727896E+03  0.11671662989E+04  0.10100000352E+00 0. -1.
</event>
<event>
 5   0  0.5042742E-06  0.2412869E+04  0.7818609E-02  0.8434701E-01
        1   -1    0    0  501    0  0.00000000000E+00  0.00000000000E+00  0.12138040796E+04  0.12138040796E+04  0.50400001928E-02 0. -1.
       -1   -1    0    0    0  501  0.00000000000E+00  0.00000000000E+00 -0.11991091879E+04  0.11991091879E+04  0.50400001928E-02 0.  1.
    10030    2    1    2    0    0  0.00000000000E+00  0.00000000000E+00  0.14694891618E+02  0.24129132675E+04  0.24128685204E+04 0.  0.
        5    1    3    3  502    0  0.20942507357E+03 -0.61929122355E+02 -0.11791683239E+04  0.11992306299E+04  0.46999998093E+01 0.  1.
       -5    1    3    3    0  502 -0.20942507357E+03  0.61929122355E+02  0.11938632155E+04  0.12136826376E+04  0.46999998093E+01 0. -1.
</event>
<event>
 5   0  0.1168435E-05  0.2400386E+04  0.7818609E-02  0.8439359E-01
       -2   -1    0    0    0  501  0.00000000000E+00  0.00000000000E+00  0.10176848780E+04  0.10176848780E+04  0.25500000920E-02 0. -1.
        2   -1    0    0  501    0  0.00000000000E+00  0.00000000000E+00 -0.14154317569E+04  0.14154317569E+04  0.25500000920E-02 0.  1.
    10030    2    1    2    0    0  0.00000000000E+00  0.00000000000E+00 -0.39774687896E+03  0.24331166349E+04  0.24003862146E+04 0.  0.
        1    1    3    3  502    0  0.35244968005E+03 -0.11288560689E+03 -0.13561502426E+04  0.14057408786E+04  0.50400001928E-02 0.  1.
       -1    1    3    3    0  502 -0.35244968005E+03  0.11288560689E+03  0.95840336365E+03  0.10273757563E+04  0.50400001928E-02 0. -1.
</event>
<event>
 5   0  0.1198313E-05  0.2400309E+04  0.7818609E-02  0.8439388E-01
        2   -1    0    0  501    0  0.00000000000E+00  0.00000000000E+00  0.11984569603E+04  0.11984569603E+04  0.25500000920E-02 0.  1.
       -2   -1    0    0    0  501  0.00000000000E+00  0.00000000000E+00 -0.12018540202E+04  0.12018540202E+04  0.25500000920E-02 0. -1.
    10030    2    1    2    0    0  0.00000000000E+00  0.00000000000E+00 -0.33970599389E+01  0.24003109805E+04  0.24003085767E+04 0.  0.
        5    1    3    3  502    0 -0.28671420758E+03 -0.10236650744E+04 -0.55870268248E+03  0.12009437950E+04  0.46999998093E+01 0.  1.
       -5    1    3    3    0  502  0.28671420758E+03  0.10236650744E+04  0.55530562254E+03  0.11993671855E+04  0.46999998093E+01 0. -1.
</event>
<event>
 5   0  0.5042742E-06  0.2398029E+04  0.7818609E-02  0.8440242E-01
        1   -1    0    0  501    0  0.00000000000E+00  0.00000000000E+00  0.16753768587E+04  0.16753768587E+04  0.50400001928E-02 0.  1.
       -1   -1    0    0    0  501  0.00000000000E+00  0.00000000000E+00 -0.85809716401E+03  0.85809716403E+03  0.50400001928E-02 0. -1.
    10030    2    1    2    0    0  0.00000000000E+00  0.00000000000E+00  0.81727969466E+03  0.25334740227E+04  0.23980293002E+04 0.  0.
        5    1    3    3  502    0  0.33022331474E+02  0.10792960297E+03 -0.85246245416E+03  0.85991487911E+03  0.46999998093E+01 0. -1.
       -5    1    3    3    0  502 -0.33022331474E+02 -0.10792960297E+03  0.16697421488E+04  0.16735591436E+04  0.46999998093E+01 0.  1.
</event>
<event>
 5   0  0.5196696E-06  0.2394248E+04  0.7818609E-02  0.8441660E-01
       -1   -1    0    0    0  501  0.00000000000E+00  0.00000000000E+00  0.11269833583E+04  0.11269833583E+04  0.50400001928E-02 0.  1.
        1   -1    0    0  501    0  0.00000000000E+00  0.00000000000E+00 -0.12716295776E+04  0.12716295777E+04  0.50400001928E-02 0. -1.
    10030    2    1    2    0    0  0.00000000000E+00  0.00000000000E+00 -0.14464621933E+03  0.23986129360E+04  0.23942475828E+04 0.  0.
        1    1    3    3  502    0 -0.40649956798E+03  0.11054074978E+04  0.14239857827E+03  0.11863578676E+04  0.50400001928E-02 0.  1.
       -1    1    3    3    0  502  0.40649956798E+03 -0.11054074978E+04 -0.28704479759E+03  0.12122550684E+04  0.50400001928E-02 0. -1.
</event>
<event>
 5   0  0.1169371E-05  0.2400020E+04  0.7818609E-02  0.8439496E-01
       -2   -1    0    0    0  501  0.00000000000E+00  0.00000000000E+00  0.67000212625E+03  0.67000212626E+03  0.25500000920E-02 0.  1.
        2   -1    0    0  501    0  0.00000000000E+00  0.00000000000E+00 -0.21492834865E+04  0.21492834865E+04  0.25500000920E-02 0. -1.
    10030    2    1    2    0    0  0.00000000000E+00  0.00000000000E+00 -0.14792813602E+04  0.28192856128E+04  0.24000204215E+04 0.  0.
        2    1    3    3  502    0  0.29437415934E+03  0.25590632964E+03 -0.20727381060E+04  0.21091200656E+04  0.25500000920E-02 0. -1.
       -2    1    3    3    0  502 -0.29437415934E+03 -0.25590632964E+03  0.59345674575E+03  0.71016554712E+03  0.25500000920E-02 0.  1.
</event>
<event>
 5   0  0.5196696E-06  0.2404988E+04  0.7818609E-02  0.8437638E-01
        1   -1    0    0  501    0  0.00000000000E+00  0.00000000000E+00  0.94488650124E+03  0.94488650125E+03  0.50400001928E-02 0. -1.
       -1   -1    0    0    0  501  0.00000000000E+00  0.00000000000E+00 -0.15303343689E+04  0.15303343689E+04  0.50400001928E-02 0.  1.
    10030    2    1    2    0    0  0.00000000000E+00  0.00000000000E+00 -0.58544786768E+03  0.24752208702E+04  0.24049883888E+04 0.  0.
        1    1    3    3  502    0  0.86530048397E+03  0.12568322119E+03 -0.11423313972E+04  0.14385625537E+04  0.50400001928E-02 0.  1.
       -1    1    3    3    0  502 -0.86530048397E+03 -0.12568322119E+03  0.55688352957E+03  0.10366583165E+04  0.50400001928E-02 0. -1.
</event>
<event>
 5   0  0.1154897E-05  0.2268386E+04  0.7818609E-02  0.8490491E-01
        2   -1    0    0  501    0  0.00000000000E+00  0.00000000000E+00  0.11432581007E+04  0.11432581007E+04  0.25500000920E-02 0.  1.
       -2   -1    0    0    0  501  0.00000000000E+00  0.00000000000E+00 -0.11251995256E+04  0.11251995256E+04  0.25500000920E-02 0. -1.
    10030    2    1    2    0    0  0.00000000000E+00  0.00000000000E+00  0.18058575077E+02  0.22684576264E+04  0.22683857455E+04 0.  0.
        4    1    3    3  502    0 -0.36944920123E+03 -0.62590579100E+03 -0.86171128064E+03  0.11272970840E+04  0.12699999809E+01 0. -1.
       -4    1    3    3    0  502  0.36944920123E+03  0.62590579100E+03  0.87976985572E+03  0.11411605424E+04  0.12699999809E+01 0.  1.
</event>
<event>
 5   0  0.1168435E-05  0.2404917E+04  0.7818609E-02  0.8437665E-01
        2   -1    0    0  501    0  0.00000000000E+00  0.00000000000E+00  0.10668720060E+04  0.10668720060E+04  0.25500000920E-02 0. -1.
       -2   -1    0    0    0  501  0.00000000000E+00  0.00000000000E+00 -0.13552761448E+04  0.13552761448E+04  0.25500000920E-02 0.  1.
    10030    2    1    2    0    0  0.00000000000E+00  0.00000000000E+00 -0.28840413872E+03  0.24221481508E+04  0.24049167797E+04 0.  0.
        1    1    3    3  502    0  0.94543282554E+03  0.71064027763E+03 -0.36267413425E+03  0.12370874502E+04  0.50400001928E-02 0. -1.
       -1    1    3    3    0  502 -0.94543282554E+03 -0.71064027763E+03  0.74269995525E+02  0.11850607006E+04  0.50400001928E-02 0.  1.
</event>
<event>
 5   0  0.4067750E-06  0.2396059E+04  0.7818609E-02  0.8440980E-01
       -4   -1    0    0    0  501  0.00000000000E+00  0.00000000000E+00  0.12477501239E+04  0.12477507703E+04  0.12699999809E+01 0.  1.
        4   -1    0    0  501    0  0.00000000000E+00  0.00000000000E+00 -0.11502888079E+04  0.11502895090E+04  0.12699999809E+01 0. -1.
    10030    2    1    2    0    0  0.00000000000E+00  0.00000000000E+00  0.97461316044E+02  0.23980402793E+04  0.23960589460E+04 0.  0.
        2    1    3    3  502    0  0.33640757333E+03  0.14433624548E+03  0.11904068725E+04  0.12454202219E+04  0.25500000920E-02 0.  1.
       -2    1    3    3    0  502 -0.33640757333E+03 -0.14433624548E+03 -0.10929455564E+04  0.11526200573E+04  0.25500000920E-02 0. -1.
</event>
<event>
 5   0  0.5196696E-06  0.2402946E+04  0.7818609E-02  0.8438402E-01
        1   -1    0    0  501    0  0.00000000000E+00  0.00000000000E+00  0.15649747351E+04  0.15649747352E+04  0.50400001928E-02 0.  1.
       -1   -1    0    0    0  501  0.00000000000E+00  0.00000000000E+00 -0.92240267274E+03  0.92240267275E+03  0.50400001928E-02 0. -1.
    10030    2    1    2    0    0  0.00000000000E+00  0.00000000000E+00  0.64257206240E+03  0.24873774079E+04  0.24029455911E+04 0.  0.
        1    1    3    3  502    0 -0.11041195879E+04 -0.44022125077E+03  0.50254455743E+03  0.12905137916E+04  0.50400001928E-02 0. -1.
       -1    1    3    3    0  502  0.11041195879E+04  0.44022125077E+03  0.14002750497E+03  0.11968636163E+04  0.50400001928E-02 0.  1.
</event>
<event>
 5   0  0.4067750E-06  0.2402159E+04  0.7818609E-02  0.8438696E-01
       -3   -1    0    0    0  501  0.00000000000E+00  0.00000000000E+00  0.11948548017E+04  0.11948548060E+04  0.10100000352E+00 0.  1.
        3   -1    0    0  501    0  0.00000000000E+00  0.00000000000E+00 -0.12073364411E+04  0.12073364454E+04  0.10100000352E+00 0. -1.
    10030    2    1    2    0    0  0.00000000000E+00  0.00000000000E+00 -0.12481639396E+02  0.24021912514E+04  0.24021588242E+04 0.  0.
        1    1    3    3  502    0  0.19607438479E+02  0.10920286980E+04 -0.50592808823E+03  0.12036919703E+04  0.50400001928E-02 0. -1.
       -1    1    3    3    0  502 -0.19607438479E+02 -0.10920286980E+04  0.49344644884E+03  0.11984992811E+04  0.50400001928E-02 0.  1.
</event>
<event>
 5   0  0.1154897E-05  0.2409057E+04  0.7818609E-02  0.8436121E-01
        2   -1    0    0  501    0  0.00000000000E+00  0.00000000000E+00  0.11547990736E+04  0.11547990736E+04  0.25500000920E-02 0.  1.
       -2   -1    0    0    0  501  0.00000000000E+00  0.00000000000E+00 -0.12563993168E+04  0.12563993168E+04  0.25500000920E-02 0. -1.
    10030    2    1    2    0    0  0.00000000000E+00  0.00000000000E+00 -0.10160024311E+03  0.24111983904E+04  0.24090568836E+04 0.  0.
        4    1    3    3  502    0  0.98621474814E+03 -0.68033197799E+03  0.73471534588E+02  0.12003627823E+04  0.12699999809E+01 0.  1.
       -4    1    3    3    0  502 -0.98621474814E+03  0.68033197799E+03 -0.17507177770E+03  0.12108356082E+04  0.12699999809E+01 0. -1.
</event>
<event>
 5   0  0.5034479E-06  0.2389587E+04  0.7818609E-02  0.8443412E-01
        1   -1    0    0  501    0  0.00000000000E+00  0.00000000000E+00  0.88058704419E+03  0.88058704420E+03  0.50400001928E-02 0.  1.
       -1   -1    0    0    0  501  0.00000000000E+00  0.00000000000E+00 -0.16211134498E+04  0.16211134499E+04  0.50400001928E-02 0. -1.
    10030    2    1    2    0    0  0.00000000000E+00  0.00000000000E+00 -0.74052640566E+03  0.25017004941E+04  0.23895869945E+04 0.  0.
        4    1    3    3  502    0  0.23148799597E+03  0.92815518436E+03 -0.11197209944E+04  0.14726966614E+04  0.12699999809E+01 0. -1.
       -4    1    3    3    0  502 -0.23148799597E+03 -0.92815518436E+03  0.37919458870E+03  0.10290038326E+04  0.12699999809E+01 0.  1.
</event>
<event>
 5   0  0.1154897E-05  0.2283832E+04  0.7818609E-02  0.8484323E-01
        2   -1    0    0  501    0  0.00000000000E+00  0.00000000000E+00  0.12103934769E+04  0.12103934769E+04  0.25500000920E-02 0. -1.
       -2   -1    0    0    0  501  0.00000000000E+00  0.00000000000E+00 -0.10773126707E+04  0.10773126707E+04  0.25500000920E-02 0.  1.
    10030    2    1    2    0    0  0.00000000000E+00  0.00000000000E+00  0.13308080620E+03  0.22877061475E+04  0.22838320683E+04 0.  0.
        4    1    3    3  502    0  0.42166282980E+03 -0.15367482140E+03  0.11183478184E+04  0.12050389822E+04  0.12699999809E+01 0. -1.
       -4    1    3    3    0  502 -0.42166282980E+03  0.15367482140E+03 -0.98526701217E+03  0.10826671654E+04  0.12699999809E+01 0.  1.
</event>
<event>
 5   0  0.5064437E-06  0.2398767E+04  0.7818609E-02  0.8439965E-01
       -1   -1    0    0    0  501  0.00000000000E+00  0.00000000000E+00  0.69196200345E+03  0.69196200347E+03  0.50400001928E-02 0. -1.
        1   -1    0    0  501    0  0.00000000000E+00  0.00000000000E+00 -0.20789022035E+04  0.20789022035E+04  0.50400001928E-02 0.  1.
    10030    2    1    2    0    0  0.00000000000E+00  0.00000000000E+00 -0.13869402001E+04  0.27708642070E+04  0.23987674616E+04 0.  0.
        2    1    3    3  502    0  0.81670859140E+02  0.57684382329E+03  0.51753556052E+03  0.77927015990E+03  0.25500000920E-02 0. -1.
       -2    1    3    3    0  502 -0.81670859140E+02 -0.57684382329E+03 -0.19044757606E+04  0.19915940471E+04  0.25500000920E-02 0.  1.
</event>
<event>
 5   0  0.1168435E-05  0.2391774E+04  0.7818609E-02  0.8442590E-01
       -2   -1    0    0    0  501  0.00000000000E+00  0.00000000000E+00  0.10136341158E+04  0.10136341158E+04  0.25500000920E-02 0. -1.
        2   -1    0    0  501    0  0.00000000000E+00  0.00000000000E+00 -0.14109095146E+04  0.14109095146E+04  0.25500000920E-02 0.  1.
    10030    2    1    2    0    0  0.00000000000E+00  0.00000000000E+00 -0.39727539881E+03  0.24245436305E+04  0.23917742522E+04 0.  0.
        1    1    3    3  502    0  0.42256870323E+03  0.60856829901E+03  0.75296036742E+03  0.10563470066E+04  0.50400001928E-02 0. -1.
       -1    1    3    3    0  502 -0.42256870323E+03 -0.60856829901E+03 -0.11502357662E+04  0.13681966238E+04  0.50400001928E-02 0.  1.
</event>
<event>
 5   0  0.5104174E-06  0.2413476E+04  0.7818609E-02  0.8434475E-01
        1   -1    0    0  501    0  0.00000000000E+00  0.00000000000E+00  0.13891369225E+04  0.13891369225E+04  0.50400001928E-02 0.  1.
       -1   -1    0    0    0  501  0.00000000000E+00  0.00000000000E+00 -0.10482890661E+04  0.10482890661E+04  0.50400001928E-02 0. -1.
    10030    2    1    2    0    0  0.00000000000E+00  0.00000000000E+00  0.34084785641E+03  0.24374259885E+04  0.24134763700E+04 0.  0.
        3    1    3    3  502    0  0.59652541121E+03 -0.16930470418E+03 -0.87508346072E+03  0.10725100104E+04  0.10100000352E+00 0. -1.
       -3    1    3    3    0  502 -0.59652541121E+03  0.16930470418E+03  0.12159313171E+04  0.13649159781E+04  0.10100000352E+00 0.  1.
</event>
<event>
 5   0  0.5196696E-06  0.2391284E+04  0.7818609E-02  0.8442774E-01
        1   -1    0    0  501    0  0.00000000000E+00  0.00000000000E+00  0.14607170976E+04  0.14607170976E+04  0.50400001928E-02 0. -1.
       -1   -1    0    0    0  501  0.00000000000E+00  0.00000000000E+00 -0.97866947453E+03  0.97866947455E+03  0.50400001928E-02 0.  1.
    10030    2    1    2    0    0  0.00000000000E+00  0.00000000000E+00  0.48204762308E+03  0.24393865722E+04  0.23912835335E+04 0.  0.
        1    1    3    3  502    0 -0.10084805304E+04  0.59378250362E+03 -0.87454854179E+01  0.11703363300E+04  0.50400001928E-02 0. -1.
       -1    1    3    3    0  502  0.10084805304E+04 -0.59378250362E+03  0.49079310849E+03  0.12690502422E+04  0.50400001928E-02 0.  1.
</event>
<event>
 5   0  0.5104174E-06  0.2440933E+04  0.7818609E-02  0.8424336E-01
       -1   -1    0    0    0  501  0.00000000000E+00  0.00000000000E+00  0.15629271668E+04  0.15629271668E+04  0.50400001928E-02 0.  1.
        1   -1    0    0  501    0  0.00000000000E+00  0.00000000000E+00 -0.95304385771E+03  0.95304385772E+03  0.50400001928E-02 0. -1.
    10030    2    1    2    0    0  0.00000000000E+00  0.00000000000E+00  0.60988330912E+03  0.25159710246E+04  0.24409327204E+04 0.  0.
        3    1    3    3  502    0  0.11881147348E+04 -0.26790785662E+03  0.22412938192E+03  0.12383962341E+04  0.10100000352E+00 0.  1.
       -3    1    3    3    0  502 -0.11881147348E+04  0.26790785662E+03  0.38575392721E+03  0.12775747904E+04  0.10100000352E+00 0. -1.
</event>
<event>
 5   0  0.1174210E-05  0.2414046E+04  0.7818609E-02  0.8434263E-01
        2   -1    0    0  501    0  0.00000000000E+00  0.00000000000E+00  0.11775903691E+04  0.11775903691E+04  0.25500000920E-02 0.  1.
       -2   -1    0    0    0  501  0.00000000000E+00  0.00000000000E+00 -0.12371917602E+04  0.12371917602E+04  0.25500000920E-02 0. -1.
    10030    2    1    2    0    0  0.00000000000E+00  0.00000000000E+00 -0.59601391058E+02  0.24147821293E+04  0.24140464797E+04 0.  0.
        3    1    3    3  502    0 -0.84514865199E+02 -0.10932594448E+04  0.47487868595E+03  0.11949346228E+04  0.10100000352E+00 0.  1.
       -3    1    3    3    0  502  0.84514865199E+02  0.10932594448E+04 -0.53448007700E+03  0.12198475065E+04  0.10100000352E+00 0. -1.
</event>
<event>
 5   0  0.1169371E-05  0.2409822E+04  0.7818609E-02  0.8435836E-01
        2   -1    0    0  501    0  0.00000000000E+00  0.00000000000E+00  0.15790489539E+04  0.15790489539E+04  0.25500000920E-02 0. -1.
       -2   -1    0    0    0  501  0.00000000000E+00  0.00000000000E+00 -0.91942056344E+03  0.91942056345E+03  0.25500000920E-02 0.  1.
    10030    2    1    2    0    0  0.00000000000E+00  0.00000000000E+00  0.65962839046E+03  0.24984695174E+04  0.24098216357E+04 0.  0.
        2    1    3    3  502    0 -0.23420367383E+03 -0.84954212493E+03  0.11817703376E+04  0.14741622413E+04  0.25500000920E-02 0. -1.
       -2    1    3    3    0  502  0.23420367383E+03  0.84954212493E+03 -0.52214194711E+03  0.10243072761E+04  0.25500000920E-02 0.  1.
</event>
<event>
 5   0  0.5034479E-06  0.2403967E+04  0.7818609E-02  0.8438020E-01
        1   -1    0    0  501    0  0.00000000000E+00  0.00000000000E+00  0.18808450044E+04  0.18808450044E+04  0.50400001928E-02 0. -1.
       -1   -1    0    0    0  501  0.00000000000E+00  0.00000000000E+00 -0.76814643774E+03  0.76814643775E+03  0.50400001928E-02 0.  1.
    10030    2    1    2    0    0  0.00000000000E+00  0.00000000000E+00  0.11126985667E+04  0.26489914422E+04  0.24039670464E+04 0.  0.
        4    1    3    3  502    0  0.18823202174E+03  0.11261387124E+04  0.14236691394E+03  0.11506040347E+04  0.12699999809E+01 0.  1.
       -4    1    3    3    0  502 -0.18823202174E+03 -0.11261387124E+04  0.97033165272E+03  0.14983874074E+04  0.12699999809E+01 0. -1.
</event>
<event>
 5   0  0.1154897E-05  0.2335504E+04  0.7818609E-02  0.8464052E-01
        2   -1    0    0  501    0  0.00000000000E+00  0.00000000000E+00  0.14779216991E+04  0.14779216991E+04  0.25500000920E-02 0.  1.
       -2   -1    0    0    0  501  0.00000000000E+00  0.00000000000E+00 -0.92267763136E+03  0.92267763136E+03  0.25500000920E-02 0. -1.
    10030    2    1    2    0    0  0.00000000000E+00  0.00000000000E+00  0.55524406771E+03  0.24005993304E+04  0.23355044788E+04 0.  0.
        4    1    3    3  502    0 -0.65961234973E+03 -0.23948487133E+03  0.12370192720E+04  0.14222024285E+04  0.12699999809E+01 0.  1.
       -4    1    3    3    0  502  0.65961234973E+03  0.23948487133E+03 -0.68177520431E+03  0.97839690189E+03  0.12699999809E+01 0. -1.
</event>
<event>
 5   0  0.1198313E-05  0.2402836E+04  0.7818609E-02  0.8438443E-01
       -2   -1    0    0    0  501  0.00000000000E+00  0.00000000000E+00  0.18495552912E+04  0.18495552912E+04  0.25500000920E-02 0.  1.
        2   -1    0    0  501    0  0.00000000000E+00  0.00000000000E+00 -0.78040646635E+03  0.78040646635E+03  0.25500000920E-02 0. -1.
    10030    2    1    2    0    0  0.00000000000E+00  0.00000000000E+00  0.10691488249E+04  0.26299617576E+04  0.24028357490E+04 0.  0.
        5    1    3    3  502    0  0.27848071658E+03  0.53665743836E+03  0.16708940271E+04  0.17769247748E+04  0.46999998093E+01 0.  1.
       -5    1    3    3    0  502 -0.27848071658E+03 -0.53665743836E+03 -0.60174520218E+03  0.85303698278E+03  0.46999998093E+01 0. -1.
</event>
<event>
 5   0  0.5034479E-06  0.2385861E+04  0.7818609E-02  0.8444816E-01
        1   -1    0    0  501    0  0.00000000000E+00  0.00000000000E+00  0.11627617215E+04  0.11627617215E+04  0.50400001928E-02 0. -1.
       -1   -1    0    0    0  501  0.00000000000E+00  0.00000000000E+00 -0.12238818705E+04  0.12238818705E+04  0.50400001928E-02 0.  1.
    10030    2    1    2    0    0  0.00000000000E+00  0.00000000000E+00 -0.61120149004E+02  0.23866435921E+04  0.23858608431E+04 0.  0.
        4    1    3    3  502    0  0.70909243413E+03 -0.94213902519E+03 -0.21129407119E+03  0.11979502579E+04  0.12699999809E+01 0.  1.
       -4    1    3    3    0  502 -0.70909243413E+03  0.94213902519E+03  0.15017392219E+03  0.11886933342E+04  0.12699999809E+01 0. -1.
</event>
<event>
 5   0  0.1168435E-05  0.2394228E+04  0.7818609E-02  0.8441668E-01
       -2   -1    0    0    0  501  0.00000000000E+00  0.00000000000E+00  0.10160928397E+04  0.10160928397E+04  0.25500000920E-02 0.  1.
        2   -1    0    0  501    0  0.00000000000E+00  0.00000000000E+00 -0.14103851621E+04  0.14103851621E+04  0.25500000920E-02 0. -1.
    10030    2    1    2    0    0  0.00000000000E+00  0.00000000000E+00 -0.39429232246E+03  0.24264780018E+04  0.23942282802E+04 0.  0.
        1    1    3    3  502    0 -0.11149438920E+04 -0.24815298966E+03  0.16601341519E+03  0.11542271192E+04  0.50400001928E-02 0.  1.
       -1    1    3    3    0  502  0.11149438920E+04  0.24815298966E+03 -0.56030573765E+03  0.12722508826E+04  0.50400001928E-02 0. -1.
</event>
<event>
 5   0  0.5196696E-06  0.2388267E+04  0.7818609E-02  0.8443909E-01
        1   -1    0    0  501    0  0.00000000000E+00  0.00000000000E+00  0.15245038686E+04  0.15245038686E+04  0.50400001928E-02 0.  1.
       -1   -1    0    0    0  501  0.00000000000E+00  0.00000000000E+00 -0.93535682514E+03  0.93535682516E+03  0.50400001928E-02 0. -1.
    10030    2    1    2    0    0  0.00000000000E+00  0.00000000000E+00  0.58914704343E+03  0.24598606937E+04  0.23882672367E+04 0.  0.
        1    1    3    3  502    0  0.77194035882E+03  0.84977838420E+03 -0.43817284213E+02  0.11488843172E+04  0.50400001928E-02 0. -1.
       -1    1    3    3    0  502 -0.77194035882E+03 -0.84977838420E+03  0.63296432764E+03  0.13109763766E+04  0.50400001928E-02 0.  1.
</event>
<event>
 5   0  0.1168435E-05  0.2333507E+04  0.7818609E-02  0.8464826E-01
        2   -1    0    0  501    0  0.00000000000E+00  0.00000000000E+00  0.28871367438E+04  0.28871367438E+04  0.25500000920E-02 0. -1.
       -2   -1    0    0    0  501  0.00000000000E+00  0.00000000000E+00 -0.47150984139E+03  0.47150984140E+03  0.25500000920E-02 0.  1.
    10030    2    1    2    0    0  0.00000000000E+00  0.00000000000E+00  0.24156269024E+04  0.33586465852E+04  0.23335067072E+04 0.  0.
        1    1    3    3  502    0 -0.26571268572E+03 -0.10556544045E+04  0.60346660975E+03  0.12446611596E+04  0.50400001928E-02 0. -1.
       -1    1    3    3    0  502  0.26571268572E+03  0.10556544045E+04  0.18121602927E+04  0.21139854256E+04  0.50400001928E-02 0.  1.
</event>
<event>
 5   0  0.5034479E-06  0.2415760E+04  0.7818609E-02  0.8433627E-01
       -1   -1    0    0    0  501  0.00000000000E+00  0.00000000000E+00  0.72587997839E+03  0.72587997841E+03  0.50400001928E-02 0.  1.
        1   -1    0    0  501    0  0.00000000000E+00  0.00000000000E+00 -0.20099384148E+04  0.20099384148E+04  0.50400001928E-02 0. -1.
    10030    2    1    2    0    0  0.00000000000E+00  0.00000000000E+00 -0.12840584364E+04  0.27358183932E+04  0.24157599658E+04 0.  0.
        4    1    3    3  502    0 -0.69246180472E+03 -0.81220193649E+02 -0.17590504287E+04  0.18921839484E+04  0.12699999809E+01 0. -1.
       -4    1    3    3    0  502  0.69246180472E+03  0.81220193649E+02  0.47499199230E+03  0.84363444484E+03  0.12699999809E+01 0.  1.
</event>
<event>
 5   0  0.1169371E-05  0.2404479E+04  0.7818609E-02  0.8437829E-01
       -2   -1    0    0    0  501  0.00000000000E+00  0.00000000000E+00  0.16236029479E+04  0.16236029479E+04  0.25500000920E-02 0.  1.
        2   -1    0    0  501    0  0.00000000000E+00  0.00000000000E+00 -0.89022988946E+03  0.89022988946E+03  0.25500000920E-02 0. -1.
    10030    2    1    2    0    0  0.00000000000E+00  0.00000000000E+00  0.73337305839E+03  0.25138328373E+04  0.24044790478E+04 0.  0.
        2    1    3    3  502    0  0.33351924132E+03 -0.19056555336E+02  0.15741048594E+04  0.16091626223E+04  0.25500000920E-02 0.  1.
       -2    1    3    3    0  502 -0.33351924132E+03  0.19056555336E+02 -0.84073180103E+03  0.90467021499E+03  0.25500000920E-02 0. -1.
</event>
<event>
 5   0  0.1169371E-05  0.2397823E+04  0.7818609E-02  0.8440319E-01
       -2   -1    0    0    0  501  0.00000000000E+00  0.00000000000E+00  0.99733349329E+03  0.99733349329E+03  0.25500000920E-02 0. -1.
        2   -1    0    0  501    0  0.00000000000E+00  0.00000000000E+00 -0.14412313655E+04  0.14412313655E+04  0.25500000920E-02 0.  1.
    10030    2    1    2    0    0  0.00000000000E+00  0.00000000000E+00 -0.44389787225E+03  0.24385648588E+04  0.23978226060E+04 0.  0.
        2    1    3    3  502    0 -0.44749185774E+03  0.97093409698E+03 -0.77377928658E+03  0.13197334457E+04  0.25500000920E-02 0.  1.
       -2    1    3    3    0  502  0.44749185774E+03 -0.97093409698E+03  0.32988141434E+03  0.11188314131E+04  0.25500000920E-02 0. -1.
</event>
<event>
 5   0  0.5034479E-06  0.2374742E+04  0.7818609E-02  0.8449021E-01
       -1   -1    0    0    0  501  0.00000000000E+00  0.00000000000E+00  0.14702400474E+04  0.14702400474E+04  0.50400001928E-02 0. -1.
        1   -1    0    0  501    0  0.00000000000E+00  0.00000000000E+00 -0.95892473021E+03  0.95892473023E+03  0.50400001928E-02 0.  1.
    10030    2    1    2    0    0  0.00000000000E+00  0.00000000000E+00  0.51131531714E+03  0.24291647776E+04  0.23747417045E+04 0.  0.
        4    1    3    3  502    0  0.27150834437E+03  0.62422677629E+03 -0.73950598003E+03  0.10051102212E+04  0.12699999809E+01 0.  1.
       -4    1    3    3    0  502 -0.27150834437E+03 -0.62422677629E+03  0.12508212972E+04  0.14240545564E+04  0.12699999809E+01 0. -1.
</event>
<event>
 5   0  0.5042742E-06  0.2448969E+04  0.7818609E-02  0.8421395E-01
        1   -1    0    0  501    0  0.00000000000E+00  0.00000000000E+00  0.14221275436E+04  0.14221275436E+04  0.50400001928E-02 0. -1.
       -1   -1    0    0    0  501  0.00000000000E+00  0.00000000000E+00 -0.10543091500E+04  0.10543091500E+04  0.50400001928E-02 0.  1.
    10030    2    1    2    0    0  0.00000000000E+00  0.00000000000E+00  0.36781839357E+03  0.24764366936E+04  0.24489688293E+04 0.  0.
        5    1    3    3  502    0  0.72282772980E+03 -0.68700102280E+03  0.90243473882E+03  0.13449389875E+04  0.46999998093E+01 0. -1.
       -5    1    3    3    0  502 -0.72282772980E+03  0.68700102280E+03 -0.53461634526E+03  0.11314977061E+04  0.46999998093E+01 0.  1.
</event>
<event>
 5   0  0.5064437E-06  0.2403799E+04  0.7818609E-02  0.8438083E-01
        1   -1    0    0  501    0  0.00000000000E+00  0.00000000000E+00  0.11930157169E+04  0.11930157169E+04  0.50400001928E-02 0.  1.
       -1   -1    0    0    0  501  0.00000000000E+00  0.00000000000E+00 -0.12108489391E+04  0.12108489391E+04  0.50400001928E-02 0. -1.
    10030    2    1    2    0    0  0.00000000000E+00  0.00000000000E+00 -0.17833222172E+02  0.24038646560E+04  0.24037985067E+04 0.  0.
        2    1    3    3  502    0  0.90578448905E+03  0.59603584755E+03  0.50961240487E+03  0.11980855877E+04  0.25500000920E-02 0.  1.
       -2    1    3    3    0  502 -0.90578448905E+03 -0.59603584755E+03 -0.52744562705E+03  0.12057790684E+04  0.25500000920E-02 0. -1.
</event>
<event>
 5   0  0.1174210E-05  0.2496912E+04  0.7818609E-02  0.8404087E-01
       -2   -1    0    0    0  501  0.00000000000E+00  0.00000000000E+00  0.64100980326E+03  0.64100980327E+03  0.25500000920E-02 0. -1.
        2   -1    0    0  501    0  0.00000000000E+00  0.00000000000E+00 -0.24315413752E+04  0.24315413752E+04  0.25500000920E-02 0.  1.
    10030    2    1    2    0    0  0.00000000000E+00  0.00000000000E+00 -0.17905315719E+04  0.30725511784E+04  0.24969115792E+04 0.  0.
        3    1    3    3  502    0 -0.41121291471E+03  0.11490028784E+04 -0.12192935008E+04  0.17251029903E+04  0.10100000352E+00 0.  1.
       -3    1    3    3    0  502  0.41121291471E+03 -0.11490028784E+04 -0.57123807112E+03  0.13474481882E+04  0.10100000352E+00 0. -1.
</event>
<event>
 5   0  0.5064437E-06  0.2405620E+04  0.7818609E-02  0.8437402E-01
        1   -1    0    0  501    0  0.00000000000E+00  0.00000000000E+00  0.13110557818E+04  0.13110557818E+04  0.50400001928E-02 0. -1.
       -1   -1    0    0    0  501  0.00000000000E+00  0.00000000000E+00 -0.11035017044E+04  0.11035017044E+04  0.50400001928E-02 0.  1.
    10030    2    1    2    0    0  0.00000000000E+00  0.00000000000E+00  0.20755407747E+03  0.24145574862E+04  0.24056203273E+04 0.  0.
        2    1    3    3  502    0 -0.60355576052E+03 -0.56245586823E+03 -0.77475533108E+03  0.11317605678E+04  0.25500000920E-02 0.  1.
       -2    1    3    3    0  502  0.60355576052E+03  0.56245586823E+03  0.98230940854E+03  0.12827969184E+04  0.25500000920E-02 0. -1.
</event>
<event>
 5   0  0.5196696E-06  0.2385145E+04  0.7818609E-02  0.8445086E-01
       -1   -1    0    0    0  501  0.00000000000E+00  0.00000000000E+00  0.60481661640E+03  0.60481661642E+03  0.50400001928E-02 0.  1.
        1   -1    0    0  501    0  0.00000000000E+00  0.00000000000E+00 -0.23515038198E+04  0.23515038198E+04  0.50400001928E-02 0. -1.
    10030    2    1    2    0    0  0.00000000000E+00  0.00000000000E+00 -0.17466872034E+04  0.29563204362E+04  0.23851445103E+04 0.  0.
        1    1    3    3  502    0 -0.17939433025E+03 -0.92553164616E+03 -0.17786144834E+04  0.20130227605E+04  0.50400001928E-02 0. -1.
       -1    1    3    3    0  502  0.17939433025E+03  0.92553164616E+03  0.31927279990E+02  0.94329767571E+03  0.50400001928E-02 0.  1.
</event>
<event>
 5   0  0.1168435E-05  0.2404539E+04  0.7818609E-02  0.8437806E-01
       -2   -1    0    0    0  501  0.00000000000E+00  0.00000000000E+00  0.10550388219E+04  0.10550388219E+04  0.25500000920E-02 0. -1.
        2   -1    0    0  501    0  0.00000000000E+00  0.00000000000E+00 -0.13700461889E+04  0.13700461889E+04  0.25500000920E-02 0.  1.
    10030    2    1    2    0    0  0.00000000000E+00  0.00000000000E+00 -0.31500736703E+03  0.24250850107E+04  0.24045389720E+04 0.  0.
        1    1    3    3  502    0  0.11966509413E+04  0.84950445887E+02 -0.77695588356E+02  0.12021758016E+04  0.50400001928E-02 0.  1.
       -1    1    3    3    0  502 -0.11966509413E+04 -0.84950445887E+02 -0.23731177867E+03  0.12229092091E+04  0.50400001928E-02 0. -1.
</event>
<event>
 5   0  0.4067750E-06  0.2364591E+04  0.7818609E-02  0.8452880E-01
       -3   -1    0    0    0  501  0.00000000000E+00  0.00000000000E+00  0.14412163085E+04  0.14412163120E+04  0.10100000352E+00 0.  1.
        3   -1    0    0  501    0  0.00000000000E+00  0.00000000000E+00 -0.96989134623E+03  0.96989135149E+03  0.10100000352E+00 0. -1.
    10030    2    1    2    0    0  0.00000000000E+00  0.00000000000E+00  0.47132496226E+03  0.24111076635E+04  0.23645914964E+04 0.  0.
        2    1    3    3  502    0  0.30014156382E+03 -0.11042436111E+04  0.53880587273E+03  0.12648125077E+04  0.25500000920E-02 0.  1.
       -2    1    3    3    0  502 -0.30014156382E+03  0.11042436111E+04 -0.67480910471E+02  0.11462951559E+04  0.25500000920E-02 0. -1.
</event>
<event>
 5   0  0.5042742E-06  0.2416202E+04  0.7818609E-02  0.8433463E-01
       -1   -1    0    0    0  501  0.00000000000E+00  0.00000000000E+00  0.96249403474E+03  0.96249403476E+03  0.50400001928E-02 0.  1.
        1   -1    0    0  501    0  0.00000000000E+00  0.00000000000E+00 -0.15163810219E+04  0.15163810219E+04  0.50400001928E-02 0. -1.
    10030    2    1    2    0    0  0.00000000000E+00  0.00000000000E+00 -0.55388698713E+03  0.24788750566E+04  0.24162017200E+04 0.  0.
        5    1    3    3  502    0  0.74236997244E+03  0.86870319325E+02 -0.12506809972E+04  0.14570122426E+04  0.46999998093E+01 0. -1.
       -5    1    3    3    0  502 -0.74236997244E+03 -0.86870319325E+02  0.69679401002E+03  0.10218628141E+04  0.46999998093E+01 0.  1.
</event>
<event>
 5   0  0.1169371E-05  0.2409767E+04  0.7818609E-02  0.8435856E-01
       -2   -1    0    0    0  501  0.00000000000E+00  0.00000000000E+00  0.10570352004E+04  0.10570352004E+04  0.25500000920E-02 0.  1.
        2   -1    0    0  501    0  0.00000000000E+00  0.00000000000E+00 -0.13734118377E+04  0.13734118377E+04  0.25500000920E-02 0. -1.
    10030    2    1    2    0    0  0.00000000000E+00  0.00000000000E+00 -0.31637663735E+03  0.24304470381E+04  0.24097673391E+04 0.  0.
        2    1    3    3  502    0  0.43723937905E+03  0.77327303007E+03 -0.97918565135E+03  0.13220945478E+04  0.25500000920E-02 0. -1.
       -2    1    3    3    0  502 -0.43723937905E+03 -0.77327303007E+03  0.66280901400E+03  0.11083524903E+04  0.25500000920E-02 0.  1.
</event>
<event>
 5   0  0.1169371E-05  0.2412351E+04  0.7818609E-02  0.8434894E-01
       -2   -1    0    0    0  501  0.00000000000E+00  0.00000000000E+00  0.85391898331E+03  0.85391898331E+03  0.25500000920E-02 0. -1.
        2   -1    0    0  501    0  0.00000000000E+00  0.00000000000E+00 -0.17037442695E+04  0.17037442695E+04  0.25500000920E-02 0.  1.
    10030    2    1    2    0    0  0.00000000000E+00  0.00000000000E+00 -0.84982528615E+03  0.25576632528E+04  0.24123511970E+04 0.  0.
        2    1    3    3  502    0  0.11804702281E+04  0.24645166209E+03 -0.45112415513E+03  0.12875408283E+04  0.25500000920E-02 0. -1.
       -2    1    3    3    0  502 -0.11804702281E+04 -0.24645166209E+03 -0.39870113101E+03  0.12701224245E+04  0.25500000920E-02 0.  1.
</event>
<event>
 5   0  0.5104174E-06  0.2398412E+04  0.7818609E-02  0.8440098E-01
       -1   -1    0    0    0  501  0.00000000000E+00  0.00000000000E+00  0.11471186003E+04  0.11471186003E+04  0.50400001928E-02 0.  1.
        1   -1    0    0  501    0  0.00000000000E+00  0.00000000000E+00 -0.12536580417E+04  0.12536580417E+04  0.50400001928E-02 0. -1.
    10030    2    1    2    0    0  0.00000000000E+00  0.00000000000E+00 -0.10653944145E+03  0.24007766420E+04  0.23984115227E+04 0.  0.
        3    1    3    3  502    0  0.73029896057E+03  0.61907087276E+03  0.66959830173E+03  0.11683095537E+04  0.10100000352E+00 0.  1.
       -3    1    3    3    0  502 -0.73029896057E+03 -0.61907087276E+03 -0.77613774318E+03  0.12324670884E+04  0.10100000352E+00 0. -1.
</event>
<event>
 5   0  0.1198313E-05  0.2407522E+04  0.7818609E-02  0.8436693E-01
       -2   -1    0    0    0  501  0.00000000000E+00  0.00000000000E+00  0.85262871068E+03  0.85262871068E+03  0.25500000920E-02 0.  1.
        2   -1    0    0  501    0  0.00000000000E+00  0.00000000000E+00 -0.16994983662E+04  0.16994983662E+04  0.25500000920E-02 0. -1.
    10030    2    1    2    0    0  0.00000000000E+00  0.00000000000E+00 -0.84686965550E+03  0.25521270769E+04  0.24075224616E+04 0.  0.
        5    1    3    3  502    0 -0.87106236245E+03  0.53072677280E+03  0.25417596153E+03  0.10512126598E+04  0.46999998093E+01 0.  1.
       -5    1    3    3    0  502  0.87106236245E+03 -0.53072677280E+03 -0.11010456170E+04  0.15009144171E+04  0.46999998093E+01 0. -1.
</event>
<event>
 5   0  0.5034479E-06  0.2389162E+04  0.7818609E-02  0.8443572E-01
       -1   -1    0    0    0  501  0.00000000000E+00  0.00000000000E+00  0.13365322470E+04  0.13365322470E+04  0.50400001928E-02 0.  1.
        1   -1    0    0  501    0  0.00000000000E+00  0.00000000000E+00 -0.10677063721E+04  0.10677063721E+04  0.50400001928E-02 0. -1.
    10030    2    1    2    0    0  0.00000000000E+00  0.00000000000E+00  0.26882587492E+03  0.24042386192E+04  0.23891621935E+04 0.  0.
        4    1    3    3  502    0  0.80708210049E+03  0.38960913727E+03  0.92923605254E+03  0.12909911119E+04  0.12699999809E+01 0.  1.
       -4    1    3    3    0  502 -0.80708210049E+03 -0.38960913727E+03 -0.66041017763E+03  0.11132475072E+04  0.12699999809E+01 0. -1.
</event>
<event>
 5   0  0.1169371E-05  0.2403847E+04  0.7818609E-02  0.8438065E-01
       -2   -1    0    0    0  501  0.00000000000E+00  0.00000000000E+00  0.11201180126E+04  0.11201180126E+04  0.25500000920E-02 0. -1.
        2   -1    0    0  501    0  0.00000000000E+00  0.00000000000E+00 -0.12897039835E+04  0.12897039835E+04  0.25500000920E-02 0.  1.
    10030    2    1    2    0    0  0.00000000000E+00  0.00000000000E+00 -0.16958597087E+03  0.24098219961E+04  0.24038474684E+04 0.  0.
        2    1    3    3  502    0  0.81736841978E+02  0.81486049008E+03 -0.96671930261E+03  0.12669746405E+04  0.25500000920E-02 0.  1.
       -2    1    3    3    0  502 -0.81736841978E+02 -0.81486049008E+03  0.79713333174E+03  0.11428473556E+04  0.25500000920E-02 0. -1.
</event>
<event>
 5   0  0.5042742E-06  0.2391739E+04  0.7818609E-02  0.8442603E-01
       -1   -1    0    0    0  501  0.00000000000E+00  0.00000000000E+00  0.22354259935E+04  0.22354259935E+04  0.50400001928E-02 0.  1.
        1   -1    0    0  501    0  0.00000000000E+00  0.00000000000E+00 -0.63974539107E+03  0.63974539109E+03  0.50400001928E-02 0. -1.
    10030    2    1    2    0    0  0.00000000000E+00  0.00000000000E+00  0.15956806024E+04  0.28751713846E+04  0.23917386784E+04 0.  0.
        5    1    3    3  502    0  0.85020313126E+03 -0.72838117251E+03  0.13031579455E+04  0.17180300398E+04  0.46999998093E+01 0.  1.
       -5    1    3    3    0  502 -0.85020313126E+03  0.72838117251E+03  0.29252265689E+03  0.11571413447E+04  0.46999998093E+01 0. -1.
</event>
<event>
 5   0  0.4067750E-06  0.2398506E+04  0.7818609E-02  0.8440063E-01
        3   -1    0    0  501    0  0.00000000000E+00  0.00000000000E+00  0.20547831114E+04  0.20547831139E+04  0.10100000352E+00 0.  1.
       -3   -1    0    0    0  501  0.00000000000E+00  0.00000000000E+00 -0.69993192852E+03  0.69993193580E+03  0.10100000352E+00 0. -1.
    10030    2    1    2    0    0  0.00000000000E+00  0.00000000000E+00  0.13548511829E+04  0.27547150497E+04  0.23985064681E+04 0.  0.
        2    1    3    3  502    0  0.74132781557E+03 -0.68704923996E+03  0.14187322252E+04  0.17419542804E+04  0.25500000920E-02 0.  1.
       -2    1    3    3    0  502 -0.74132781557E+03  0.68704923996E+03 -0.63881042269E+02  0.10127607693E+04  0.25500000920E-02 0. -1.
</event>
<event>
 5   0  0.5064437E-06  0.2415901E+04  0.7818609E-02  0.8433574E-01
       -1   -1    0    0    0  501  0.00000000000E+00  0.00000000000E+00  0.12713138007E+04  0.12713138007E+04  0.50400001928E-02 0.  1.
        1   -1    0    0  501    0  0.00000000000E+00  0.00000000000E+00 -0.11477452568E+04  0.11477452569E+04  0.50400001928E-02 0. -1.
    10030    2    1    2    0    0  0.00000000000E+00  0.00000000000E+00  0.12356854382E+03  0.24190590575E+04  0.24159009787E+04 0.  0.
        2    1    3    3  502    0 -0.10098349647E+04 -0.25124820550E+03 -0.55241145288E+03  0.11781556476E+04  0.25500000920E-02 0. -1.
       -2    1    3    3    0  502  0.10098349647E+04  0.25124820550E+03  0.67597999669E+03  0.12409034099E+04  0.25500000920E-02 0.  1.
</event>
<event>
 5   0  0.5042742E-06  0.2379665E+04  0.7818609E-02  0.8447156E-01
       -1   -1    0    0    0  501  0.00000000000E+00  0.00000000000E+00  0.69269464082E+03  0.69269464083E+03  0.50400001928E-02 0.  1.
        1   -1    0    0  501    0  0.00000000000E+00  0.00000000000E+00 -0.20437603758E+04  0.20437603758E+04  0.50400001928E-02 0. -1.
    10030    2    1    2    0    0  0.00000000000E+00  0.00000000000E+00 -0.13510657350E+04  0.27364550167E+04  0.23796654046E+04 0.  0.
        5    1    3    3  502    0  0.87786394546E+03  0.89629729982E+02  0.24225546615E+03  0.91508928313E+03  0.46999998093E+01 0.  1.
       -5    1    3    3    0  502 -0.87786394546E+03 -0.89629729982E+02 -0.15933212012E+04  0.18213657335E+04  0.46999998093E+01 0. -1.
</event>
<event>
 5   0  0.1169371E-05  0.2420076E+04  0.7818609E-02  0.8432025E-01
        2   -1    0    0  501    0  0.00000000000E+00  0.00000000000E+00  0.22706087612E+04  0.22706087612E+04  0.25500000920E-02 0.  1.
       -2   -1    0    0    0  501  0.00000000000E+00  0.00000000000E+00 -0.64484551039E+03  0.64484551039E+03  0.25500000920E-02 0. -1.
    10030    2    1    2    0    0  0.00000000000E+00  0.00000000000E+00  0.16257632508E+04  0.29154542716E+04  0.24200759207E+04 0.  0.
        2    1    3    3  502    0  0.54636678725E+03  0.98996736193E+03  0.13319359510E+04  0.17471706905E+04  0.25500000920E-02 0.  1.
       -2    1    3    3    0  502 -0.54636678725E+03 -0.98996736193E+03  0.29382729979E+03  0.11682835812E+04  0.25500000920E-02 0. -1.
</event>
<event>
 5   0  0.1169371E-05  0.2408010E+04  0.7818609E-02  0.8436511E-01
        2   -1    0    0  501    0  0.00000000000E+00  0.00000000000E+00  0.17070610627E+04  0.17070610627E+04  0.25500000920E-02 0.  1.
       -2   -1    0    0    0  501  0.00000000000E+00  0.00000000000E+00 -0.84919510570E+03  0.84919510570E+03  0.25500000920E-02 0. -1.
    10030    2    1    2    0    0  0.00000000000E+00  0.00000000000E+00  0.85786595701E+03  0.25562561684E+04  0.24080098834E+04 0.  0.
        2    1    3    3  502    0  0.72471339027E+03 -0.24143747548E+03 -0.55902104239E+03  0.94657597605E+03  0.25500000920E-02 0. -1.
       -2    1    3    3    0  502 -0.72471339027E+03  0.24143747548E+03  0.14168869994E+04  0.16096801924E+04  0.25500000920E-02 0.  1.
</event>
<event>
 5   0  0.5034479E-06  0.2394329E+04  0.7818609E-02  0.8441630E-01
       -1   -1    0    0    0  501  0.00000000000E+00  0.00000000000E+00  0.60764311331E+03  0.60764311333E+03  0.50400001928E-02 0. -1.
        1   -1    0    0  501    0  0.00000000000E+00  0.00000000000E+00 -0.23586254599E+04  0.23586254599E+04  0.50400001928E-02 0.  1.
    10030    2    1    2    0    0  0.00000000000E+00  0.00000000000E+00 -0.17509823466E+04  0.29662685733E+04  0.23943287307E+04 0.  0.
        4    1    3    3  502    0  0.62743553205E+03  0.24520712559E+02  0.38726251099E+03  0.73773333769E+03  0.12699999809E+01 0. -1.
       -4    1    3    3    0  502 -0.62743553205E+03 -0.24520712559E+02 -0.21382448576E+04  0.22285352356E+04  0.12699999809E+01 0.  1.
</event>
<event>
 5   0  0.1154897E-05  0.2403664E+04  0.7818609E-02  0.8438133E-01
       -2   -1    0    0    0  501  0.00000000000E+00  0.00000000000E+00  0.77002743234E+03  0.77002743234E+03  0.25500000920E-02 0.  1.
        2   -1    0    0  501    0  0.00000000000E+00  0.00000000000E+00 -0.18757771757E+04  0.18757771757E+04  0.25500000920E-02 0. -1.
    10030    2    1    2    0    0  0.00000000000E+00  0.00000000000E+00 -0.11057497434E+04  0.26458046080E+04  0.24036637720E+04 0.  0.
        4    1    3    3  502    0  0.34859058589E+03  0.56446719664E+03  0.55020525141E+03  0.86189677122E+03  0.12699999809E+01 0.  1.
       -4    1    3    3    0  502 -0.34859058589E+03 -0.56446719664E+03 -0.16559549948E+04  0.17839078368E+04  0.12699999809E+01 0. -1.
</event>
<event>
 5   0  0.4067750E-06  0.2394131E+04  0.7818609E-02  0.8441704E-01
       -3   -1    0    0    0  501  0.00000000000E+00  0.00000000000E+00  0.83872855189E+03  0.83872855797E+03  0.10100000352E+00 0.  1.
        3   -1    0    0  501    0  0.00000000000E+00  0.00000000000E+00 -0.17084978403E+04  0.17084978433E+04  0.10100000352E+00 0. -1.
    10030    2    1    2    0    0  0.00000000000E+00  0.00000000000E+00 -0.86976928840E+03  0.25472264013E+04  0.23941311000E+04 0.  0.
        3    1    3    3  502    0  0.63546478258E+03  0.85423548615E+03  0.14731085609E+03  0.10748182424E+04  0.10100000352E+00 0.  1.
       -3    1    3    3    0  502 -0.63546478258E+03 -0.85423548615E+03 -0.10170801445E+04  0.14724081588E+04  0.10100000352E+00 0. -1.
</event>
<event>
 5   0  0.4067750E-06  0.2410585E+04  0.7818609E-02  0.8435551E-01
        3   -1    0    0  501    0  0.00000000000E+00  0.00000000000E+00  0.94760547195E+03  0.94760547733E+03  0.10100000352E+00 0.  1.
       -3   -1    0    0    0  501  0.00000000000E+00  0.00000000000E+00 -0.15330533127E+04  0.15330533160E+04  0.10100000352E+00 0. -1.
    10030    2    1    2    0    0  0.00000000000E+00  0.00000000000E+00 -0.58544784074E+03  0.24806587934E+04  0.24105847579E+04 0.  0.
        2    1    3    3  502    0  0.40173077278E+03  0.80932940870E+03  0.52816642464E+03  0.10465951833E+04  0.25500000920E-02 0.  1.
       -2    1    3    3    0  502 -0.40173077278E+03 -0.80932940870E+03 -0.11136142654E+04  0.14340636101E+04  0.25500000920E-02 0. -1.
</event>
<event>
 5   0  0.5104174E-06  0.2399601E+04  0.7818609E-02  0.8439653E-01
       -1   -1    0    0    0  501  0.00000000000E+00  0.00000000000E+00  0.89316324273E+03  0.89316324275E+03  0.50400001928E-02 0. -1.
        1   -1    0    0  501    0  0.00000000000E+00  0.00000000000E+00 -0.16117110370E+04  0.16117110370E+04  0.50400001928E-02 0.  1.
    10030    2    1    2    0    0  0.00000000000E+00  0.00000000000E+00 -0.71854779423E+03  0.25048742797E+04  0.23996008469E+04 0.  0.
        3    1    3    3  502    0  0.18915819245E+03  0.10771061871E+04  0.15591910588E+03  0.11046489659E+04  0.10100000352E+00 0. -1.
       -3    1    3    3    0  502 -0.18915819245E+03 -0.10771061871E+04 -0.87446690012E+03  0.14002253139E+04  0.10100000352E+00 0.  1.
</event>
<event>
 5   0  0.1169371E-05  0.2408408E+04  0.7818609E-02  0.8436363E-01
       -2   -1    0    0    0  501  0.00000000000E+00  0.00000000000E+00  0.10715007636E+04  0.10715007636E+04  0.25500000920E-02 0.  1.
        2   -1    0    0  501    0  0.00000000000E+00  0.00000000000E+00 -0.13533417728E+04  0.13533417728E+04  0.25500000920E-02 0. -1.
    10030    2    1    2    0    0  0.00000000000E+00  0.00000000000E+00 -0.28184100918E+03  0.24248425364E+04  0.24084075593E+04 0.  0.
        2    1    3    3  502    0  0.10526511733E+02  0.14573506795E+03 -0.13443836082E+04  0.13523005596E+04  0.25500000920E-02 0. -1.
       -2    1    3    3    0  502 -0.10526511733E+02 -0.14573506795E+03  0.10625425990E+04  0.10725419769E+04  0.25500000920E-02 0.  1.
</event>
<event>
 5   0  0.5196696E-06  0.2408650E+04  0.7818609E-02  0.8436272E-01
        1   -1    0    0  501    0  0.00000000000E+00  0.00000000000E+00  0.18262938560E+04  0.18262938560E+04  0.50400001928E-02 0. -1.
       -1   -1    0    0    0  501  0.00000000000E+00  0.00000000000E+00 -0.79417618539E+03  0.79417618541E+03  0.50400001928E-02 0.  1.
    10030    2    1    2    0    0  0.00000000000E+00  0.00000000000E+00  0.10321176706E+04  0.26204700414E+04  0.24086503175E+04 0.  0.
        1    1    3    3  502    0  0.53062321159E+03 -0.87297789520E+03  0.12099126684E+04  0.15835214123E+04  0.50400001928E-02 0. -1.
       -1    1    3    3    0  502 -0.53062321159E+03  0.87297789520E+03 -0.17779499773E+03  0.10369486291E+04  0.50400001928E-02 0.  1.
</event>
<event>
 5   0  0.1169371E-05  0.2400212E+04  0.7818609E-02  0.8439424E-01
       -2   -1    0    0    0  501  0.00000000000E+00  0.00000000000E+00  0.10344139869E+04  0.10344139869E+04  0.25500000920E-02 0. -1.
        2   -1    0    0  501    0  0.00000000000E+00  0.00000000000E+00 -0.13923389376E+04  0.13923389376E+04  0.25500000920E-02 0.  1.
    10030    2    1    2    0    0  0.00000000000E+00  0.00000000000E+00 -0.35792495073E+03  0.24267529245E+04  0.24002123836E+04 0.  0.
        2    1    3    3  502    0 -0.40322138007E+03  0.54654323807E+03  0.82140115199E+03  0.10658315275E+04  0.25500000920E-02 0. -1.
       -2    1    3    3    0  502  0.40322138007E+03 -0.54654323807E+03 -0.11793261027E+04  0.13609213971E+04  0.25500000920E-02 0.  1.
</event>
<event>
 5   0  0.1169371E-05  0.2407663E+04  0.7818609E-02  0.8436640E-01
       -2   -1    0    0    0  501  0.00000000000E+00  0.00000000000E+00  0.86809627461E+03  0.86809627462E+03  0.25500000920E-02 0. -1.
        2   -1    0    0  501    0  0.00000000000E+00  0.00000000000E+00 -0.16694120989E+04  0.16694120989E+04  0.25500000920E-02 0.  1.
    10030    2    1    2    0    0  0.00000000000E+00  0.00000000000E+00 -0.80131582428E+03  0.25375083735E+04  0.24076631192E+04 0.  0.
        2    1    3    3  502    0 -0.88295226287E+03  0.49768193067E+03 -0.10852407501E+04  0.14849375369E+04  0.25500000920E-02 0.  1.
       -2    1    3    3    0  502  0.88295226287E+03 -0.49768193067E+03  0.28392492586E+03  0.10525708366E+04  0.25500000920E-02 0. -1.
</event>
<event>
 5   0  0.5104174E-06  0.2415700E+04  0.7818609E-02  0.8433649E-01
       -1   -1    0    0    0  501  0.00000000000E+00  0.00000000000E+00  0.92109796326E+03  0.92109796327E+03  0.50400001928E-02 0. -1.
        1   -1    0    0  501    0  0.00000000000E+00  0.00000000000E+00 -0.15838718584E+04  0.15838718584E+04  0.50400001928E-02 0.  1.
    10030    2    1    2    0    0  0.00000000000E+00  0.00000000000E+00 -0.66277389514E+03  0.25049698217E+04  0.24156996029E+04 0.  0.
        3    1    3    3  502    0 -0.19833880791E+03  0.10438297674E+04  0.26428187676E+03  0.10948807180E+04  0.10100000352E+00 0. -1.
       -3    1    3    3    0  502  0.19833880791E+03 -0.10438297674E+04 -0.92705577190E+03  0.14100891037E+04  0.10100000352E+00 0.  1.
</event>
<event>
 5   0  0.5196696E-06  0.2464173E+04  0.7818609E-02  0.8415861E-01
        1   -1    0    0  501    0  0.00000000000E+00  0.00000000000E+00  0.23007454771E+04  0.23007454771E+04  0.50400001928E-02 0. -1.
       -1   -1    0    0    0  501  0.00000000000E+00  0.00000000000E+00 -0.65980222934E+03  0.65980222936E+03  0.50400001928E-02 0.  1.
    10030    2    1    2    0    0  0.00000000000E+00  0.00000000000E+00  0.16409432478E+04  0.29605477065E+04  0.24641728795E+04 0.  0.
        1    1    3    3  502    0  0.69505149081E+03 -0.98335486083E+03  0.50728208627E+03  0.13066822384E+04  0.50400001928E-02 0.  1.
       -1    1    3    3    0  502 -0.69505149081E+03  0.98335486083E+03  0.11336611615E+04  0.16538654680E+04  0.50400001928E-02 0. -1.
</event>
<event>
 5   0  0.5104174E-06  0.2404390E+04  0.7818609E-02  0.8437862E-01
        1   -1    0    0  501    0  0.00000000000E+00  0.00000000000E+00  0.13954891185E+04  0.13954891185E+04  0.50400001928E-02 0.  1.
       -1   -1    0    0    0  501  0.00000000000E+00  0.00000000000E+00 -0.10356749363E+04  0.10356749363E+04  0.50400001928E-02 0. -1.
    10030    2    1    2    0    0  0.00000000000E+00  0.00000000000E+00  0.35981418221E+03  0.24311640549E+04  0.24043902379E+04 0.  0.
        3    1    3    3  502    0 -0.32061522757E+03 -0.26359374133E+03  0.13207426592E+04  0.13844265841E+04  0.10100000352E+00 0.  1.
       -3    1    3    3    0  502  0.32061522757E+03  0.26359374133E+03 -0.96092847702E+03  0.10467374708E+04  0.10100000352E+00 0. -1.
</event>
<event>
 5   0  0.4067750E-06  0.2393253E+04  0.7818609E-02  0.8442034E-01
        3   -1    0    0  501    0  0.00000000000E+00  0.00000000000E+00  0.14701866968E+04  0.14701867002E+04  0.10100000352E+00 0.  1.
       -3   -1    0    0    0  501  0.00000000000E+00  0.00000000000E+00 -0.97396819966E+03  0.97396820490E+03  0.10100000352E+00 0. -1.
    10030    2    1    2    0    0  0.00000000000E+00  0.00000000000E+00  0.49621849709E+03  0.24441549051E+04  0.23932531006E+04 0.  0.
        1    1    3    3  502    0  0.90304299286E+03  0.72469949934E+03 -0.60373277310E+02  0.11594485517E+04  0.50400001928E-02 0. -1.
       -1    1    3    3    0  502 -0.90304299286E+03 -0.72469949934E+03  0.55659177440E+03  0.12847063535E+04  0.50400001928E-02 0.  1.
</event>
<event>
 5   0  0.5034479E-06  0.2407050E+04  0.7818609E-02  0.8436869E-01
       -1   -1    0    0    0  501  0.00000000000E+00  0.00000000000E+00  0.59281669287E+03  0.59281669289E+03  0.50400001928E-02 0. -1.
        1   -1    0    0  501    0  0.00000000000E+00  0.00000000000E+00 -0.24433723144E+04  0.24433723144E+04  0.50400001928E-02 0.  1.
    10030    2    1    2    0    0  0.00000000000E+00  0.00000000000E+00 -0.18505556215E+04  0.30361890072E+04  0.24070495590E+04 0.  0.
        4    1    3    3  502    0 -0.70899308966E+03  0.16653561098E+03  0.28331631758E+03  0.78145701073E+03  0.12699999809E+01 0. -1.
       -4    1    3    3    0  502  0.70899308966E+03 -0.16653561098E+03 -0.21338719391E+04  0.22547319965E+04  0.12699999809E+01 0.  1.
</event>
<event>
 5   0  0.5034479E-06  0.2423015E+04  0.7818609E-02  0.8430937E-01
        1   -1    0    0  501    0  0.00000000000E+00  0.00000000000E+00  0.12733934822E+04  0.12733934822E+04  0.50400001928E-02 0.  1.
       -1   -1    0    0    0  501  0.00000000000E+00  0.00000000000E+00 -0.11526286727E+04  0.11526286727E+04  0.50400001928E-02 0. -1.
    10030    2    1    2    0    0  0.00000000000E+00  0.00000000000E+00  0.12076480953E+03  0.24260221549E+04  0.24230145185E+04 0.  0.
        4    1    3    3  502    0  0.13580033638E+03 -0.11757041056E+04  0.31959824321E+03  0.12259145669E+04  0.12699999809E+01 0.  1.
       -4    1    3    3    0  502 -0.13580033638E+03  0.11757041056E+04 -0.19883343368E+03  0.12001075879E+04  0.12699999809E+01 0. -1.
</event>
<event>
 5   0  0.1168435E-05  0.2402801E+04  0.7818609E-02  0.8438455E-01
       -2   -1    0    0    0  501  0.00000000000E+00  0.00000000000E+00  0.97795825103E+03  0.97795825103E+03  0.25500000920E-02 0. -1.
        2   -1    0    0  501    0  0.00000000000E+00  0.00000000000E+00 -0.14758950000E+04  0.14758950000E+04  0.25500000920E-02 0.  1.
    10030    2    1    2    0    0  0.00000000000E+00  0.00000000000E+00 -0.49793674900E+03  0.24538532511E+04  0.24028014424E+04 0.  0.
        1    1    3    3  502    0 -0.10353867703E+04 -0.54375666912E+03  0.31951749660E+02  0.11699222169E+04  0.50400001928E-02 0.  1.
       -1    1    3    3    0  502  0.10353867703E+04  0.54375666912E+03 -0.52988849866E+03  0.12839310341E+04  0.50400001928E-02 0. -1.
</event>
<event>
 5   0  0.1174210E-05  0.2394933E+04  0.7818609E-02  0.8441403E-01
       -2   -1    0    0    0  501  0.00000000000E+00  0.00000000000E+00  0.13063393789E+04  0.13063393789E+04  0.25500000920E-02 0.  1.
        2   -1    0    0  501    0  0.00000000000E+00  0.00000000000E+00 -0.10976669082E+04  0.10976669082E+04  0.25500000920E-02 0. -1.
    10030    2    1    2    0    0  0.00000000000E+00  0.00000000000E+00  0.20867247070E+03  0.24040062870E+04  0.23949325728E+04 0.  0.
        3    1    3    3  502    0  0.52996469946E+03  0.10686053623E+04  0.21030843961E+03  0.12112017391E+04  0.10100000352E+00 0.  1.
       -3    1    3    3    0  502 -0.52996469946E+03 -0.10686053623E+04 -0.16359689078E+01  0.11928045479E+04  0.10100000352E+00 0. -1.
</event>
<event>
 5   0  0.4067750E-06  0.2394514E+04  0.7818609E-02  0.8441560E-01
       -3   -1    0    0    0  501  0.00000000000E+00  0.00000000000E+00  0.13466194365E+04  0.13466194403E+04  0.10100000352E+00 0.  1.
        3   -1    0    0  501    0  0.00000000000E+00  0.00000000000E+00 -0.10644609681E+04  0.10644609729E+04  0.10100000352E+00 0. -1.
    10030    2    1    2    0    0  0.00000000000E+00  0.00000000000E+00  0.28215846846E+03  0.24110804132E+04  0.23945135952E+04 0.  0.
        2    1    3    3  502    0  0.68741271768E+03 -0.82678323267E+03 -0.38917323314E+03  0.11434870194E+04  0.25500000920E-02 0. -1.
       -2    1    3    3    0  502 -0.68741271768E+03  0.82678323267E+03  0.67133170161E+03  0.12675933937E+04  0.25500000920E-02 0.  1.
</event>
<event>
 5   0  0.1169371E-05  0.2406168E+04  0.7818609E-02  0.8437198E-01
        2   -1    0    0  501    0  0.00000000000E+00  0.00000000000E+00  0.21959282137E+04  0.21959282137E+04  0.25500000920E-02 0.  1.
       -2   -1    0    0    0  501  0.00000000000E+00  0.00000000000E+00 -0.65913423415E+03  0.65913423415E+03  0.25500000920E-02 0. -1.
    10030    2    1    2    0    0  0.00000000000E+00  0.00000000000E+00  0.15367939795E+04  0.28550624478E+04  0.24061682912E+04 0.  0.
        2    1    3    3  502    0  0.36379052311E+03 -0.48133028323E+03 -0.46664532764E+03  0.76274520521E+03  0.25500000920E-02 0. -1.
       -2    1    3    3    0  502 -0.36379052311E+03  0.48133028323E+03  0.20034393072E+04  0.20923172426E+04  0.25500000920E-02 0.  1.
</event>
<event>
 5   0  0.1154897E-05  0.2400435E+04  0.7818609E-02  0.8439341E-01
       -2   -1    0    0    0  501  0.00000000000E+00  0.00000000000E+00  0.10222772166E+04  0.10222772166E+04  0.25500000920E-02 0. -1.
        2   -1    0    0  501    0  0.00000000000E+00  0.00000000000E+00 -0.14091308403E+04  0.14091308403E+04  0.25500000920E-02 0.  1.
    10030    2    1    2    0    0  0.00000000000E+00  0.00000000000E+00 -0.38685362373E+03  0.24314080569E+04  0.24004352549E+04 0.  0.
        4    1    3    3  502    0 -0.57868861408E+03  0.19640019969E+03  0.85289128810E+03  0.10492276744E+04  0.12699999809E+01 0. -1.
       -4    1    3    3    0  502  0.57868861408E+03 -0.19640019969E+03 -0.12397449118E+04  0.13821803825E+04  0.12699999809E+01 0.  1.
</event>
<event>
 5   0  0.5034479E-06  0.2403875E+04  0.7818609E-02  0.8438054E-01
        1   -1    0    0  501    0  0.00000000000E+00  0.00000000000E+00  0.13613389486E+04  0.13613389486E+04  0.50400001928E-02 0.  1.
       -1   -1    0    0    0  501  0.00000000000E+00  0.00000000000E+00 -0.10612005704E+04  0.10612005704E+04  0.50400001928E-02 0. -1.
    10030    2    1    2    0    0  0.00000000000E+00  0.00000000000E+00  0.30013837816E+03  0.24225395190E+04  0.24038749292E+04 0.  0.
        4    1    3    3  502    0  0.10945700318E+04  0.49546722185E+03  0.11693942909E+03  0.12071651774E+04  0.12699999809E+01 0. -1.
       -4    1    3    3    0  502 -0.10945700318E+04 -0.49546722185E+03  0.18319894907E+03  0.12153743416E+04  0.12699999809E+01 0.  1.
</event>
<event>
 5   0  0.1198313E-05  0.2401386E+04  0.7818609E-02  0.8438985E-01
       -2   -1    0    0    0  501  0.00000000000E+00  0.00000000000E+00  0.58809326063E+03  0.58809326063E+03  0.25500000920E-02 0.  1.
        2   -1    0    0  501    0  0.00000000000E+00  0.00000000000E+00 -0.24514206707E+04  0.24514206707E+04  0.25500000920E-02 0. -1.
    10030    2    1    2    0    0  0.00000000000E+00  0.00000000000E+00 -0.18633274100E+04  0.30395139313E+04  0.24013862458E+04 0.  0.
        5    1    3    3  502    0  0.66303212291E+03 -0.18369287824E+03 -0.21771651004E+04  0.22832924985E+04  0.46999998093E+01 0. -1.
       -5    1    3    3    0  502 -0.66303212291E+03  0.18369287824E+03  0.31383769033E+03  0.75622143278E+03  0.46999998093E+01 0.  1.
</event>
<event>
 5   0  0.1168435E-05  0.2401342E+04  0.7818609E-02  0.8439001E-01
       -2   -1    0    0    0  501  0.00000000000E+00  0.00000000000E+00  0.77891057041E+03  0.77891057041E+03  0.25500000920E-02 0.  1.
        2   -1    0    0  501    0  0.00000000000E+00  0.00000000000E+00 -0.18508039960E+04  0.18508039960E+04  0.25500000920E-02 0. -1.
    10030    2    1    2    0    0  0.00000000000E+00  0.00000000000E+00 -0.10718934256E+04  0.26297145665E+04  0.24013419551E+04 0.  0.
        1    1    3    3  502    0  0.10757264197E+04 -0.41061377870E+03 -0.16325821314E+03  0.11629463657E+04  0.50400001928E-02 0. -1.
       -1    1    3    3    0  502 -0.10757264197E+04  0.41061377870E+03 -0.90863521250E+03  0.14667682008E+04  0.50400001928E-02 0.  1.
</event>
<event>
 5   0  0.5034479E-06  0.2389182E+04  0.7818609E-02  0.8443565E-01
        1   -1    0    0  501    0  0.00000000000E+00  0.00000000000E+00  0.21794846693E+04  0.21794846693E+04  0.50400001928E-02 0. -1.
       -1   -1    0    0    0  501  0.00000000000E+00  0.00000000000E+00 -0.65476391389E+03  0.65476391391E+03  0.50400001928E-02 0.  1.
    10030    2    1    2    0    0  0.00000000000E+00  0.00000000000E+00  0.15247207554E+04  0.28342485832E+04  0.23891822135E+04 0.  0.
        4    1    3    3  502    0  0.62040017880E+03  0.40833103808E+03  0.18722909811E+04  0.20142258437E+04  0.12699999809E+01 0. -1.
       -4    1    3    3    0  502 -0.62040017880E+03 -0.40833103808E+03 -0.34757022576E+03  0.82002273947E+03  0.12699999809E+01 0.  1.
</event>
<event>
 5   0  0.5104174E-06  0.2413785E+04  0.7818609E-02  0.8434361E-01
       -1   -1    0    0    0  501  0.00000000000E+00  0.00000000000E+00  0.96336368444E+03  0.96336368445E+03  0.50400001928E-02 0.  1.
        1   -1    0    0  501    0  0.00000000000E+00  0.00000000000E+00 -0.15119825221E+04  0.15119825222E+04  0.50400001928E-02 0. -1.
    10030    2    1    2    0    0  0.00000000000E+00  0.00000000000E+00 -0.54861883771E+03  0.24753462066E+04  0.24137846245E+04 0.  0.
        3    1    3    3  502    0 -0.65814599682E+03  0.78029269227E+03 -0.93460686534E+03  0.13840169225E+04  0.10100000352E+00 0.  1.
       -3    1    3    3    0  502  0.65814599682E+03 -0.78029269227E+03  0.38598802763E+03  0.10913292841E+04  0.10100000352E+00 0. -1.
</event>
<event>
 5   0  0.1154897E-05  0.2407584E+04  0.7818609E-02  0.8436670E-01
        2   -1    0    0  501    0  0.00000000000E+00  0.00000000000E+00  0.16081645829E+04  0.16081645829E+04  0.25500000920E-02 0. -1.
       -2   -1    0    0    0  501  0.00000000000E+00  0.00000000000E+00 -0.90109909720E+03  0.90109909720E+03  0.25500000920E-02 0.  1.
    10030    2    1    2    0    0  0.00000000000E+00  0.00000000000E+00  0.70706548573E+03  0.25092636801E+04  0.24075843942E+04 0.  0.
        4    1    3    3  502    0 -0.78213252980E+03 -0.30357212320E+03  0.12532560851E+04  0.15081577357E+04  0.12699999809E+01 0. -1.
       -4    1    3    3    0  502  0.78213252980E+03  0.30357212320E+03 -0.54619059937E+03  0.10011059444E+04  0.12699999809E+01 0.  1.
</event>
<event>
 5   0  0.1174210E-05  0.2400893E+04  0.7818609E-02  0.8439169E-01
       -2   -1    0    0    0  501  0.00000000000E+00  0.00000000000E+00  0.13037318232E+04  0.13037318232E+04  0.25500000920E-02 0.  1.
        2   -1    0    0  501    0  0.00000000000E+00  0.00000000000E+00 -0.11053432960E+04  0.11053432960E+04  0.25500000920E-02 0. -1.
    10030    2    1    2    0    0  0.00000000000E+00  0.00000000000E+00  0.19838852725E+03  0.24090751192E+04  0.24008925261E+04 0.  0.
        3    1    3    3  502    0  0.45169437241E+03  0.96982365961E+03  0.64555482144E+03  0.12495306217E+04  0.10100000352E+00 0. -1.
       -3    1    3    3    0  502 -0.45169437241E+03 -0.96982365961E+03 -0.44716629419E+03  0.11595444975E+04  0.10100000352E+00 0.  1.
</event>
<event>
 5   0  0.1169371E-05  0.2397669E+04  0.7818609E-02  0.8440377E-01
       -2   -1    0    0    0  501  0.00000000000E+00  0.00000000000E+00  0.17228976136E+04  0.17228976136E+04  0.25500000920E-02 0. -1.
        2   -1    0    0  501    0  0.00000000000E+00  0.00000000000E+00 -0.83417833534E+03  0.83417833535E+03  0.25500000920E-02 0.  1.
    10030    2    1    2    0    0  0.00000000000E+00  0.00000000000E+00  0.88871927827E+03  0.25570759490E+04  0.23976687538E+04 0.  0.
        2    1    3    3  502    0 -0.55389202589E+03  0.38096762699E+03 -0.61424142891E+03  0.91061805503E+03  0.25500000920E-02 0.  1.
       -2    1    3    3    0  502  0.55389202589E+03 -0.38096762699E+03  0.15029607072E+04  0.16464578939E+04  0.25500000920E-02 0. -1.
</event>
<event>
 5   0  0.1169371E-05  0.2405201E+04  0.7818609E-02  0.8437559E-01
        2   -1    0    0  501    0  0.00000000000E+00  0.00000000000E+00  0.10868935514E+04  0.10868935514E+04  0.25500000920E-02 0. -1.
       -2   -1    0    0    0  501  0.00000000000E+00  0.00000000000E+00 -0.13306254814E+04  0.13306254814E+04  0.25500000920E-02 0.  1.
    10030    2    1    2    0    0  0.00000000000E+00  0.00000000000E+00 -0.24373192994E+03  0.24175190328E+04  0.24052012432E+04 0.  0.
        2    1    3    3  502    0  0.81297830329E+03 -0.50652774687E+03  0.60900596108E+03  0.11350737159E+04  0.25500000920E-02 0.  1.
       -2    1    3    3    0  502 -0.81297830329E+03  0.50652774687E+03 -0.85273789103E+03  0.12824453169E+04  0.25500000920E-02 0. -1.
</event>
<event>
 5   0  0.1154897E-05  0.2398432E+04  0.7818609E-02  0.8440091E-01
        2   -1    0    0  501    0  0.00000000000E+00  0.00000000000E+00  0.14970529717E+04  0.14970529717E+04  0.25500000920E-02 0.  1.
       -2   -1    0    0    0  501  0.00000000000E+00  0.00000000000E+00 -0.96063298933E+03  0.96063298933E+03  0.25500000920E-02 0. -1.
    10030    2    1    2    0    0  0.00000000000E+00  0.00000000000E+00  0.53641998239E+03  0.24576859610E+04  0.23984315470E+04 0.  0.
        4    1    3    3  502    0 -0.10586994889E+04 -0.26537941987E+03  0.77732056894E+03  0.13399625831E+04  0.12699999809E+01 0.  1.
       -4    1    3    3    0  502  0.10586994889E+04  0.26537941987E+03 -0.24090058655E+03  0.11177233780E+04  0.12699999809E+01 0. -1.
</event>
<event>
 5   0  0.1198313E-05  0.2397391E+04  0.7818609E-02  0.8440481E-01
        2   -1    0    0  501    0  0.00000000000E+00  0.00000000000E+00  0.26828154483E+04  0.26828154483E+04  0.25500000920E-02 0.  1.
       -2   -1    0    0    0  501  0.00000000000E+00  0.00000000000E+00 -0.53558320687E+03  0.53558320688E+03  0.25500000920E-02 0. -1.
    10030    2    1    2    0    0  0.00000000000E+00  0.00000000000E+00  0.21472322414E+04  0.32183986552E+04  0.23973909996E+04 0.  0.
        5    1    3    3  502    0  0.12385296755E+03 -0.77646770941E+03  0.22882313840E+04  0.24195591785E+04  0.46999998093E+01 0.  1.
       -5    1    3    3    0  502 -0.12385296755E+03  0.77646770941E+03 -0.14099914260E+03  0.79883947670E+03  0.46999998093E+01 0. -1.
</event>
<event>
 5   0  0.1198313E-05  0.2404726E+04  0.7818609E-02  0.8437736E-01
       -2   -1    0    0    0  501  0.00000000000E+00  0.00000000000E+00  0.90525632092E+03  0.90525632092E+03  0.25500000920E-02 0.  1.
        2   -1    0    0  501    0  0.00000000000E+00  0.00000000000E+00 -0.15969808989E+04  0.15969808989E+04  0.25500000920E-02 0. -1.
    10030    2    1    2    0    0  0.00000000000E+00  0.00000000000E+00 -0.69172457799E+03  0.25022372198E+04  0.24047262240E+04 0.  0.
        5    1    3    3  502    0 -0.25824418801E+03 -0.32887523284E+03  0.82714974025E+03  0.92684829514E+03  0.46999998093E+01 0.  1.
       -5    1    3    3    0  502  0.25824418801E+03  0.32887523284E+03 -0.15188743182E+04  0.15753889247E+04  0.46999998093E+01 0. -1.
</event>
<event>
 5   0  0.1174210E-05  0.2377100E+04  0.7818609E-02  0.8448127E-01
       -2   -1    0    0    0  501  0.00000000000E+00  0.00000000000E+00  0.87881936528E+03  0.87881936528E+03  0.25500000920E-02 0.  1.
        2   -1    0    0  501    0  0.00000000000E+00  0.00000000000E+00 -0.16074423440E+04  0.16074423440E+04  0.25500000920E-02 0. -1.
    10030    2    1    2    0    0  0.00000000000E+00  0.00000000000E+00 -0.72862297872E+03  0.24862617093E+04  0.23771003012E+04 0.  0.
        3    1    3    3  502    0 -0.95803273438E+03 -0.23671254394E+03  0.32852162402E+03  0.10400894270E+04  0.10100000352E+00 0.  1.
       -3    1    3    3    0  502  0.95803273438E+03  0.23671254394E+03 -0.10571446027E+04  0.14461722822E+04  0.10100000352E+00 0. -1.
</event>
<event>
 5   0  0.5196696E-06  0.2394058E+04  0.7818609E-02  0.8441731E-01
       -1   -1    0    0    0  501  0.00000000000E+00  0.00000000000E+00  0.71276573855E+03  0.71276573857E+03  0.50400001928E-02 0. -1.
        1   -1    0    0  501    0  0.00000000000E+00  0.00000000000E+00 -0.20103082850E+04  0.20103082850E+04  0.50400001928E-02 0.  1.
    10030    2    1    2    0    0  0.00000000000E+00  0.00000000000E+00 -0.12975425465E+04  0.27230740236E+04  0.23940583698E+04 0.  0.
        1    1    3    3  502    0  0.27269255907E+03  0.84640516258E+02 -0.19710080038E+04  0.19915817331E+04  0.50400001928E-02 0.  1.
       -1    1    3    3    0  502 -0.27269255907E+03 -0.84640516258E+02  0.67346545732E+03  0.73149229045E+03  0.50400001928E-02 0. -1.
</event>
<event>
 5   0  0.5196696E-06  0.2400761E+04  0.7818609E-02  0.8439219E-01
       -1   -1    0    0    0  501  0.00000000000E+00  0.00000000000E+00  0.93884573610E+03  0.93884573612E+03  0.50400001928E-02 0.  1.
        1   -1    0    0  501    0  0.00000000000E+00  0.00000000000E+00 -0.15347710541E+04  0.15347710541E+04  0.50400001928E-02 0. -1.
    10030    2    1    2    0    0  0.00000000000E+00  0.00000000000E+00 -0.59592531796E+03  0.24736167902E+04  0.24007609294E+04 0.  0.
        1    1    3    3  502    0  0.93278379101E+03 -0.66410771906E+03  0.73232047205E+02  0.11473829335E+04  0.50400001928E-02 0.  1.
       -1    1    3    3    0  502 -0.93278379101E+03  0.66410771906E+03 -0.66915736517E+03  0.13262338567E+04  0.50400001928E-02 0. -1.
</event>
<event>
 5   0  0.1169371E-05  0.2405035E+04  0.7818609E-02  0.8437621E-01
       -2   -1    0    0    0  501  0.00000000000E+00  0.00000000000E+00  0.73148297145E+03  0.73148297145E+03  0.25500000920E-02 0.  1.
        2   -1    0    0  501    0  0.00000000000E+00  0.00000000000E+00 -0.19768726814E+04  0.19768726814E+04  0.25500000920E-02 0. -1.
    10030    2    1    2    0    0  0.00000000000E+00  0.00000000000E+00 -0.12453897099E+04  0.27083556528E+04  0.24050353038E+04 0.  0.
        2    1    3    3  502    0  0.22216138640E+03  0.44322282915E+03  0.61103328446E+03  0.78686964143E+03  0.25500000920E-02 0.  1.
       -2    1    3    3    0  502 -0.22216138640E+03 -0.44322282915E+03 -0.18564229944E+04  0.19214860114E+04  0.25500000920E-02 0. -1.
</event>
<event>
 5   0  0.1154897E-05  0.2401415E+04  0.7818609E-02  0.8438974E-01
        2   -1    0    0  501    0  0.00000000000E+00  0.00000000000E+00  0.16445479649E+04  0.16445479649E+04  0.25500000920E-02 0. -1.
       -2   -1    0    0    0  501  0.00000000000E+00  0.00000000000E+00 -0.87665352432E+03  0.87665352432E+03  0.25500000920E-02 0.  1.
    10030    2    1    2    0    0  0.00000000000E+00  0.00000000000E+00  0.76789444055E+03  0.25212014892E+04  0.24014152238E+04 0.  0.
        4    1    3    3  502    0  0.10555007380E+04 -0.52545451486E+03  0.14566134417E+03  0.11880248714E+04  0.12699999809E+01 0.  1.
       -4    1    3    3    0  502 -0.10555007380E+04  0.52545451486E+03  0.62223309639E+03  0.13331766178E+04  0.12699999809E+01 0. -1.
</event>
<event>
 5   0  0.5042742E-06  0.2435378E+04  0.7818609E-02  0.8426376E-01
        1   -1    0    0  501    0  0.00000000000E+00  0.00000000000E+00  0.25002373049E+04  0.25002373049E+04  0.50400001928E-02 0.  1.
       -1   -1    0    0    0  501  0.00000000000E+00  0.00000000000E+00 -0.59305028539E+03  0.59305028541E+03  0.50400001928E-02 0. -1.
    10030    2    1    2    0    0  0.00000000000E+00  0.00000000000E+00  0.19071870195E+04  0.30932875903E+04  0.24353779561E+04 0.  0.
        5    1    3    3  502    0 -0.66085512727E+03 -0.27447050414E+03 -0.29779495792E+03  0.77509191961E+03  0.46999998093E+01 0. -1.
       -5    1    3    3    0  502  0.66085512727E+03  0.27447050414E+03  0.22049819774E+04  0.23181956707E+04  0.46999998093E+01 0.  1.
</event>
<event>
 5   0  0.1154897E-05  0.2400240E+04  0.7818609E-02  0.8439414E-01
       -2   -1    0    0    0  501  0.00000000000E+00  0.00000000000E+00  0.65452760648E+03  0.65452760649E+03  0.25500000920E-02 0.  1.
        2   -1    0    0  501    0  0.00000000000E+00  0.00000000000E+00 -0.22004996467E+04  0.22004996467E+04  0.25500000920E-02 0. -1.
    10030    2    1    2    0    0  0.00000000000E+00  0.00000000000E+00 -0.15459720402E+04  0.28550272531E+04  0.24002397937E+04 0.  0.
        4    1    3    3  502    0  0.10668159821E+04  0.54552386537E+03 -0.69236862893E+03  0.13838600213E+04  0.12699999809E+01 0. -1.
       -4    1    3    3    0  502 -0.10668159821E+04 -0.54552386537E+03 -0.85360341125E+03  0.14711672318E+04  0.12699999809E+01 0.  1.
</event>
<event>
 5   0  0.5042742E-06  0.2394759E+04  0.7818609E-02  0.8441468E-01
       -1   -1    0    0    0  501  0.00000000000E+00  0.00000000000E+00  0.65327211358E+03  0.65327211360E+03  0.50400001928E-02 0.  1.
        1   -1    0    0  501    0  0.00000000000E+00  0.00000000000E+00 -0.21946706745E+04  0.21946706745E+04  0.50400001928E-02 0. -1.
    10030    2    1    2    0    0  0.00000000000E+00  0.00000000000E+00 -0.15413985609E+04  0.28479427881E+04  0.23947585683E+04 0.  0.
        5    1    3    3  502    0 -0.13317916137E+03  0.34032934553E+03  0.58531303549E+03  0.69005376020E+03  0.46999998093E+01 0.  1.
       -5    1    3    3    0  502  0.13317916137E+03 -0.34032934553E+03 -0.21267115964E+04  0.21578890279E+04  0.46999998093E+01 0. -1.
</event>
<event>
 5   0  0.5034479E-06  0.2387792E+04  0.7818609E-02  0.8444088E-01
       -1   -1    0    0    0  501  0.00000000000E+00  0.00000000000E+00  0.95447152252E+03  0.95447152254E+03  0.50400001928E-02 0. -1.
        1   -1    0    0  501    0  0.00000000000E+00  0.00000000000E+00 -0.14933786215E+04  0.14933786215E+04  0.50400001928E-02 0.  1.
    10030    2    1    2    0    0  0.00000000000E+00  0.00000000000E+00 -0.53890709897E+03  0.24478501440E+04  0.23877917552E+04 0.  0.
        4    1    3    3  502    0 -0.25062866071E+02 -0.81014801194E+03 -0.11680963275E+04  0.14217660116E+04  0.12699999809E+01 0.  1.
       -4    1    3    3    0  502  0.25062866071E+02  0.81014801194E+03  0.62918922858E+03  0.10260841324E+04  0.12699999809E+01 0. -1.
</event>
<event>
 5   0  0.5196696E-06  0.2409185E+04  0.7818609E-02  0.8436073E-01
        1   -1    0    0  501    0  0.00000000000E+00  0.00000000000E+00  0.11774547613E+04  0.11774547613E+04  0.50400001928E-02 0. -1.
       -1   -1    0    0    0  501  0.00000000000E+00  0.00000000000E+00 -0.12323553429E+04  0.12323553429E+04  0.50400001928E-02 0.  1.
    10030    2    1    2    0    0  0.00000000000E+00  0.00000000000E+00 -0.54900581663E+02  0.24098101042E+04  0.24091846472E+04 0.  0.
        1    1    3    3  502    0  0.26150541901E+02  0.12011972409E+04  0.59082304609E+02  0.12029336562E+04  0.50400001928E-02 0.  1.
       -1    1    3    3    0  502 -0.26150541901E+02 -0.12011972409E+04 -0.11398288627E+03  0.12068764480E+04  0.50400001928E-02 0. -1.
</event>
<event>
 5   0  0.5196696E-06  0.2423624E+04  0.7818609E-02  0.8430712E-01
        1   -1    0    0  501    0  0.00000000000E+00  0.00000000000E+00  0.19299294353E+04  0.19299294353E+04  0.50400001928E-02 0. -1.
       -1   -1    0    0    0  501  0.00000000000E+00  0.00000000000E+00 -0.76090289148E+03  0.76090289150E+03  0.50400001928E-02 0.  1.
    10030    2    1    2    0    0  0.00000000000E+00  0.00000000000E+00  0.11690265438E+04  0.26908323268E+04  0.24236244657E+04 0.  0.
        1    1    3    3  502    0  0.52188301621E+03  0.96832709068E+03  0.20062480359E+02  0.11001916834E+04  0.50400001928E-02 0.  1.
       -1    1    3    3    0  502 -0.52188301621E+03 -0.96832709068E+03  0.11489640634E+04  0.15906406433E+04  0.50400001928E-02 0. -1.
</event>
<event>
 5   0  0.5196696E-06  0.2397717E+04  0.7818609E-02  0.8440359E-01
        1   -1    0    0  501    0  0.00000000000E+00  0.00000000000E+00  0.93410054255E+03  0.93410054256E+03  0.50400001928E-02 0.  1.
       -1   -1    0    0    0  501  0.00000000000E+00  0.00000000000E+00 -0.15386585215E+04  0.15386585215E+04  0.50400001928E-02 0. -1.
    10030    2    1    2    0    0  0.00000000000E+00  0.00000000000E+00 -0.60455797894E+03  0.24727590641E+04  0.23977170473E+04 0.  0.
        1    1    3    3  502    0 -0.95329987915E+03 -0.30428526064E+03 -0.98316296231E+03  0.14028469588E+04  0.50400001928E-02 0. -1.
       -1    1    3    3    0  502  0.95329987915E+03  0.30428526064E+03  0.37860498337E+03  0.10699121052E+04  0.50400001928E-02 0.  1.
</event>
<event>
 5   0  0.5064437E-06  0.2374694E+04  0.7818609E-02  0.8449039E-01
        1   -1    0    0  501    0  0.00000000000E+00  0.00000000000E+00  0.12128179568E+04  0.12128179568E+04  0.50400001928E-02 0.  1.
       -1   -1    0    0    0  501  0.00000000000E+00  0.00000000000E+00 -0.11624111466E+04  0.11624111466E+04  0.50400001928E-02 0. -1.
    10030    2    1    2    0    0  0.00000000000E+00  0.00000000000E+00  0.50406810197E+02  0.23752291033E+04  0.23746941796E+04 0.  0.
        2    1    3    3  502    0 -0.10921966569E+04 -0.44970393439E+03 -0.95926912536E+02  0.11850439395E+04  0.25500000920E-02 0.  1.
       -2    1    3    3    0  502  0.10921966569E+04  0.44970393439E+03  0.14633372273E+03  0.11901851639E+04  0.25500000920E-02 0. -1.
</event>
<event>
 5   0  0.5042742E-06  0.2405019E+04  0.7818609E-02  0.8437627E-01
       -1   -1    0    0    0  501  0.00000000000E+00  0.00000000000E+00  0.11254574719E+04  0.11254574719E+04  0.50400001928E-02 0. -1.
        1   -1    0    0  501    0  0.00000000000E+00  0.00000000000E+00 -0.12848362546E+04  0.12848362546E+04  0.50400001928E-02 0.  1.
    10030    2    1    2    0    0  0.00000000000E+00  0.00000000000E+00 -0.15937878270E+03  0.24102937264E+04  0.24050185553E+04 0.  0.
        5    1    3    3  502    0  0.98313635709E+03  0.23555661898E+03 -0.73224156157E+03  0.12482963638E+04  0.46999998093E+01 0. -1.
       -5    1    3    3    0  502 -0.98313635709E+03 -0.23555661898E+03  0.57286277888E+03  0.11619973626E+04  0.46999998093E+01 0.  1.
</event>
<event>
 5   0  0.1174210E-05  0.2401650E+04  0.7818609E-02  0.8438886E-01
       -2   -1    0    0    0  501  0.00000000000E+00  0.00000000000E+00  0.66793308634E+03  0.66793308634E+03  0.25500000920E-02 0.  1.
        2   -1    0    0  501    0  0.00000000000E+00  0.00000000000E+00 -0.21588706194E+04  0.21588706194E+04  0.25500000920E-02 0. -1.
    10030    2    1    2    0    0  0.00000000000E+00  0.00000000000E+00 -0.14909375330E+04  0.28268037057E+04  0.24016503624E+04 0.  0.
        3    1    3    3  502    0  0.67951235474E+03 -0.66009591647E+03 -0.16140126564E+04  0.18714968674E+04  0.10100000352E+00 0. -1.
       -3    1    3    3    0  502 -0.67951235474E+03  0.66009591647E+03  0.12307512341E+03  0.95530683835E+03  0.10100000352E+00 0.  1.
</event>
<event>
 5   0  0.5104174E-06  0.2406863E+04  0.7818609E-02  0.8436939E-01
       -1   -1    0    0    0  501  0.00000000000E+00  0.00000000000E+00  0.12119131060E+04  0.12119131060E+04  0.50400001928E-02 0. -1.
        1   -1    0    0  501    0  0.00000000000E+00  0.00000000000E+00 -0.11950088881E+04  0.11950088881E+04  0.50400001928E-02 0.  1.
    10030    2    1    2    0    0  0.00000000000E+00  0.00000000000E+00  0.16904217825E+02  0.24069219941E+04  0.24068626328E+04 0.  0.
        3    1    3    3  502    0 -0.21495874513E+03 -0.58203636269E+03 -0.10227247828E+04  0.11962188684E+04  0.10100000352E+00 0.  1.
       -3    1    3    3    0  502  0.21495874513E+03  0.58203636269E+03  0.10396290006E+04  0.12107031257E+04  0.10100000352E+00 0. -1.
</event>
<event>
 5   0  0.5064437E-06  0.2425104E+04  0.7818609E-02  0.8430164E-01
       -1   -1    0    0    0  501  0.00000000000E+00  0.00000000000E+00  0.13284390118E+04  0.13284390118E+04  0.50400001928E-02 0.  1.
        1   -1    0    0  501    0  0.00000000000E+00  0.00000000000E+00 -0.11067744875E+04  0.11067744875E+04  0.50400001928E-02 0. -1.
    10030    2    1    2    0    0  0.00000000000E+00  0.00000000000E+00  0.22166452431E+03  0.24352134994E+04  0.24251040444E+04 0.  0.
        2    1    3    3  502    0  0.51502984726E+03 -0.10203050446E+04  0.51749488384E+03  0.12546230838E+04  0.25500000920E-02 0.  1.
       -2    1    3    3    0  502 -0.51502984726E+03  0.10203050446E+04 -0.29583035953E+03  0.11805904155E+04  0.25500000920E-02 0. -1.
</event>
<event>
 5   0  0.1198313E-05  0.2356352E+04  0.7818609E-02  0.8456028E-01
        2   -1    0    0  501    0  0.00000000000E+00  0.00000000000E+00  0.14419022179E+04  0.14419022179E+04  0.25500000920E-02 0.  1.
       -2   -1    0    0    0  501  0.00000000000E+00  0.00000000000E+00 -0.96268564418E+03  0.96268564418E+03  0.25500000920E-02 0. -1.
    10030    2    1    2    0    0  0.00000000000E+00  0.00000000000E+00  0.47921657370E+03  0.24045878621E+04  0.23563518969E+04 0.  0.
        5    1    3    3  502    0  0.56483741935E+02  0.46172341995E+02  0.14395854795E+04  0.14414405091E+04  0.46999998093E+01 0.  1.
       -5    1    3    3    0  502 -0.56483741935E+02 -0.46172341995E+02 -0.96036890584E+03  0.96314735299E+03  0.46999998093E+01 0. -1.
</event>
<event>
 5   0  0.1174210E-05  0.2393823E+04  0.7818609E-02  0.8441820E-01
       -2   -1    0    0    0  501  0.00000000000E+00  0.00000000000E+00  0.72997250480E+03  0.72997250481E+03  0.25500000920E-02 0.  1.
        2   -1    0    0  501    0  0.00000000000E+00  0.00000000000E+00 -0.19625360197E+04  0.19625360197E+04  0.25500000920E-02 0. -1.
    10030    2    1    2    0    0  0.00000000000E+00  0.00000000000E+00 -0.12325635149E+04  0.26925085245E+04  0.23938231631E+04 0.  0.
        3    1    3    3  502    0  0.11252563198E+04  0.38326831166E+03 -0.45921192003E+03  0.12743515926E+04  0.10100000352E+00 0. -1.
       -3    1    3    3    0  502 -0.11252563198E+04 -0.38326831166E+03 -0.77335159487E+03  0.14181569319E+04  0.10100000352E+00 0.  1.
</event>
<event>
 5   0  0.5196696E-06  0.2407790E+04  0.7818609E-02  0.8436593E-01
       -1   -1    0    0    0  501  0.00000000000E+00  0.00000000000E+00  0.90697936398E+03  0.90697936399E+03  0.50400001928E-02 0.  1.
        1   -1    0    0  501    0  0.00000000000E+00  0.00000000000E+00 -0.15980112474E+04  0.15980112474E+04  0.50400001928E-02 0. -1.
    10030    2    1    2    0    0  0.00000000000E+00  0.00000000000E+00 -0.69103188343E+03  0.25049906114E+04  0.24077900447E+04 0.  0.
        1    1    3    3  502    0 -0.10284991108E+04 -0.16647996984E+03  0.28202353673E+03  0.10793809692E+04  0.50400001928E-02 0.  1.
       -1    1    3    3    0  502  0.10284991108E+04  0.16647996984E+03 -0.97305542017E+03  0.14256096422E+04  0.50400001928E-02 0. -1.
</event>
<event>
 5   0  0.1154897E-05  0.2328882E+04  0.7818609E-02  0.8466620E-01
        2   -1    0    0  501    0  0.00000000000E+00  0.00000000000E+00  0.17164570468E+04  0.17164570468E+04  0.25500000920E-02 0. -1.
       -2   -1    0    0    0  501  0.00000000000E+00  0.00000000000E+00 -0.78995421672E+03  0.78995421672E+03  0.25500000920E-02 0.  1.
    10030    2    1    2    0    0  0.00000000000E+00  0.00000000000E+00  0.92650283005E+03  0.25064112635E+04  0.23288816904E+04 0.  0.
        4    1    3    3  502    0 -0.33836690214E+03  0.24291339033E+03 -0.70703218737E+03  0.82060660645E+03  0.12699999809E+01 0.  1.
       -4    1    3    3    0  502  0.33836690214E+03 -0.24291339033E+03  0.16335350174E+04  0.16858046570E+04  0.12699999809E+01 0. -1.
</event>
<event>
 5   0  0.1168435E-05  0.2418487E+04  0.7818609E-02  0.8432615E-01
       -2   -1    0    0    0  501  0.00000000000E+00  0.00000000000E+00  0.66332496338E+03  0.66332496338E+03  0.25500000920E-02 0.  1.
        2   -1    0    0  501    0  0.00000000000E+00  0.00000000000E+00 -0.22044547541E+04  0.22044547541E+04  0.25500000920E-02 0. -1.
    10030    2    1    2    0    0  0.00000000000E+00  0.00000000000E+00 -0.15411297907E+04  0.28677797175E+04  0.24184870221E+04 0.  0.
        1    1    3    3  502    0  0.61958345185E+03 -0.72469401459E+03 -0.16525169932E+04  0.19078462940E+04  0.50400001928E-02 0. -1.
       -1    1    3    3    0  502 -0.61958345185E+03  0.72469401459E+03  0.11138720253E+03  0.95993342347E+03  0.50400001928E-02 0.  1.
</event>
<event>
 5   0  0.1174210E-05  0.2404985E+04  0.7818609E-02  0.8437639E-01
        2   -1    0    0  501    0  0.00000000000E+00  0.00000000000E+00  0.20217693670E+04  0.20217693670E+04  0.25500000920E-02 0. -1.
       -2   -1    0    0    0  501  0.00000000000E+00  0.00000000000E+00 -0.71520953254E+03  0.71520953255E+03  0.25500000920E-02 0.  1.
    10030    2    1    2    0    0  0.00000000000E+00  0.00000000000E+00  0.13065598344E+04  0.27369788995E+04  0.24049854252E+04 0.  0.
        3    1    3    3  502    0 -0.19732052976E+03  0.52624061913E+03  0.18631035812E+04  0.19460266045E+04  0.10100000352E+00 0. -1.
       -3    1    3    3    0  502  0.19732052976E+03 -0.52624061913E+03 -0.55654374683E+03  0.79095229503E+03  0.10100000352E+00 0.  1.
</event>
<event>
 5   0  0.5042742E-06  0.2403683E+04  0.7818609E-02  0.8438126E-01
        1   -1    0    0  501    0  0.00000000000E+00  0.00000000000E+00  0.12315361692E+04  0.12315361692E+04  0.50400001928E-02 0. -1.
       -1   -1    0    0    0  501  0.00000000000E+00  0.00000000000E+00 -0.11728624497E+04  0.11728624497E+04  0.50400001928E-02 0.  1.
    10030    2    1    2    0    0  0.00000000000E+00  0.00000000000E+00  0.58673719486E+02  0.24043986189E+04  0.24036826149E+04 0.  0.
        5    1    3    3  502    0  0.41339790454E+03  0.28014667094E+03 -0.10641586821E+04  0.11755151107E+04  0.46999998093E+01 0.  1.
       -5    1    3    3    0  502 -0.41339790454E+03 -0.28014667094E+03  0.11228324016E+04  0.12288835082E+04  0.46999998093E+01 0. -1.
</event>
<event>
 5   0  0.5064437E-06  0.2400762E+04  0.7818609E-02  0.8439218E-01
       -1   -1    0    0    0  501  0.00000000000E+00  0.00000000000E+00  0.77242360218E+03  0.77242360220E+03  0.50400001928E-02 0. -1.
        1   -1    0    0  501    0  0.00000000000E+00  0.00000000000E+00 -0.18654453936E+04  0.18654453936E+04  0.50400001928E-02 0.  1.
    10030    2    1    2    0    0  0.00000000000E+00  0.00000000000E+00 -0.10930217915E+04  0.26378689958E+04  0.24007615880E+04 0.  0.
        2    1    3    3  502    0  0.43672179470E+03 -0.90287016640E+03 -0.12712064559E+04  0.16192178102E+04  0.25500000920E-02 0.  1.
       -2    1    3    3    0  502 -0.43672179470E+03  0.90287016640E+03  0.17818466445E+03  0.10186511856E+04  0.25500000920E-02 0. -1.
</event>
<event>
 5   0  0.5104174E-06  0.2405963E+04  0.7818609E-02  0.8437274E-01
        1   -1    0    0  501    0  0.00000000000E+00  0.00000000000E+00  0.89947630046E+03  0.89947630048E+03  0.50400001928E-02 0. -1.
       -1   -1    0    0    0  501  0.00000000000E+00  0.00000000000E+00 -0.16088973760E+04  0.16088973760E+04  0.50400001928E-02 0.  1.
    10030    2    1    2    0    0  0.00000000000E+00  0.00000000000E+00 -0.70942107556E+03  0.25083736765E+04  0.24059634741E+04 0.  0.
        3    1    3    3  502    0 -0.31481198959E+03 -0.84878617308E+03 -0.11806567437E+04  0.14877818768E+04  0.10100000352E+00 0.  1.
       -3    1    3    3    0  502  0.31481198959E+03  0.84878617308E+03  0.47123566815E+03  0.10205917997E+04  0.10100000352E+00 0. -1.
</event>
<event>
 5   0  0.1169371E-05  0.2435723E+04  0.7818609E-02  0.8426249E-01
        2   -1    0    0  501    0  0.00000000000E+00  0.00000000000E+00  0.98236104343E+03  0.98236104344E+03  0.25500000920E-02 0.  1.
       -2   -1    0    0    0  501  0.00000000000E+00  0.00000000000E+00 -0.15098188674E+04  0.15098188674E+04  0.25500000920E-02 0. -1.
    10030    2    1    2    0    0  0.00000000000E+00  0.00000000000E+00 -0.52745782401E+03  0.24921799109E+04  0.24357234966E+04 0.  0.
        2    1    3    3  502    0  0.90319557547E+03  0.81627228713E+03 -0.29804040213E+03  0.12533518164E+04  0.25500000920E-02 0.  1.
       -2    1    3    3    0  502 -0.90319557547E+03 -0.81627228713E+03 -0.22941742188E+03  0.12388280945E+04  0.25500000920E-02 0. -1.
</event>
<event>
 5   0  0.1154897E-05  0.2410348E+04  0.7818609E-02  0.8435640E-01
       -2   -1    0    0    0  501  0.00000000000E+00  0.00000000000E+00  0.60325918068E+03  0.60325918068E+03  0.25500000920E-02 0.  1.
        2   -1    0    0  501    0  0.00000000000E+00  0.00000000000E+00 -0.24076620200E+04  0.24076620200E+04  0.25500000920E-02 0. -1.
    10030    2    1    2    0    0  0.00000000000E+00  0.00000000000E+00 -0.18044028393E+04  0.30109212007E+04  0.24103478733E+04 0.  0.
        4    1    3    3  502    0 -0.42860931212E+03 -0.39768607007E+03 -0.22186232225E+04  0.22943737204E+04  0.12699999809E+01 0. -1.
       -4    1    3    3    0  502  0.42860931212E+03  0.39768607007E+03  0.41422038315E+03  0.71654748027E+03  0.12699999809E+01 0.  1.
</event>
<event>
 5   0  0.5064437E-06  0.2399285E+04  0.7818609E-02  0.8439771E-01
       -1   -1    0    0    0  501  0.00000000000E+00  0.00000000000E+00  0.10036814491E+04  0.10036814492E+04  0.50400001928E-02 0.  1.
        1   -1    0    0  501    0  0.00000000000E+00  0.00000000000E+00 -0.14338631349E+04  0.14338631349E+04  0.50400001928E-02 0. -1.
    10030    2    1    2    0    0  0.00000000000E+00  0.00000000000E+00 -0.43018168577E+03  0.24375445841E+04  0.23992847511E+04 0.  0.
        2    1    3    3  502    0 -0.38057113956E+03  0.96831428589E+03  0.39165531709E+03  0.11116927795E+04  0.25500000920E-02 0.  1.
       -2    1    3    3    0  502  0.38057113956E+03 -0.96831428589E+03 -0.82183700286E+03  0.13258518046E+04  0.25500000920E-02 0. -1.
</event>
<event>
 5   0  0.5042742E-06  0.2471158E+04  0.7818609E-02  0.8413333E-01
       -1   -1    0    0    0  501  0.00000000000E+00  0.00000000000E+00  0.11249744433E+04  0.11249744433E+04  0.50400001928E-02 0.  1.
        1   -1    0    0  501    0  0.00000000000E+00  0.00000000000E+00 -0.13570582679E+04  0.13570582679E+04  0.50400001928E-02 0. -1.
    10030    2    1    2    0    0  0.00000000000E+00  0.00000000000E+00 -0.23208382462E+03  0.24820327112E+04  0.24711583272E+04 0.  0.
        5    1    3    3  502    0 -0.10689942619E+04  0.61435370123E+03 -0.35347988608E+02  0.12334710262E+04  0.46999998093E+01 0.  1.
       -5    1    3    3    0  502  0.10689942619E+04 -0.61435370123E+03 -0.19673583602E+03  0.12485616850E+04  0.46999998093E+01 0. -1.
</event>
<event>
 5   0  0.5064437E-06  0.2395127E+04  0.7818609E-02  0.8441330E-01
        1   -1    0    0  501    0  0.00000000000E+00  0.00000000000E+00  0.73460314031E+03  0.73460314032E+03  0.50400001928E-02 0. -1.
       -1   -1    0    0    0  501  0.00000000000E+00  0.00000000000E+00 -0.19522907070E+04  0.19522907070E+04  0.50400001928E-02 0.  1.
    10030    2    1    2    0    0  0.00000000000E+00  0.00000000000E+00 -0.12176875667E+04  0.26868938473E+04  0.23951274573E+04 0.  0.
        2    1    3    3  502    0 -0.13603143678E+03 -0.43170657748E+03 -0.18526363360E+04  0.19071278180E+04  0.25500000920E-02 0.  1.
       -2    1    3    3    0  502  0.13603143678E+03  0.43170657748E+03  0.63494876929E+03  0.77976602931E+03  0.25500000920E-02 0. -1.
</event>
<event>
 5   0  0.1169371E-05  0.2388505E+04  0.7818609E-02  0.8443820E-01
       -2   -1    0    0    0  501  0.00000000000E+00  0.00000000000E+00  0.11003751382E+04  0.11003751382E+04  0.25500000920E-02 0.  1.
        2   -1    0    0  501    0  0.00000000000E+00  0.00000000000E+00 -0.12961386506E+04  0.12961386506E+04  0.25500000920E-02 0. -1.
    10030    2    1    2    0    0  0.00000000000E+00  0.00000000000E+00 -0.19576351243E+03  0.23965137888E+04  0.23885047597E+04 0.  0.
        2    1    3    3  502    0 -0.17946836861E+03  0.90108017832E+03 -0.86338456337E+03  0.12607883595E+04  0.25500000920E-02 0. -1.
       -2    1    3    3    0  502  0.17946836861E+03 -0.90108017832E+03  0.66762105094E+03  0.11357254293E+04  0.25500000920E-02 0.  1.
</event>
<event>
 5   0  0.1174210E-05  0.2383847E+04  0.7818609E-02  0.8445576E-01
       -2   -1    0    0    0  501  0.00000000000E+00  0.00000000000E+00  0.10528918697E+04  0.10528918697E+04  0.25500000920E-02 0. -1.
        2   -1    0    0  501    0  0.00000000000E+00  0.00000000000E+00 -0.13493141203E+04  0.13493141203E+04  0.25500000920E-02 0.  1.
    10030    2    1    2    0    0  0.00000000000E+00  0.00000000000E+00 -0.29642225063E+03  0.24022059901E+04  0.23838471990E+04 0.  0.
        3    1    3    3  502    0 -0.25310073296E+03 -0.11199932807E+04  0.17399643353E+03  0.11613439193E+04  0.10100000352E+00 0. -1.
       -3    1    3    3    0  502  0.25310073296E+03  0.11199932807E+04 -0.47041868416E+03  0.12408620707E+04  0.10100000352E+00 0.  1.
</event>
<event>
 5   0  0.1169371E-05  0.2399308E+04  0.7818609E-02  0.8439763E-01
        2   -1    0    0  501    0  0.00000000000E+00  0.00000000000E+00  0.16460182989E+04  0.16460182989E+04  0.25500000920E-02 0. -1.
       -2   -1    0    0    0  501  0.00000000000E+00  0.00000000000E+00 -0.87433367107E+03  0.87433367108E+03  0.25500000920E-02 0.  1.
    10030    2    1    2    0    0  0.00000000000E+00  0.00000000000E+00  0.77168462781E+03  0.25203519700E+04  0.23993075850E+04 0.  0.
        2    1    3    3  502    0  0.76067006854E+03 -0.48425258156E+02 -0.58728767087E+03  0.96222178689E+03  0.25500000920E-02 0.  1.
       -2    1    3    3    0  502 -0.76067006854E+03  0.48425258156E+02  0.13589722987E+04  0.15581301831E+04  0.25500000920E-02 0. -1.
</event>
<event>
 5   0  0.5104174E-06  0.2390283E+04  0.7818609E-02  0.8443151E-01
        1   -1    0    0  501    0  0.00000000000E+00  0.00000000000E+00  0.22062689218E+04  0.22062689218E+04  0.50400001928E-02 0.  1.
       -1   -1    0    0    0  501  0.00000000000E+00  0.00000000000E+00 -0.64741103572E+03  0.64741103574E+03  0.50400001928E-02 0. -1.
    10030    2    1    2    0    0  0.00000000000E+00  0.00000000000E+00  0.15588578860E+04  0.28536799575E+04  0.23902827011E+04 0.  0.
        3    1    3    3  502    0  0.50581281048E+03  0.10185669343E+04  0.12181448830E+04  0.16664939739E+04  0.10100000352E+00 0.  1.
       -3    1    3    3    0  502 -0.50581281048E+03 -0.10185669343E+04  0.34071300304E+03  0.11871859836E+04  0.10100000352E+00 0. -1.
</event>
<event>
 5   0  0.5042742E-06  0.2404460E+04  0.7818609E-02  0.8437836E-01
        1   -1    0    0  501    0  0.00000000000E+00  0.00000000000E+00  0.10890196921E+04  0.10890196921E+04  0.50400001928E-02 0.  1.
       -1   -1    0    0    0  501  0.00000000000E+00  0.00000000000E+00 -0.13272092851E+04  0.13272092851E+04  0.50400001928E-02 0. -1.
    10030    2    1    2    0    0  0.00000000000E+00  0.00000000000E+00 -0.23818959293E+03  0.24162289772E+04  0.24044600617E+04 0.  0.
        5    1    3    3  502    0 -0.50506275423E+03 -0.85670641300E+03 -0.79790144119E+03  0.12750306128E+04  0.46999998093E+01 0. -1.
       -5    1    3    3    0  502  0.50506275423E+03  0.85670641300E+03  0.55971184827E+03  0.11411983644E+04  0.46999998093E+01 0.  1.
</event>
<event>
 5   0  0.1198313E-05  0.2390618E+04  0.7818609E-02  0.8443024E-01
        2   -1    0    0  501    0  0.00000000000E+00  0.00000000000E+00  0.14924345960E+04  0.14924345960E+04  0.25500000920E-02 0.  1.
       -2   -1    0    0    0  501  0.00000000000E+00  0.00000000000E+00 -0.95733756065E+03  0.95733756065E+03  0.25500000920E-02 0. -1.
    10030    2    1    2    0    0  0.00000000000E+00  0.00000000000E+00  0.53509703535E+03  0.24497721566E+04  0.23906180754E+04 0.  0.
        5    1    3    3  502    0  0.67940445099E+03  0.91858092832E+03  0.62746618131E+03  0.13035019097E+04  0.46999998093E+01 0.  1.
       -5    1    3    3    0  502 -0.67940445099E+03 -0.91858092832E+03 -0.92369145966E+02  0.11462702469E+04  0.46999998093E+01 0. -1.
</event>
<event>
 5   0  0.5042742E-06  0.2395273E+04  0.7818609E-02  0.8441275E-01
       -1   -1    0    0    0  501  0.00000000000E+00  0.00000000000E+00  0.75032942954E+03  0.75032942956E+03  0.50400001928E-02 0. -1.
        1   -1    0    0  501    0  0.00000000000E+00  0.00000000000E+00 -0.19116050148E+04  0.19116050148E+04  0.50400001928E-02 0.  1.
    10030    2    1    2    0    0  0.00000000000E+00  0.00000000000E+00 -0.11612755853E+04  0.26619344444E+04  0.23952732623E+04 0.  0.
        5    1    3    3  502    0  0.12656472163E+03 -0.69245877315E+02 -0.19019025656E+04  0.19073722970E+04  0.46999998093E+01 0.  1.
       -5    1    3    3    0  502 -0.12656472163E+03  0.69245877315E+02  0.74062698033E+03  0.75456214739E+03  0.46999998093E+01 0. -1.
</event>
<event>
 5   0  0.5064437E-06  0.2394002E+04  0.7818609E-02  0.8441752E-01
       -1   -1    0    0    0  501  0.00000000000E+00  0.00000000000E+00  0.99452769933E+03  0.99452769934E+03  0.50400001928E-02 0. -1.
        1   -1    0    0  501    0  0.00000000000E+00  0.00000000000E+00 -0.14406954112E+04  0.14406954112E+04  0.50400001928E-02 0.  1.
    10030    2    1    2    0    0  0.00000000000E+00  0.00000000000E+00 -0.44616771187E+03  0.24352231106E+04  0.23940020825E+04 0.  0.
        2    1    3    3  502    0  0.44623063269E+03  0.78843734077E+03  0.57272709330E+03  0.10718076046E+04  0.25500000920E-02 0. -1.
       -2    1    3    3    0  502 -0.44623063269E+03 -0.78843734077E+03 -0.10188948052E+04  0.13634155060E+04  0.25500000920E-02 0.  1.
</event>
<event>
 5   0  0.1198313E-05  0.2395117E+04  0.7818609E-02  0.8441334E-01
       -2   -1    0    0    0  501  0.00000000000E+00  0.00000000000E+00  0.10613445928E+04  0.10613445928E+04  0.25500000920E-02 0.  1.
        2   -1    0    0  501    0  0.00000000000E+00  0.00000000000E+00 -0.13512538589E+04  0.13512538589E+04  0.25500000920E-02 0. -1.
    10030    2    1    2    0    0  0.00000000000E+00  0.00000000000E+00 -0.28990926610E+03  0.24125984517E+04  0.23951166791E+04 0.  0.
        5    1    3    3  502    0  0.15066444906E+01  0.39130136369E+03  0.99512124868E+03  0.10693023037E+04  0.46999998093E+01 0.  1.
       -5    1    3    3    0  502 -0.15066444906E+01 -0.39130136369E+03 -0.12850305148E+04  0.13432961480E+04  0.46999998093E+01 0. -1.
</event>
<event>
 5   0  0.5196696E-06  0.2401808E+04  0.7818609E-02  0.8438827E-01
       -1   -1    0    0    0  501  0.00000000000E+00  0.00000000000E+00  0.70541439921E+03  0.70541439923E+03  0.50400001928E-02 0.  1.
        1   -1    0    0  501    0  0.00000000000E+00  0.00000000000E+00 -0.20444305314E+04  0.20444305314E+04  0.50400001928E-02 0. -1.
    10030    2    1    2    0    0  0.00000000000E+00  0.00000000000E+00 -0.13390161322E+04  0.27498449307E+04  0.24018082647E+04 0.  0.
        1    1    3    3  502    0  0.66983146164E+01  0.36156482377E+03  0.64159526165E+03  0.73649064421E+03  0.50400001928E-02 0.  1.
       -1    1    3    3    0  502 -0.66983146164E+01 -0.36156482377E+03 -0.19806113939E+04  0.20133542864E+04  0.50400001928E-02 0. -1.
</event>
<event>
 5   0  0.1174210E-05  0.2403349E+04  0.7818609E-02  0.8438251E-01
       -2   -1    0    0    0  501  0.00000000000E+00  0.00000000000E+00  0.74849497031E+03  0.74849497032E+03  0.25500000920E-02 0.  1.
        2   -1    0    0  501    0  0.00000000000E+00  0.00000000000E+00 -0.19292335216E+04  0.19292335216E+04  0.25500000920E-02 0. -1.
    10030    2    1    2    0    0  0.00000000000E+00  0.00000000000E+00 -0.11807385513E+04  0.26777284919E+04  0.24033489863E+04 0.  0.
        3    1    3    3  502    0 -0.36561792917E+02 -0.78304101006E+03 -0.16051358782E+04  0.17863233710E+04  0.10100000352E+00 0. -1.
       -3    1    3    3    0  502  0.36561792917E+02  0.78304101006E+03  0.42439732697E+03  0.89140512085E+03  0.10100000352E+00 0.  1.
</event>
<event>
 5   0  0.1168435E-05  0.2401243E+04  0.7818609E-02  0.8439038E-01
        2   -1    0    0  501    0  0.00000000000E+00  0.00000000000E+00  0.24106245836E+04  0.24106245836E+04  0.25500000920E-02 0.  1.
       -2   -1    0    0    0  501  0.00000000000E+00  0.00000000000E+00 -0.59797451198E+03  0.59797451198E+03  0.25500000920E-02 0. -1.
    10030    2    1    2    0    0  0.00000000000E+00  0.00000000000E+00  0.18126500716E+04  0.30085990955E+04  0.24012430605E+04 0.  0.
        1    1    3    3  502    0  0.56343419286E+03  0.29487216568E+03 -0.36962962729E+03  0.73554996103E+03  0.50400001928E-02 0. -1.
       -1    1    3    3    0  502 -0.56343419286E+03 -0.29487216568E+03  0.21822796989E+04  0.22730491345E+04  0.50400001928E-02 0.  1.
</event>
<event>
 5   0  0.1174210E-05  0.2389936E+04  0.7818609E-02  0.8443281E-01
        2   -1    0    0  501    0  0.00000000000E+00  0.00000000000E+00  0.11823592234E+04  0.11823592234E+04  0.25500000920E-02 0.  1.
       -2   -1    0    0    0  501  0.00000000000E+00  0.00000000000E+00 -0.12077114658E+04  0.12077114658E+04  0.25500000920E-02 0. -1.
    10030    2    1    2    0    0  0.00000000000E+00  0.00000000000E+00 -0.25352242367E+02  0.23900706892E+04  0.23899362258E+04 0.  0.
        3    1    3    3  502    0 -0.56315579804E+03 -0.55004994095E+03  0.88640137313E+03  0.11854985428E+04  0.10100000352E+00 0.  1.
       -3    1    3    3    0  502  0.56315579804E+03  0.55004994095E+03 -0.91175361550E+03  0.12045721464E+04  0.10100000352E+00 0. -1.
</event>
<event>
 5   0  0.5064437E-06  0.2392949E+04  0.7818609E-02  0.8442148E-01
       -1   -1    0    0    0  501  0.00000000000E+00  0.00000000000E+00  0.92877966275E+03  0.92877966276E+03  0.50400001928E-02 0. -1.
        1   -1    0    0  501    0  0.00000000000E+00  0.00000000000E+00 -0.15413252145E+04  0.15413252145E+04  0.50400001928E-02 0.  1.
    10030    2    1    2    0    0  0.00000000000E+00  0.00000000000E+00 -0.61254555176E+03  0.24701048773E+04  0.23929492372E+04 0.  0.
        2    1    3    3  502    0 -0.32162280201E+03  0.57730143331E+03  0.72330005455E+03  0.97973524005E+03  0.25500000920E-02 0. -1.
       -2    1    3    3    0  502  0.32162280201E+03 -0.57730143331E+03 -0.13358456063E+04  0.14903696372E+04  0.25500000920E-02 0.  1.
</event>
<event>
 5   0  0.1154897E-05  0.2393586E+04  0.7818609E-02  0.8441909E-01
        2   -1    0    0  501    0  0.00000000000E+00  0.00000000000E+00  0.23639978665E+04  0.23639978665E+04  0.25500000920E-02 0. -1.
       -2   -1    0    0    0  501  0.00000000000E+00  0.00000000000E+00 -0.60588627258E+03  0.60588627259E+03  0.25500000920E-02 0.  1.
    10030    2    1    2    0    0  0.00000000000E+00  0.00000000000E+00  0.17581115939E+04  0.29698841391E+04  0.23935863099E+04 0.  0.
        4    1    3    3  502    0  0.27828212483E+03 -0.82613457800E+03  0.18964647027E+04  0.20872276501E+04  0.12699999809E+01 0. -1.
       -4    1    3    3    0  502 -0.27828212483E+03  0.82613457800E+03 -0.13835310874E+03  0.88265648900E+03  0.12699999809E+01 0.  1.
</event>
<event>
 5   0  0.5042742E-06  0.2412693E+04  0.7818609E-02  0.8434767E-01
        1   -1    0    0  501    0  0.00000000000E+00  0.00000000000E+00  0.17943386263E+04  0.17943386264E+04  0.50400001928E-02 0.  1.
       -1   -1    0    0    0  501  0.00000000000E+00  0.00000000000E+00 -0.81103532050E+03  0.81103532052E+03  0.50400001928E-02 0. -1.
    10030    2    1    2    0    0  0.00000000000E+00  0.00000000000E+00  0.98330330585E+03  0.26053739469E+04  0.24126931035E+04 0.  0.
        5    1    3    3  502    0 -0.10330476072E+04  0.52336750534E+03  0.85649300378E+03  0.14403830254E+04  0.46999998093E+01 0.  1.
       -5    1    3    3    0  502  0.10330476072E+04 -0.52336750534E+03  0.12681030206E+03  0.11649909215E+04  0.46999998093E+01 0. -1.
</event>
<event>
 5   0  0.4067750E-06  0.2378346E+04  0.7818609E-02  0.8447655E-01
       -4   -1    0    0    0  501  0.00000000000E+00  0.00000000000E+00  0.90066490637E+03  0.90066580177E+03  0.12699999809E+01 0. -1.
        4   -1    0    0  501    0  0.00000000000E+00  0.00000000000E+00 -0.15700959469E+04  0.15700964606E+04  0.12699999809E+01 0.  1.
    10030    2    1    2    0    0  0.00000000000E+00  0.00000000000E+00 -0.66943104058E+03  0.24707622623E+04  0.23783456937E+04 0.  0.
        3    1    3    3  502    0  0.92184868110E+03 -0.61618489095E+02 -0.11124932357E+04  0.14461130795E+04  0.10100000352E+00 0.  1.
       -3    1    3    3    0  502 -0.92184868110E+03  0.61618489095E+02  0.44306219509E+03  0.10246491829E+04  0.10100000352E+00 0. -1.
</event>
<event>
 5   0  0.4067750E-06  0.2424436E+04  0.7818609E-02  0.8430412E-01
       -3   -1    0    0    0  501  0.00000000000E+00  0.00000000000E+00  0.13150532684E+04  0.13150532723E+04  0.10100000352E+00 0.  1.
        3   -1    0    0  501    0  0.00000000000E+00  0.00000000000E+00 -0.11174238920E+04  0.11174238965E+04  0.10100000352E+00 0. -1.
    10030    2    1    2    0    0  0.00000000000E+00  0.00000000000E+00  0.19762937644E+03  0.24324771688E+04  0.24244355645E+04 0.  0.
        5    1    3    3  502    0  0.68531398986E+03 -0.30859378364E+03 -0.85542591078E+03  0.11387102207E+04  0.46999998093E+01 0. -1.
       -5    1    3    3    0  502 -0.68531398986E+03  0.30859378364E+03  0.10530552872E+04  0.12937669481E+04  0.46999998093E+01 0.  1.
</event>
<event>
 5   0  0.5064437E-06  0.2394313E+04  0.7818609E-02  0.8441636E-01
        1   -1    0    0  501    0  0.00000000000E+00  0.00000000000E+00  0.13672163614E+04  0.13672163614E+04  0.50400001928E-02 0. -1.
       -1   -1    0    0    0  501  0.00000000000E+00  0.00000000000E+00 -0.10482494197E+04  0.10482494197E+04  0.50400001928E-02 0.  1.
    10030    2    1    2    0    0  0.00000000000E+00  0.00000000000E+00  0.31896694171E+03  0.24154657812E+04  0.23943130602E+04 0.  0.
        2    1    3    3  502    0  0.53393689305E+03 -0.10693273622E+04  0.22815942817E+03  0.12168016840E+04  0.25500000920E-02 0.  1.
       -2    1    3    3    0  502 -0.53393689305E+03  0.10693273622E+04  0.90807513548E+02  0.11986640972E+04  0.25500000920E-02 0. -1.
</event>
<event>
 5   0  0.5104174E-06  0.2428425E+04  0.7818609E-02  0.8428938E-01
       -1   -1    0    0    0  501  0.00000000000E+00  0.00000000000E+00  0.88226288011E+03  0.88226288012E+03  0.50400001928E-02 0. -1.
        1   -1    0    0  501    0  0.00000000000E+00  0.00000000000E+00 -0.16710579011E+04  0.16710579011E+04  0.50400001928E-02 0.  1.
    10030    2    1    2    0    0  0.00000000000E+00  0.00000000000E+00 -0.78879502096E+03  0.25533207812E+04  0.24284252977E+04 0.  0.
        3    1    3    3  502    0 -0.14417826598E+03 -0.93813762725E+03  0.40179501707E+03  0.10306933715E+04  0.10100000352E+00 0. -1.
       -3    1    3    3    0  502  0.14417826598E+03  0.93813762725E+03 -0.11905900380E+04  0.15226274097E+04  0.10100000352E+00 0.  1.
</event>
<event>
 5   0  0.5042742E-06  0.2402052E+04  0.7818609E-02  0.8438736E-01
        1   -1    0    0  501    0  0.00000000000E+00  0.00000000000E+00  0.96115061301E+03  0.96115061302E+03  0.50400001928E-02 0.  1.
       -1   -1    0    0    0  501  0.00000000000E+00  0.00000000000E+00 -0.15007676641E+04  0.15007676641E+04  0.50400001928E-02 0. -1.
    10030    2    1    2    0    0  0.00000000000E+00  0.00000000000E+00 -0.53961705111E+03  0.24619182771E+04  0.24020522562E+04 0.  0.
        5    1    3    3  502    0 -0.70035850203E+03  0.38238729404E+03  0.65018155469E+03  0.10293105547E+04  0.46999998093E+01 0.  1.
       -5    1    3    3    0  502  0.70035850203E+03 -0.38238729404E+03 -0.11897986058E+04  0.14326077224E+04  0.46999998093E+01 0. -1.
</event>
<event>
 5   0  0.1198313E-05  0.2398318E+04  0.7818609E-02  0.8440133E-01
        2   -1    0    0  501    0  0.00000000000E+00  0.00000000000E+00  0.12597090647E+04  0.12597090647E+04  0.25500000920E-02 0. -1.
       -2   -1    0    0    0  501  0.00000000000E+00  0.00000000000E+00 -0.11415195227E+04  0.11415195228E+04  0.25500000920E-02 0.  1.
    10030    2    1    2    0    0  0.00000000000E+00  0.00000000000E+00  0.11818954191E+03  0.24012285874E+04  0.23983181526E+04 0.  0.
        5    1    3    3  502    0 -0.75511479676E+03  0.71859691412E+03 -0.53439816009E+03  0.11714023070E+04  0.46999998093E+01 0.  1.
       -5    1    3    3    0  502  0.75511479676E+03 -0.71859691412E+03  0.65258770200E+03  0.12298262804E+04  0.46999998093E+01 0. -1.
</event>
<event>
 5   0  0.5196696E-06  0.2400383E+04  0.7818609E-02  0.8439360E-01
       -1   -1    0    0    0  501  0.00000000000E+00  0.00000000000E+00  0.85795043996E+03  0.85795043998E+03  0.50400001928E-02 0. -1.
        1   -1    0    0  501    0  0.00000000000E+00  0.00000000000E+00 -0.16789541944E+04  0.16789541944E+04  0.50400001928E-02 0.  1.
    10030    2    1    2    0    0  0.00000000000E+00  0.00000000000E+00 -0.82100375443E+03  0.25369046344E+04  0.24003828776E+04 0.  0.
        1    1    3    3  502    0 -0.20859182146E+03  0.11666039307E+04 -0.61098582760E+03  0.13333337770E+04  0.50400001928E-02 0.  1.
       -1    1    3    3    0  502  0.20859182146E+03 -0.11666039307E+04 -0.21001792683E+03  0.12035708574E+04  0.50400001928E-02 0. -1.
</event>
<event>
 5   0  0.5042742E-06  0.2355224E+04  0.7818609E-02  0.8456460E-01
        1   -1    0    0  501    0  0.00000000000E+00  0.00000000000E+00  0.15729901051E+04  0.15729901051E+04  0.50400001928E-02 0. -1.
       -1   -1    0    0    0  501  0.00000000000E+00  0.00000000000E+00 -0.88161383815E+03  0.88161383816E+03  0.50400001928E-02 0.  1.
    10030    2    1    2    0    0  0.00000000000E+00  0.00000000000E+00  0.69137626696E+03  0.24546039433E+04  0.23552238484E+04 0.  0.
        5    1    3    3  502    0  0.90351061616E+03 -0.18813051866E+02 -0.44119535389E+03  0.10056643549E+04  0.46999998093E+01 0.  1.
       -5    1    3    3    0  502 -0.90351061616E+03  0.18813051866E+02  0.11325716209E+04  0.14489395884E+04  0.46999998093E+01 0. -1.
</event>
<event>
 5   0  0.5034479E-06  0.2396988E+04  0.7818609E-02  0.8440632E-01
        1   -1    0    0  501    0  0.00000000000E+00  0.00000000000E+00  0.93992792696E+03  0.93992792697E+03  0.50400001928E-02 0.  1.
       -1   -1    0    0    0  501  0.00000000000E+00  0.00000000000E+00 -0.15281892712E+04  0.15281892712E+04  0.50400001928E-02 0. -1.
    10030    2    1    2    0    0  0.00000000000E+00  0.00000000000E+00 -0.58826134423E+03  0.24681171982E+04  0.23969879213E+04 0.  0.
        4    1    3    3  502    0 -0.23738120034E+03  0.97483942403E+03  0.38085561781E+03  0.10731795523E+04  0.12699999809E+01 0.  1.
       -4    1    3    3    0  502  0.23738120034E+03 -0.97483942403E+03 -0.96911696204E+03  0.13949376459E+04  0.12699999809E+01 0. -1.
</event>
<event>
 5   0  0.5064437E-06  0.2415761E+04  0.7818609E-02  0.8433627E-01
        1   -1    0    0  501    0  0.00000000000E+00  0.00000000000E+00  0.16516079607E+04  0.16516079607E+04  0.50400001928E-02 0. -1.
       -1   -1    0    0    0  501  0.00000000000E+00  0.00000000000E+00 -0.88336632441E+03  0.88336632443E+03  0.50400001928E-02 0.  1.
    10030    2    1    2    0    0  0.00000000000E+00  0.00000000000E+00  0.76824163627E+03  0.25349742851E+04  0.24157606286E+04 0.  0.
        2    1    3    3  502    0 -0.37541954927E+02  0.10224566306E+04 -0.28954762117E+03  0.10633272238E+04  0.25500000920E-02 0.  1.
       -2    1    3    3    0  502  0.37541954927E+02 -0.10224566306E+04  0.10577892574E+04  0.14716470613E+04  0.25500000920E-02 0. -1.
</event>
<event>
 5   0  0.1169371E-05  0.2432855E+04  0.7818609E-02  0.8427305E-01
        2   -1    0    0  501    0  0.00000000000E+00  0.00000000000E+00  0.15896880255E+04  0.15896880255E+04  0.25500000920E-02 0.  1.
       -2   -1    0    0    0  501  0.00000000000E+00  0.00000000000E+00 -0.93080883408E+03  0.93080883408E+03  0.25500000920E-02 0. -1.
    10030    2    1    2    0    0  0.00000000000E+00  0.00000000000E+00  0.65887919146E+03  0.25204968596E+04  0.24328548313E+04 0.  0.
        2    1    3    3  502    0 -0.15935949354E+03 -0.11074272752E+04 -0.16515222473E+03  0.11309579459E+04  0.25500000920E-02 0. -1.
       -2    1    3    3    0  502  0.15935949354E+03  0.11074272752E+04  0.82403141618E+03  0.13895389138E+04  0.25500000920E-02 0.  1.
</event>
<event>
 5   0  0.1174210E-05  0.2404453E+04  0.7818609E-02  0.8437838E-01
        2   -1    0    0  501    0  0.00000000000E+00  0.00000000000E+00  0.19323736796E+04  0.19323736796E+04  0.25500000920E-02 0.  1.
       -2   -1    0    0    0  501  0.00000000000E+00  0.00000000000E+00 -0.74796505691E+03  0.74796505691E+03  0.25500000920E-02 0. -1.
    10030    2    1    2    0    0  0.00000000000E+00  0.00000000000E+00  0.11844086227E+04  0.26803387365E+04  0.24044525275E+04 0.  0.
        3    1    3    3  502    0 -0.35793781926E+02 -0.35885584530E+03 -0.68624676734E+03  0.77523760771E+03  0.10100000352E+00 0. -1.
       -3    1    3    3    0  502  0.35793781926E+02  0.35885584530E+03  0.18706553900E+04  0.19051011288E+04  0.10100000352E+00 0.  1.
</event>
<event>
 5   0  0.1154897E-05  0.2394129E+04  0.7818609E-02  0.8441705E-01
        2   -1    0    0  501    0  0.00000000000E+00  0.00000000000E+00  0.17103020120E+04  0.17103020120E+04  0.25500000920E-02 0. -1.
       -2   -1    0    0    0  501  0.00000000000E+00  0.00000000000E+00 -0.83784202912E+03  0.83784202913E+03  0.25500000920E-02 0.  1.
    10030    2    1    2    0    0  0.00000000000E+00  0.00000000000E+00  0.87245998288E+03  0.25481440411E+04  0.23941285748E+04 0.  0.
        4    1    3    3  502    0  0.41692151678E+03  0.55569649407E+02 -0.75660377927E+03  0.86565722361E+03  0.12699999809E+01 0.  1.
       -4    1    3    3    0  502 -0.41692151678E+03 -0.55569649407E+02  0.16290637621E+04  0.16824868175E+04  0.12699999809E+01 0. -1.
</event>
<event>
 5   0  0.5042742E-06  0.2394590E+04  0.7818609E-02  0.8441532E-01
       -1   -1    0    0    0  501  0.00000000000E+00  0.00000000000E+00  0.73990862858E+03  0.73990862860E+03  0.50400001928E-02 0.  1.
        1   -1    0    0  501    0  0.00000000000E+00  0.00000000000E+00 -0.19374220247E+04  0.19374220247E+04  0.50400001928E-02 0. -1.
    10030    2    1    2    0    0  0.00000000000E+00  0.00000000000E+00 -0.11975133961E+04  0.26773306533E+04  0.23945899635E+04 0.  0.
        5    1    3    3  502    0 -0.29161491748E+03 -0.11528962600E+04 -0.44349263180E+03  0.12692189925E+04  0.46999998093E+01 0.  1.
       -5    1    3    3    0  502  0.29161491748E+03  0.11528962600E+04 -0.75402076434E+03  0.14081116609E+04  0.46999998093E+01 0. -1.
</event>
<event>
 5   0  0.1168435E-05  0.2394055E+04  0.7818609E-02  0.8441733E-01
        2   -1    0    0  501    0  0.00000000000E+00  0.00000000000E+00  0.11917581808E+04  0.11917581808E+04  0.25500000920E-02 0. -1.
       -2   -1    0    0    0  501  0.00000000000E+00  0.00000000000E+00 -0.12023199753E+04  0.12023199753E+04  0.25500000920E-02 0.  1.
    10030    2    1    2    0    0  0.00000000000E+00  0.00000000000E+00 -0.10561794548E+02  0.23940781561E+04  0.23940548586E+04 0.  0.
        1    1    3    3  502    0 -0.83669521636E+03 -0.83980028386E+03  0.16070645423E+03  0.11963068027E+04  0.50400001928E-02 0.  1.
       -1    1    3    3    0  502  0.83669521636E+03  0.83980028386E+03 -0.17126824878E+03  0.11977713534E+04  0.50400001928E-02 0. -1.
</event>
<event>
 5   0  0.1198313E-05  0.2396927E+04  0.7818609E-02  0.8440655E-01
        2   -1    0    0  501    0  0.00000000000E+00  0.00000000000E+00  0.15571872057E+04  0.15571872057E+04  0.25500000920E-02 0. -1.
       -2   -1    0    0    0  501  0.00000000000E+00  0.00000000000E+00 -0.92237759707E+03  0.92237759708E+03  0.25500000920E-02 0.  1.
    10030    2    1    2    0    0  0.00000000000E+00  0.00000000000E+00  0.63480960858E+03  0.24795648027E+04  0.23969268599E+04 0.  0.
        5    1    3    3  502    0 -0.93679186171E+03  0.89154330485E+02  0.10851265712E+04  0.14363318740E+04  0.46999998093E+01 0. -1.
       -5    1    3    3    0  502  0.93679186171E+03 -0.89154330485E+02 -0.45031696259E+03  0.10432329287E+04  0.46999998093E+01 0.  1.
</event>
<event>
 5   0  0.5034479E-06  0.2392967E+04  0.7818609E-02  0.8442141E-01
       -1   -1    0    0    0  501  0.00000000000E+00  0.00000000000E+00  0.56557859138E+03  0.56557859140E+03  0.50400001928E-02 0.  1.
        1   -1    0    0  501    0  0.00000000000E+00  0.00000000000E+00 -0.25311655169E+04  0.25311655169E+04  0.50400001928E-02 0. -1.
    10030    2    1    2    0    0  0.00000000000E+00  0.00000000000E+00 -0.19655869255E+04  0.30967441083E+04  0.23929672188E+04 0.  0.
        4    1    3    3  502    0 -0.78028532847E+03  0.22845522480E+03  0.15317060877E+03  0.82734505006E+03  0.12699999809E+01 0.  1.
       -4    1    3    3    0  502  0.78028532847E+03 -0.22845522480E+03 -0.21187575343E+04  0.22693990582E+04  0.12699999809E+01 0. -1.
</event>
<event>
 5   0  0.5064437E-06  0.2366538E+04  0.7818609E-02  0.8452138E-01
        1   -1    0    0  501    0  0.00000000000E+00  0.00000000000E+00  0.19066486855E+04  0.19066486855E+04  0.50400001928E-02 0. -1.
       -1   -1    0    0    0  501  0.00000000000E+00  0.00000000000E+00 -0.73433876816E+03  0.73433876817E+03  0.50400001928E-02 0.  1.
    10030    2    1    2    0    0  0.00000000000E+00  0.00000000000E+00  0.11723099174E+04  0.26409874537E+04  0.23665384401E+04 0.  0.
        2    1    3    3  502    0  0.51116726031E+03 -0.10456342896E+03 -0.59903559844E+03  0.79439859447E+03  0.25500000920E-02 0.  1.
       -2    1    3    3    0  502 -0.51116726031E+03  0.10456342896E+03  0.17713455158E+04  0.18465888592E+04  0.25500000920E-02 0. -1.
</event>
<event>
 5   0  0.5064437E-06  0.2385002E+04  0.7818609E-02  0.8445140E-01
        1   -1    0    0  501    0  0.00000000000E+00  0.00000000000E+00  0.72465386592E+03  0.72465386594E+03  0.50400001928E-02 0. -1.
       -1   -1    0    0    0  501  0.00000000000E+00  0.00000000000E+00 -0.19623976502E+04  0.19623976502E+04  0.50400001928E-02 0.  1.
    10030    2    1    2    0    0  0.00000000000E+00  0.00000000000E+00 -0.12377437843E+04  0.26870515162E+04  0.23850023428E+04 0.  0.
        2    1    3    3  502    0 -0.10555062192E+04  0.42225326824E+03 -0.21317346404E+03  0.11566477974E+04  0.25500000920E-02 0. -1.
       -2    1    3    3    0  502  0.10555062192E+04 -0.42225326824E+03 -0.10245703203E+04  0.15304037188E+04  0.25500000920E-02 0.  1.
</event>
<event>
 5   0  0.5042742E-06  0.2396664E+04  0.7818609E-02  0.8440754E-01
        1   -1    0    0  501    0  0.00000000000E+00  0.00000000000E+00  0.19426962091E+04  0.19426962091E+04  0.50400001928E-02 0. -1.
       -1   -1    0    0    0  501  0.00000000000E+00  0.00000000000E+00 -0.73917840544E+03  0.73917840546E+03  0.50400001928E-02 0.  1.
    10030    2    1    2    0    0  0.00000000000E+00  0.00000000000E+00  0.12035178036E+04  0.26818746145E+04  0.23966635860E+04 0.  0.
        5    1    3    3  502    0 -0.80455938175E+03  0.68959942823E+03 -0.24397052040E+02  0.10599436194E+04  0.46999998093E+01 0.  1.
       -5    1    3    3    0  502  0.80455938175E+03 -0.68959942823E+03  0.12279148557E+04  0.16219309951E+04  0.46999998093E+01 0. -1.
</event>
<event>
 5   0  0.5064437E-06  0.2407598E+04  0.7818609E-02  0.8436664E-01
        1   -1    0    0  501    0  0.00000000000E+00  0.00000000000E+00  0.10002882373E+04  0.10002882373E+04  0.50400001928E-02 0.  1.
       -1   -1    0    0    0  501  0.00000000000E+00  0.00000000000E+00 -0.14487143947E+04  0.14487143948E+04  0.50400001928E-02 0. -1.
    10030    2    1    2    0    0  0.00000000000E+00  0.00000000000E+00 -0.44842615744E+03  0.24490026321E+04  0.24075979468E+04 0.  0.
        2    1    3    3  502    0  0.89231613527E+03 -0.36317852918E+03 -0.95843328561E+03  0.13589411659E+04  0.25500000920E-02 0. -1.
       -2    1    3    3    0  502 -0.89231613527E+03  0.36317852918E+03  0.51000712817E+03  0.10900614662E+04  0.25500000920E-02 0.  1.
</event>
<event>
 5   0  0.1169371E-05  0.2360523E+04  0.7818609E-02  0.8454433E-01
       -2   -1    0    0    0  501  0.00000000000E+00  0.00000000000E+00  0.14382959251E+04  0.14382959251E+04  0.25500000920E-02 0. -1.
        2   -1    0    0  501    0  0.00000000000E+00  0.00000000000E+00 -0.96851929455E+03  0.96851929456E+03  0.25500000920E-02 0.  1.
    10030    2    1    2    0    0  0.00000000000E+00  0.00000000000E+00  0.46977663053E+03  0.24068152196E+04  0.23605231240E+04 0.  0.
        2    1    3    3  502    0  0.17010372807E+03  0.11610604712E+04  0.10583336314E+03  0.11782178902E+04  0.25500000920E-02 0.  1.
       -2    1    3    3    0  502 -0.17010372807E+03 -0.11610604712E+04  0.36394326739E+03  0.12285973294E+04  0.25500000920E-02 0. -1.
</event>
<event>
 5   0  0.1169371E-05  0.2392219E+04  0.7818609E-02  0.8442423E-01
       -2   -1    0    0    0  501  0.00000000000E+00  0.00000000000E+00  0.88795920296E+03  0.88795920296E+03  0.25500000920E-02 0. -1.
        2   -1    0    0  501    0  0.00000000000E+00  0.00000000000E+00 -0.16111973075E+04  0.16111973075E+04  0.25500000920E-02 0.  1.
    10030    2    1    2    0    0  0.00000000000E+00  0.00000000000E+00 -0.72323810458E+03  0.24991565105E+04  0.23922186163E+04 0.  0.
        2    1    3    3  502    0 -0.11430494565E+04 -0.35081622988E+03 -0.39536455533E+03  0.12593439636E+04  0.25500000920E-02 0. -1.
       -2    1    3    3    0  502  0.11430494565E+04  0.35081622988E+03 -0.32787354925E+03  0.12398125469E+04  0.25500000920E-02 0.  1.
</event>
<event>
 5   0  0.1174210E-05  0.2412236E+04  0.7818609E-02  0.8434937E-01
        2   -1    0    0  501    0  0.00000000000E+00  0.00000000000E+00  0.98109098730E+03  0.98109098730E+03  0.25500000920E-02 0. -1.
       -2   -1    0    0    0  501  0.00000000000E+00  0.00000000000E+00 -0.14827583981E+04  0.14827583981E+04  0.25500000920E-02 0.  1.
    10030    2    1    2    0    0  0.00000000000E+00  0.00000000000E+00 -0.50166741083E+03  0.24638493854E+04  0.24122362245E+04 0.  0.
        3    1    3    3  502    0 -0.10782463946E+04 -0.53065302405E+03 -0.14610709309E+03  0.12106011781E+04  0.10100000352E+00 0. -1.
       -3    1    3    3    0  502  0.10782463946E+04  0.53065302405E+03 -0.35556031773E+03  0.12532482074E+04  0.10100000352E+00 0.  1.
</event>
<event>
 5   0  0.5196696E-06  0.2388345E+04  0.7818609E-02  0.8443880E-01
       -1   -1    0    0    0  501  0.00000000000E+00  0.00000000000E+00  0.14332054295E+04  0.14332054295E+04  0.50400001928E-02 0.  1.
        1   -1    0    0  501    0  0.00000000000E+00  0.00000000000E+00 -0.99500567101E+03  0.99500567102E+03  0.50400001928E-02 0. -1.
    10030    2    1    2    0    0  0.00000000000E+00  0.00000000000E+00  0.43819975850E+03  0.24282111005E+04  0.23883446402E+04 0.  0.
        1    1    3    3  502    0 -0.48781785610E+03 -0.51856658673E+03  0.11938366652E+04  0.13900084708E+04  0.50400001928E-02 0.  1.
       -1    1    3    3    0  502  0.48781785610E+03  0.51856658673E+03 -0.75563690672E+03  0.10382026298E+04  0.50400001928E-02 0. -1.
</event>
<event>
 5   0  0.5064437E-06  0.2366778E+04  0.7818609E-02  0.8452047E-01
       -1   -1    0    0    0  501  0.00000000000E+00  0.00000000000E+00  0.11800842895E+04  0.11800842895E+04  0.50400001928E-02 0. -1.
        1   -1    0    0  501    0  0.00000000000E+00  0.00000000000E+00 -0.11867029074E+04  0.11867029074E+04  0.50400001928E-02 0.  1.
    10030    2    1    2    0    0  0.00000000000E+00  0.00000000000E+00 -0.66186179185E+01  0.23667871970E+04  0.23667779426E+04 0.  0.
        2    1    3    3  502    0  0.24402966336E+03 -0.21550735096E+03 -0.11410376092E+04  0.11865752064E+04  0.25500000920E-02 0.  1.
       -2    1    3    3    0  502 -0.24402966336E+03  0.21550735096E+03  0.11344189913E+04  0.11802119906E+04  0.25500000920E-02 0. -1.
</event>
<event>
 5   0  0.5064437E-06  0.2402837E+04  0.7818609E-02  0.8438442E-01
        1   -1    0    0  501    0  0.00000000000E+00  0.00000000000E+00  0.11787374888E+04  0.11787374888E+04  0.50400001928E-02 0. -1.
       -1   -1    0    0    0  501  0.00000000000E+00  0.00000000000E+00 -0.12245363058E+04  0.12245363058E+04  0.50400001928E-02 0.  1.
    10030    2    1    2    0    0  0.00000000000E+00  0.00000000000E+00 -0.45798817018E+02  0.24032737946E+04  0.24028373645E+04 0.  0.
        2    1    3    3  502    0 -0.85372671019E+03 -0.57606188212E+03  0.59584876255E+03  0.11898455091E+04  0.25500000920E-02 0. -1.
       -2    1    3    3    0  502  0.85372671019E+03  0.57606188212E+03 -0.64164757957E+03  0.12134282855E+04  0.25500000920E-02 0.  1.
</event>
<event>
 5   0  0.1174210E-05  0.2403643E+04  0.7818609E-02  0.8438141E-01
        2   -1    0    0  501    0  0.00000000000E+00  0.00000000000E+00  0.81496578063E+03  0.81496578064E+03  0.25500000920E-02 0. -1.
       -2   -1    0    0    0  501  0.00000000000E+00  0.00000000000E+00 -0.17723134605E+04  0.17723134605E+04  0.25500000920E-02 0.  1.
    10030    2    1    2    0    0  0.00000000000E+00  0.00000000000E+00 -0.95734767985E+03  0.25872792411E+04  0.24036429209E+04 0.  0.
        3    1    3    3  502    0  0.16360320043E+01 -0.36184883052E+03  0.75493669424E+03  0.83717780386E+03  0.10100000352E+00 0. -1.
       -3    1    3    3    0  502 -0.16360320043E+01  0.36184883052E+03 -0.17122843741E+04  0.17501014373E+04  0.10100000352E+00 0.  1.
</event>
<event>
 5   0  0.1169371E-05  0.2391611E+04  0.7818609E-02  0.8442651E-01
        2   -1    0    0  501    0  0.00000000000E+00  0.00000000000E+00  0.14651634413E+04  0.14651634414E+04  0.25500000920E-02 0. -1.
       -2   -1    0    0    0  501  0.00000000000E+00  0.00000000000E+00 -0.97596684657E+03  0.97596684657E+03  0.25500000920E-02 0.  1.
    10030    2    1    2    0    0  0.00000000000E+00  0.00000000000E+00  0.48919659478E+03  0.24411302879E+04  0.23916111252E+04 0.  0.
        2    1    3    3  502    0 -0.20567799610E+03  0.93979829832E+03  0.96953387120E+03  0.13658404764E+04  0.25500000920E-02 0. -1.
       -2    1    3    3    0  502  0.20567799610E+03 -0.93979829832E+03 -0.48033727642E+03  0.10752898115E+04  0.25500000920E-02 0.  1.
</event>
<event>
 5   0  0.1169371E-05  0.2404775E+04  0.7818609E-02  0.8437718E-01
       -2   -1    0    0    0  501  0.00000000000E+00  0.00000000000E+00  0.84996470483E+03  0.84996470483E+03  0.25500000920E-02 0. -1.
        2   -1    0    0  501    0  0.00000000000E+00  0.00000000000E+00 -0.17009360200E+04  0.17009360200E+04  0.25500000920E-02 0.  1.
    10030    2    1    2    0    0  0.00000000000E+00  0.00000000000E+00 -0.85097131513E+03  0.25509007248E+04  0.24047749019E+04 0.  0.
        2    1    3    3  502    0  0.41063456310E+03 -0.76248487228E+03  0.45930394229E+03  0.98028773138E+03  0.25500000920E-02 0. -1.
       -2    1    3    3    0  502 -0.41063456310E+03  0.76248487228E+03 -0.13102752574E+04  0.15706129934E+04  0.25500000920E-02 0.  1.
</event>
<event>
 5   0  0.5034479E-06  0.2404009E+04  0.7818609E-02  0.8438004E-01
       -1   -1    0    0    0  501  0.00000000000E+00  0.00000000000E+00  0.98414301124E+03  0.98414301126E+03  0.50400001928E-02 0. -1.
        1   -1    0    0  501    0  0.00000000000E+00  0.00000000000E+00 -0.14680949828E+04  0.14680949829E+04  0.50400001928E-02 0.  1.
    10030    2    1    2    0    0  0.00000000000E+00  0.00000000000E+00 -0.48395197160E+03  0.24522379941E+04  0.24040094985E+04 0.  0.
        4    1    3    3  502    0  0.49874456861E+03 -0.66085522272E+03  0.64690581513E+03  0.10506971574E+04  0.12699999809E+01 0. -1.
       -4    1    3    3    0  502 -0.49874456861E+03  0.66085522272E+03 -0.11308577867E+04  0.14015408367E+04  0.12699999809E+01 0.  1.
</event>
<event>
 5   0  0.4067750E-06  0.2381073E+04  0.7818609E-02  0.8446624E-01
        3   -1    0    0  501    0  0.00000000000E+00  0.00000000000E+00  0.27361265783E+04  0.27361265802E+04  0.10100000352E+00 0.  1.
       -3   -1    0    0    0  501  0.00000000000E+00  0.00000000000E+00 -0.51802312862E+03  0.51802313847E+03  0.10100000352E+00 0. -1.
    10030    2    1    2    0    0  0.00000000000E+00  0.00000000000E+00  0.22181034497E+04  0.32541497186E+04  0.23810727578E+04 0.  0.
        1    1    3    3  502    0  0.41746173762E+03 -0.56790065361E+03 -0.20223699202E+03  0.73327024740E+03  0.50400001928E-02 0. -1.
       -1    1    3    3    0  502 -0.41746173762E+03  0.56790065361E+03  0.24203404417E+04  0.25208794712E+04  0.50400001928E-02 0.  1.
</event>
<event>
 5   0  0.1168435E-05  0.2420554E+04  0.7818609E-02  0.8431848E-01
       -2   -1    0    0    0  501  0.00000000000E+00  0.00000000000E+00  0.19681735068E+04  0.19681735068E+04  0.25500000920E-02 0. -1.
        2   -1    0    0  501    0  0.00000000000E+00  0.00000000000E+00 -0.74422809284E+03  0.74422809284E+03  0.25500000920E-02 0.  1.
    10030    2    1    2    0    0  0.00000000000E+00  0.00000000000E+00  0.12239454139E+04  0.27124015996E+04  0.24205536683E+04 0.  0.
        1    1    3    3  502    0  0.78366913765E+03 -0.51358787833E+03  0.14704060939E+04  0.17435606979E+04  0.50400001928E-02 0.  1.
       -1    1    3    3    0  502 -0.78366913765E+03  0.51358787833E+03 -0.24646067999E+03  0.96884090174E+03  0.50400001928E-02 0. -1.
</event>
<event>
 5   0  0.1174210E-05  0.2398545E+04  0.7818609E-02  0.8440048E-01
        2   -1    0    0  501    0  0.00000000000E+00  0.00000000000E+00  0.18520473178E+04  0.18520473178E+04  0.25500000920E-02 0. -1.
       -2   -1    0    0    0  501  0.00000000000E+00  0.00000000000E+00 -0.77657554312E+03  0.77657554313E+03  0.25500000920E-02 0.  1.
    10030    2    1    2    0    0  0.00000000000E+00  0.00000000000E+00  0.10754717747E+04  0.26286228610E+04  0.23985451021E+04 0.  0.
        3    1    3    3  502    0 -0.78257006605E+03 -0.22729461485E+03 -0.42653757035E+03  0.91978968213E+03  0.10100000352E+00 0.  1.
       -3    1    3    3    0  502  0.78257006605E+03  0.22729461485E+03  0.15020093451E+04  0.17088331788E+04  0.10100000352E+00 0. -1.
</event>
<event>
 5   0  0.5064437E-06  0.2396108E+04  0.7818609E-02  0.8440962E-01
        1   -1    0    0  501    0  0.00000000000E+00  0.00000000000E+00  0.95312022196E+03  0.95312022198E+03  0.50400001928E-02 0. -1.
       -1   -1    0    0    0  501  0.00000000000E+00  0.00000000000E+00 -0.15059308438E+04  0.15059308438E+04  0.50400001928E-02 0.  1.
    10030    2    1    2    0    0  0.00000000000E+00  0.00000000000E+00 -0.55281062180E+03  0.24590510657E+04  0.23961077940E+04 0.  0.
        2    1    3    3  502    0 -0.57896575967E+03 -0.46857423043E+03  0.68663204485E+03  0.10130284919E+04  0.25500000920E-02 0. -1.
       -2    1    3    3    0  502  0.57896575967E+03  0.46857423043E+03 -0.12394426666E+04  0.14460225739E+04  0.25500000920E-02 0.  1.
</event>
<event>
 5   0  0.1174210E-05  0.2342062E+04  0.7818609E-02  0.8461519E-01
        2   -1    0    0  501    0  0.00000000000E+00  0.00000000000E+00  0.18147669510E+04  0.18147669510E+04  0.25500000920E-02 0.  1.
       -2   -1    0    0    0  501  0.00000000000E+00  0.00000000000E+00 -0.75564192937E+03  0.75564192937E+03  0.25500000920E-02 0. -1.
    10030    2    1    2    0    0  0.00000000000E+00  0.00000000000E+00  0.10591250216E+04  0.25704088803E+04  0.23420623392E+04 0.  0.
        3    1    3    3  502    0 -0.69391404895E+03  0.58277943318E+03 -0.28448622329E+03  0.94977944625E+03  0.10100000352E+00 0. -1.
       -3    1    3    3    0  502  0.69391404895E+03 -0.58277943318E+03  0.13436112449E+04  0.16206294341E+04  0.10100000352E+00 0.  1.
</event>
<event>
 5   0  0.1169371E-05  0.2408972E+04  0.7818609E-02  0.8436152E-01
        2   -1    0    0  501    0  0.00000000000E+00  0.00000000000E+00  0.12413108178E+04  0.12413108178E+04  0.25500000920E-02 0. -1.
       -2   -1    0    0    0  501  0.00000000000E+00  0.00000000000E+00 -0.11687533772E+04  0.11687533772E+04  0.25500000920E-02 0.  1.
    10030    2    1    2    0    0  0.00000000000E+00  0.00000000000E+00  0.72557440637E+02  0.24100641950E+04  0.24089717395E+04 0.  0.
        2    1    3    3  502    0  0.39759518905E+03 -0.13989146397E+03  0.11651231008E+04  0.12390171089E+04  0.25500000920E-02 0. -1.
       -2    1    3    3    0  502 -0.39759518905E+03  0.13989146397E+03 -0.10925656602E+04  0.11710470861E+04  0.25500000920E-02 0.  1.
</event>
<event>
 5   0  0.1174210E-05  0.2409196E+04  0.7818609E-02  0.8436069E-01
        2   -1    0    0  501    0  0.00000000000E+00  0.00000000000E+00  0.98415934992E+03  0.98415934992E+03  0.25500000920E-02 0.  1.
       -2   -1    0    0    0  501  0.00000000000E+00  0.00000000000E+00 -0.14744118823E+04  0.14744118823E+04  0.25500000920E-02 0. -1.
    10030    2    1    2    0    0  0.00000000000E+00  0.00000000000E+00 -0.49025253243E+03  0.24585712323E+04  0.24091959154E+04 0.  0.
        3    1    3    3  502    0 -0.94625781547E+03  0.52267401862E+03 -0.78749221974E+03  0.13374363497E+04  0.10100000352E+00 0. -1.
       -3    1    3    3    0  502  0.94625781547E+03 -0.52267401862E+03  0.29723968731E+03  0.11211348826E+04  0.10100000352E+00 0.  1.
</event>
<event>
 5   0  0.5042742E-06  0.2362956E+04  0.7818609E-02  0.8453504E-01
       -1   -1    0    0    0  501  0.00000000000E+00  0.00000000000E+00  0.98340236987E+03  0.98340236988E+03  0.50400001928E-02 0. -1.
        1   -1    0    0  501    0  0.00000000000E+00  0.00000000000E+00 -0.14194491745E+04  0.14194491745E+04  0.50400001928E-02 0.  1.
    10030    2    1    2    0    0  0.00000000000E+00  0.00000000000E+00 -0.43604680459E+03  0.24028515443E+04  0.23629555071E+04 0.  0.
        5    1    3    3  502    0  0.84381475514E+03  0.13843868994E+03 -0.10470669961E+04  0.13518727737E+04  0.46999998093E+01 0.  1.
       -5    1    3    3    0  502 -0.84381475514E+03 -0.13843868994E+03  0.61102019155E+03  0.10509787706E+04  0.46999998093E+01 0. -1.
</event>
<event>
 5   0  0.5042742E-06  0.2407350E+04  0.7818609E-02  0.8436757E-01
        1   -1    0    0  501    0  0.00000000000E+00  0.00000000000E+00  0.99036872261E+03  0.99036872262E+03  0.50400001928E-02 0.  1.
       -1   -1    0    0    0  501  0.00000000000E+00  0.00000000000E+00 -0.14629228790E+04  0.14629228790E+04  0.50400001928E-02 0. -1.
    10030    2    1    2    0    0  0.00000000000E+00  0.00000000000E+00 -0.47255415635E+03  0.24532916016E+04  0.24073496322E+04 0.  0.
        5    1    3    3  502    0  0.78804886673E+03 -0.84177675912E+03 -0.58812216422E+03  0.12944183630E+04  0.46999998093E+01 0. -1.
       -5    1    3    3    0  502 -0.78804886673E+03  0.84177675912E+03  0.11556800786E+03  0.11588732385E+04  0.46999998093E+01 0.  1.
</event>
<event>
 5   0  0.1168435E-05  0.2399525E+04  0.7818609E-02  0.8439681E-01
        2   -1    0    0  501    0  0.00000000000E+00  0.00000000000E+00  0.22092002911E+04  0.22092002911E+04  0.25500000920E-02 0.  1.
       -2   -1    0    0    0  501  0.00000000000E+00  0.00000000000E+00 -0.65156167663E+03  0.65156167664E+03  0.25500000920E-02 0. -1.
    10030    2    1    2    0    0  0.00000000000E+00  0.00000000000E+00  0.15576386144E+04  0.28607619677E+04  0.23995251578E+04 0.  0.
        1    1    3    3  502    0  0.72138895943E+03 -0.57805600455E+03  0.16905983477E+04  0.19268299221E+04  0.50400001928E-02 0.  1.
       -1    1    3    3    0  502 -0.72138895943E+03  0.57805600455E+03 -0.13295973329E+03  0.93393204565E+03  0.50400001928E-02 0. -1.
</event>
<event>
 5   0  0.5064437E-06  0.2397011E+04  0.7818609E-02  0.8440623E-01
       -1   -1    0    0    0  501  0.00000000000E+00  0.00000000000E+00  0.12042247786E+04  0.12042247786E+04  0.50400001928E-02 0. -1.
        1   -1    0    0  501    0  0.00000000000E+00  0.00000000000E+00 -0.11928134087E+04  0.11928134087E+04  0.50400001928E-02 0.  1.
    10030    2    1    2    0    0  0.00000000000E+00  0.00000000000E+00  0.11411369884E+02  0.23970381873E+04  0.23970110246E+04 0.  0.
        2    1    3    3  502    0 -0.65457702022E+03 -0.98550339879E+03  0.19735189805E+03  0.11994314470E+04  0.25500000920E-02 0. -1.
       -2    1    3    3    0  502  0.65457702022E+03  0.98550339879E+03 -0.18594052817E+03  0.11976067403E+04  0.25500000920E-02 0.  1.
</event>
<event>
 5   0  0.1169371E-05  0.2398056E+04  0.7818609E-02  0.8440232E-01
        2   -1    0    0  501    0  0.00000000000E+00  0.00000000000E+00  0.18076315356E+04  0.18076315356E+04  0.25500000920E-02 0.  1.
       -2   -1    0    0    0  501  0.00000000000E+00  0.00000000000E+00 -0.79533241987E+03  0.79533241988E+03  0.25500000920E-02 0. -1.
    10030    2    1    2    0    0  0.00000000000E+00  0.00000000000E+00  0.10122991157E+04  0.26029639555E+04  0.23980558488E+04 0.  0.
        2    1    3    3  502    0 -0.33399502390E+03  0.71444175112E+03 -0.47417745544E+03  0.92023037930E+03  0.25500000920E-02 0. -1.
       -2    1    3    3    0  502  0.33399502390E+03 -0.71444175112E+03  0.14864765711E+04  0.16827335762E+04  0.25500000920E-02 0.  1.
</event>
<event>
 5   0  0.5196696E-06  0.2387649E+04  0.7818609E-02  0.8444142E-01
        1   -1    0    0  501    0  0.00000000000E+00  0.00000000000E+00  0.19203062650E+04  0.19203062650E+04  0.50400001928E-02 0. -1.
       -1   -1    0    0    0  501  0.00000000000E+00  0.00000000000E+00 -0.74218199776E+03  0.74218199778E+03  0.50400001928E-02 0.  1.
    10030    2    1    2    0    0  0.00000000000E+00  0.00000000000E+00  0.11781242673E+04  0.26624882628E+04  0.23876488353E+04 0.  0.
        1    1    3    3  502    0 -0.44189717446E+03 -0.10915446888E+04  0.80778787713E+03  0.14280280722E+04  0.50400001928E-02 0. -1.
       -1    1    3    3    0  502  0.44189717446E+03  0.10915446888E+04  0.37033639014E+03  0.12344601907E+04  0.50400001928E-02 0.  1.
</event>
<event>
 5   0  0.1154897E-05  0.2365344E+04  0.7818609E-02  0.8452593E-01
        2   -1    0    0  501    0  0.00000000000E+00  0.00000000000E+00  0.89689239452E+03  0.89689239452E+03  0.25500000920E-02 0.  1.
       -2   -1    0    0    0  501  0.00000000000E+00  0.00000000000E+00 -0.15595099758E+04  0.15595099758E+04  0.25500000920E-02 0. -1.
    10030    2    1    2    0    0  0.00000000000E+00  0.00000000000E+00 -0.66261758123E+03  0.24564023703E+04  0.23653436422E+04 0.  0.
        4    1    3    3  502    0 -0.59938120486E+03  0.68869563115E+03 -0.11120151443E+04  0.14387976908E+04  0.12699999809E+01 0. -1.
       -4    1    3    3    0  502  0.59938120486E+03 -0.68869563115E+03  0.44939756303E+03  0.10176046795E+04  0.12699999809E+01 0.  1.
</event>
<event>
 5   0  0.5034479E-06  0.2399313E+04  0.7818609E-02  0.8439761E-01
       -1   -1    0    0    0  501  0.00000000000E+00  0.00000000000E+00  0.72074918349E+03  0.72074918351E+03  0.50400001928E-02 0. -1.
        1   -1    0    0  501    0  0.00000000000E+00  0.00000000000E+00 -0.19967774329E+04  0.19967774329E+04  0.50400001928E-02 0.  1.
    10030    2    1    2    0    0  0.00000000000E+00  0.00000000000E+00 -0.12760282494E+04  0.27175266164E+04  0.23993129887E+04 0.  0.
        4    1    3    3  502    0 -0.83271194450E+02  0.46218469068E+03 -0.18883364865E+04  0.19458584428E+04  0.12699999809E+01 0.  1.
       -4    1    3    3    0  502  0.83271194450E+02 -0.46218469068E+03  0.61230823709E+03  0.77166817366E+03  0.12699999809E+01 0. -1.
</event>
<event>
 5   0  0.1198313E-05  0.2365618E+04  0.7818609E-02  0.8452489E-01
        2   -1    0    0  501    0  0.00000000000E+00  0.00000000000E+00  0.15476983898E+04  0.15476983898E+04  0.25500000920E-02 0.  1.
       -2   -1    0    0    0  501  0.00000000000E+00  0.00000000000E+00 -0.90394723424E+03  0.90394723425E+03  0.25500000920E-02 0. -1.
    10030    2    1    2    0    0  0.00000000000E+00  0.00000000000E+00  0.64375115555E+03  0.24516456240E+04  0.23656184637E+04 0.  0.
        5    1    3    3  502    0  0.46147440197E+03 -0.72710037179E+03 -0.51840031230E+03  0.10051838380E+04  0.46999998093E+01 0. -1.
       -5    1    3    3    0  502 -0.46147440197E+03  0.72710037179E+03  0.11621514679E+04  0.14464617861E+04  0.46999998093E+01 0.  1.
</event>
<event>
 5   0  0.5034479E-06  0.2403708E+04  0.7818609E-02  0.8438117E-01
        1   -1    0    0  501    0  0.00000000000E+00  0.00000000000E+00  0.15841946023E+04  0.15841946023E+04  0.50400001928E-02 0.  1.
       -1   -1    0    0    0  501  0.00000000000E+00  0.00000000000E+00 -0.91179008920E+03  0.91179008921E+03  0.50400001928E-02 0. -1.
    10030    2    1    2    0    0  0.00000000000E+00  0.00000000000E+00  0.67240451312E+03  0.24959846915E+04  0.24037079172E+04 0.  0.
        4    1    3    3  502    0 -0.64501391776E+03  0.10135351514E+04  0.30091431402E+03  0.12384859686E+04  0.12699999809E+01 0.  1.
       -4    1    3    3    0  502  0.64501391776E+03 -0.10135351514E+04  0.37149019910E+03  0.12574987229E+04  0.12699999809E+01 0. -1.
</event>
<event>
 5   0  0.5042742E-06  0.2399345E+04  0.7818609E-02  0.8439749E-01
        1   -1    0    0  501    0  0.00000000000E+00  0.00000000000E+00  0.12283352085E+04  0.12283352085E+04  0.50400001928E-02 0.  1.
       -1   -1    0    0    0  501  0.00000000000E+00  0.00000000000E+00 -0.11716787874E+04  0.11716787874E+04  0.50400001928E-02 0. -1.
    10030    2    1    2    0    0  0.00000000000E+00  0.00000000000E+00  0.56656421097E+02  0.24000139959E+04  0.23993451670E+04 0.  0.
        5    1    3    3  502    0 -0.10303948131E+04  0.55514497438E+03 -0.23498043135E+03  0.11937911486E+04  0.46999998093E+01 0.  1.
       -5    1    3    3    0  502  0.10303948131E+04 -0.55514497438E+03  0.29163685245E+03  0.12062228472E+04  0.46999998093E+01 0. -1.
</event>
<event>
 5   0  0.1168435E-05  0.2403645E+04  0.7818609E-02  0.8438140E-01
       -2   -1    0    0    0  501  0.00000000000E+00  0.00000000000E+00  0.14992443970E+04  0.14992443970E+04  0.25500000920E-02 0. -1.
        2   -1    0    0  501    0  0.00000000000E+00  0.00000000000E+00 -0.96340376449E+03  0.96340376450E+03  0.25500000920E-02 0.  1.
    10030    2    1    2    0    0  0.00000000000E+00  0.00000000000E+00  0.53584063252E+03  0.24626481615E+04  0.24036453116E+04 0.  0.
        1    1    3    3  502    0  0.35804324910E+03  0.26086841406E+03 -0.87670136114E+03  0.98226909466E+03  0.50400001928E-02 0.  1.
       -1    1    3    3    0  502 -0.35804324910E+03 -0.26086841406E+03  0.14125419937E+04  0.14803790668E+04  0.50400001928E-02 0. -1.
</event>
<event>
 5   0  0.5042742E-06  0.2404181E+04  0.7818609E-02  0.8437940E-01
        1   -1    0    0  501    0  0.00000000000E+00  0.00000000000E+00  0.96280739410E+03  0.96280739411E+03  0.50400001928E-02 0. -1.
       -1   -1    0    0    0  501  0.00000000000E+00  0.00000000000E+00 -0.15008421204E+04  0.15008421204E+04  0.50400001928E-02 0.  1.
    10030    2    1    2    0    0  0.00000000000E+00  0.00000000000E+00 -0.53803472630E+03  0.24636495145E+04  0.24041812668E+04 0.  0.
        5    1    3    3  502    0 -0.31103604735E+03 -0.63996386890E+02 -0.14570745194E+04  0.14912837441E+04  0.46999998093E+01 0.  1.
       -5    1    3    3    0  502  0.31103604735E+03  0.63996386890E+02  0.91903979308E+03  0.97236577045E+03  0.46999998093E+01 0. -1.
</event>
<event>
 5   0  0.1168435E-05  0.2393725E+04  0.7818609E-02  0.8441857E-01
        2   -1    0    0  501    0  0.00000000000E+00  0.00000000000E+00  0.17522516094E+04  0.17522516094E+04  0.25500000920E-02 0.  1.
       -2   -1    0    0    0  501  0.00000000000E+00  0.00000000000E+00 -0.81750802032E+03  0.81750802032E+03  0.25500000920E-02 0. -1.
    10030    2    1    2    0    0  0.00000000000E+00  0.00000000000E+00  0.93474358912E+03  0.25697596298E+04  0.23937249168E+04 0.  0.
        1    1    3    3  502    0 -0.67602104706E+03 -0.71574245494E+03 -0.26325723512E+03  0.10191153466E+04  0.50400001928E-02 0.  1.
       -1    1    3    3    0  502  0.67602104706E+03  0.71574245494E+03  0.11980008242E+04  0.15506442831E+04  0.50400001928E-02 0. -1.
</event>
<event>
 5   0  0.5104174E-06  0.2391026E+04  0.7818609E-02  0.8442871E-01
        1   -1    0    0  501    0  0.00000000000E+00  0.00000000000E+00  0.86078683443E+03  0.86078683444E+03  0.50400001928E-02 0.  1.
       -1   -1    0    0    0  501  0.00000000000E+00  0.00000000000E+00 -0.16604013167E+04  0.16604013167E+04  0.50400001928E-02 0. -1.
    10030    2    1    2    0    0  0.00000000000E+00  0.00000000000E+00 -0.79961448227E+03  0.25211881511E+04  0.23910262176E+04 0.  0.
        3    1    3    3  502    0 -0.52894745708E+02 -0.15922339838E+03 -0.16479255089E+04  0.16564445170E+04  0.10100000352E+00 0. -1.
       -3    1    3    3    0  502  0.52894745708E+02  0.15922339838E+03  0.84831102664E+03  0.86474363417E+03  0.10100000352E+00 0.  1.
</event>
<event>
 5   0  0.5042742E-06  0.2407064E+04  0.7818609E-02  0.8436864E-01
       -1   -1    0    0    0  501  0.00000000000E+00  0.00000000000E+00  0.95100874899E+03  0.95100874900E+03  0.50400001928E-02 0.  1.
        1   -1    0    0  501    0  0.00000000000E+00  0.00000000000E+00 -0.15231084777E+04  0.15231084777E+04  0.50400001928E-02 0. -1.
    10030    2    1    2    0    0  0.00000000000E+00  0.00000000000E+00 -0.57209972867E+03  0.24741172267E+04  0.24070641769E+04 0.  0.
        5    1    3    3  502    0  0.15708900455E+03 -0.17356941313E+03 -0.14994712935E+04  0.15176427598E+04  0.46999998093E+01 0. -1.
       -5    1    3    3    0  502 -0.15708900455E+03  0.17356941313E+03  0.92737156480E+03  0.95647446684E+03  0.46999998093E+01 0.  1.
</event>
<event>
 5   0  0.1154897E-05  0.2387570E+04  0.7818609E-02  0.8444172E-01
        2   -1    0    0  501    0  0.00000000000E+00  0.00000000000E+00  0.12873250165E+04  0.12873250165E+04  0.25500000920E-02 0.  1.
       -2   -1    0    0    0  501  0.00000000000E+00  0.00000000000E+00 -0.11070420774E+04  0.11070420774E+04  0.25500000920E-02 0. -1.
    10030    2    1    2    0    0  0.00000000000E+00  0.00000000000E+00  0.18028293909E+03  0.23943670940E+04  0.23875702801E+04 0.  0.
        4    1    3    3  502    0 -0.64325951956E+03 -0.34643302692E+03  0.10369279628E+04  0.12684714678E+04  0.12699999809E+01 0.  1.
       -4    1    3    3    0  502  0.64325951956E+03  0.34643302692E+03 -0.85664502367E+03  0.11258956262E+04  0.12699999809E+01 0. -1.
</event>
<event>
 5   0  0.1169371E-05  0.2389139E+04  0.7818609E-02  0.8443581E-01
       -2   -1    0    0    0  501  0.00000000000E+00  0.00000000000E+00  0.13120338213E+04  0.13120338213E+04  0.25500000920E-02 0. -1.
        2   -1    0    0  501    0  0.00000000000E+00  0.00000000000E+00 -0.10876215203E+04  0.10876215203E+04  0.25500000920E-02 0.  1.
    10030    2    1    2    0    0  0.00000000000E+00  0.00000000000E+00  0.22441230103E+03  0.23996553416E+04  0.23891389406E+04 0.  0.
        2    1    3    3  502    0 -0.35513620752E+03 -0.10809032556E+04  0.47784514902E+03  0.12340217017E+04  0.25500000920E-02 0. -1.
       -2    1    3    3    0  502  0.35513620752E+03  0.10809032556E+04 -0.25343284799E+03  0.11656336399E+04  0.25500000920E-02 0.  1.
</event>
<event>
 5   0  0.5034479E-06  0.2407447E+04  0.7818609E-02  0.8436721E-01
       -1   -1    0    0    0  501  0.00000000000E+00  0.00000000000E+00  0.91500934224E+03  0.91500934225E+03  0.50400001928E-02 0. -1.
        1   -1    0    0  501    0  0.00000000000E+00  0.00000000000E+00 -0.15835361049E+04  0.15835361050E+04  0.50400001928E-02 0.  1.
    10030    2    1    2    0    0  0.00000000000E+00  0.00000000000E+00 -0.66852676271E+03  0.24985454472E+04  0.24074470543E+04 0.  0.
        4    1    3    3  502    0 -0.10907498759E+04  0.41354995045E+02  0.19238628709E+03  0.11083589778E+04  0.12699999809E+01 0. -1.
       -4    1    3    3    0  502  0.10907498759E+04 -0.41354995045E+02 -0.86091304980E+03  0.13901864694E+04  0.12699999809E+01 0.  1.
</event>
<event>
 5   0  0.1198313E-05  0.2386840E+04  0.7818609E-02  0.8444447E-01
       -2   -1    0    0    0  501  0.00000000000E+00  0.00000000000E+00  0.12828551499E+04  0.12828551499E+04  0.25500000920E-02 0. -1.
        2   -1    0    0  501    0  0.00000000000E+00  0.00000000000E+00 -0.11102197508E+04  0.11102197508E+04  0.25500000920E-02 0.  1.
    10030    2    1    2    0    0  0.00000000000E+00  0.00000000000E+00  0.17263539912E+03  0.23930749008E+04  0.23868398563E+04 0.  0.
        5    1    3    3  502    0 -0.12376280094E+03 -0.68840963091E+03 -0.88316428071E+03  0.11265994353E+04  0.46999998093E+01 0.  1.
       -5    1    3    3    0  502  0.12376280094E+03  0.68840963091E+03  0.10557996798E+04  0.12664754655E+04  0.46999998093E+01 0. -1.
</event>
<event>
 5   0  0.5196696E-06  0.2394253E+04  0.7818609E-02  0.8441658E-01
       -1   -1    0    0    0  501  0.00000000000E+00  0.00000000000E+00  0.15388903258E+04  0.15388903258E+04  0.50400001928E-02 0.  1.
        1   -1    0    0  501    0  0.00000000000E+00  0.00000000000E+00 -0.93126277237E+03  0.93126277238E+03  0.50400001928E-02 0. -1.
    10030    2    1    2    0    0  0.00000000000E+00  0.00000000000E+00  0.60762755339E+03  0.24701530981E+04  0.23942525106E+04 0.  0.
        1    1    3    3  502    0 -0.81826600014E+03  0.76801688659E+03 -0.12617432363E+03  0.11293047175E+04  0.50400001928E-02 0. -1.
       -1    1    3    3    0  502  0.81826600014E+03 -0.76801688659E+03  0.73380187702E+03  0.13408483806E+04  0.50400001928E-02 0.  1.
</event>
<event>
 5   0  0.1154897E-05  0.2402360E+04  0.7818609E-02  0.8438620E-01
       -2   -1    0    0    0  501  0.00000000000E+00  0.00000000000E+00  0.12299118346E+04  0.12299118346E+04  0.25500000920E-02 0.  1.
        2   -1    0    0  501    0  0.00000000000E+00  0.00000000000E+00 -0.11731194905E+04  0.11731194905E+04  0.25500000920E-02 0. -1.
    10030    2    1    2    0    0  0.00000000000E+00  0.00000000000E+00  0.56792344005E+02  0.24030313251E+04  0.24023601269E+04 0.  0.
        4    1    3    3  502    0 -0.37596920036E+03 -0.89172364318E+03  0.74014822994E+03  0.12183369446E+04  0.12699999809E+01 0.  1.
       -4    1    3    3    0  502  0.37596920036E+03  0.89172364318E+03 -0.68335588594E+03  0.11846943805E+04  0.12699999809E+01 0. -1.
</event>
<event>
 5   0  0.5064437E-06  0.2390038E+04  0.7818609E-02  0.8443243E-01
        1   -1    0    0  501    0  0.00000000000E+00  0.00000000000E+00  0.15315892414E+04  0.15315892414E+04  0.50400001928E-02 0.  1.
       -1   -1    0    0    0  501  0.00000000000E+00  0.00000000000E+00 -0.93241055977E+03  0.93241055978E+03  0.50400001928E-02 0. -1.
    10030    2    1    2    0    0  0.00000000000E+00  0.00000000000E+00  0.59917868163E+03  0.24639998012E+04  0.23900376415E+04 0.  0.
        2    1    3    3  502    0  0.84149057320E+03  0.84842088810E+03  0.31202896707E+03  0.12350248841E+04  0.25500000920E-02 0. -1.
       -2    1    3    3    0  502 -0.84149057320E+03 -0.84842088810E+03  0.28714971456E+03  0.12289749170E+04  0.25500000920E-02 0.  1.
</event>
<event>
 5   0  0.5064437E-06  0.2397767E+04  0.7818609E-02  0.8440340E-01
       -1   -1    0    0    0  501  0.00000000000E+00  0.00000000000E+00  0.73186762213E+03  0.73186762215E+03  0.50400001928E-02 0.  1.
        1   -1    0    0  501    0  0.00000000000E+00  0.00000000000E+00 -0.19639098849E+04  0.19639098849E+04  0.50400001928E-02 0. -1.
    10030    2    1    2    0    0  0.00000000000E+00  0.00000000000E+00 -0.12320422628E+04  0.26957775071E+04  0.23977673428E+04 0.  0.
        2    1    3    3  502    0 -0.13239291865E+03 -0.41189771116E+03  0.64103701183E+03  0.77337963505E+03  0.25500000920E-02 0.  1.
       -2    1    3    3    0  502  0.13239291865E+03  0.41189771116E+03 -0.18730792746E+04  0.19223978720E+04  0.25500000920E-02 0. -1.
</event>
<event>
 5   0  0.1169371E-05  0.2394991E+04  0.7818609E-02  0.8441381E-01
       -2   -1    0    0    0  501  0.00000000000E+00  0.00000000000E+00  0.10400969684E+04  0.10400969684E+04  0.25500000920E-02 0.  1.
        2   -1    0    0  501    0  0.00000000000E+00  0.00000000000E+00 -0.13787136014E+04  0.13787136014E+04  0.25500000920E-02 0. -1.
    10030    2    1    2    0    0  0.00000000000E+00  0.00000000000E+00 -0.33861663295E+03  0.24188105698E+04  0.23949913045E+04 0.  0.
        2    1    3    3  502    0 -0.16174670140E+02 -0.45891518955E+03  0.94764343944E+03  0.10530398186E+04  0.25500000920E-02 0.  1.
       -2    1    3    3    0  502  0.16174670140E+02  0.45891518955E+03 -0.12862600724E+04  0.13657707513E+04  0.25500000920E-02 0. -1.
</event>
<event>
 5   0  0.5042742E-06  0.2403481E+04  0.7818609E-02  0.8438201E-01
        1   -1    0    0  501    0  0.00000000000E+00  0.00000000000E+00  0.24289982502E+04  0.24289982502E+04  0.50400001928E-02 0. -1.
       -1   -1    0    0    0  501  0.00000000000E+00  0.00000000000E+00 -0.59455793172E+03  0.59455793174E+03  0.50400001928E-02 0.  1.
    10030    2    1    2    0    0  0.00000000000E+00  0.00000000000E+00  0.18344403185E+04  0.30235561820E+04  0.24034809555E+04 0.  0.
        5    1    3    3  502    0  0.52634398999E+03 -0.16914025410E+03  0.22595093714E+04  0.23261666129E+04  0.46999998093E+01 0. -1.
       -5    1    3    3    0  502 -0.52634398999E+03  0.16914025410E+03 -0.42506905290E+03  0.69738956910E+03  0.46999998093E+01 0.  1.
</event>
<event>
 5   0  0.5034479E-06  0.2393359E+04  0.7818609E-02  0.8441994E-01
       -1   -1    0    0    0  501  0.00000000000E+00  0.00000000000E+00  0.13712753519E+04  0.13712753519E+04  0.50400001928E-02 0.  1.
        1   -1    0    0  501    0  0.00000000000E+00  0.00000000000E+00 -0.10443138694E+04  0.10443138694E+04  0.50400001928E-02 0. -1.
    10030    2    1    2    0    0  0.00000000000E+00  0.00000000000E+00  0.32696148254E+03  0.24155892213E+04  0.23933590360E+04 0.  0.
        4    1    3    3  502    0 -0.11596362662E+04 -0.29024334526E+03  0.10780692841E+03  0.12002588955E+04  0.12699999809E+01 0.  1.
       -4    1    3    3    0  502  0.11596362662E+04  0.29024334526E+03  0.21915455413E+03  0.12153303258E+04  0.12699999809E+01 0. -1.
</event>
<event>
 5   0  0.5042742E-06  0.2393619E+04  0.7818609E-02  0.8441896E-01
        1   -1    0    0  501    0  0.00000000000E+00  0.00000000000E+00  0.12666286940E+04  0.12666286940E+04  0.50400001928E-02 0.  1.
       -1   -1    0    0    0  501  0.00000000000E+00  0.00000000000E+00 -0.11308392450E+04  0.11308392450E+04  0.50400001928E-02 0. -1.
    10030    2    1    2    0    0  0.00000000000E+00  0.00000000000E+00  0.13578944905E+03  0.23974679390E+04  0.23936193816E+04 0.  0.
        5    1    3    3  502    0 -0.56123424465E+03 -0.15169812982E+03 -0.97989199380E+03  0.11393886999E+04  0.46999998093E+01 0. -1.
       -5    1    3    3    0  502  0.56123424465E+03  0.15169812982E+03  0.11156814428E+04  0.12580792391E+04  0.46999998093E+01 0.  1.
</event>
<event>
 5   0  0.1169371E-05  0.2397525E+04  0.7818609E-02  0.8440431E-01
        2   -1    0    0  501    0  0.00000000000E+00  0.00000000000E+00  0.68996567126E+03  0.68996567127E+03  0.25500000920E-02 0.  1.
       -2   -1    0    0    0  501  0.00000000000E+00  0.00000000000E+00 -0.20827573862E+04  0.20827573862E+04  0.25500000920E-02 0. -1.
    10030    2    1    2    0    0  0.00000000000E+00  0.00000000000E+00 -0.13927917149E+04  0.27727230574E+04  0.23975246385E+04 0.  0.
        2    1    3    3  502    0  0.12079652295E+03  0.87296525479E+03  0.24340838038E+03  0.91427992195E+03  0.25500000920E-02 0.  1.
       -2    1    3    3    0  502 -0.12079652295E+03 -0.87296525479E+03 -0.16362000953E+04  0.18584431355E+04  0.25500000920E-02 0. -1.
</event>
<event>
 5   0  0.1169371E-05  0.2411814E+04  0.7818609E-02  0.8435094E-01
        2   -1    0    0  501    0  0.00000000000E+00  0.00000000000E+00  0.14099793693E+04  0.14099793693E+04  0.25500000920E-02 0.  1.
       -2   -1    0    0    0  501  0.00000000000E+00  0.00000000000E+00 -0.10313712140E+04  0.10313712140E+04  0.25500000920E-02 0. -1.
    10030    2    1    2    0    0  0.00000000000E+00  0.00000000000E+00  0.37860815535E+03  0.24413505833E+04  0.24118143658E+04 0.  0.
        2    1    3    3  502    0  0.98732023774E+03 -0.54402756983E+03 -0.24424580750E+03  0.11534397527E+04  0.25500000920E-02 0. -1.
       -2    1    3    3    0  502 -0.98732023774E+03  0.54402756983E+03  0.62285396285E+03  0.12879108306E+04  0.25500000920E-02 0.  1.
</event>
<event>
 5   0  0.5196696E-06  0.2404722E+04  0.7818609E-02  0.8437738E-01
        1   -1    0    0  501    0  0.00000000000E+00  0.00000000000E+00  0.10274725825E+04  0.10274725825E+04  0.50400001928E-02 0.  1.
       -1   -1    0    0    0  501  0.00000000000E+00  0.00000000000E+00 -0.14070171185E+04  0.14070171185E+04  0.50400001928E-02 0. -1.
    10030    2    1    2    0    0  0.00000000000E+00  0.00000000000E+00 -0.37954453599E+03  0.24344897011E+04  0.24047216159E+04 0.  0.
        1    1    3    3  502    0 -0.84707505172E+03  0.69812594413E+03  0.30697018189E+03  0.11398011536E+04  0.50400001928E-02 0.  1.
       -1    1    3    3    0  502  0.84707505172E+03 -0.69812594413E+03 -0.68651471789E+03  0.12946885475E+04  0.50400001928E-02 0. -1.
</event>
<event>
 5   0  0.1174210E-05  0.2402599E+04  0.7818609E-02  0.8438531E-01
        2   -1    0    0  501    0  0.00000000000E+00  0.00000000000E+00  0.19911061084E+04  0.19911061084E+04  0.25500000920E-02 0.  1.
       -2   -1    0    0    0  501  0.00000000000E+00  0.00000000000E+00 -0.72478357585E+03  0.72478357586E+03  0.25500000920E-02 0. -1.
    10030    2    1    2    0    0  0.00000000000E+00  0.00000000000E+00  0.12663225325E+04  0.27158896843E+04  0.24025994299E+04 0.  0.
        3    1    3    3  502    0 -0.52522078596E+03  0.29220394936E+03  0.18089261830E+04  0.19061621043E+04  0.10100000352E+00 0.  1.
       -3    1    3    3    0  502  0.52522078596E+03 -0.29220394936E+03 -0.54260365048E+03  0.80972757996E+03  0.10100000352E+00 0. -1.
</event>
<event>
 5   0  0.1174210E-05  0.2397543E+04  0.7818609E-02  0.8440424E-01
       -2   -1    0    0    0  501  0.00000000000E+00  0.00000000000E+00  0.81869862048E+03  0.81869862048E+03  0.25500000920E-02 0.  1.
        2   -1    0    0  501    0  0.00000000000E+00  0.00000000000E+00 -0.17552896915E+04  0.17552896915E+04  0.25500000920E-02 0. -1.
    10030    2    1    2    0    0  0.00000000000E+00  0.00000000000E+00 -0.93659107106E+03  0.25739883120E+04  0.23975431166E+04 0.  0.
        3    1    3    3  502    0 -0.37453152810E+03 -0.99958034583E+03  0.11739756785E+03  0.10738793845E+04  0.10100000352E+00 0.  1.
       -3    1    3    3    0  502  0.37453152810E+03  0.99958034583E+03 -0.10539886389E+04  0.15001089275E+04  0.10100000352E+00 0. -1.
</event>
<event>
 5   0  0.1154897E-05  0.2398626E+04  0.7818609E-02  0.8440018E-01
        2   -1    0    0  501    0  0.00000000000E+00  0.00000000000E+00  0.21375666161E+04  0.21375666161E+04  0.25500000920E-02 0.  1.
       -2   -1    0    0    0  501  0.00000000000E+00  0.00000000000E+00 -0.67289196655E+03  0.67289196656E+03  0.25500000920E-02 0. -1.
    10030    2    1    2    0    0  0.00000000000E+00  0.00000000000E+00  0.14646746496E+04  0.28104585827E+04  0.23986257765E+04 0.  0.
        4    1    3    3  502    0  0.11460312289E+04 -0.31928747936E+03  0.91010215191E+03  0.14978716941E+04  0.12699999809E+01 0. -1.
       -4    1    3    3    0  502 -0.11460312289E+04  0.31928747936E+03  0.55457249764E+03  0.13125868886E+04  0.12699999809E+01 0.  1.
</event>
<event>
 5   0  0.5034479E-06  0.2400470E+04  0.7818609E-02  0.8439327E-01
        1   -1    0    0  501    0  0.00000000000E+00  0.00000000000E+00  0.11633327778E+04  0.11633327778E+04  0.50400001928E-02 0.  1.
       -1   -1    0    0    0  501  0.00000000000E+00  0.00000000000E+00 -0.12383081619E+04  0.12383081620E+04  0.50400001928E-02 0. -1.
    10030    2    1    2    0    0  0.00000000000E+00  0.00000000000E+00 -0.74975384149E+02  0.24016409398E+04  0.24004703488E+04 0.  0.
        4    1    3    3  502    0  0.16841302051E+03 -0.71706204186E+03 -0.98559000678E+03  0.12304187059E+04  0.12699999809E+01 0. -1.
       -4    1    3    3    0  502 -0.16841302051E+03  0.71706204186E+03  0.91061462263E+03  0.11712222339E+04  0.12699999809E+01 0.  1.
</event>
<event>
 5   0  0.5034479E-06  0.2406700E+04  0.7818609E-02  0.8437000E-01
        1   -1    0    0  501    0  0.00000000000E+00  0.00000000000E+00  0.10294647410E+04  0.10294647411E+04  0.50400001928E-02 0.  1.
       -1   -1    0    0    0  501  0.00000000000E+00  0.00000000000E+00 -0.14066056774E+04  0.14066056774E+04  0.50400001928E-02 0. -1.
    10030    2    1    2    0    0  0.00000000000E+00  0.00000000000E+00 -0.37714093640E+03  0.24360704185E+04  0.24066997731E+04 0.  0.
        4    1    3    3  502    0  0.42571282821E+02  0.28223334350E+02 -0.14055072716E+04  0.14064356274E+04  0.12699999809E+01 0. -1.
       -4    1    3    3    0  502 -0.42571282821E+02 -0.28223334350E+02  0.10283663352E+04  0.10296347911E+04  0.12699999809E+01 0.  1.
</event>
<event>
 5   0  0.1198313E-05  0.2403616E+04  0.7818609E-02  0.8438151E-01
       -2   -1    0    0    0  501  0.00000000000E+00  0.00000000000E+00  0.11851406876E+04  0.11851406876E+04  0.25500000920E-02 0.  1.
        2   -1    0    0  501    0  0.00000000000E+00  0.00000000000E+00 -0.12187100521E+04  0.12187100521E+04  0.25500000920E-02 0. -1.
    10030    2    1    2    0    0  0.00000000000E+00  0.00000000000E+00 -0.33569364499E+02  0.24038507397E+04  0.24036163331E+04 0.  0.
        5    1    3    3  502    0  0.99917879313E+03 -0.57747555848E+03  0.31863511216E+03  0.11972412898E+04  0.46999998093E+01 0. -1.
       -5    1    3    3    0  502 -0.99917879313E+03  0.57747555848E+03 -0.35220447666E+03  0.12066094499E+04  0.46999998093E+01 0.  1.
</event>
<event>
 5   0  0.5034479E-06  0.2405726E+04  0.7818609E-02  0.8437363E-01
       -1   -1    0    0    0  501  0.00000000000E+00  0.00000000000E+00  0.48406675486E+03  0.48406675488E+03  0.50400001928E-02 0. -1.
        1   -1    0    0  501    0  0.00000000000E+00  0.00000000000E+00 -0.29890083938E+04  0.29890083938E+04  0.50400001928E-02 0.  1.
    10030    2    1    2    0    0  0.00000000000E+00  0.00000000000E+00 -0.25049416389E+04  0.34730751486E+04  0.24057261635E+04 0.  0.
        4    1    3    3  502    0 -0.45123318732E+03 -0.85160116441E+03 -0.22915544303E+04  0.24859724963E+04  0.12699999809E+01 0.  1.
       -4    1    3    3    0  502  0.45123318732E+03  0.85160116441E+03 -0.21338720864E+03  0.98710265235E+03  0.12699999809E+01 0. -1.
</event>
<event>
 5   0  0.1174210E-05  0.2396446E+04  0.7818609E-02  0.8440835E-01
       -2   -1    0    0    0  501  0.00000000000E+00  0.00000000000E+00  0.77563370049E+03  0.77563370049E+03  0.25500000920E-02 0. -1.
        2   -1    0    0  501    0  0.00000000000E+00  0.00000000000E+00 -0.18510524370E+04  0.18510524370E+04  0.25500000920E-02 0.  1.
    10030    2    1    2    0    0  0.00000000000E+00  0.00000000000E+00 -0.10754187365E+04  0.26266861375E+04  0.23964462452E+04 0.  0.
        3    1    3    3  502    0 -0.62250349628E+03 -0.12892428980E+03 -0.16509717630E+04  0.17691353391E+04  0.10100000352E+00 0.  1.
       -3    1    3    3    0  502  0.62250349628E+03  0.12892428980E+03  0.57555302651E+03  0.85755079844E+03  0.10100000352E+00 0. -1.
</event>
<event>
 5   0  0.1174210E-05  0.2344527E+04  0.7818609E-02  0.8460569E-01
        2   -1    0    0  501    0  0.00000000000E+00  0.00000000000E+00  0.14216293040E+04  0.14216293040E+04  0.25500000920E-02 0.  1.
       -2   -1    0    0    0  501  0.00000000000E+00  0.00000000000E+00 -0.96663866091E+03  0.96663866092E+03  0.25500000920E-02 0. -1.
    10030    2    1    2    0    0  0.00000000000E+00  0.00000000000E+00  0.45499064305E+03  0.23882679649E+04  0.23445271137E+04 0.  0.
        3    1    3    3  502    0  0.55287310698E+03 -0.95952044775E+03 -0.16419591471E+03  0.11195126041E+04  0.10100000352E+00 0. -1.
       -3    1    3    3    0  502 -0.55287310698E+03  0.95952044775E+03  0.61918655777E+03  0.12687553608E+04  0.10100000352E+00 0.  1.
</event>
<event>
 5   0  0.5034479E-06  0.2436146E+04  0.7818609E-02  0.8426094E-01
       -1   -1    0    0    0  501  0.00000000000E+00  0.00000000000E+00  0.13466474451E+04  0.13466474451E+04  0.50400001928E-02 0.  1.
        1   -1    0    0  501    0  0.00000000000E+00  0.00000000000E+00 -0.11017748492E+04  0.11017748492E+04  0.50400001928E-02 0. -1.
    10030    2    1    2    0    0  0.00000000000E+00  0.00000000000E+00  0.24487259587E+03  0.24484222943E+04  0.24361463715E+04 0.  0.
        4    1    3    3  502    0 -0.25343458697E+02  0.51076883818E+03  0.12335266889E+04  0.13353339665E+04  0.12699999809E+01 0.  1.
       -4    1    3    3    0  502  0.25343458697E+02 -0.51076883818E+03 -0.98865409305E+03  0.11130883278E+04  0.12699999809E+01 0. -1.
</event>
<event>
 5   0  0.5104174E-06  0.2395396E+04  0.7818609E-02  0.8441229E-01
       -1   -1    0    0    0  501  0.00000000000E+00  0.00000000000E+00  0.97091571587E+03  0.97091571588E+03  0.50400001928E-02 0. -1.
        1   -1    0    0  501    0  0.00000000000E+00  0.00000000000E+00 -0.14774516201E+04  0.14774516201E+04  0.50400001928E-02 0.  1.
    10030    2    1    2    0    0  0.00000000000E+00  0.00000000000E+00 -0.50653590421E+03  0.24483673360E+04  0.23953964160E+04 0.  0.
        3    1    3    3  502    0 -0.89643629689E+03  0.12506186587E+02 -0.10650131669E+04  0.13921233764E+04  0.10100000352E+00 0.  1.
       -3    1    3    3    0  502  0.89643629689E+03 -0.12506186587E+02  0.55847726270E+03  0.10562439596E+04  0.10100000352E+00 0. -1.
</event>
<event>
 5   0  0.5034479E-06  0.2397824E+04  0.7818609E-02  0.8440319E-01
        1   -1    0    0  501    0  0.00000000000E+00  0.00000000000E+00  0.10223514440E+04  0.10223514440E+04  0.50400001928E-02 0. -1.
       -1   -1    0    0    0  501  0.00000000000E+00  0.00000000000E+00 -0.14059643784E+04  0.14059643784E+04  0.50400001928E-02 0.  1.
    10030    2    1    2    0    0  0.00000000000E+00  0.00000000000E+00 -0.38361293439E+03  0.24283158224E+04  0.23978237737E+04 0.  0.
        4    1    3    3  502    0  0.10103720575E+04 -0.58646333335E+03 -0.46467140534E+03  0.12572637208E+04  0.12699999809E+01 0. -1.
       -4    1    3    3    0  502 -0.10103720575E+04  0.58646333335E+03  0.81058470944E+02  0.11710521015E+04  0.12699999809E+01 0.  1.
</event>
<event>
 5   0  0.1198313E-05  0.2293309E+04  0.7818609E-02  0.8480564E-01
        2   -1    0    0  501    0  0.00000000000E+00  0.00000000000E+00  0.21266885411E+04  0.21266885411E+04  0.25500000920E-02 0.  1.
       -2   -1    0    0    0  501  0.00000000000E+00  0.00000000000E+00 -0.61824587332E+03  0.61824587333E+03  0.25500000920E-02 0. -1.
    10030    2    1    2    0    0  0.00000000000E+00  0.00000000000E+00  0.15084426678E+04  0.27449344144E+04  0.22933088884E+04 0.  0.
        5    1    3    3  502    0 -0.10648333567E+03 -0.23809616137E+03 -0.58225682397E+03  0.63802318288E+03  0.46999998093E+01 0. -1.
       -5    1    3    3    0  502  0.10648333567E+03  0.23809616137E+03  0.20906994918E+04  0.21069112316E+04  0.46999998093E+01 0.  1.
</event>
<event>
 5   0  0.5034479E-06  0.2367724E+04  0.7818609E-02  0.8451687E-01
        1   -1    0    0  501    0  0.00000000000E+00  0.00000000000E+00  0.15899500603E+04  0.15899500603E+04  0.50400001928E-02 0. -1.
       -1   -1    0    0    0  501  0.00000000000E+00  0.00000000000E+00 -0.88149260044E+03  0.88149260045E+03  0.50400001928E-02 0.  1.
    10030    2    1    2    0    0  0.00000000000E+00  0.00000000000E+00  0.70845745983E+03  0.24714426607E+04  0.23677239816E+04 0.  0.
        4    1    3    3  502    0 -0.67301293823E+03  0.91546914762E+03  0.70120162107E+03  0.13351836958E+04  0.12699999809E+01 0. -1.
       -4    1    3    3    0  502  0.67301293823E+03 -0.91546914762E+03  0.72558387598E+01  0.11362589649E+04  0.12699999809E+01 0.  1.
</event>
<event>
 5   0  0.5064437E-06  0.2399247E+04  0.7818609E-02  0.8439786E-01
       -1   -1    0    0    0  501  0.00000000000E+00  0.00000000000E+00  0.11497313447E+04  0.11497313447E+04  0.50400001928E-02 0. -1.
        1   -1    0    0  501    0  0.00000000000E+00  0.00000000000E+00 -0.12516805893E+04  0.12516805893E+04  0.50400001928E-02 0.  1.
    10030    2    1    2    0    0  0.00000000000E+00  0.00000000000E+00 -0.10194924458E+03  0.24014119340E+04  0.23992468878E+04 0.  0.
        2    1    3    3  502    0  0.74742705861E+03 -0.90663671761E+03 -0.29297589146E+03  0.12109798589E+04  0.25500000920E-02 0.  1.
       -2    1    3    3    0  502 -0.74742705861E+03  0.90663671761E+03  0.19102664688E+03  0.11904320751E+04  0.25500000920E-02 0. -1.
</event>
<event>
 5   0  0.5042742E-06  0.2405932E+04  0.7818609E-02  0.8437286E-01
        1   -1    0    0  501    0  0.00000000000E+00  0.00000000000E+00  0.11988277224E+04  0.11988277224E+04  0.50400001928E-02 0.  1.
       -1   -1    0    0    0  501  0.00000000000E+00  0.00000000000E+00 -0.12071185898E+04  0.12071185898E+04  0.50400001928E-02 0. -1.
    10030    2    1    2    0    0  0.00000000000E+00  0.00000000000E+00 -0.82908674031E+01  0.24059463123E+04  0.24059320271E+04 0.  0.
        5    1    3    3  502    0  0.68559214820E+02 -0.53728510281E+03  0.10699789505E+04  0.11992717340E+04  0.46999998093E+01 0.  1.
       -5    1    3    3    0  502 -0.68559214820E+02  0.53728510281E+03 -0.10782698179E+04  0.12066745782E+04  0.46999998093E+01 0. -1.
</event>
<event>
 5   0  0.1169371E-05  0.2400914E+04  0.7818609E-02  0.8439161E-01
       -2   -1    0    0    0  501  0.00000000000E+00  0.00000000000E+00  0.92708441433E+03  0.92708441433E+03  0.25500000920E-02 0. -1.
        2   -1    0    0  501    0  0.00000000000E+00  0.00000000000E+00 -0.15544400175E+04  0.15544400175E+04  0.25500000920E-02 0.  1.
    10030    2    1    2    0    0  0.00000000000E+00  0.00000000000E+00 -0.62735560320E+03  0.24815244319E+04  0.24009140870E+04 0.  0.
        2    1    3    3  502    0 -0.67569907633E+03  0.62431351700E+03  0.48342254144E+03  0.10392468248E+04  0.25500000920E-02 0. -1.
       -2    1    3    3    0  502  0.67569907633E+03 -0.62431351700E+03 -0.11107781446E+04  0.14422776071E+04  0.25500000920E-02 0.  1.
</event>
<event>
 5   0  0.1154897E-05  0.2388591E+04  0.7818609E-02  0.8443787E-01
       -2   -1    0    0    0  501  0.00000000000E+00  0.00000000000E+00  0.10275204308E+04  0.10275204308E+04  0.25500000920E-02 0.  1.
        2   -1    0    0  501    0  0.00000000000E+00  0.00000000000E+00 -0.13881398683E+04  0.13881398683E+04  0.25500000920E-02 0. -1.
    10030    2    1    2    0    0  0.00000000000E+00  0.00000000000E+00 -0.36061943751E+03  0.24156602991E+04  0.23885912798E+04 0.  0.
        4    1    3    3  502    0 -0.45352059959E+03 -0.90580675041E+03  0.45945202778E+03  0.11123239555E+04  0.12699999809E+01 0. -1.
       -4    1    3    3    0  502  0.45352059959E+03  0.90580675041E+03 -0.82007146529E+03  0.13033363436E+04  0.12699999809E+01 0.  1.
</event>
<event>
 5   0  0.1174210E-05  0.2400053E+04  0.7818609E-02  0.8439484E-01
        2   -1    0    0  501    0  0.00000000000E+00  0.00000000000E+00  0.21238533867E+04  0.21238533867E+04  0.25500000920E-02 0. -1.
       -2   -1    0    0    0  501  0.00000000000E+00  0.00000000000E+00 -0.67804281232E+03  0.67804281232E+03  0.25500000920E-02 0.  1.
    10030    2    1    2    0    0  0.00000000000E+00  0.00000000000E+00  0.14458105744E+04  0.28018961991E+04  0.24000529355E+04 0.  0.
        3    1    3    3  502    0 -0.10181970244E+04 -0.62883075044E+03  0.82673591946E+03  0.14545258966E+04  0.10100000352E+00 0.  1.
       -3    1    3    3    0  502  0.10181970244E+04  0.62883075044E+03  0.61907465496E+03  0.13473703024E+04  0.10100000352E+00 0. -1.
</event>
<event>
 5   0  0.5196696E-06  0.2400982E+04  0.7818609E-02  0.8439136E-01
       -1   -1    0    0    0  501  0.00000000000E+00  0.00000000000E+00  0.16740111346E+04  0.16740111346E+04  0.50400001928E-02 0. -1.
        1   -1    0    0  501    0  0.00000000000E+00  0.00000000000E+00 -0.86091372743E+03  0.86091372744E+03  0.50400001928E-02 0.  1.
    10030    2    1    2    0    0  0.00000000000E+00  0.00000000000E+00  0.81309740713E+03  0.25349248620E+04  0.24009824369E+04 0.  0.
        1    1    3    3  502    0 -0.43348249369E+03 -0.32429200514E+03 -0.72472384875E+03  0.90459771938E+03  0.50400001928E-02 0.  1.
       -1    1    3    3    0  502  0.43348249369E+03  0.32429200514E+03  0.15378212559E+04  0.16303271426E+04  0.50400001928E-02 0. -1.
</event>
<event>
 5   0  0.5104174E-06  0.2389306E+04  0.7818609E-02  0.8443518E-01
       -1   -1    0    0    0  501  0.00000000000E+00  0.00000000000E+00  0.79797912067E+03  0.79797912068E+03  0.50400001928E-02 0.  1.
        1   -1    0    0  501    0  0.00000000000E+00  0.00000000000E+00 -0.17885130302E+04  0.17885130302E+04  0.50400001928E-02 0. -1.
    10030    2    1    2    0    0  0.00000000000E+00  0.00000000000E+00 -0.99053390954E+03  0.25864921509E+04  0.23893062216E+04 0.  0.
        3    1    3    3  502    0 -0.72824227051E+03 -0.22128791074E+03 -0.14920699589E+04  0.16749859452E+04  0.10100000352E+00 0. -1.
       -3    1    3    3    0  502  0.72824227051E+03  0.22128791074E+03  0.50153604940E+03  0.91150620571E+03  0.10100000352E+00 0.  1.
</event>
<event>
 5   0  0.5042742E-06  0.2400060E+04  0.7818609E-02  0.8439481E-01
       -1   -1    0    0    0  501  0.00000000000E+00  0.00000000000E+00  0.12098168944E+04  0.12098168945E+04  0.50400001928E-02 0.  1.
        1   -1    0    0  501    0  0.00000000000E+00  0.00000000000E+00 -0.11903218939E+04  0.11903218939E+04  0.50400001928E-02 0. -1.
    10030    2    1    2    0    0  0.00000000000E+00  0.00000000000E+00  0.19495000538E+02  0.24001387884E+04  0.24000596135E+04 0.  0.
        5    1    3    3  502    0  0.13291232493E+03  0.46362512324E+02 -0.11820276393E+04  0.11903892636E+04  0.46999998093E+01 0. -1.
       -5    1    3    3    0  502 -0.13291232493E+03 -0.46362512324E+02  0.12015226399E+04  0.12097495248E+04  0.46999998093E+01 0.  1.
</event>
<event>
 5   0  0.5042742E-06  0.2397776E+04  0.7818609E-02  0.8440337E-01
        1   -1    0    0  501    0  0.00000000000E+00  0.00000000000E+00  0.11869698413E+04  0.11869698413E+04  0.50400001928E-02 0. -1.
       -1   -1    0    0    0  501  0.00000000000E+00  0.00000000000E+00 -0.12109260636E+04  0.12109260636E+04  0.50400001928E-02 0.  1.
    10030    2    1    2    0    0  0.00000000000E+00  0.00000000000E+00 -0.23956222304E+02  0.23978959048E+04  0.23977762343E+04 0.  0.
        5    1    3    3  502    0  0.81661031972E+03  0.73808843348E+03 -0.48706358283E+03  0.12036943024E+04  0.46999998093E+01 0.  1.
       -5    1    3    3    0  502 -0.81661031972E+03 -0.73808843348E+03  0.46310736053E+03  0.11942016024E+04  0.46999998093E+01 0. -1.
</event>
<event>
 5   0  0.1169371E-05  0.2419698E+04  0.7818609E-02  0.8432166E-01
       -2   -1    0    0    0  501  0.00000000000E+00  0.00000000000E+00  0.72066049909E+03  0.72066049909E+03  0.25500000920E-02 0. -1.
        2   -1    0    0  501    0  0.00000000000E+00  0.00000000000E+00 -0.20311011110E+04  0.20311011110E+04  0.25500000920E-02 0.  1.
    10030    2    1    2    0    0  0.00000000000E+00  0.00000000000E+00 -0.13104406120E+04  0.27517616101E+04  0.24196977831E+04 0.  0.
        2    1    3    3  502    0  0.88074039304E+03  0.52455868891E+03  0.75507707136E+02  0.10278943875E+04  0.25500000920E-02 0. -1.
       -2    1    3    3    0  502 -0.88074039304E+03 -0.52455868891E+03 -0.13859483191E+04  0.17238672226E+04  0.25500000920E-02 0.  1.
</event>
<event>
 5   0  0.1169371E-05  0.2392607E+04  0.7818609E-02  0.8442277E-01
        2   -1    0    0  501    0  0.00000000000E+00  0.00000000000E+00  0.92596613239E+03  0.92596613239E+03  0.25500000920E-02 0. -1.
       -2   -1    0    0    0  501  0.00000000000E+00  0.00000000000E+00 -0.15455660600E+04  0.15455660600E+04  0.25500000920E-02 0.  1.
    10030    2    1    2    0    0  0.00000000000E+00  0.00000000000E+00 -0.61959992758E+03  0.24715321924E+04  0.23926068017E+04 0.  0.
        2    1    3    3  502    0 -0.15402163651E+03  0.89979831344E+03 -0.11084682004E+04  0.14359879598E+04  0.25500000920E-02 0.  1.
       -2    1    3    3    0  502  0.15402163651E+03 -0.89979831344E+03  0.48886827284E+03  0.10355442326E+04  0.25500000920E-02 0. -1.
</event>
<event>
 5   0  0.5104174E-06  0.2404664E+04  0.7818609E-02  0.8437760E-01
        1   -1    0    0  501    0  0.00000000000E+00  0.00000000000E+00  0.12310661770E+04  0.12310661770E+04  0.50400001928E-02 0. -1.
       -1   -1    0    0    0  501  0.00000000000E+00  0.00000000000E+00 -0.11742680651E+04  0.11742680652E+04  0.50400001928E-02 0.  1.
    10030    2    1    2    0    0  0.00000000000E+00  0.00000000000E+00  0.56798111883E+02  0.24053342422E+04  0.24046635505E+04 0.  0.
        3    1    3    3  502    0 -0.10011351805E+04  0.50287147303E+02 -0.63571476367E+03  0.11869851380E+04  0.10100000352E+00 0.  1.
       -3    1    3    3    0  502  0.10011351805E+04 -0.50287147303E+02  0.69251287555E+03  0.12183491042E+04  0.10100000352E+00 0. -1.
</event>
<event>
 5   0  0.5196696E-06  0.2399409E+04  0.7818609E-02  0.8439725E-01
        1   -1    0    0  501    0  0.00000000000E+00  0.00000000000E+00  0.14537532341E+04  0.14537532341E+04  0.50400001928E-02 0. -1.
       -1   -1    0    0    0  501  0.00000000000E+00  0.00000000000E+00 -0.99005205750E+03  0.99005205752E+03  0.50400001928E-02 0.  1.
    10030    2    1    2    0    0  0.00000000000E+00  0.00000000000E+00  0.46370117659E+03  0.24438052916E+04  0.23994094111E+04 0.  0.
        1    1    3    3  502    0 -0.31040454271E+03  0.32954416583E+03  0.13634164270E+04  0.14366122271E+04  0.50400001928E-02 0. -1.
       -1    1    3    3    0  502  0.31040454271E+03 -0.32954416583E+03 -0.89971525046E+03  0.10071930646E+04  0.50400001928E-02 0.  1.
</event>
<event>
 5   0  0.1168435E-05  0.2399903E+04  0.7818609E-02  0.8439540E-01
       -2   -1    0    0    0  501  0.00000000000E+00  0.00000000000E+00  0.10030803124E+04  0.10030803124E+04  0.25500000920E-02 0. -1.
        2   -1    0    0  501    0  0.00000000000E+00  0.00000000000E+00 -0.14354613851E+04  0.14354613851E+04  0.25500000920E-02 0.  1.
    10030    2    1    2    0    0  0.00000000000E+00  0.00000000000E+00 -0.43238107278E+03  0.24385416975E+04  0.23999025435E+04 0.  0.
        1    1    3    3  502    0 -0.71238131906E+03 -0.71453249691E+03 -0.87613905549E+03  0.13362871987E+04  0.50400001928E-02 0.  1.
       -1    1    3    3    0  502  0.71238131906E+03  0.71453249691E+03  0.44375798271E+03  0.11022544988E+04  0.50400001928E-02 0. -1.
</event>
<event>
 5   0  0.1198313E-05  0.2399549E+04  0.7818609E-02  0.8439673E-01
        2   -1    0    0  501    0  0.00000000000E+00  0.00000000000E+00  0.17069373183E+04  0.17069373183E+04  0.25500000920E-02 0. -1.
       -2   -1    0    0    0  501  0.00000000000E+00  0.00000000000E+00 -0.84329902371E+03  0.84329902371E+03  0.25500000920E-02 0.  1.
    10030    2    1    2    0    0  0.00000000000E+00  0.00000000000E+00  0.86363829460E+03  0.25502363420E+04  0.23995487693E+04 0.  0.
        5    1    3    3  502    0  0.80732054468E+03 -0.49164823913E+03  0.12171055764E+04  0.15410556534E+04  0.46999998093E+01 0. -1.
       -5    1    3    3    0  502 -0.80732054468E+03  0.49164823913E+03 -0.35346728179E+03  0.10091806886E+04  0.46999998093E+01 0.  1.
</event>
<event>
 5   0  0.5064437E-06  0.2403144E+04  0.7818609E-02  0.8438327E-01
        1   -1    0    0  501    0  0.00000000000E+00  0.00000000000E+00  0.14895623747E+04  0.14895623747E+04  0.50400001928E-02 0.  1.
       -1   -1    0    0    0  501  0.00000000000E+00  0.00000000000E+00 -0.96926162529E+03  0.96926162530E+03  0.50400001928E-02 0. -1.
    10030    2    1    2    0    0  0.00000000000E+00  0.00000000000E+00  0.52030074942E+03  0.24588240000E+04  0.24031443139E+04 0.  0.
        2    1    3    3  502    0 -0.38522815969E+03  0.97284574567E+03 -0.34425281324E+03  0.11015169446E+04  0.25500000920E-02 0. -1.
       -2    1    3    3    0  502  0.38522815969E+03 -0.97284574567E+03  0.86455356266E+03  0.13573070554E+04  0.25500000920E-02 0.  1.
</event>
<event>
 5   0  0.5064437E-06  0.2400062E+04  0.7818609E-02  0.8439481E-01
       -1   -1    0    0    0  501  0.00000000000E+00  0.00000000000E+00  0.15735570334E+04  0.15735570334E+04  0.50400001928E-02 0.  1.
        1   -1    0    0  501    0  0.00000000000E+00  0.00000000000E+00 -0.91517103677E+03  0.91517103678E+03  0.50400001928E-02 0. -1.
    10030    2    1    2    0    0  0.00000000000E+00  0.00000000000E+00  0.65838599663E+03  0.24887280702E+04  0.24000615173E+04 0.  0.
        2    1    3    3  502    0 -0.10539105318E+04 -0.33054050900E+03  0.81566138262E+03  0.13730578751E+04  0.25500000920E-02 0.  1.
       -2    1    3    3    0  502  0.10539105318E+04  0.33054050900E+03 -0.15727538598E+03  0.11156701951E+04  0.25500000920E-02 0. -1.
</event>
<event>
 5   0  0.5104174E-06  0.2401230E+04  0.7818609E-02  0.8439043E-01
        1   -1    0    0  501    0  0.00000000000E+00  0.00000000000E+00  0.84117463900E+03  0.84117463901E+03  0.50400001928E-02 0. -1.
       -1   -1    0    0    0  501  0.00000000000E+00  0.00000000000E+00 -0.17136469199E+04  0.17136469199E+04  0.50400001928E-02 0.  1.
    10030    2    1    2    0    0  0.00000000000E+00  0.00000000000E+00 -0.87247228092E+03  0.25548215589E+04  0.24012299592E+04 0.  0.
        3    1    3    3  502    0 -0.56041336645E+03  0.26716045423E+03  0.65713268903E+03  0.90402501669E+03  0.10100000352E+00 0. -1.
       -3    1    3    3    0  502  0.56041336645E+03 -0.26716045423E+03 -0.15296049700E+04  0.16507965423E+04  0.10100000352E+00 0.  1.
</event>
<event>
 5   0  0.1174210E-05  0.2395415E+04  0.7818609E-02  0.8441222E-01
       -2   -1    0    0    0  501  0.00000000000E+00  0.00000000000E+00  0.91091068623E+03  0.91091068623E+03  0.25500000920E-02 0.  1.
        2   -1    0    0  501    0  0.00000000000E+00  0.00000000000E+00 -0.15748007985E+04  0.15748007985E+04  0.25500000920E-02 0. -1.
    10030    2    1    2    0    0  0.00000000000E+00  0.00000000000E+00 -0.66389011231E+03  0.24857114848E+04  0.23954146832E+04 0.  0.
        3    1    3    3  502    0  0.13642531820E+03 -0.67230473162E+03  0.68684665729E+03  0.97075427397E+03  0.10100000352E+00 0.  1.
       -3    1    3    3    0  502 -0.13642531820E+03  0.67230473162E+03 -0.13507367696E+04  0.15149572108E+04  0.10100000352E+00 0. -1.
</event>
<event>
 5   0  0.5042742E-06  0.2400266E+04  0.7818609E-02  0.8439404E-01
        1   -1    0    0  501    0  0.00000000000E+00  0.00000000000E+00  0.13295849189E+04  0.13295849189E+04  0.50400001928E-02 0.  1.
       -1   -1    0    0    0  501  0.00000000000E+00  0.00000000000E+00 -0.10832847888E+04  0.10832847888E+04  0.50400001928E-02 0. -1.
    10030    2    1    2    0    0  0.00000000000E+00  0.00000000000E+00  0.24630013009E+03  0.24128697077E+04  0.24002659170E+04 0.  0.
        5    1    3    3  502    0  0.40922333188E+03  0.39938945206E+02  0.12565625065E+04  0.13221309608E+04  0.46999998093E+01 0.  1.
       -5    1    3    3    0  502 -0.40922333188E+03 -0.39938945206E+02 -0.10102623765E+04  0.10907387469E+04  0.46999998093E+01 0. -1.
</event>
<event>
 5   0  0.5064437E-06  0.2401368E+04  0.7818609E-02  0.8438992E-01
       -1   -1    0    0    0  501  0.00000000000E+00  0.00000000000E+00  0.11482718850E+04  0.11482718850E+04  0.50400001928E-02 0.  1.
        1   -1    0    0  501    0  0.00000000000E+00  0.00000000000E+00 -0.12554881826E+04  0.12554881826E+04  0.50400001928E-02 0. -1.
    10030    2    1    2    0    0  0.00000000000E+00  0.00000000000E+00 -0.10721629754E+03  0.24037600676E+04  0.24013677620E+04 0.  0.
        2    1    3    3  502    0  0.71227360036E+03  0.35133717037E+03  0.84777230272E+03  0.11616752413E+04  0.25500000920E-02 0.  1.
       -2    1    3    3    0  502 -0.71227360036E+03 -0.35133717037E+03 -0.95498860027E+03  0.12420848263E+04  0.25500000920E-02 0. -1.
</event>
<event>
 5   0  0.1174210E-05  0.2411507E+04  0.7818609E-02  0.8435208E-01
        2   -1    0    0  501    0  0.00000000000E+00  0.00000000000E+00  0.11640420548E+04  0.11640420548E+04  0.25500000920E-02 0. -1.
       -2   -1    0    0    0  501  0.00000000000E+00  0.00000000000E+00 -0.12489597793E+04  0.12489597793E+04  0.25500000920E-02 0.  1.
    10030    2    1    2    0    0  0.00000000000E+00  0.00000000000E+00 -0.84917724451E+02  0.24130018341E+04  0.24115071701E+04 0.  0.
        3    1    3    3  502    0  0.53509920058E+03  0.28447913114E+03  0.10005797385E+04  0.11697945776E+04  0.10100000352E+00 0. -1.
       -3    1    3    3    0  502 -0.53509920058E+03 -0.28447913114E+03 -0.10854974629E+04  0.12432072565E+04  0.10100000352E+00 0.  1.
</event>
<event>
 5   0  0.1198313E-05  0.2402911E+04  0.7818609E-02  0.8438414E-01
       -2   -1    0    0    0  501  0.00000000000E+00  0.00000000000E+00  0.72901024768E+03  0.72901024769E+03  0.25500000920E-02 0. -1.
        2   -1    0    0  501    0  0.00000000000E+00  0.00000000000E+00 -0.19800759957E+04  0.19800759957E+04  0.25500000920E-02 0.  1.
    10030    2    1    2    0    0  0.00000000000E+00  0.00000000000E+00 -0.12510657480E+04  0.27090862434E+04  0.24029113109E+04 0.  0.
        5    1    3    3  502    0 -0.47798109019E+03  0.63114791690E+03 -0.16443722656E+04  0.18250468085E+04  0.46999998093E+01 0.  1.
       -5    1    3    3    0  502  0.47798109019E+03 -0.63114791690E+03  0.39330651757E+03  0.88403943484E+03  0.46999998093E+01 0. -1.
</event>
<event>
 5   0  0.1198313E-05  0.2398529E+04  0.7818609E-02  0.8440054E-01
       -2   -1    0    0    0  501  0.00000000000E+00  0.00000000000E+00  0.12047980351E+04  0.12047980351E+04  0.25500000920E-02 0.  1.
        2   -1    0    0  501    0  0.00000000000E+00  0.00000000000E+00 -0.11937567329E+04  0.11937567329E+04  0.25500000920E-02 0. -1.
    10030    2    1    2    0    0  0.00000000000E+00  0.00000000000E+00  0.11041302220E+02  0.23985547680E+04  0.23985293546E+04 0.  0.
        5    1    3    3  502    0  0.91464239341E+03  0.64624889401E+03 -0.42344232473E+03  0.11973027325E+04  0.46999998093E+01 0. -1.
       -5    1    3    3    0  502 -0.91464239341E+03 -0.64624889401E+03  0.43448362695E+03  0.12012520355E+04  0.46999998093E+01 0.  1.
</event>
<event>
 5   0  0.1198313E-05  0.2385490E+04  0.7818609E-02  0.8444956E-01
       -2   -1    0    0    0  501  0.00000000000E+00  0.00000000000E+00  0.61984628357E+03  0.61984628358E+03  0.25500000920E-02 0.  1.
        2   -1    0    0  501    0  0.00000000000E+00  0.00000000000E+00 -0.22951500487E+04  0.22951500487E+04  0.25500000920E-02 0. -1.
    10030    2    1    2    0    0  0.00000000000E+00  0.00000000000E+00 -0.16753037651E+04  0.29149963322E+04  0.23854896587E+04 0.  0.
        5    1    3    3  502    0 -0.10797237542E+04  0.44837285723E+03 -0.11262451759E+04  0.16233582139E+04  0.46999998093E+01 0.  1.
       -5    1    3    3    0  502  0.10797237542E+04 -0.44837285723E+03 -0.54905858923E+03  0.12916381184E+04  0.46999998093E+01 0. -1.
</event>
<event>
 5   0  0.1169371E-05  0.2395087E+04  0.7818609E-02  0.8441345E-01
        2   -1    0    0  501    0  0.00000000000E+00  0.00000000000E+00  0.15463187161E+04  0.15463187161E+04  0.25500000920E-02 0.  1.
       -2   -1    0    0    0  501  0.00000000000E+00  0.00000000000E+00 -0.92743539621E+03  0.92743539621E+03  0.25500000920E-02 0. -1.
    10030    2    1    2    0    0  0.00000000000E+00  0.00000000000E+00  0.61888331986E+03  0.24737541123E+04  0.23950872311E+04 0.  0.
        2    1    3    3  502    0  0.52962404397E+03  0.70616520990E+03 -0.52642283561E+03  0.10277606402E+04  0.25500000920E-02 0. -1.
       -2    1    3    3    0  502 -0.52962404397E+03 -0.70616520990E+03  0.11453061555E+04  0.14459934721E+04  0.25500000920E-02 0.  1.
</event>
<event>
 5   0  0.1154897E-05  0.2392834E+04  0.7818609E-02  0.8442191E-01
       -2   -1    0    0    0  501  0.00000000000E+00  0.00000000000E+00  0.78236641863E+03  0.78236641863E+03  0.25500000920E-02 0.  1.
        2   -1    0    0  501    0  0.00000000000E+00  0.00000000000E+00 -0.18295951445E+04  0.18295951445E+04  0.25500000920E-02 0. -1.
    10030    2    1    2    0    0  0.00000000000E+00  0.00000000000E+00 -0.10472287259E+04  0.26119615631E+04  0.23928341361E+04 0.  0.
        4    1    3    3  502    0  0.14341192770E+03 -0.32469925150E+03 -0.17707927772E+04  0.18060191742E+04  0.12699999809E+01 0. -1.
       -4    1    3    3    0  502 -0.14341192770E+03  0.32469925150E+03  0.72356405135E+03  0.80594238890E+03  0.12699999809E+01 0.  1.
</event>
<event>
 5   0  0.1174210E-05  0.2400231E+04  0.7818609E-02  0.8439417E-01
        2   -1    0    0  501    0  0.00000000000E+00  0.00000000000E+00  0.14376212025E+04  0.14376212025E+04  0.25500000920E-02 0. -1.
       -2   -1    0    0    0  501  0.00000000000E+00  0.00000000000E+00 -0.10018473272E+04  0.10018473272E+04  0.25500000920E-02 0.  1.
    10030    2    1    2    0    0  0.00000000000E+00  0.00000000000E+00  0.43577387532E+03  0.24394685297E+04  0.24002307883E+04 0.  0.
        3    1    3    3  502    0  0.36778349538E+03  0.57067385463E+03  0.12236826101E+04  0.13994043334E+04  0.10100000352E+00 0. -1.
       -3    1    3    3    0  502 -0.36778349538E+03 -0.57067385463E+03 -0.78790873479E+03  0.10400641963E+04  0.10100000352E+00 0.  1.
</event>
<event>
 5   0  0.1198313E-05  0.2395856E+04  0.7818609E-02  0.8441057E-01
       -2   -1    0    0    0  501  0.00000000000E+00  0.00000000000E+00  0.10974460519E+04  0.10974460519E+04  0.25500000920E-02 0.  1.
        2   -1    0    0  501    0  0.00000000000E+00  0.00000000000E+00 -0.13076096817E+04  0.13076096817E+04  0.25500000920E-02 0. -1.
    10030    2    1    2    0    0  0.00000000000E+00  0.00000000000E+00 -0.21016362982E+03  0.24050557335E+04  0.23958556572E+04 0.  0.
        5    1    3    3  502    0 -0.11178958558E+04  0.10072884901E+03  0.31506035884E+03  0.11658141212E+04  0.46999998093E+01 0.  1.
       -5    1    3    3    0  502  0.11178958558E+04 -0.10072884901E+03 -0.52522398866E+03  0.12392416123E+04  0.46999998093E+01 0. -1.
</event>
<event>
 5   0  0.1154897E-05  0.2389624E+04  0.7818609E-02  0.8443399E-01
       -2   -1    0    0    0  501  0.00000000000E+00  0.00000000000E+00  0.44735646420E+03  0.44735646421E+03  0.25500000920E-02 0. -1.
        2   -1    0    0  501    0  0.00000000000E+00  0.00000000000E+00 -0.31911357468E+04  0.31911357468E+04  0.25500000920E-02 0.  1.
    10030    2    1    2    0    0  0.00000000000E+00  0.00000000000E+00 -0.27437792826E+04  0.36384922110E+04  0.23896235724E+04 0.  0.
        4    1    3    3  502    0  0.65870395547E+03  0.96807988914E+03 -0.17338255101E+04  0.20921811788E+04  0.12699999809E+01 0. -1.
       -4    1    3    3    0  502 -0.65870395547E+03 -0.96807988914E+03 -0.10099537725E+04  0.15463110322E+04  0.12699999809E+01 0.  1.
</event>
<event>
 5   0  0.4067750E-06  0.2392373E+04  0.7818609E-02  0.8442365E-01
        3   -1    0    0  501    0  0.00000000000E+00  0.00000000000E+00  0.21862846717E+04  0.21862846740E+04  0.10100000352E+00 0.  1.
       -3   -1    0    0    0  501  0.00000000000E+00  0.00000000000E+00 -0.65447197362E+03  0.65447198141E+03  0.10100000352E+00 0. -1.
    10030    2    1    2    0    0  0.00000000000E+00  0.00000000000E+00  0.15318126980E+04  0.28407566554E+04  0.23923729294E+04 0.  0.
        5    1    3    3  502    0  0.10913217018E+04  0.41757808792E+03  0.10697691721E+04  0.15842293672E+04  0.46999998093E+01 0.  1.
       -5    1    3    3    0  502 -0.10913217018E+04 -0.41757808792E+03  0.46204352598E+03  0.12565272883E+04  0.46999998093E+01 0. -1.
</event>
<event>
 5   0  0.1168435E-05  0.2346077E+04  0.7818609E-02  0.8459972E-01
        2   -1    0    0  501    0  0.00000000000E+00  0.00000000000E+00  0.11355405050E+04  0.11355405050E+04  0.25500000920E-02 0. -1.
       -2   -1    0    0    0  501  0.00000000000E+00  0.00000000000E+00 -0.12117750962E+04  0.12117750962E+04  0.25500000920E-02 0.  1.
    10030    2    1    2    0    0  0.00000000000E+00  0.00000000000E+00 -0.76234591132E+02  0.23473156012E+04  0.23460773259E+04 0.  0.
        1    1    3    3  502    0 -0.98906643960E+03 -0.10110977374E+03 -0.66097626927E+03  0.11938866097E+04  0.50400001928E-02 0.  1.
       -1    1    3    3    0  502  0.98906643960E+03  0.10110977374E+03  0.58474167814E+03  0.11534289915E+04  0.50400001928E-02 0. -1.
</event>
<event>
 5   0  0.5064437E-06  0.2397411E+04  0.7818609E-02  0.8440473E-01
       -1   -1    0    0    0  501  0.00000000000E+00  0.00000000000E+00  0.10639638550E+04  0.10639638550E+04  0.50400001928E-02 0. -1.
        1   -1    0    0  501    0  0.00000000000E+00  0.00000000000E+00 -0.13505111757E+04  0.13505111758E+04  0.50400001928E-02 0.  1.
    10030    2    1    2    0    0  0.00000000000E+00  0.00000000000E+00 -0.28654732080E+03  0.24144750307E+04  0.23974111677E+04 0.  0.
        2    1    3    3  502    0 -0.18068504393E+03 -0.64605575818E+03  0.85720529147E+03  0.10885017407E+04  0.25500000920E-02 0. -1.
       -2    1    3    3    0  502  0.18068504393E+03  0.64605575818E+03 -0.11437526123E+04  0.13259732900E+04  0.25500000920E-02 0.  1.
</event>
<event>
 5   0  0.1174210E-05  0.2405353E+04  0.7818609E-02  0.8437502E-01
       -2   -1    0    0    0  501  0.00000000000E+00  0.00000000000E+00  0.99458267978E+03  0.99458267979E+03  0.25500000920E-02 0. -1.
        2   -1    0    0  501    0  0.00000000000E+00  0.00000000000E+00 -0.14543095368E+04  0.14543095368E+04  0.25500000920E-02 0.  1.
    10030    2    1    2    0    0  0.00000000000E+00  0.00000000000E+00 -0.45972685706E+03  0.24488922166E+04  0.24053532600E+04 0.  0.
        3    1    3    3  502    0  0.11930111456E+04 -0.12216255046E+03 -0.32223488326E+03  0.12417868628E+04  0.10100000352E+00 0. -1.
       -3    1    3    3    0  502 -0.11930111456E+04  0.12216255046E+03 -0.13749197380E+03  0.12071053539E+04  0.10100000352E+00 0.  1.
</event>
<event>
 5   0  0.5034479E-06  0.2400827E+04  0.7818609E-02  0.8439194E-01
       -1   -1    0    0    0  501  0.00000000000E+00  0.00000000000E+00  0.15847190412E+04  0.15847190412E+04  0.50400001928E-02 0.  1.
        1   -1    0    0  501    0  0.00000000000E+00  0.00000000000E+00 -0.90930508520E+03  0.90930508521E+03  0.50400001928E-02 0. -1.
    10030    2    1    2    0    0  0.00000000000E+00  0.00000000000E+00  0.67541395602E+03  0.24940241264E+04  0.24008274264E+04 0.  0.
        4    1    3    3  502    0  0.89615093430E+03 -0.12189299197E+03  0.11576810806E+04  0.14690716442E+04  0.12699999809E+01 0.  1.
       -4    1    3    3    0  502 -0.89615093430E+03  0.12189299197E+03 -0.48226712456E+03  0.10249524822E+04  0.12699999809E+01 0. -1.
</event>
<event>
 5   0  0.5196696E-06  0.2392897E+04  0.7818609E-02  0.8442167E-01
       -1   -1    0    0    0  501  0.00000000000E+00  0.00000000000E+00  0.12323042409E+04  0.12323042409E+04  0.50400001928E-02 0. -1.
        1   -1    0    0  501    0  0.00000000000E+00  0.00000000000E+00 -0.11616362897E+04  0.11616362897E+04  0.50400001928E-02 0.  1.
    10030    2    1    2    0    0  0.00000000000E+00  0.00000000000E+00  0.70667951167E+02  0.23939405307E+04  0.23928972617E+04 0.  0.
        1    1    3    3  502    0  0.27852194940E+03  0.23181745735E+03 -0.11054155497E+04  0.11632958984E+04  0.50400001928E-02 0.  1.
       -1    1    3    3    0  502 -0.27852194940E+03 -0.23181745735E+03  0.11760835008E+04  0.12306446322E+04  0.50400001928E-02 0. -1.
</event>
<event>
 5   0  0.5042742E-06  0.2387496E+04  0.7818609E-02  0.8444200E-01
        1   -1    0    0  501    0  0.00000000000E+00  0.00000000000E+00  0.89014559609E+03  0.89014559610E+03  0.50400001928E-02 0. -1.
       -1   -1    0    0    0  501  0.00000000000E+00  0.00000000000E+00 -0.16008996045E+04  0.16008996045E+04  0.50400001928E-02 0.  1.
    10030    2    1    2    0    0  0.00000000000E+00  0.00000000000E+00 -0.71075400845E+03  0.24910452006E+04  0.23874955353E+04 0.  0.
        5    1    3    3  502    0 -0.29155004672E+03  0.92622356556E+03  0.36908675938E+03  0.10388159842E+04  0.46999998093E+01 0. -1.
       -5    1    3    3    0  502  0.29155004672E+03 -0.92622356556E+03 -0.10798407678E+04  0.14522292164E+04  0.46999998093E+01 0.  1.
</event>
<event>
 5   0  0.1154897E-05  0.2367014E+04  0.7818609E-02  0.8451957E-01
       -2   -1    0    0    0  501  0.00000000000E+00  0.00000000000E+00  0.84573841034E+03  0.84573841034E+03  0.25500000920E-02 0. -1.
        2   -1    0    0  501    0  0.00000000000E+00  0.00000000000E+00 -0.16561726650E+04  0.16561726650E+04  0.25500000920E-02 0.  1.
    10030    2    1    2    0    0  0.00000000000E+00  0.00000000000E+00 -0.81043425466E+03  0.25019110753E+04  0.23670140151E+04 0.  0.
        4    1    3    3  502    0  0.10111474658E+04  0.53580100302E+03 -0.86038734650E+02  0.11475653312E+04  0.12699999809E+01 0. -1.
       -4    1    3    3    0  502 -0.10111474658E+04 -0.53580100302E+03 -0.72439552001E+03  0.13543457442E+04  0.12699999809E+01 0.  1.
</event>
<event>
 5   0  0.5064437E-06  0.2400422E+04  0.7818609E-02  0.8439346E-01
       -1   -1    0    0    0  501  0.00000000000E+00  0.00000000000E+00  0.85118443778E+03  0.85118443779E+03  0.50400001928E-02 0.  1.
        1   -1    0    0  501    0  0.00000000000E+00  0.00000000000E+00 -0.16923548617E+04  0.16923548617E+04  0.50400001928E-02 0. -1.
    10030    2    1    2    0    0  0.00000000000E+00  0.00000000000E+00 -0.84117042388E+03  0.25435392995E+04  0.24004217308E+04 0.  0.
        2    1    3    3  502    0  0.11231652685E+04 -0.13892224783E+03 -0.84404503552E+03  0.14118114723E+04  0.25500000920E-02 0. -1.
       -2    1    3    3    0  502 -0.11231652685E+04  0.13892224783E+03  0.28746116368E+01  0.11317278272E+04  0.25500000920E-02 0.  1.
</event>
<event>
 5   0  0.1169371E-05  0.2398490E+04  0.7818609E-02  0.8440069E-01
       -2   -1    0    0    0  501  0.00000000000E+00  0.00000000000E+00  0.88761386529E+03  0.88761386530E+03  0.25500000920E-02 0. -1.
        2   -1    0    0  501    0  0.00000000000E+00  0.00000000000E+00 -0.16202863851E+04  0.16202863851E+04  0.25500000920E-02 0.  1.
    10030    2    1    2    0    0  0.00000000000E+00  0.00000000000E+00 -0.73267251984E+03  0.25079002504E+04  0.23984900760E+04 0.  0.
        2    1    3    3  502    0  0.48821509250E+03  0.29027034147E+03  0.73805323564E+03  0.93130737479E+03  0.25500000920E-02 0. -1.
       -2    1    3    3    0  502 -0.48821509250E+03 -0.29027034147E+03 -0.14707257555E+04  0.15765928756E+04  0.25500000920E-02 0.  1.
</event>
<event>
 5   0  0.1168435E-05  0.2400407E+04  0.7818609E-02  0.8439351E-01
       -2   -1    0    0    0  501  0.00000000000E+00  0.00000000000E+00  0.96277182067E+03  0.96277182068E+03  0.25500000920E-02 0. -1.
        2   -1    0    0  501    0  0.00000000000E+00  0.00000000000E+00 -0.14961889506E+04  0.14961889506E+04  0.25500000920E-02 0.  1.
    10030    2    1    2    0    0  0.00000000000E+00  0.00000000000E+00 -0.53341712991E+03  0.24589607713E+04  0.24004070988E+04 0.  0.
        1    1    3    3  502    0  0.96137817931E+03  0.36398411834E+03  0.36788308598E+03  0.10918197686E+04  0.50400001928E-02 0. -1.
       -1    1    3    3    0  502 -0.96137817931E+03 -0.36398411834E+03 -0.90130021589E+03  0.13671410027E+04  0.50400001928E-02 0.  1.
</event>
<event>
 5   0  0.1198313E-05  0.2392991E+04  0.7818609E-02  0.8442132E-01
       -2   -1    0    0    0  501  0.00000000000E+00  0.00000000000E+00  0.80532511716E+03  0.80532511717E+03  0.25500000920E-02 0.  1.
        2   -1    0    0  501    0  0.00000000000E+00  0.00000000000E+00 -0.17776686879E+04  0.17776686879E+04  0.25500000920E-02 0. -1.
    10030    2    1    2    0    0  0.00000000000E+00  0.00000000000E+00 -0.97234357072E+03  0.25829938050E+04  0.23929908018E+04 0.  0.
        5    1    3    3  502    0 -0.72198334157E+03 -0.21070816919E+03  0.51826252811E+03  0.91338711186E+03  0.46999998093E+01 0.  1.
       -5    1    3    3    0  502  0.72198334157E+03  0.21070816919E+03 -0.14906060988E+04  0.16696066932E+04  0.46999998093E+01 0. -1.
</event>
<event>
 5   0  0.5064437E-06  0.2407493E+04  0.7818609E-02  0.8436704E-01
        1   -1    0    0  501    0  0.00000000000E+00  0.00000000000E+00  0.16698457350E+04  0.16698457350E+04  0.50400001928E-02 0. -1.
       -1   -1    0    0    0  501  0.00000000000E+00  0.00000000000E+00 -0.86774787048E+03  0.86774787050E+03  0.50400001928E-02 0.  1.
    10030    2    1    2    0    0  0.00000000000E+00  0.00000000000E+00  0.80209786448E+03  0.25375936055E+04  0.24074925384E+04 0.  0.
        2    1    3    3  502    0  0.63955965558E+03 -0.99515236091E+03  0.16620770195E+03  0.11945667728E+04  0.25500000920E-02 0.  1.
       -2    1    3    3    0  502 -0.63955965558E+03  0.99515236091E+03  0.63589016253E+03  0.13430268327E+04  0.25500000920E-02 0. -1.
</event>
<event>
 5   0  0.5034479E-06  0.2398100E+04  0.7818609E-02  0.8440215E-01
       -1   -1    0    0    0  501  0.00000000000E+00  0.00000000000E+00  0.14009671771E+04  0.14009671771E+04  0.50400001928E-02 0.  1.
        1   -1    0    0  501    0  0.00000000000E+00  0.00000000000E+00 -0.10262348781E+04  0.10262348781E+04  0.50400001928E-02 0. -1.
    10030    2    1    2    0    0  0.00000000000E+00  0.00000000000E+00  0.37473229904E+03  0.24272020552E+04  0.23981003984E+04 0.  0.
        4    1    3    3  502    0 -0.36718977467E+03 -0.98769154259E+03  0.76646044748E+03  0.13030065788E+04  0.12699999809E+01 0.  1.
       -4    1    3    3    0  502  0.36718977467E+03  0.98769154259E+03 -0.39172814845E+03  0.11241954764E+04  0.12699999809E+01 0. -1.
</event>
<event>
 5   0  0.1154897E-05  0.2400831E+04  0.7818609E-02  0.8439192E-01
       -2   -1    0    0    0  501  0.00000000000E+00  0.00000000000E+00  0.58770804494E+03  0.58770804494E+03  0.25500000920E-02 0.  1.
        2   -1    0    0  501    0  0.00000000000E+00  0.00000000000E+00 -0.24518941310E+04  0.24518941310E+04  0.25500000920E-02 0. -1.
    10030    2    1    2    0    0  0.00000000000E+00  0.00000000000E+00 -0.18641860860E+04  0.30396021759E+04  0.24008314444E+04 0.  0.
        4    1    3    3  502    0 -0.33064662827E+00 -0.89198115916E+03 -0.19491799139E+04  0.21435798206E+04  0.12699999809E+01 0. -1.
       -4    1    3    3    0  502  0.33064662827E+00  0.89198115916E+03  0.84993827818E+02  0.89602235536E+03  0.12699999809E+01 0.  1.
</event>
<event>
 5   0  0.1174210E-05  0.2400214E+04  0.7818609E-02  0.8439423E-01
        2   -1    0    0  501    0  0.00000000000E+00  0.00000000000E+00  0.18963623818E+04  0.18963623818E+04  0.25500000920E-02 0.  1.
       -2   -1    0    0    0  501  0.00000000000E+00  0.00000000000E+00 -0.75948419235E+03  0.75948419235E+03  0.25500000920E-02 0. -1.
    10030    2    1    2    0    0  0.00000000000E+00  0.00000000000E+00  0.11368781895E+04  0.26558465742E+04  0.24002143670E+04 0.  0.
        3    1    3    3  502    0 -0.80602273544E+03  0.35478859752E+03  0.14705687121E+04  0.17140944974E+04  0.10100000352E+00 0.  1.
       -3    1    3    3    0  502  0.80602273544E+03 -0.35478859752E+03 -0.33369052260E+03  0.94175207674E+03  0.10100000352E+00 0. -1.
</event>
<event>
 5   0  0.5196696E-06  0.2412561E+04  0.7818609E-02  0.8434816E-01
       -1   -1    0    0    0  501  0.00000000000E+00  0.00000000000E+00  0.29426785978E+04  0.29426785978E+04  0.50400001928E-02 0.  1.
        1   -1    0    0  501    0  0.00000000000E+00  0.00000000000E+00 -0.49448571991E+03  0.49448571993E+03  0.50400001928E-02 0. -1.
    10030    2    1    2    0    0  0.00000000000E+00  0.00000000000E+00  0.24481928779E+04  0.34371643177E+04  0.24125609173E+04 0.  0.
        1    1    3    3  502    0  0.47770477926E+03 -0.86742566289E+03  0.24272701728E+03  0.10195810619E+04  0.50400001928E-02 0. -1.
       -1    1    3    3    0  502 -0.47770477926E+03  0.86742566289E+03  0.22054658606E+04  0.24175832559E+04  0.50400001928E-02 0.  1.
</event>
<event>
 5   0  0.5104174E-06  0.2393704E+04  0.7818609E-02  0.8441864E-01
        1   -1    0    0  501    0  0.00000000000E+00  0.00000000000E+00  0.76619733503E+03  0.76619733504E+03  0.50400001928E-02 0.  1.
       -1   -1    0    0    0  501  0.00000000000E+00  0.00000000000E+00 -0.18695638895E+04  0.18695638895E+04  0.50400001928E-02 0. -1.
    10030    2    1    2    0    0  0.00000000000E+00  0.00000000000E+00 -0.11033665544E+04  0.26357612245E+04  0.23937041336E+04 0.  0.
        3    1    3    3  502    0 -0.65942852417E+03  0.91213937847E+03 -0.10357836316E+03  0.11302976209E+04  0.10100000352E+00 0.  1.
       -3    1    3    3    0  502  0.65942852417E+03 -0.91213937847E+03 -0.99978819127E+03  0.15054636036E+04  0.10100000352E+00 0. -1.
</event>
<event>
 5   0  0.5064437E-06  0.2407824E+04  0.7818609E-02  0.8436580E-01
        1   -1    0    0  501    0  0.00000000000E+00  0.00000000000E+00  0.14545830575E+04  0.14545830575E+04  0.50400001928E-02 0.  1.
       -1   -1    0    0    0  501  0.00000000000E+00  0.00000000000E+00 -0.99643979481E+03  0.99643979483E+03  0.50400001928E-02 0. -1.
    10030    2    1    2    0    0  0.00000000000E+00  0.00000000000E+00  0.45814326272E+03  0.24510228524E+04  0.24078242821E+04 0.  0.
        2    1    3    3  502    0  0.32705994311E+03  0.11404951263E+04  0.21184509258E+02  0.11866533289E+04  0.25500000920E-02 0. -1.
       -2    1    3    3    0  502 -0.32705994311E+03 -0.11404951263E+04  0.43695875347E+03  0.12643695235E+04  0.25500000920E-02 0.  1.
</event>
<event>
 5   0  0.5064437E-06  0.2404307E+04  0.7818609E-02  0.8437893E-01
        1   -1    0    0  501    0  0.00000000000E+00  0.00000000000E+00  0.22061022689E+04  0.22061022689E+04  0.50400001928E-02 0.  1.
       -1   -1    0    0    0  501  0.00000000000E+00  0.00000000000E+00 -0.65507978786E+03  0.65507978788E+03  0.50400001928E-02 0. -1.
    10030    2    1    2    0    0  0.00000000000E+00  0.00000000000E+00  0.15510224810E+04  0.28611820568E+04  0.24043069740E+04 0.  0.
        2    1    3    3  502    0  0.96212191656E+02 -0.23479016817E+03 -0.62284994711E+03  0.67255131069E+03  0.25500000920E-02 0. -1.
       -2    1    3    3    0  502 -0.96212191656E+02  0.23479016817E+03  0.21738724281E+04  0.21886307461E+04  0.25500000920E-02 0.  1.
</event>
<event>
 5   0  0.1198313E-05  0.2405328E+04  0.7818609E-02  0.8437512E-01
        2   -1    0    0  501    0  0.00000000000E+00  0.00000000000E+00  0.83300212045E+03  0.83300212045E+03  0.25500000920E-02 0.  1.
       -2   -1    0    0    0  501  0.00000000000E+00  0.00000000000E+00 -0.17363707176E+04  0.17363707176E+04  0.25500000920E-02 0. -1.
    10030    2    1    2    0    0  0.00000000000E+00  0.00000000000E+00 -0.90336859719E+03  0.25693728381E+04  0.24053278277E+04 0.  0.
        5    1    3    3  502    0  0.55671429741E+03  0.50639788189E+03  0.55038176543E+03  0.93236891917E+03  0.46999998093E+01 0.  1.
       -5    1    3    3    0  502 -0.55671429741E+03 -0.50639788189E+03 -0.14537503626E+04  0.16370039189E+04  0.46999998093E+01 0. -1.
</event>
<event>
 5   0  0.5042742E-06  0.2398987E+04  0.7818609E-02  0.8439883E-01
       -1   -1    0    0    0  501  0.00000000000E+00  0.00000000000E+00  0.18790703095E+04  0.18790703095E+04  0.50400001928E-02 0. -1.
        1   -1    0    0  501    0  0.00000000000E+00  0.00000000000E+00 -0.76568979893E+03  0.76568979895E+03  0.50400001928E-02 0.  1.
    10030    2    1    2    0    0  0.00000000000E+00  0.00000000000E+00  0.11133805106E+04  0.26447601085E+04  0.23989872593E+04 0.  0.
        5    1    3    3  502    0 -0.11553950534E+04  0.31782166928E+03  0.49820294523E+03  0.12977583009E+04  0.46999998093E+01 0.  1.
       -5    1    3    3    0  502  0.11553950534E+04 -0.31782166928E+03  0.61517756537E+03  0.13470018076E+04  0.46999998093E+01 0. -1.
</event>
<event>
 5   0  0.5104174E-06  0.2438812E+04  0.7818609E-02  0.8425114E-01
       -1   -1    0    0    0  501  0.00000000000E+00  0.00000000000E+00  0.83820352172E+03  0.83820352174E+03  0.50400001928E-02 0.  1.
        1   -1    0    0  501    0  0.00000000000E+00  0.00000000000E+00 -0.17739736217E+04  0.17739736217E+04  0.50400001928E-02 0. -1.
    10030    2    1    2    0    0  0.00000000000E+00  0.00000000000E+00 -0.93577009996E+03  0.26121771434E+04  0.24388119543E+04 0.  0.
        3    1    3    3  502    0 -0.10414030339E+04  0.60125431604E+03 -0.25120806074E+03  0.12284675542E+04  0.10100000352E+00 0. -1.
       -3    1    3    3    0  502  0.10414030339E+04 -0.60125431604E+03 -0.68456203922E+03  0.13837095893E+04  0.10100000352E+00 0.  1.
</event>
<event>
 5   0  0.5042742E-06  0.2391924E+04  0.7818609E-02  0.8442533E-01
       -1   -1    0    0    0  501  0.00000000000E+00  0.00000000000E+00  0.79242386663E+03  0.79242386665E+03  0.50400001928E-02 0. -1.
        1   -1    0    0  501    0  0.00000000000E+00  0.00000000000E+00 -0.18050007070E+04  0.18050007070E+04  0.50400001928E-02 0.  1.
    10030    2    1    2    0    0  0.00000000000E+00  0.00000000000E+00 -0.10125768404E+04  0.25974245737E+04  0.23919244466E+04 0.  0.
        5    1    3    3  502    0  0.55139947757E+03  0.58390608155E+03 -0.14686043387E+04  0.16738603554E+04  0.46999998093E+01 0.  1.
       -5    1    3    3    0  502 -0.55139947757E+03 -0.58390608155E+03  0.45602749831E+03  0.92356421821E+03  0.46999998093E+01 0. -1.
</event>
<event>
 5   0  0.5196696E-06  0.2399754E+04  0.7818609E-02  0.8439596E-01
       -1   -1    0    0    0  501  0.00000000000E+00  0.00000000000E+00  0.11501026949E+04  0.11501026949E+04  0.50400001928E-02 0.  1.
        1   -1    0    0  501    0  0.00000000000E+00  0.00000000000E+00 -0.12518053787E+04  0.12518053787E+04  0.50400001928E-02 0. -1.
    10030    2    1    2    0    0  0.00000000000E+00  0.00000000000E+00 -0.10170268371E+03  0.24019080736E+04  0.23997539370E+04 0.  0.
        1    1    3    3  502    0 -0.38020119857E+03 -0.11355669033E+04 -0.12601599787E+03  0.12041366928E+04  0.50400001928E-02 0. -1.
       -1    1    3    3    0  502  0.38020119857E+03  0.11355669033E+04  0.24313314159E+02  0.11977713808E+04  0.50400001928E-02 0.  1.
</event>
<event>
 5   0  0.1169371E-05  0.2398364E+04  0.7818609E-02  0.8440116E-01
       -2   -1    0    0    0  501  0.00000000000E+00  0.00000000000E+00  0.54860823813E+03  0.54860823813E+03  0.25500000920E-02 0. -1.
        2   -1    0    0  501    0  0.00000000000E+00  0.00000000000E+00 -0.26212469454E+04  0.26212469454E+04  0.25500000920E-02 0.  1.
    10030    2    1    2    0    0  0.00000000000E+00  0.00000000000E+00 -0.20726387073E+04  0.31698551835E+04  0.23983641662E+04 0.  0.
        2    1    3    3  502    0  0.43827191329E+03 -0.96311705105E+03 -0.29058493653E+03  0.10973223452E+04  0.25500000920E-02 0. -1.
       -2    1    3    3    0  502 -0.43827191329E+03  0.96311705105E+03 -0.17820537707E+04  0.20725328383E+04  0.25500000920E-02 0.  1.
</event>
<event>
 5   0  0.1168435E-05  0.2335006E+04  0.7818609E-02  0.8464245E-01
        2   -1    0    0  501    0  0.00000000000E+00  0.00000000000E+00  0.14922116448E+04  0.14922116449E+04  0.25500000920E-02 0.  1.
       -2   -1    0    0    0  501  0.00000000000E+00  0.00000000000E+00 -0.91345161089E+03  0.91345161090E+03  0.25500000920E-02 0. -1.
    10030    2    1    2    0    0  0.00000000000E+00  0.00000000000E+00  0.57876003396E+03  0.24056632557E+04  0.23350058936E+04 0.  0.
        1    1    3    3  502    0 -0.99013948716E+03  0.51028995039E+03 -0.70903395432E+02  0.11161538106E+04  0.50400001928E-02 0.  1.
       -1    1    3    3    0  502  0.99013948716E+03 -0.51028995039E+03  0.64966342939E+03  0.12895094451E+04  0.50400001928E-02 0. -1.
</event>
<event>
 5   0  0.5042742E-06  0.2409116E+04  0.7818609E-02  0.8436099E-01
        1   -1    0    0  501    0  0.00000000000E+00  0.00000000000E+00  0.97713467509E+03  0.97713467510E+03  0.50400001928E-02 0. -1.
       -1   -1    0    0    0  501  0.00000000000E+00  0.00000000000E+00 -0.14849127236E+04  0.14849127236E+04  0.50400001928E-02 0.  1.
    10030    2    1    2    0    0  0.00000000000E+00  0.00000000000E+00 -0.50777804850E+03  0.24620473987E+04  0.24091157811E+04 0.  0.
        5    1    3    3  502    0 -0.23957153613E+02 -0.60487647723E+02 -0.14831064730E+04  0.14845401985E+04  0.46999998093E+01 0.  1.
       -5    1    3    3    0  502  0.23957153613E+02  0.60487647723E+02  0.97532842451E+03  0.97750720018E+03  0.46999998093E+01 0. -1.
</event>
<event>
 5   0  0.5064437E-06  0.2407348E+04  0.7818609E-02  0.8436758E-01
        1   -1    0    0  501    0  0.00000000000E+00  0.00000000000E+00  0.23876953949E+04  0.23876953949E+04  0.50400001928E-02 0. -1.
       -1   -1    0    0    0  501  0.00000000000E+00  0.00000000000E+00 -0.60679050324E+03  0.60679050326E+03  0.50400001928E-02 0.  1.
    10030    2    1    2    0    0  0.00000000000E+00  0.00000000000E+00  0.17809048917E+04  0.29944858982E+04  0.24073478272E+04 0.  0.
        2    1    3    3  502    0  0.69580217073E+03 -0.16085995658E+03  0.20956917251E+04  0.22140326088E+04  0.25500000920E-02 0. -1.
       -2    1    3    3    0  502 -0.69580217073E+03  0.16085995658E+03 -0.31478683338E+03  0.78045328937E+03  0.25500000920E-02 0.  1.
</event>
<event>
 5   0  0.5104174E-06  0.2381462E+04  0.7818609E-02  0.8446476E-01
        1   -1    0    0  501    0  0.00000000000E+00  0.00000000000E+00  0.78062503665E+03  0.78062503666E+03  0.50400001928E-02 0.  1.
       -1   -1    0    0    0  501  0.00000000000E+00  0.00000000000E+00 -0.18162892405E+04  0.18162892405E+04  0.50400001928E-02 0. -1.
    10030    2    1    2    0    0  0.00000000000E+00  0.00000000000E+00 -0.10356642039E+04  0.25969142772E+04  0.23814624540E+04 0.  0.
        3    1    3    3  502    0 -0.73233808216E+03 -0.68109304490E+03  0.18688014840E+03  0.10174138796E+04  0.10100000352E+00 0.  1.
       -3    1    3    3    0  502  0.73233808216E+03  0.68109304490E+03 -0.12225443523E+04  0.15795003975E+04  0.10100000352E+00 0. -1.
</event>
<event>
 5   0  0.1169371E-05  0.2401666E+04  0.7818609E-02  0.8438880E-01
        2   -1    0    0  501    0  0.00000000000E+00  0.00000000000E+00  0.14305111789E+04  0.14305111789E+04  0.25500000920E-02 0.  1.
       -2   -1    0    0    0  501  0.00000000000E+00  0.00000000000E+00 -0.10080308035E+04  0.10080308035E+04  0.25500000920E-02 0. -1.
    10030    2    1    2    0    0  0.00000000000E+00  0.00000000000E+00  0.42248037540E+03  0.24385419824E+04  0.24016655330E+04 0.  0.
        2    1    3    3  502    0  0.22829671394E+03 -0.66967963323E+03 -0.77392014092E+03  0.10485907616E+04  0.25500000920E-02 0. -1.
       -2    1    3    3    0  502 -0.22829671394E+03  0.66967963323E+03  0.11964005163E+04  0.13899512208E+04  0.25500000920E-02 0.  1.
</event>
<event>
 5   0  0.1168435E-05  0.2411818E+04  0.7818609E-02  0.8435092E-01
        2   -1    0    0  501    0  0.00000000000E+00  0.00000000000E+00  0.11241400802E+04  0.11241400802E+04  0.25500000920E-02 0. -1.
       -2   -1    0    0    0  501  0.00000000000E+00  0.00000000000E+00 -0.12936254025E+04  0.12936254025E+04  0.25500000920E-02 0.  1.
    10030    2    1    2    0    0  0.00000000000E+00  0.00000000000E+00 -0.16948532230E+03  0.24177654827E+04  0.24118177077E+04 0.  0.
        1    1    3    3  502    0 -0.31779062115E+03 -0.10101643245E+04  0.49356240298E+03  0.11683435655E+04  0.50400001928E-02 0. -1.
       -1    1    3    3    0  502  0.31779062115E+03  0.10101643245E+04 -0.66304772528E+03  0.12494219173E+04  0.50400001928E-02 0.  1.
</event>
<event>
 5   0  0.5196696E-06  0.2403312E+04  0.7818609E-02  0.8438265E-01
        1   -1    0    0  501    0  0.00000000000E+00  0.00000000000E+00  0.67511807787E+03  0.67511807789E+03  0.50400001928E-02 0.  1.
       -1   -1    0    0    0  501  0.00000000000E+00  0.00000000000E+00 -0.21388512137E+04  0.21388512137E+04  0.50400001928E-02 0. -1.
    10030    2    1    2    0    0  0.00000000000E+00  0.00000000000E+00 -0.14637331358E+04  0.28139692916E+04  0.24033119816E+04 0.  0.
        1    1    3    3  502    0  0.47049550476E+03  0.33000828630E+03  0.50378040594E+03  0.76424223023E+03  0.50400001928E-02 0.  1.
       -1    1    3    3    0  502 -0.47049550476E+03 -0.33000828630E+03 -0.19675135418E+04  0.20497270613E+04  0.50400001928E-02 0. -1.
</event>
<event>
 5   0  0.1169371E-05  0.2394346E+04  0.7818609E-02  0.8441623E-01
       -2   -1    0    0    0  501  0.00000000000E+00  0.00000000000E+00  0.12991185958E+04  0.12991185958E+04  0.25500000920E-02 0.  1.
        2   -1    0    0  501    0  0.00000000000E+00  0.00000000000E+00 -0.11032275021E+04  0.11032275021E+04  0.25500000920E-02 0. -1.
    10030    2    1    2    0    0  0.00000000000E+00  0.00000000000E+00  0.19589109370E+03  0.24023460979E+04  0.23943461432E+04 0.  0.
        2    1    3    3  502    0  0.10082561317E+04 -0.51070292197E+03 -0.29812071637E+03  0.11688771805E+04  0.25500000920E-02 0. -1.
       -2    1    3    3    0  502 -0.10082561317E+04  0.51070292197E+03  0.49401181006E+03  0.12334689174E+04  0.25500000920E-02 0.  1.
</event>
<event>
 5   0  0.5034479E-06  0.2404487E+04  0.7818609E-02  0.8437826E-01
        1   -1    0    0  501    0  0.00000000000E+00  0.00000000000E+00  0.23958843153E+04  0.23958843153E+04  0.50400001928E-02 0.  1.
       -1   -1    0    0    0  501  0.00000000000E+00  0.00000000000E+00 -0.60328021447E+03  0.60328021449E+03  0.50400001928E-02 0. -1.
    10030    2    1    2    0    0  0.00000000000E+00  0.00000000000E+00  0.17926041008E+04  0.29991645298E+04  0.24044871417E+04 0.  0.
        4    1    3    3  502    0 -0.28895120746E+03  0.11285297320E+04  0.52562378653E+03  0.12780274388E+04  0.12699999809E+01 0.  1.
       -4    1    3    3    0  502  0.28895120746E+03 -0.11285297320E+04  0.12669803143E+04  0.17211370910E+04  0.12699999809E+01 0. -1.
</event>
<event>
 5   0  0.5104174E-06  0.2409413E+04  0.7818609E-02  0.8435988E-01
        1   -1    0    0  501    0  0.00000000000E+00  0.00000000000E+00  0.24931442606E+04  0.24931442606E+04  0.50400001928E-02 0.  1.
       -1   -1    0    0    0  501  0.00000000000E+00  0.00000000000E+00 -0.58212322019E+03  0.58212322021E+03  0.50400001928E-02 0. -1.
    10030    2    1    2    0    0  0.00000000000E+00  0.00000000000E+00  0.19110210404E+04  0.30752674808E+04  0.24094125138E+04 0.  0.
        3    1    3    3  502    0 -0.56653124237E+03 -0.45178906745E+03  0.21838967547E+04  0.23009728498E+04  0.10100000352E+00 0.  1.
       -3    1    3    3    0  502  0.56653124237E+03  0.45178906745E+03 -0.27287571426E+03  0.77429463105E+03  0.10100000352E+00 0. -1.
</event>
<event>
 5   0  0.1198313E-05  0.2395512E+04  0.7818609E-02  0.8441186E-01
       -2   -1    0    0    0  501  0.00000000000E+00  0.00000000000E+00  0.97378728700E+03  0.97378728701E+03  0.25500000920E-02 0. -1.
        2   -1    0    0  501    0  0.00000000000E+00  0.00000000000E+00 -0.14732368139E+04  0.14732368139E+04  0.25500000920E-02 0.  1.
    10030    2    1    2    0    0  0.00000000000E+00  0.00000000000E+00 -0.49944952693E+03  0.24470241009E+04  0.23955118703E+04 0.  0.
        5    1    3    3  502    0  0.10398972166E+04  0.37460834618E+03 -0.72103502709E+03  0.13197087688E+04  0.46999998093E+01 0.  1.
       -5    1    3    3    0  502 -0.10398972166E+04 -0.37460834618E+03  0.22158550016E+03  0.11273153321E+04  0.46999998093E+01 0. -1.
</event>
<event>
 5   0  0.1169371E-05  0.2408778E+04  0.7818609E-02  0.8436224E-01
        2   -1    0    0  501    0  0.00000000000E+00  0.00000000000E+00  0.16641594662E+04  0.16641594662E+04  0.25500000920E-02 0. -1.
       -2   -1    0    0    0  501  0.00000000000E+00  0.00000000000E+00 -0.87164325382E+03  0.87164325382E+03  0.25500000920E-02 0.  1.
    10030    2    1    2    0    0  0.00000000000E+00  0.00000000000E+00  0.79251621236E+03  0.25358027200E+04  0.24087784223E+04 0.  0.
        2    1    3    3  502    0  0.90683437544E+03 -0.51500079890E+03 -0.23799023488E+03  0.10696792787E+04  0.25500000920E-02 0. -1.
       -2    1    3    3    0  502 -0.90683437544E+03  0.51500079890E+03  0.10305064472E+04  0.14661234413E+04  0.25500000920E-02 0.  1.
</event>
<event>
 5   0  0.4067750E-06  0.2382540E+04  0.7818609E-02  0.8446070E-01
       -3   -1    0    0    0  501  0.00000000000E+00  0.00000000000E+00  0.69271299429E+03  0.69271300165E+03  0.10100000352E+00 0.  1.
        3   -1    0    0  501    0  0.00000000000E+00  0.00000000000E+00 -0.20486460984E+04  0.20486461009E+04  0.10100000352E+00 0. -1.
    10030    2    1    2    0    0  0.00000000000E+00  0.00000000000E+00 -0.13559331041E+04  0.27413591025E+04  0.23825396421E+04 0.  0.
        1    1    3    3  502    0 -0.87878703125E+03 -0.72722675686E+03 -0.28272388211E+03  0.11751843242E+04  0.50400001928E-02 0.  1.
       -1    1    3    3    0  502  0.87878703125E+03  0.72722675686E+03 -0.10732092220E+04  0.15661747784E+04  0.50400001928E-02 0. -1.
</event>
<event>
 5   0  0.5042742E-06  0.2346986E+04  0.7818609E-02  0.8459622E-01
       -1   -1    0    0    0  501  0.00000000000E+00  0.00000000000E+00  0.87421813897E+03  0.87421813898E+03  0.50400001928E-02 0. -1.
        1   -1    0    0  501    0  0.00000000000E+00  0.00000000000E+00 -0.15752192643E+04  0.15752192643E+04  0.50400001928E-02 0.  1.
    10030    2    1    2    0    0  0.00000000000E+00  0.00000000000E+00 -0.70100112529E+03  0.24494374033E+04  0.23469855165E+04 0.  0.
        5    1    3    3  502    0 -0.42269140628E+03 -0.10356152735E+04 -0.72080775736E+03  0.13306964089E+04  0.46999998093E+01 0.  1.
       -5    1    3    3    0  502  0.42269140628E+03  0.10356152735E+04  0.19806632073E+02  0.11187409943E+04  0.46999998093E+01 0. -1.
</event>
<event>
 5   0  0.5064437E-06  0.2403721E+04  0.7818609E-02  0.8438112E-01
        1   -1    0    0  501    0  0.00000000000E+00  0.00000000000E+00  0.14237379132E+04  0.14237379132E+04  0.50400001928E-02 0. -1.
       -1   -1    0    0    0  501  0.00000000000E+00  0.00000000000E+00 -0.10145610818E+04  0.10145610818E+04  0.50400001928E-02 0.  1.
    10030    2    1    2    0    0  0.00000000000E+00  0.00000000000E+00  0.40917683145E+03  0.24382989950E+04  0.24037213461E+04 0.  0.
        2    1    3    3  502    0  0.30599789901E+03  0.10718575413E+04 -0.25127104980E+03  0.11426506218E+04  0.25500000920E-02 0.  1.
       -2    1    3    3    0  502 -0.30599789901E+03 -0.10718575413E+04  0.66044788125E+03  0.12956483732E+04  0.25500000920E-02 0. -1.
</event>
<event>
 5   0  0.5196696E-06  0.2354608E+04  0.7818609E-02  0.8456696E-01
        1   -1    0    0  501    0  0.00000000000E+00  0.00000000000E+00  0.85200985927E+03  0.85200985928E+03  0.50400001928E-02 0.  1.
       -1   -1    0    0    0  501  0.00000000000E+00  0.00000000000E+00 -0.16267948332E+04  0.16267948332E+04  0.50400001928E-02 0. -1.
    10030    2    1    2    0    0  0.00000000000E+00  0.00000000000E+00 -0.77478497396E+03  0.24788046925E+04  0.23546084489E+04 0.  0.
        1    1    3    3  502    0 -0.46745464645E+03 -0.91444996508E+02  0.74604358135E+03  0.88513109717E+03  0.50400001928E-02 0.  1.
       -1    1    3    3    0  502  0.46745464645E+03  0.91444996508E+02 -0.15208285553E+04  0.15936735954E+04  0.50400001928E-02 0. -1.
</event>
<event>
 5   0  0.1169371E-05  0.2395035E+04  0.7818609E-02  0.8441365E-01
       -2   -1    0    0    0  501  0.00000000000E+00  0.00000000000E+00  0.53512115631E+03  0.53512115631E+03  0.25500000920E-02 0. -1.
        2   -1    0    0  501    0  0.00000000000E+00  0.00000000000E+00 -0.26798565754E+04  0.26798565754E+04  0.25500000920E-02 0.  1.
    10030    2    1    2    0    0  0.00000000000E+00  0.00000000000E+00 -0.21447354191E+04  0.32149777317E+04  0.23950348218E+04 0.  0.
        2    1    3    3  502    0  0.59313537880E+03 -0.59311347542E+03 -0.22196302245E+04  0.23728361734E+04  0.25500000920E-02 0.  1.
       -2    1    3    3    0  502 -0.59313537880E+03  0.59311347542E+03  0.74894805420E+02  0.84214155829E+03  0.25500000920E-02 0. -1.
</event>
<event>
 5   0  0.5196696E-06  0.2402482E+04  0.7818609E-02  0.8438575E-01
       -1   -1    0    0    0  501  0.00000000000E+00  0.00000000000E+00  0.95338448762E+03  0.95338448764E+03  0.50400001928E-02 0. -1.
        1   -1    0    0  501    0  0.00000000000E+00  0.00000000000E+00 -0.15135344460E+04  0.15135344460E+04  0.50400001928E-02 0.  1.
    10030    2    1    2    0    0  0.00000000000E+00  0.00000000000E+00 -0.56014995834E+03  0.24669189336E+04  0.24024822682E+04 0.  0.
        1    1    3    3  502    0  0.11811007397E+04 -0.20323855415E+03 -0.19618054061E+03  0.12144100098E+04  0.50400001928E-02 0.  1.
       -1    1    3    3    0  502 -0.11811007397E+04  0.20323855415E+03 -0.36396941773E+03  0.12525089239E+04  0.50400001928E-02 0. -1.
</event>
<event>
 5   0  0.1198313E-05  0.2393027E+04  0.7818609E-02  0.8442119E-01
       -2   -1    0    0    0  501  0.00000000000E+00  0.00000000000E+00  0.83337099659E+03  0.83337099659E+03  0.25500000920E-02 0.  1.
        2   -1    0    0  501    0  0.00000000000E+00  0.00000000000E+00 -0.17178963425E+04  0.17178963425E+04  0.25500000920E-02 0. -1.
    10030    2    1    2    0    0  0.00000000000E+00  0.00000000000E+00 -0.88452534591E+03  0.25512673391E+04  0.23930273605E+04 0.  0.
        5    1    3    3  502    0 -0.84459657568E+03  0.82427593836E+03 -0.23212856841E+03  0.12027800965E+04  0.46999998093E+01 0.  1.
       -5    1    3    3    0  502  0.84459657568E+03 -0.82427593836E+03 -0.65239677749E+03  0.13484872426E+04  0.46999998093E+01 0. -1.
</event>
<event>
 5   0  0.5104174E-06  0.2406975E+04  0.7818609E-02  0.8436897E-01
        1   -1    0    0  501    0  0.00000000000E+00  0.00000000000E+00  0.12711314147E+04  0.12711314147E+04  0.50400001928E-02 0.  1.
       -1   -1    0    0    0  501  0.00000000000E+00  0.00000000000E+00 -0.11394434272E+04  0.11394434272E+04  0.50400001928E-02 0. -1.
    10030    2    1    2    0    0  0.00000000000E+00  0.00000000000E+00  0.13168798749E+03  0.24105748419E+04  0.24069751437E+04 0.  0.
        3    1    3    3  502    0 -0.15606611005E+03 -0.42495771931E+03  0.11826065471E+04  0.12662953642E+04  0.10100000352E+00 0.  1.
       -3    1    3    3    0  502  0.15606611005E+03  0.42495771931E+03 -0.10509185597E+04  0.11442794777E+04  0.10100000352E+00 0. -1.
</event>
<event>
 5   0  0.4067750E-06  0.2406465E+04  0.7818609E-02  0.8437087E-01
        3   -1    0    0  501    0  0.00000000000E+00  0.00000000000E+00  0.87367612609E+03  0.87367613193E+03  0.10100000352E+00 0.  1.
       -3   -1    0    0    0  501  0.00000000000E+00  0.00000000000E+00 -0.16571003452E+04  0.16571003483E+04  0.10100000352E+00 0. -1.
    10030    2    1    2    0    0  0.00000000000E+00  0.00000000000E+00 -0.78342421912E+03  0.25307764802E+04  0.24064654757E+04 0.  0.
        4    1    3    3  502    0 -0.69650729216E+03  0.97700462578E+03 -0.48640191294E+03  0.12947003053E+04  0.12699999809E+01 0. -1.
       -4    1    3    3    0  502  0.69650729216E+03 -0.97700462578E+03 -0.29702230619E+03  0.12360761749E+04  0.12699999809E+01 0.  1.
</event>
<event>
 5   0  0.5042742E-06  0.2368413E+04  0.7818609E-02  0.8451425E-01
       -1   -1    0    0    0  501  0.00000000000E+00  0.00000000000E+00  0.12777459150E+04  0.12777459151E+04  0.50400001928E-02 0. -1.
        1   -1    0    0  501    0  0.00000000000E+00  0.00000000000E+00 -0.10975144204E+04  0.10975144204E+04  0.50400001928E-02 0.  1.
    10030    2    1    2    0    0  0.00000000000E+00  0.00000000000E+00  0.18023149461E+03  0.23752603355E+04  0.23684126055E+04 0.  0.
        5    1    3    3  502    0 -0.82829428742E+03 -0.63240490667E+03  0.65416081317E+03  0.12304291333E+04  0.46999998093E+01 0. -1.
       -5    1    3    3    0  502  0.82829428742E+03  0.63240490667E+03 -0.47392931856E+03  0.11448312022E+04  0.46999998093E+01 0.  1.
</event>
<event>
 5   0  0.1169371E-05  0.2385744E+04  0.7818609E-02  0.8444860E-01
       -2   -1    0    0    0  501  0.00000000000E+00  0.00000000000E+00  0.90543805477E+03  0.90543805477E+03  0.25500000920E-02 0.  1.
        2   -1    0    0  501    0  0.00000000000E+00  0.00000000000E+00 -0.15715520325E+04  0.15715520325E+04  0.25500000920E-02 0. -1.
    10030    2    1    2    0    0  0.00000000000E+00  0.00000000000E+00 -0.66611397775E+03  0.24769900873E+04  0.23857435028E+04 0.  0.
        2    1    3    3  502    0 -0.21303864895E+03  0.11518452127E+04 -0.99024699940E+02  0.11755589101E+04  0.25500000920E-02 0. -1.
       -2    1    3    3    0  502  0.21303864895E+03 -0.11518452127E+04 -0.56708927781E+03  0.13014311772E+04  0.25500000920E-02 0.  1.
</event>
<event>
 5   0  0.4067750E-06  0.2394797E+04  0.7818609E-02  0.8441454E-01
       -3   -1    0    0    0  501  0.00000000000E+00  0.00000000000E+00  0.11687821209E+04  0.11687821253E+04  0.10100000352E+00 0.  1.
        3   -1    0    0  501    0  0.00000000000E+00  0.00000000000E+00 -0.12267156362E+04  0.12267156404E+04  0.10100000352E+00 0. -1.
    10030    2    1    2    0    0  0.00000000000E+00  0.00000000000E+00 -0.57933515294E+02  0.23954977657E+04  0.23947971215E+04 0.  0.
        1    1    3    3  502    0 -0.17108434157E+03  0.12160502444E+03 -0.12081694412E+04  0.12262671130E+04  0.50400001928E-02 0. -1.
       -1    1    3    3    0  502  0.17108434157E+03 -0.12160502444E+03  0.11502359259E+04  0.11692306526E+04  0.50400001928E-02 0.  1.
</event>
<event>
 5   0  0.5196696E-06  0.2404104E+04  0.7818609E-02  0.8437969E-01
       -1   -1    0    0    0  501  0.00000000000E+00  0.00000000000E+00  0.67889565704E+03  0.67889565706E+03  0.50400001928E-02 0. -1.
        1   -1    0    0  501    0  0.00000000000E+00  0.00000000000E+00 -0.21283527959E+04  0.21283527959E+04  0.50400001928E-02 0.  1.
    10030    2    1    2    0    0  0.00000000000E+00  0.00000000000E+00 -0.14494571388E+04  0.28072484529E+04  0.24041043819E+04 0.  0.
        1    1    3    3  502    0  0.54086136572E+03  0.36536467721E+03 -0.19034056169E+04  0.20122065766E+04  0.50400001928E-02 0.  1.
       -1    1    3    3    0  502 -0.54086136572E+03 -0.36536467721E+03  0.45394847813E+03  0.79504187632E+03  0.50400001928E-02 0. -1.
</event>
<event>
 5   0  0.1169371E-05  0.2407092E+04  0.7818609E-02  0.8436853E-01
        2   -1    0    0  501    0  0.00000000000E+00  0.00000000000E+00  0.10258412082E+04  0.10258412082E+04  0.25500000920E-02 0. -1.
       -2   -1    0    0    0  501  0.00000000000E+00  0.00000000000E+00 -0.14120347588E+04  0.14120347588E+04  0.25500000920E-02 0.  1.
    10030    2    1    2    0    0  0.00000000000E+00  0.00000000000E+00 -0.38619355060E+03  0.24378759670E+04  0.24070923896E+04 0.  0.
        2    1    3    3  502    0 -0.88780516943E+03  0.51139646218E+03  0.44648476639E+03  0.11176193480E+04  0.25500000920E-02 0. -1.
       -2    1    3    3    0  502  0.88780516943E+03 -0.51139646218E+03 -0.83267831699E+03  0.13202566190E+04  0.25500000920E-02 0.  1.
</event>
<event>
 5   0  0.5064437E-06  0.2382986E+04  0.7818609E-02  0.8445901E-01
       -1   -1    0    0    0  501  0.00000000000E+00  0.00000000000E+00  0.12407607714E+04  0.12407607714E+04  0.50400001928E-02 0.  1.
        1   -1    0    0  501    0  0.00000000000E+00  0.00000000000E+00 -0.11441817319E+04  0.11441817319E+04  0.50400001928E-02 0. -1.
    10030    2    1    2    0    0  0.00000000000E+00  0.00000000000E+00  0.96579039503E+02  0.23849425032E+04  0.23829862007E+04 0.  0.
        2    1    3    3  502    0 -0.52289714115E+03  0.95311149022E+03 -0.43977143794E+03  0.11727070609E+04  0.25500000920E-02 0.  1.
       -2    1    3    3    0  502  0.52289714115E+03 -0.95311149022E+03  0.53635047744E+03  0.12122354423E+04  0.25500000920E-02 0. -1.
</event>
<event>
 5   0  0.5064437E-06  0.2407568E+04  0.7818609E-02  0.8436676E-01
       -1   -1    0    0    0  501  0.00000000000E+00  0.00000000000E+00  0.83926088145E+03  0.83926088147E+03  0.50400001928E-02 0.  1.
        1   -1    0    0  501    0  0.00000000000E+00  0.00000000000E+00 -0.17266329493E+04  0.17266329493E+04  0.50400001928E-02 0. -1.
    10030    2    1    2    0    0  0.00000000000E+00  0.00000000000E+00 -0.88737206781E+03  0.25658938307E+04  0.24075676447E+04 0.  0.
        2    1    3    3  502    0 -0.82525217659E+03  0.23600311647E+03 -0.13432022382E+04  0.15940297609E+04  0.25500000920E-02 0. -1.
       -2    1    3    3    0  502  0.82525217659E+03 -0.23600311647E+03  0.45583017040E+03  0.97186406982E+03  0.25500000920E-02 0.  1.
</event>
<event>
 5   0  0.5034479E-06  0.2418599E+04  0.7818609E-02  0.8432573E-01
        1   -1    0    0  501    0  0.00000000000E+00  0.00000000000E+00  0.13336480799E+04  0.13336480799E+04  0.50400001928E-02 0. -1.
       -1   -1    0    0    0  501  0.00000000000E+00  0.00000000000E+00 -0.10965454938E+04  0.10965454938E+04  0.50400001928E-02 0.  1.
    10030    2    1    2    0    0  0.00000000000E+00  0.00000000000E+00  0.23710258614E+03  0.24301935737E+04  0.24185994231E+04 0.  0.
        4    1    3    3  502    0  0.10004586119E+04  0.48434294645E+03  0.59717354354E+03  0.12617937145E+04  0.12699999809E+01 0. -1.
       -4    1    3    3    0  502 -0.10004586119E+04 -0.48434294645E+03 -0.36007095740E+03  0.11683998593E+04  0.12699999809E+01 0.  1.
</event>
<event>
 5   0  0.5034479E-06  0.2393825E+04  0.7818609E-02  0.8441819E-01
       -1   -1    0    0    0  501  0.00000000000E+00  0.00000000000E+00  0.75876905189E+03  0.75876905191E+03  0.50400001928E-02 0. -1.
        1   -1    0    0  501    0  0.00000000000E+00  0.00000000000E+00 -0.18880574555E+04  0.18880574555E+04  0.50400001928E-02 0.  1.
    10030    2    1    2    0    0  0.00000000000E+00  0.00000000000E+00 -0.11292884036E+04  0.26468265074E+04  0.23938250274E+04 0.  0.
        4    1    3    3  502    0 -0.98264503113E+02 -0.11689514527E+04 -0.82745083079E+03  0.14355416753E+04  0.12699999809E+01 0.  1.
       -4    1    3    3    0  502  0.98264503113E+02  0.11689514527E+04 -0.30183757284E+03  0.12112848321E+04  0.12699999809E+01 0. -1.
</event>
<event>
 5   0  0.5042742E-06  0.2409332E+04  0.7818609E-02  0.8436018E-01
        1   -1    0    0  501    0  0.00000000000E+00  0.00000000000E+00  0.94333584943E+03  0.94333584944E+03  0.50400001928E-02 0.  1.
       -1   -1    0    0    0  501  0.00000000000E+00  0.00000000000E+00 -0.15383916622E+04  0.15383916622E+04  0.50400001928E-02 0. -1.
    10030    2    1    2    0    0  0.00000000000E+00  0.00000000000E+00 -0.59505581280E+03  0.24817275117E+04  0.24093318621E+04 0.  0.
        5    1    3    3  502    0  0.10643705900E+04  0.27997076075E+03  0.20701642135E+03  0.11198867212E+04  0.46999998093E+01 0.  1.
       -5    1    3    3    0  502 -0.10643705900E+04 -0.27997076075E+03 -0.80207223416E+03  0.13618407904E+04  0.46999998093E+01 0. -1.
</event>
<event>
 5   0  0.5104174E-06  0.2421152E+04  0.7818609E-02  0.8431627E-01
       -1   -1    0    0    0  501  0.00000000000E+00  0.00000000000E+00  0.80357677980E+03  0.80357677981E+03  0.50400001928E-02 0. -1.
        1   -1    0    0  501    0  0.00000000000E+00  0.00000000000E+00 -0.18237140448E+04  0.18237140448E+04  0.50400001928E-02 0.  1.
    10030    2    1    2    0    0  0.00000000000E+00  0.00000000000E+00 -0.10201372650E+04  0.26272908246E+04  0.24211520063E+04 0.  0.
        3    1    3    3  502    0  0.85335421589E+03  0.26557448211E+03 -0.13961384411E+04  0.16576929089E+04  0.10100000352E+00 0.  1.
       -3    1    3    3    0  502 -0.85335421589E+03 -0.26557448211E+03  0.37600117617E+03  0.96959791564E+03  0.10100000352E+00 0. -1.
</event>
<event>
 5   0  0.1198313E-05  0.2394831E+04  0.7818609E-02  0.8441441E-01
       -2   -1    0    0    0  501  0.00000000000E+00  0.00000000000E+00  0.17727547891E+04  0.17727547891E+04  0.25500000920E-02 0. -1.
        2   -1    0    0  501    0  0.00000000000E+00  0.00000000000E+00 -0.80879986626E+03  0.80879986626E+03  0.25500000920E-02 0.  1.
    10030    2    1    2    0    0  0.00000000000E+00  0.00000000000E+00  0.96395492281E+03  0.25815546553E+04  0.23948309638E+04 0.  0.
        5    1    3    3  502    0  0.69578898049E+03 -0.94143921528E+03  0.75329970971E+03  0.13920893089E+04  0.46999998093E+01 0. -1.
       -5    1    3    3    0  502 -0.69578898049E+03  0.94143921528E+03  0.21065521311E+03  0.11894653464E+04  0.46999998093E+01 0.  1.
</event>
<event>
 5   0  0.5042742E-06  0.2395758E+04  0.7818609E-02  0.8441093E-01
        1   -1    0    0  501    0  0.00000000000E+00  0.00000000000E+00  0.29804442458E+04  0.29804442458E+04  0.50400001928E-02 0.  1.
       -1   -1    0    0    0  501  0.00000000000E+00  0.00000000000E+00 -0.48144294956E+03  0.48144294958E+03  0.50400001928E-02 0. -1.
    10030    2    1    2    0    0  0.00000000000E+00  0.00000000000E+00  0.24990012963E+04  0.34618871954E+04  0.23957578081E+04 0.  0.
        5    1    3    3  502    0  0.10521899277E+04 -0.51577992885E+03  0.16086051339E+04  0.19901671151E+04  0.46999998093E+01 0. -1.
       -5    1    3    3    0  502 -0.10521899277E+04  0.51577992885E+03  0.89039616233E+03  0.14717200803E+04  0.46999998093E+01 0.  1.
</event>
<event>
 5   0  0.1168435E-05  0.2402315E+04  0.7818609E-02  0.8438637E-01
       -2   -1    0    0    0  501  0.00000000000E+00  0.00000000000E+00  0.69900080386E+03  0.69900080387E+03  0.25500000920E-02 0. -1.
        2   -1    0    0  501    0  0.00000000000E+00  0.00000000000E+00 -0.20640591305E+04  0.20640591305E+04  0.25500000920E-02 0.  1.
    10030    2    1    2    0    0  0.00000000000E+00  0.00000000000E+00 -0.13650583266E+04  0.27630599343E+04  0.24023147100E+04 0.  0.
        1    1    3    3  502    0  0.87305742293E+02  0.71222526602E+03  0.42539258971E+03  0.83417382937E+03  0.50400001928E-02 0. -1.
       -1    1    3    3    0  502 -0.87305742293E+02 -0.71222526602E+03 -0.17904509163E+04  0.19288861050E+04  0.50400001928E-02 0.  1.
</event>
<event>
 5   0  0.5104174E-06  0.2398289E+04  0.7818609E-02  0.8440145E-01
        1   -1    0    0  501    0  0.00000000000E+00  0.00000000000E+00  0.12373739265E+04  0.12373739265E+04  0.50400001928E-02 0.  1.
       -1   -1    0    0    0  501  0.00000000000E+00  0.00000000000E+00 -0.11620958873E+04  0.11620958873E+04  0.50400001928E-02 0. -1.
    10030    2    1    2    0    0  0.00000000000E+00  0.00000000000E+00  0.75278039188E+02  0.23994698139E+04  0.23982886825E+04 0.  0.
        3    1    3    3  502    0 -0.33919701389E+03 -0.67882149011E+03  0.96658641548E+03  0.12288785695E+04  0.10100000352E+00 0.  1.
       -3    1    3    3    0  502  0.33919701389E+03  0.67882149011E+03 -0.89130837630E+03  0.11705912444E+04  0.10100000352E+00 0. -1.
</event>
<event>
 5   0  0.5034479E-06  0.2397087E+04  0.7818609E-02  0.8440595E-01
       -1   -1    0    0    0  501  0.00000000000E+00  0.00000000000E+00  0.14069618728E+04  0.14069618728E+04  0.50400001928E-02 0.  1.
        1   -1    0    0  501    0  0.00000000000E+00  0.00000000000E+00 -0.10209990255E+04  0.10209990255E+04  0.50400001928E-02 0. -1.
    10030    2    1    2    0    0  0.00000000000E+00  0.00000000000E+00  0.38596284732E+03  0.24279608983E+04  0.23970871499E+04 0.  0.
        4    1    3    3  502    0  0.87472590299E+03 -0.20934940486E+03 -0.60939097227E+03  0.10864306460E+04  0.12699999809E+01 0. -1.
       -4    1    3    3    0  502 -0.87472590299E+03  0.20934940486E+03  0.99535381959E+03  0.13415302523E+04  0.12699999809E+01 0.  1.
</event>
<event>
 5   0  0.1168435E-05  0.2407277E+04  0.7818609E-02  0.8436784E-01
        2   -1    0    0  501    0  0.00000000000E+00  0.00000000000E+00  0.10373551155E+04  0.10373551155E+04  0.25500000920E-02 0.  1.
       -2   -1    0    0    0  501  0.00000000000E+00  0.00000000000E+00 -0.13965768004E+04  0.13965768004E+04  0.25500000920E-02 0. -1.
    10030    2    1    2    0    0  0.00000000000E+00  0.00000000000E+00 -0.35922168492E+03  0.24339319159E+04  0.24072773734E+04 0.  0.
        1    1    3    3  502    0 -0.77038889333E+03  0.58475398822E+03  0.54477853937E+03  0.11100540215E+04  0.50400001928E-02 0.  1.
       -1    1    3    3    0  502  0.77038889333E+03 -0.58475398822E+03 -0.90400022430E+03  0.13238778944E+04  0.50400001928E-02 0. -1.
</event>
<event>
 5   0  0.1174210E-05  0.2398445E+04  0.7818609E-02  0.8440086E-01
       -2   -1    0    0    0  501  0.00000000000E+00  0.00000000000E+00  0.18167963818E+04  0.18167963818E+04  0.25500000920E-02 0. -1.
        2   -1    0    0  501    0  0.00000000000E+00  0.00000000000E+00 -0.79157726572E+03  0.79157726573E+03  0.25500000920E-02 0.  1.
    10030    2    1    2    0    0  0.00000000000E+00  0.00000000000E+00  0.10252191161E+04  0.26083736475E+04  0.23984450899E+04 0.  0.
        3    1    3    3  502    0  0.63709375042E+03 -0.95964537215E+03  0.14974854729E+03  0.11615646020E+04  0.10100000352E+00 0.  1.
       -3    1    3    3    0  502 -0.63709375042E+03  0.95964537215E+03  0.87547056879E+03  0.14468090455E+04  0.10100000352E+00 0. -1.
</event>
<event>
 5   0  0.1168435E-05  0.2373353E+04  0.7818609E-02  0.8449548E-01
        2   -1    0    0  501    0  0.00000000000E+00  0.00000000000E+00  0.21797617630E+04  0.21797617630E+04  0.25500000920E-02 0. -1.
       -2   -1    0    0    0  501  0.00000000000E+00  0.00000000000E+00 -0.64603435722E+03  0.64603435723E+03  0.25500000920E-02 0.  1.
    10030    2    1    2    0    0  0.00000000000E+00  0.00000000000E+00  0.15337274057E+04  0.28257961202E+04  0.23733528937E+04 0.  0.
        1    1    3    3  502    0 -0.90121936408E+03 -0.71175827012E+03  0.11228710442E+04  0.16061243910E+04  0.50400001928E-02 0. -1.
       -1    1    3    3    0  502  0.90121936408E+03  0.71175827012E+03  0.41085636154E+03  0.12196717292E+04  0.50400001928E-02 0.  1.
</event>
<event>
 5   0  0.1174210E-05  0.2394472E+04  0.7818609E-02  0.8441576E-01
       -2   -1    0    0    0  501  0.00000000000E+00  0.00000000000E+00  0.11377262281E+04  0.11377262281E+04  0.25500000920E-02 0.  1.
        2   -1    0    0  501    0  0.00000000000E+00  0.00000000000E+00 -0.12598588414E+04  0.12598588414E+04  0.25500000920E-02 0. -1.
    10030    2    1    2    0    0  0.00000000000E+00  0.00000000000E+00 -0.12213261321E+03  0.23975850695E+04  0.23944723407E+04 0.  0.
        3    1    3    3  502    0 -0.16111392701E+03  0.39090986542E+03  0.10604818306E+04  0.11416610458E+04  0.10100000352E+00 0.  1.
       -3    1    3    3    0  502  0.16111392701E+03 -0.39090986542E+03 -0.11826144438E+04  0.12559240237E+04  0.10100000352E+00 0. -1.
</event>
<event>
 5   0  0.1169371E-05  0.2422259E+04  0.7818609E-02  0.8431217E-01
        2   -1    0    0  501    0  0.00000000000E+00  0.00000000000E+00  0.12992806322E+04  0.12992806322E+04  0.25500000920E-02 0. -1.
       -2   -1    0    0    0  501  0.00000000000E+00  0.00000000000E+00 -0.11289591159E+04  0.11289591159E+04  0.25500000920E-02 0.  1.
    10030    2    1    2    0    0  0.00000000000E+00  0.00000000000E+00  0.17032151634E+03  0.24282397481E+04  0.24222590397E+04 0.  0.
        2    1    3    3  502    0 -0.69536512521E+03 -0.98477559063E+03  0.20171947301E+03  0.12222955318E+04  0.25500000920E-02 0. -1.
       -2    1    3    3    0  502  0.69536512521E+03  0.98477559063E+03 -0.31397956675E+02  0.12059442164E+04  0.25500000920E-02 0.  1.
</event>
<event>
 5   0  0.1168435E-05  0.2401488E+04  0.7818609E-02  0.8438947E-01
        2   -1    0    0  501    0  0.00000000000E+00  0.00000000000E+00  0.11843494881E+04  0.11843494881E+04  0.25500000920E-02 0.  1.
       -2   -1    0    0    0  501  0.00000000000E+00  0.00000000000E+00 -0.12173652503E+04  0.12173652503E+04  0.25500000920E-02 0. -1.
    10030    2    1    2    0    0  0.00000000000E+00  0.00000000000E+00 -0.33015762247E+02  0.24017147384E+04  0.24014877980E+04 0.  0.
        1    1    3    3  502    0 -0.79525869960E+03  0.86298486952E+03 -0.27071023734E+03  0.12043518244E+04  0.50400001928E-02 0. -1.
       -1    1    3    3    0  502  0.79525869960E+03 -0.86298486952E+03  0.23769447509E+03  0.11973629140E+04  0.50400001928E-02 0.  1.
</event>
<event>
 5   0  0.5042742E-06  0.2398830E+04  0.7818609E-02  0.8439942E-01
       -1   -1    0    0    0  501  0.00000000000E+00  0.00000000000E+00  0.85052801139E+03  0.85052801140E+03  0.50400001928E-02 0.  1.
        1   -1    0    0  501    0  0.00000000000E+00  0.00000000000E+00 -0.16914152456E+04  0.16914152456E+04  0.50400001928E-02 0. -1.
    10030    2    1    2    0    0  0.00000000000E+00  0.00000000000E+00 -0.84088723420E+03  0.25419432570E+04  0.23988297524E+04 0.  0.
        5    1    3    3  502    0 -0.29315804572E+03  0.10414152523E+04 -0.96910446277E+03  0.14524713137E+04  0.46999998093E+01 0. -1.
       -5    1    3    3    0  502  0.29315804572E+03 -0.10414152523E+04  0.12821722857E+03  0.10894719433E+04  0.46999998093E+01 0.  1.
</event>
<event>
 5   0  0.5042742E-06  0.2385847E+04  0.7818609E-02  0.8444821E-01
       -1   -1    0    0    0  501  0.00000000000E+00  0.00000000000E+00  0.12197174283E+04  0.12197174283E+04  0.50400001928E-02 0.  1.
        1   -1    0    0  501    0  0.00000000000E+00  0.00000000000E+00 -0.11667179293E+04  0.11667179293E+04  0.50400001928E-02 0. -1.
    10030    2    1    2    0    0  0.00000000000E+00  0.00000000000E+00  0.52999498991E+02  0.23864353576E+04  0.23858467614E+04 0.  0.
        5    1    3    3  502    0 -0.85600863975E+03 -0.72750435746E+03 -0.37488558180E+03  0.11843034539E+04  0.46999998093E+01 0. -1.
       -5    1    3    3    0  502  0.85600863975E+03  0.72750435746E+03  0.42788508079E+03  0.12021319037E+04  0.46999998093E+01 0.  1.
</event>
<event>
 5   0  0.1169371E-05  0.2387636E+04  0.7818609E-02  0.8444147E-01
       -2   -1    0    0    0  501  0.00000000000E+00  0.00000000000E+00  0.80072019066E+03  0.80072019067E+03  0.25500000920E-02 0.  1.
        2   -1    0    0  501    0  0.00000000000E+00  0.00000000000E+00 -0.17798987366E+04  0.17798987366E+04  0.25500000920E-02 0. -1.
    10030    2    1    2    0    0  0.00000000000E+00  0.00000000000E+00 -0.97917854597E+03  0.25806189273E+04  0.23876355298E+04 0.  0.
        2    1    3    3  502    0  0.95559780304E+03 -0.24469440144E+03 -0.12163661817E+04  0.15660744552E+04  0.25500000920E-02 0. -1.
       -2    1    3    3    0  502 -0.95559780304E+03  0.24469440144E+03  0.23718763574E+03  0.10145444721E+04  0.25500000920E-02 0.  1.
</event>
<event>
 5   0  0.5104174E-06  0.2422379E+04  0.7818609E-02  0.8431172E-01
        1   -1    0    0  501    0  0.00000000000E+00  0.00000000000E+00  0.11128359344E+04  0.11128359344E+04  0.50400001928E-02 0.  1.
       -1   -1    0    0    0  501  0.00000000000E+00  0.00000000000E+00 -0.13182361816E+04  0.13182361816E+04  0.50400001928E-02 0. -1.
    10030    2    1    2    0    0  0.00000000000E+00  0.00000000000E+00 -0.20540024722E+03  0.24310721161E+04  0.24223794855E+04 0.  0.
        3    1    3    3  502    0  0.95767004716E+03  0.37198721647E+03  0.54106427155E+03  0.11611446786E+04  0.10100000352E+00 0.  1.
       -3    1    3    3    0  502 -0.95767004716E+03 -0.37198721647E+03 -0.74646451878E+03  0.12699274375E+04  0.10100000352E+00 0. -1.
</event>
<event>
 5   0  0.5042742E-06  0.2404165E+04  0.7818609E-02  0.8437946E-01
        1   -1    0    0  501    0  0.00000000000E+00  0.00000000000E+00  0.14788294909E+04  0.14788294909E+04  0.50400001928E-02 0. -1.
       -1   -1    0    0    0  501  0.00000000000E+00  0.00000000000E+00 -0.97712605758E+03  0.97712605759E+03  0.50400001928E-02 0.  1.
    10030    2    1    2    0    0  0.00000000000E+00  0.00000000000E+00  0.50170343329E+03  0.24559555485E+04  0.24041654105E+04 0.  0.
        5    1    3    3  502    0 -0.99652914250E+03  0.33545621894E+03 -0.34426065903E+03  0.11064080161E+04  0.46999998093E+01 0.  1.
       -5    1    3    3    0  502  0.99652914250E+03 -0.33545621894E+03  0.84596409232E+03  0.13495475324E+04  0.46999998093E+01 0. -1.
</event>
<event>
 5   0  0.1198313E-05  0.2388139E+04  0.7818609E-02  0.8443958E-01
       -2   -1    0    0    0  501  0.00000000000E+00  0.00000000000E+00  0.43432280206E+03  0.43432280207E+03  0.25500000920E-02 0.  1.
        2   -1    0    0  501    0  0.00000000000E+00  0.00000000000E+00 -0.32828151006E+04  0.32828151006E+04  0.25500000920E-02 0. -1.
    10030    2    1    2    0    0  0.00000000000E+00  0.00000000000E+00 -0.28484922986E+04  0.37171379027E+04  0.23881385665E+04 0.  0.
        5    1    3    3  502    0 -0.29706947779E+03 -0.61794816577E+03 -0.29458546829E+04  0.30245978431E+04  0.46999998093E+01 0. -1.
       -5    1    3    3    0  502  0.29706947779E+03  0.61794816577E+03  0.97362384292E+02  0.69254005955E+03  0.46999998093E+01 0.  1.
</event>
<event>
 5   0  0.1174210E-05  0.2395898E+04  0.7818609E-02  0.8441041E-01
        2   -1    0    0  501    0  0.00000000000E+00  0.00000000000E+00  0.21138380778E+04  0.21138380778E+04  0.25500000920E-02 0.  1.
       -2   -1    0    0    0  501  0.00000000000E+00  0.00000000000E+00 -0.67889844872E+03  0.67889844872E+03  0.25500000920E-02 0. -1.
    10030    2    1    2    0    0  0.00000000000E+00  0.00000000000E+00  0.14349396291E+04  0.27927365265E+04  0.23958976538E+04 0.  0.
        3    1    3    3  502    0  0.75000086990E+03  0.31216188827E+03 -0.30877360574E+03  0.86907278127E+03  0.10100000352E+00 0. -1.
       -3    1    3    3    0  502 -0.75000086990E+03 -0.31216188827E+03  0.17437132348E+04  0.19236637453E+04  0.10100000352E+00 0.  1.
</event>
<event>
 5   0  0.5042742E-06  0.2402018E+04  0.7818609E-02  0.8438749E-01
        1   -1    0    0  501    0  0.00000000000E+00  0.00000000000E+00  0.18340127764E+04  0.18340127764E+04  0.50400001928E-02 0.  1.
       -1   -1    0    0    0  501  0.00000000000E+00  0.00000000000E+00 -0.78648417634E+03  0.78648417636E+03  0.50400001928E-02 0. -1.
    10030    2    1    2    0    0  0.00000000000E+00  0.00000000000E+00  0.10475286000E+04  0.26204969527E+04  0.24020175086E+04 0.  0.
        5    1    3    3  502    0  0.82257217932E+03  0.45671950771E+03 -0.29057636515E+03  0.98472047450E+03  0.46999998093E+01 0. -1.
       -5    1    3    3    0  502 -0.82257217932E+03 -0.45671950771E+03  0.13381049652E+04  0.16357764782E+04  0.46999998093E+01 0.  1.
</event>
<event>
 5   0  0.1169371E-05  0.2364454E+04  0.7818609E-02  0.8452933E-01
        2   -1    0    0  501    0  0.00000000000E+00  0.00000000000E+00  0.24379110480E+04  0.24379110480E+04  0.25500000920E-02 0. -1.
       -2   -1    0    0    0  501  0.00000000000E+00  0.00000000000E+00 -0.57330249096E+03  0.57330249097E+03  0.25500000920E-02 0.  1.
    10030    2    1    2    0    0  0.00000000000E+00  0.00000000000E+00  0.18646085570E+04  0.30112135389E+04  0.23644538283E+04 0.  0.
        2    1    3    3  502    0  0.71479566435E+03  0.30523484496E+03 -0.20218505263E+03  0.80310643620E+03  0.25500000920E-02 0.  1.
       -2    1    3    3    0  502 -0.71479566435E+03 -0.30523484496E+03  0.20667936096E+04  0.22081071027E+04  0.25500000920E-02 0. -1.
</event>
<event>
 5   0  0.5196696E-06  0.2361957E+04  0.7818609E-02  0.8453885E-01
       -1   -1    0    0    0  501  0.00000000000E+00  0.00000000000E+00  0.11383900685E+04  0.11383900685E+04  0.50400001928E-02 0. -1.
        1   -1    0    0  501    0  0.00000000000E+00  0.00000000000E+00 -0.12251597949E+04  0.12251597949E+04  0.50400001928E-02 0.  1.
    10030    2    1    2    0    0  0.00000000000E+00  0.00000000000E+00 -0.86769726424E+02  0.23635498635E+04  0.23619565982E+04 0.  0.
        1    1    3    3  502    0  0.89992020850E+03 -0.29051241230E+03 -0.75129113912E+03  0.12077633125E+04  0.50400001928E-02 0.  1.
       -1    1    3    3    0  502 -0.89992020850E+03  0.29051241230E+03  0.66452141269E+03  0.11557865509E+04  0.50400001928E-02 0. -1.
</event>
<event>
 5   0  0.1168435E-05  0.2404513E+04  0.7818609E-02  0.8437816E-01
       -2   -1    0    0    0  501  0.00000000000E+00  0.00000000000E+00  0.11908989471E+04  0.11908989471E+04  0.25500000920E-02 0. -1.
        2   -1    0    0  501    0  0.00000000000E+00  0.00000000000E+00 -0.12137222494E+04  0.12137222494E+04  0.25500000920E-02 0.  1.
    10030    2    1    2    0    0  0.00000000000E+00  0.00000000000E+00 -0.22823302322E+02  0.24046211964E+04  0.24045128811E+04 0.  0.
        1    1    3    3  502    0  0.94683049410E+03 -0.38050610288E+03  0.62434308281E+03  0.11962763744E+04  0.50400001928E-02 0. -1.
       -1    1    3    3    0  502 -0.94683049410E+03  0.38050610288E+03 -0.64716638514E+03  0.12083448220E+04  0.50400001928E-02 0.  1.
</event>
<event>
 5   0  0.5064437E-06  0.2375780E+04  0.7818609E-02  0.8448627E-01
        1   -1    0    0  501    0  0.00000000000E+00  0.00000000000E+00  0.12462716139E+04  0.12462716139E+04  0.50400001928E-02 0.  1.
       -1   -1    0    0    0  501  0.00000000000E+00  0.00000000000E+00 -0.11322432507E+04  0.11322432507E+04  0.50400001928E-02 0. -1.
    10030    2    1    2    0    0  0.00000000000E+00  0.00000000000E+00  0.11402836327E+03  0.23785148646E+04  0.23757799758E+04 0.  0.
        2    1    3    3  502    0 -0.13938275438E+03  0.99686606432E+03 -0.57451552224E+03  0.11589812715E+04  0.25500000920E-02 0. -1.
       -2    1    3    3    0  502  0.13938275438E+03 -0.99686606432E+03  0.68854388551E+03  0.12195335931E+04  0.25500000920E-02 0.  1.
</event>
<event>
 5   0  0.5104174E-06  0.2371806E+04  0.7818609E-02  0.8450135E-01
        1   -1    0    0  501    0  0.00000000000E+00  0.00000000000E+00  0.19245348665E+04  0.19245348665E+04  0.50400001928E-02 0. -1.
       -1   -1    0    0    0  501  0.00000000000E+00  0.00000000000E+00 -0.73075643188E+03  0.73075643190E+03  0.50400001928E-02 0.  1.
    10030    2    1    2    0    0  0.00000000000E+00  0.00000000000E+00  0.11937784346E+04  0.26552912984E+04  0.23718062586E+04 0.  0.
        3    1    3    3  502    0 -0.54897889403E+03 -0.95383399260E+03  0.10228165317E+03  0.11052776386E+04  0.10100000352E+00 0.  1.
       -3    1    3    3    0  502  0.54897889403E+03  0.95383399260E+03  0.10914967814E+04  0.15500136598E+04  0.10100000352E+00 0. -1.
</event>
<event>
 5   0  0.5042742E-06  0.2403640E+04  0.7818609E-02  0.8438142E-01
       -1   -1    0    0    0  501  0.00000000000E+00  0.00000000000E+00  0.87218756966E+03  0.87218756967E+03  0.50400001928E-02 0. -1.
        1   -1    0    0  501    0  0.00000000000E+00  0.00000000000E+00 -0.16560333174E+04  0.16560333174E+04  0.50400001928E-02 0.  1.
    10030    2    1    2    0    0  0.00000000000E+00  0.00000000000E+00 -0.78384574776E+03  0.25282208871E+04  0.24036403012E+04 0.  0.
        5    1    3    3  502    0 -0.29568151289E+03  0.89126965301E+03 -0.11808377212E+04  0.15087043996E+04  0.46999998093E+01 0.  1.
       -5    1    3    3    0  502  0.29568151289E+03 -0.89126965301E+03  0.39699197343E+03  0.10195164876E+04  0.46999998093E+01 0. -1.
</event>
<event>
 5   0  0.5064437E-06  0.2407183E+04  0.7818609E-02  0.8436819E-01
       -1   -1    0    0    0  501  0.00000000000E+00  0.00000000000E+00  0.22364617182E+04  0.22364617182E+04  0.50400001928E-02 0.  1.
        1   -1    0    0  501    0  0.00000000000E+00  0.00000000000E+00 -0.64773395121E+03  0.64773395123E+03  0.50400001928E-02 0. -1.
    10030    2    1    2    0    0  0.00000000000E+00  0.00000000000E+00  0.15887277670E+04  0.28841956694E+04  0.24071827396E+04 0.  0.
        2    1    3    3  502    0 -0.10782679769E+04  0.29749910644E+03  0.26193657142E+03  0.11488160496E+04  0.25500000920E-02 0. -1.
       -2    1    3    3    0  502  0.10782679769E+04 -0.29749910644E+03  0.13267911955E+04  0.17353796198E+04  0.25500000920E-02 0.  1.
</event>
<event>
 5   0  0.1154897E-05  0.2399983E+04  0.7818609E-02  0.8439510E-01
        2   -1    0    0  501    0  0.00000000000E+00  0.00000000000E+00  0.14824008140E+04  0.14824008140E+04  0.25500000920E-02 0. -1.
       -2   -1    0    0    0  501  0.00000000000E+00  0.00000000000E+00 -0.97138308344E+03  0.97138308344E+03  0.25500000920E-02 0.  1.
    10030    2    1    2    0    0  0.00000000000E+00  0.00000000000E+00  0.51101773054E+03  0.24537838974E+04  0.23999825613E+04 0.  0.
        4    1    3    3  502    0  0.60089045175E+03  0.48684423847E+03  0.11936239325E+04  0.14222610002E+04  0.12699999809E+01 0. -1.
       -4    1    3    3    0  502 -0.60089045175E+03 -0.48684423847E+03 -0.68260620200E+03  0.10315228972E+04  0.12699999809E+01 0.  1.
</event>
<event>
 5   0  0.5034479E-06  0.2399729E+04  0.7818609E-02  0.8439605E-01
        1   -1    0    0  501    0  0.00000000000E+00  0.00000000000E+00  0.11759105985E+04  0.11759105986E+04  0.50400001928E-02 0. -1.
       -1   -1    0    0    0  501  0.00000000000E+00  0.00000000000E+00 -0.12243066285E+04  0.12243066285E+04  0.50400001928E-02 0.  1.
    10030    2    1    2    0    0  0.00000000000E+00  0.00000000000E+00 -0.48396029987E+02  0.24002172271E+04  0.23997292684E+04 0.  0.
        4    1    3    3  502    0  0.68737598997E+02 -0.10740214562E+04 -0.55480242813E+03  0.12108072898E+04  0.12699999809E+01 0.  1.
       -4    1    3    3    0  502 -0.68737598997E+02  0.10740214562E+04  0.50640639814E+03  0.11894099373E+04  0.12699999809E+01 0. -1.
</event>
<event>
 5   0  0.5042742E-06  0.2486837E+04  0.7818609E-02  0.8407690E-01
        1   -1    0    0  501    0  0.00000000000E+00  0.00000000000E+00  0.21266056631E+04  0.21266056631E+04  0.50400001928E-02 0. -1.
       -1   -1    0    0    0  501  0.00000000000E+00  0.00000000000E+00 -0.72702238502E+03  0.72702238504E+03  0.50400001928E-02 0.  1.
    10030    2    1    2    0    0  0.00000000000E+00  0.00000000000E+00  0.13995832781E+04  0.28536280482E+04  0.24868372856E+04 0.  0.
        5    1    3    3  502    0 -0.38157520960E+02  0.70974428057E+01  0.21259002166E+04  0.21262596716E+04  0.46999998093E+01 0. -1.
       -5    1    3    3    0  502  0.38157520960E+02 -0.70974428057E+01 -0.72631693850E+03  0.72736837658E+03  0.46999998093E+01 0.  1.
</event>
<event>
 5   0  0.4067750E-06  0.2384667E+04  0.7818609E-02  0.8445267E-01
        4   -1    0    0  501    0  0.00000000000E+00  0.00000000000E+00  0.11655121109E+04  0.11655128028E+04  0.12699999809E+01 0. -1.
       -4   -1    0    0    0  501  0.00000000000E+00  0.00000000000E+00 -0.12197703793E+04  0.12197710404E+04  0.12699999809E+01 0.  1.
    10030    2    1    2    0    0  0.00000000000E+00  0.00000000000E+00 -0.54258268390E+02  0.23852838432E+04  0.23846666545E+04 0.  0.
        3    1    3    3  502    0  0.63103607520E+03 -0.32363628819E+03  0.93161347626E+03  0.11708333163E+04  0.10100000352E+00 0. -1.
       -3    1    3    3    0  502 -0.63103607520E+03  0.32363628819E+03 -0.98587174465E+03  0.12144505269E+04  0.10100000352E+00 0.  1.
</event>
<event>
 5   0  0.1168435E-05  0.2429326E+04  0.7818609E-02  0.8428605E-01
       -2   -1    0    0    0  501  0.00000000000E+00  0.00000000000E+00  0.10008844846E+04  0.10008844846E+04  0.25500000920E-02 0. -1.
        2   -1    0    0  501    0  0.00000000000E+00  0.00000000000E+00 -0.14741028286E+04  0.14741028286E+04  0.25500000920E-02 0.  1.
    10030    2    1    2    0    0  0.00000000000E+00  0.00000000000E+00 -0.47321834396E+03  0.24749873131E+04  0.24293263674E+04 0.  0.
        1    1    3    3  502    0 -0.10264431058E+04 -0.63034592760E+03 -0.39602779241E+03  0.12679745464E+04  0.50400001928E-02 0.  1.
       -1    1    3    3    0  502  0.10264431058E+04  0.63034592760E+03 -0.77190551553E+02  0.12070127668E+04  0.50400001928E-02 0. -1.
</event>
<event>
 5   0  0.1174210E-05  0.2295706E+04  0.7818609E-02  0.8479616E-01
       -2   -1    0    0    0  501  0.00000000000E+00  0.00000000000E+00  0.12005593251E+04  0.12005593251E+04  0.25500000920E-02 0. -1.
        2   -1    0    0  501    0  0.00000000000E+00  0.00000000000E+00 -0.10974606293E+04  0.10974606293E+04  0.25500000920E-02 0.  1.
    10030    2    1    2    0    0  0.00000000000E+00  0.00000000000E+00  0.10309869578E+03  0.22980199544E+04  0.22957060722E+04 0.  0.
        3    1    3    3  502    0  0.17150957955E+02  0.10532285002E+04  0.50805961315E+03  0.11694909190E+04  0.10100000352E+00 0. -1.
       -3    1    3    3    0  502 -0.17150957955E+02 -0.10532285002E+04 -0.40496091738E+03  0.11285290354E+04  0.10100000352E+00 0.  1.
</event>
<event>
 5   0  0.1174210E-05  0.2399530E+04  0.7818609E-02  0.8439680E-01
        2   -1    0    0  501    0  0.00000000000E+00  0.00000000000E+00  0.64628606524E+03  0.64628606524E+03  0.25500000920E-02 0. -1.
       -2   -1    0    0    0  501  0.00000000000E+00  0.00000000000E+00 -0.22272425905E+04  0.22272425905E+04  0.25500000920E-02 0.  1.
    10030    2    1    2    0    0  0.00000000000E+00  0.00000000000E+00 -0.15809565252E+04  0.28735286557E+04  0.23995298291E+04 0.  0.
        3    1    3    3  502    0  0.67306356655E+03  0.10855387493E+03 -0.19727325575E+04  0.20872163908E+04  0.10100000352E+00 0.  1.
       -3    1    3    3    0  502 -0.67306356655E+03 -0.10855387493E+03  0.39177603223E+03  0.78631226495E+03  0.10100000352E+00 0. -1.
</event>
<event>
 5   0  0.5034479E-06  0.2404773E+04  0.7818609E-02  0.8437719E-01
       -1   -1    0    0    0  501  0.00000000000E+00  0.00000000000E+00  0.15921569855E+04  0.15921569855E+04  0.50400001928E-02 0.  1.
        1   -1    0    0  501    0  0.00000000000E+00  0.00000000000E+00 -0.90803475133E+03  0.90803475134E+03  0.50400001928E-02 0. -1.
    10030    2    1    2    0    0  0.00000000000E+00  0.00000000000E+00  0.68412223414E+03  0.25001917368E+04  0.24047734799E+04 0.  0.
        4    1    3    3  502    0  0.54426448370E+03  0.45234873058E+03  0.13526849865E+04  0.15266307634E+04  0.12699999809E+01 0.  1.
       -4    1    3    3    0  502 -0.54426448370E+03 -0.45234873058E+03 -0.66856275232E+03  0.97356097342E+03  0.12699999809E+01 0. -1.
</event>
<event>
 5   0  0.1168435E-05  0.2439742E+04  0.7818609E-02  0.8424773E-01
        2   -1    0    0  501    0  0.00000000000E+00  0.00000000000E+00  0.17677056497E+04  0.17677056497E+04  0.25500000920E-02 0. -1.
       -2   -1    0    0    0  501  0.00000000000E+00  0.00000000000E+00 -0.84181728428E+03  0.84181728429E+03  0.25500000920E-02 0.  1.
    10030    2    1    2    0    0  0.00000000000E+00  0.00000000000E+00  0.92588836540E+03  0.26095229340E+04  0.24397419285E+04 0.  0.
        1    1    3    3  502    0  0.10785893869E+04  0.44932579613E+03  0.83781430337E+03  0.14377696421E+04  0.50400001928E-02 0. -1.
       -1    1    3    3    0  502 -0.10785893869E+04 -0.44932579613E+03  0.88074062031E+02  0.11717532919E+04  0.50400001928E-02 0.  1.
</event>
<event>
 5   0  0.5064437E-06  0.2400761E+04  0.7818609E-02  0.8439219E-01
       -1   -1    0    0    0  501  0.00000000000E+00  0.00000000000E+00  0.98612375313E+03  0.98612375315E+03  0.50400001928E-02 0.  1.
        1   -1    0    0  501    0  0.00000000000E+00  0.00000000000E+00 -0.14611891021E+04  0.14611891021E+04  0.50400001928E-02 0. -1.
    10030    2    1    2    0    0  0.00000000000E+00  0.00000000000E+00 -0.47506534893E+03  0.24473128552E+04  0.24007609472E+04 0.  0.
        2    1    3    3  502    0  0.62292652533E+03  0.91191323129E+02  0.80432228281E+03  0.10214145329E+04  0.25500000920E-02 0.  1.
       -2    1    3    3    0  502 -0.62292652533E+03 -0.91191323129E+02 -0.12793876317E+04  0.14258983223E+04  0.25500000920E-02 0. -1.
</event>
<event>
 5   0  0.5196696E-06  0.2399432E+04  0.7818609E-02  0.8439716E-01
        1   -1    0    0  501    0  0.00000000000E+00  0.00000000000E+00  0.16225724565E+04  0.16225724565E+04  0.50400001928E-02 0.  1.
       -1   -1    0    0    0  501  0.00000000000E+00  0.00000000000E+00 -0.88705961210E+03  0.88705961211E+03  0.50400001928E-02 0. -1.
    10030    2    1    2    0    0  0.00000000000E+00  0.00000000000E+00  0.73551284440E+03  0.25096320686E+04  0.23994320110E+04 0.  0.
        1    1    3    3  502    0 -0.59090918572E+03 -0.83827121366E+03 -0.28328303415E+03  0.10640120163E+04  0.50400001928E-02 0. -1.
       -1    1    3    3    0  502  0.59090918572E+03  0.83827121366E+03  0.10187958785E+04  0.14456200523E+04  0.50400001928E-02 0.  1.
</event>
<event>
 5   0  0.5042742E-06  0.2401947E+04  0.7818609E-02  0.8438775E-01
        1   -1    0    0  501    0  0.00000000000E+00  0.00000000000E+00  0.10794495079E+04  0.10794495079E+04  0.50400001928E-02 0. -1.
       -1   -1    0    0    0  501  0.00000000000E+00  0.00000000000E+00 -0.13361785147E+04  0.13361785147E+04  0.50400001928E-02 0.  1.
    10030    2    1    2    0    0  0.00000000000E+00  0.00000000000E+00 -0.25672900675E+03  0.24156280226E+04  0.24019469105E+04 0.  0.
        5    1    3    3  502    0 -0.90353372262E+03  0.16903406097E+03 -0.90566359235E+03  0.12904240908E+04  0.46999998093E+01 0.  1.
       -5    1    3    3    0  502  0.90353372262E+03 -0.16903406097E+03  0.64893458560E+03  0.11252039318E+04  0.46999998093E+01 0. -1.
</event>
<event>
 5   0  0.1169371E-05  0.2392927E+04  0.7818609E-02  0.8442156E-01
       -2   -1    0    0    0  501  0.00000000000E+00  0.00000000000E+00  0.97187077918E+03  0.97187077918E+03  0.25500000920E-02 0. -1.
        2   -1    0    0  501    0  0.00000000000E+00  0.00000000000E+00 -0.14729578882E+04  0.14729578882E+04  0.25500000920E-02 0.  1.
    10030    2    1    2    0    0  0.00000000000E+00  0.00000000000E+00 -0.50108710904E+03  0.24448286674E+04  0.23929268527E+04 0.  0.
        2    1    3    3  502    0 -0.82140748830E+03 -0.86067447483E+03 -0.37999577782E+03  0.12489465980E+04  0.25500000920E-02 0.  1.
       -2    1    3    3    0  502  0.82140748830E+03  0.86067447483E+03 -0.12109133122E+03  0.11958820694E+04  0.25500000920E-02 0. -1.
</event>
<event>
 5   0  0.1168435E-05  0.2401724E+04  0.7818609E-02  0.8438858E-01
       -2   -1    0    0    0  501  0.00000000000E+00  0.00000000000E+00  0.10359465983E+04  0.10359465983E+04  0.25500000920E-02 0. -1.
        2   -1    0    0  501    0  0.00000000000E+00  0.00000000000E+00 -0.13920308249E+04  0.13920308249E+04  0.25500000920E-02 0.  1.
    10030    2    1    2    0    0  0.00000000000E+00  0.00000000000E+00 -0.35608422666E+03  0.24279774232E+04  0.24017240456E+04 0.  0.
        1    1    3    3  502    0 -0.73731169988E+03 -0.25072366623E+03 -0.11021341289E+04  0.13495149268E+04  0.50400001928E-02 0.  1.
       -1    1    3    3    0  502  0.73731169988E+03  0.25072366623E+03  0.74604990221E+03  0.10784624964E+04  0.50400001928E-02 0. -1.
</event>
<event>
 5   0  0.1174210E-05  0.2307337E+04  0.7818609E-02  0.8475034E-01
       -2   -1    0    0    0  501  0.00000000000E+00  0.00000000000E+00  0.12160025681E+04  0.12160025681E+04  0.25500000920E-02 0.  1.
        2   -1    0    0  501    0  0.00000000000E+00  0.00000000000E+00 -0.10945294769E+04  0.10945294769E+04  0.25500000920E-02 0. -1.
    10030    2    1    2    0    0  0.00000000000E+00  0.00000000000E+00  0.12147309123E+03  0.23105320450E+04  0.23073366939E+04 0.  0.
        3    1    3    3  502    0  0.83621502025E+01  0.37687077352E+03  0.11525901125E+04  0.12126687442E+04  0.10100000352E+00 0.  1.
       -3    1    3    3    0  502 -0.83621502025E+01 -0.37687077352E+03 -0.10311170213E+04  0.10978633008E+04  0.10100000352E+00 0. -1.
</event>
<event>
 5   0  0.4067750E-06  0.2481967E+04  0.7818609E-02  0.8409438E-01
       -3   -1    0    0    0  501  0.00000000000E+00  0.00000000000E+00  0.12847829980E+04  0.12847830020E+04  0.10100000352E+00 0. -1.
        3   -1    0    0  501    0  0.00000000000E+00  0.00000000000E+00 -0.11986770533E+04  0.11986770576E+04  0.10100000352E+00 0.  1.
    10030    2    1    2    0    0  0.00000000000E+00  0.00000000000E+00  0.86105944691E+02  0.24834600595E+04  0.24819668881E+04 0.  0.
        5    1    3    3  502    0  0.25943203923E+02  0.11032959484E+04  0.61091780722E+03  0.12614189061E+04  0.46999998093E+01 0. -1.
       -5    1    3    3    0  502 -0.25943203923E+02 -0.11032959484E+04 -0.52481186253E+03  0.12220411534E+04  0.46999998093E+01 0.  1.
</event>
<event>
 5   0  0.4067750E-06  0.2402889E+04  0.7818609E-02  0.8438423E-01
        4   -1    0    0  501    0  0.00000000000E+00  0.00000000000E+00  0.91160132770E+03  0.91160221235E+03  0.12699999809E+01 0. -1.
       -4   -1    0    0    0  501  0.00000000000E+00  0.00000000000E+00 -0.15834415593E+04  0.15834420686E+04  0.12699999809E+01 0.  1.
    10030    2    1    2    0    0  0.00000000000E+00  0.00000000000E+00 -0.67184023162E+03  0.24950442810E+04  0.24028892332E+04 0.  0.
        1    1    3    3  502    0  0.77929707254E+02 -0.91106901665E+03 -0.11451348848E+04  0.14654192904E+04  0.50400001928E-02 0.  1.
       -1    1    3    3    0  502 -0.77929707254E+02  0.91106901665E+03  0.47329465317E+03  0.10296249905E+04  0.50400001928E-02 0. -1.
</event>
<event>
 5   0  0.1154897E-05  0.2422932E+04  0.7818609E-02  0.8430968E-01
        2   -1    0    0  501    0  0.00000000000E+00  0.00000000000E+00  0.16393778747E+04  0.16393778747E+04  0.25500000920E-02 0. -1.
       -2   -1    0    0    0  501  0.00000000000E+00  0.00000000000E+00 -0.89524841470E+03  0.89524841470E+03  0.25500000920E-02 0.  1.
    10030    2    1    2    0    0  0.00000000000E+00  0.00000000000E+00  0.74412945999E+03  0.25346262894E+04  0.24229324740E+04 0.  0.
        4    1    3    3  502    0 -0.96770377549E+03  0.22868967678E+03 -0.35186216178E+03  0.10547787252E+04  0.12699999809E+01 0.  1.
       -4    1    3    3    0  502  0.96770377549E+03 -0.22868967678E+03  0.10959916218E+04  0.14798475642E+04  0.12699999809E+01 0. -1.
</event>
<event>
 5   0  0.1168435E-05  0.2410731E+04  0.7818609E-02  0.8435497E-01
        2   -1    0    0  501    0  0.00000000000E+00  0.00000000000E+00  0.16700006850E+04  0.16700006850E+04  0.25500000920E-02 0. -1.
       -2   -1    0    0    0  501  0.00000000000E+00  0.00000000000E+00 -0.87000337042E+03  0.87000337043E+03  0.25500000920E-02 0.  1.
    10030    2    1    2    0    0  0.00000000000E+00  0.00000000000E+00  0.79999731458E+03  0.25400040554E+04  0.24107311958E+04 0.  0.
        1    1    3    3  502    0  0.34014004834E+03 -0.90068455595E+03 -0.36413536536E+03  0.10293310867E+04  0.50400001928E-02 0.  1.
       -1    1    3    3    0  502 -0.34014004834E+03  0.90068455595E+03  0.11641326799E+04  0.15106729687E+04  0.50400001928E-02 0. -1.
</event>
<event>
 5   0  0.5196696E-06  0.2349757E+04  0.7818609E-02  0.8458557E-01
       -1   -1    0    0    0  501  0.00000000000E+00  0.00000000000E+00  0.87842740882E+03  0.87842740884E+03  0.50400001928E-02 0. -1.
        1   -1    0    0  501    0  0.00000000000E+00  0.00000000000E+00 -0.15713761054E+04  0.15713761054E+04  0.50400001928E-02 0.  1.
    10030    2    1    2    0    0  0.00000000000E+00  0.00000000000E+00 -0.69294869654E+03  0.24498035142E+04  0.23497572986E+04 0.  0.
        1    1    3    3  502    0 -0.11121737843E+04  0.37797784893E+03 -0.37074781822E+03  0.12317677238E+04  0.50400001928E-02 0.  1.
       -1    1    3    3    0  502  0.11121737843E+04 -0.37797784893E+03 -0.32220087832E+03  0.12180357904E+04  0.50400001928E-02 0. -1.
</event>
<event>
 5   0  0.5042742E-06  0.2431677E+04  0.7818609E-02  0.8427739E-01
       -1   -1    0    0    0  501  0.00000000000E+00  0.00000000000E+00  0.11305001089E+04  0.11305001089E+04  0.50400001928E-02 0.  1.
        1   -1    0    0  501    0  0.00000000000E+00  0.00000000000E+00 -0.13076187433E+04  0.13076187433E+04  0.50400001928E-02 0. -1.
    10030    2    1    2    0    0  0.00000000000E+00  0.00000000000E+00 -0.17711863434E+03  0.24381188522E+04  0.24316768960E+04 0.  0.
        5    1    3    3  502    0 -0.47914965453E+02  0.75699911632E+03  0.86416716680E+03  0.11498480283E+04  0.46999998093E+01 0.  1.
       -5    1    3    3    0  502  0.47914965453E+02 -0.75699911632E+03 -0.10412858011E+04  0.12882708239E+04  0.46999998093E+01 0. -1.
</event>
<event>
 5   0  0.1198313E-05  0.2402380E+04  0.7818609E-02  0.8438613E-01
       -2   -1    0    0    0  501  0.00000000000E+00  0.00000000000E+00  0.12787043022E+04  0.12787043022E+04  0.25500000920E-02 0.  1.
        2   -1    0    0  501    0  0.00000000000E+00  0.00000000000E+00 -0.11283741861E+04  0.11283741861E+04  0.25500000920E-02 0. -1.
    10030    2    1    2    0    0  0.00000000000E+00  0.00000000000E+00  0.15033011603E+03  0.24070784883E+04  0.24023795922E+04 0.  0.
        5    1    3    3  502    0 -0.14564359876E+03 -0.78332217864E+03  0.97582766829E+03  0.12597886416E+04  0.46999998093E+01 0.  1.
       -5    1    3    3    0  502  0.14564359876E+03  0.78332217864E+03 -0.82549755226E+03  0.11472898466E+04  0.46999998093E+01 0. -1.
</event>
<event>
 5   0  0.1198313E-05  0.2400392E+04  0.7818609E-02  0.8439357E-01
       -2   -1    0    0    0  501  0.00000000000E+00  0.00000000000E+00  0.11578839064E+04  0.11578839064E+04  0.25500000920E-02 0.  1.
        2   -1    0    0  501    0  0.00000000000E+00  0.00000000000E+00 -0.12440545329E+04  0.12440545329E+04  0.25500000920E-02 0. -1.
    10030    2    1    2    0    0  0.00000000000E+00  0.00000000000E+00 -0.86170626560E+02  0.24019384393E+04  0.24003922366E+04 0.  0.
        5    1    3    3  502    0 -0.11154114058E+04  0.43752113438E+03  0.26825884679E+02  0.11984611238E+04  0.46999998093E+01 0.  1.
       -5    1    3    3    0  502  0.11154114058E+04 -0.43752113438E+03 -0.11299651124E+03  0.12034773155E+04  0.46999998093E+01 0. -1.
</event>
<event>
 5   0  0.1198313E-05  0.2399742E+04  0.7818609E-02  0.8439600E-01
        2   -1    0    0  501    0  0.00000000000E+00  0.00000000000E+00  0.19838424844E+04  0.19838424844E+04  0.25500000920E-02 0.  1.
       -2   -1    0    0    0  501  0.00000000000E+00  0.00000000000E+00 -0.72570822037E+03  0.72570822038E+03  0.25500000920E-02 0. -1.
    10030    2    1    2    0    0  0.00000000000E+00  0.00000000000E+00  0.12581342641E+04  0.27095507048E+04  0.23997423186E+04 0.  0.
        5    1    3    3  502    0  0.11344647688E+04 -0.31719100983E+03  0.37147310889E+03  0.12351659034E+04  0.46999998093E+01 0.  1.
       -5    1    3    3    0  502 -0.11344647688E+04  0.31719100983E+03  0.88666115516E+03  0.14743848014E+04  0.46999998093E+01 0. -1.
</event>
<event>
 5   0  0.1154897E-05  0.2403725E+04  0.7818609E-02  0.8438110E-01
       -2   -1    0    0    0  501  0.00000000000E+00  0.00000000000E+00  0.11914143287E+04  0.11914143287E+04  0.25500000920E-02 0.  1.
        2   -1    0    0  501    0  0.00000000000E+00  0.00000000000E+00 -0.12124021254E+04  0.12124021254E+04  0.25500000920E-02 0. -1.
    10030    2    1    2    0    0  0.00000000000E+00  0.00000000000E+00 -0.20987796721E+02  0.24038164542E+04  0.24037248299E+04 0.  0.
        4    1    3    3  502    0 -0.11278738057E+04 -0.35037365273E+03  0.21224903776E+03  0.11999634515E+04  0.12699999809E+01 0.  1.
       -4    1    3    3    0  502  0.11278738057E+04  0.35037365273E+03 -0.23323683448E+03  0.12038530026E+04  0.12699999809E+01 0. -1.
</event>
<event>
 5   0  0.1154897E-05  0.2368834E+04  0.7818609E-02  0.8451264E-01
        2   -1    0    0  501    0  0.00000000000E+00  0.00000000000E+00  0.10922527158E+04  0.10922527158E+04  0.25500000920E-02 0. -1.
       -2   -1    0    0    0  501  0.00000000000E+00  0.00000000000E+00 -0.12843585783E+04  0.12843585783E+04  0.25500000920E-02 0.  1.
    10030    2    1    2    0    0  0.00000000000E+00  0.00000000000E+00 -0.19210586249E+03  0.23766112941E+04  0.23688344351E+04 0.  0.
        4    1    3    3  502    0 -0.90050865336E+03 -0.27461812189E+03  0.62499391610E+03  0.11300221041E+04  0.12699999809E+01 0. -1.
       -4    1    3    3    0  502  0.90050865336E+03  0.27461812189E+03 -0.81709977859E+03  0.12465891900E+04  0.12699999809E+01 0.  1.
</event>
<event>
 5   0  0.5042742E-06  0.2395524E+04  0.7818609E-02  0.8441181E-01
        1   -1    0    0  501    0  0.00000000000E+00  0.00000000000E+00  0.10411221811E+04  0.10411221812E+04  0.50400001928E-02 0.  1.
       -1   -1    0    0    0  501  0.00000000000E+00  0.00000000000E+00 -0.13779684162E+04  0.13779684162E+04  0.50400001928E-02 0. -1.
    10030    2    1    2    0    0  0.00000000000E+00  0.00000000000E+00 -0.33684623510E+03  0.24190905974E+04  0.23955237282E+04 0.  0.
        5    1    3    3  502    0 -0.97523556934E+03  0.35105221091E+03 -0.77456926930E+03  0.12939481108E+04  0.46999998093E+01 0. -1.
       -5    1    3    3    0  502  0.97523556934E+03 -0.35105221091E+03  0.43772303420E+03  0.11251424866E+04  0.46999998093E+01 0.  1.
</event>
<event>
 5   0  0.1174210E-05  0.2397836E+04  0.7818609E-02  0.8440314E-01
       -2   -1    0    0    0  501  0.00000000000E+00  0.00000000000E+00  0.68016546294E+03  0.68016546294E+03  0.25500000920E-02 0. -1.
        2   -1    0    0  501    0  0.00000000000E+00  0.00000000000E+00 -0.21133150410E+04  0.21133150410E+04  0.25500000920E-02 0.  1.
    10030    2    1    2    0    0  0.00000000000E+00  0.00000000000E+00 -0.14331495780E+04  0.27934805039E+04  0.23978356100E+04 0.  0.
        3    1    3    3  502    0 -0.56080834816E+03  0.10079240846E+04 -0.10976332423E+04  0.15922360719E+04  0.10100000352E+00 0.  1.
       -3    1    3    3    0  502  0.56080834816E+03 -0.10079240846E+04 -0.33551633572E+03  0.12012444320E+04  0.10100000352E+00 0. -1.
</event>
<event>
 5   0  0.1169371E-05  0.2398831E+04  0.7818609E-02  0.8439941E-01
        2   -1    0    0  501    0  0.00000000000E+00  0.00000000000E+00  0.18178282251E+04  0.18178282251E+04  0.25500000920E-02 0. -1.
       -2   -1    0    0    0  501  0.00000000000E+00  0.00000000000E+00 -0.79138285325E+03  0.79138285326E+03  0.25500000920E-02 0.  1.
    10030    2    1    2    0    0  0.00000000000E+00  0.00000000000E+00  0.10264453719E+04  0.26092110784E+04  0.23988314551E+04 0.  0.
        2    1    3    3  502    0  0.34839501957E+03  0.95119347743E+03 -0.18532348289E+03  0.10298023667E+04  0.25500000920E-02 0.  1.
       -2    1    3    3    0  502 -0.34839501957E+03 -0.95119347743E+03  0.12117688548E+04  0.15794087117E+04  0.25500000920E-02 0. -1.
</event>
<event>
 5   0  0.5104174E-06  0.2399620E+04  0.7818609E-02  0.8439646E-01
        1   -1    0    0  501    0  0.00000000000E+00  0.00000000000E+00  0.19040247391E+04  0.19040247392E+04  0.50400001928E-02 0. -1.
       -1   -1    0    0    0  501  0.00000000000E+00  0.00000000000E+00 -0.75605294493E+03  0.75605294494E+03  0.50400001928E-02 0.  1.
    10030    2    1    2    0    0  0.00000000000E+00  0.00000000000E+00  0.11479717942E+04  0.26600776841E+04  0.23996195626E+04 0.  0.
        3    1    3    3  502    0  0.60325575709E+03 -0.96616251670E+03  0.99194568380E+03  0.15104117872E+04  0.10100000352E+00 0. -1.
       -3    1    3    3    0  502 -0.60325575709E+03  0.96616251670E+03  0.15602611042E+03  0.11496658969E+04  0.10100000352E+00 0.  1.
</event>
<event>
 5   0  0.1198313E-05  0.2465549E+04  0.7818609E-02  0.8415363E-01
        2   -1    0    0  501    0  0.00000000000E+00  0.00000000000E+00  0.12842973071E+04  0.12842973071E+04  0.25500000920E-02 0.  1.
       -2   -1    0    0    0  501  0.00000000000E+00  0.00000000000E+00 -0.11833184086E+04  0.11833184086E+04  0.25500000920E-02 0. -1.
    10030    2    1    2    0    0  0.00000000000E+00  0.00000000000E+00  0.10097889856E+03  0.24676157157E+04  0.24655487386E+04 0.  0.
        5    1    3    3  502    0  0.72613615883E+03  0.53464476486E+03  0.89178430839E+03  0.12682350289E+04  0.46999998093E+01 0.  1.
       -5    1    3    3    0  502 -0.72613615883E+03 -0.53464476486E+03 -0.79080540983E+03  0.11993806868E+04  0.46999998093E+01 0. -1.
</event>
<event>
 5   0  0.1169371E-05  0.2406367E+04  0.7818609E-02  0.8437124E-01
        2   -1    0    0  501    0  0.00000000000E+00  0.00000000000E+00  0.22137311752E+04  0.22137311752E+04  0.25500000920E-02 0.  1.
       -2   -1    0    0    0  501  0.00000000000E+00  0.00000000000E+00 -0.65394139959E+03  0.65394139960E+03  0.25500000920E-02 0. -1.
    10030    2    1    2    0    0  0.00000000000E+00  0.00000000000E+00  0.15597897756E+04  0.28676725748E+04  0.24063669405E+04 0.  0.
        2    1    3    3  502    0  0.63485960517E+03 -0.10043896112E+04  0.55439772202E+03  0.13111834515E+04  0.25500000920E-02 0. -1.
       -2    1    3    3    0  502 -0.63485960517E+03  0.10043896112E+04  0.10053920536E+04  0.15564891233E+04  0.25500000920E-02 0.  1.
</event>
<event>
 5   0  0.5196696E-06  0.2390667E+04  0.7818609E-02  0.8443006E-01
        1   -1    0    0  501    0  0.00000000000E+00  0.00000000000E+00  0.10291081864E+04  0.10291081864E+04  0.50400001928E-02 0. -1.
       -1   -1    0    0    0  501  0.00000000000E+00  0.00000000000E+00 -0.13884079810E+04  0.13884079810E+04  0.50400001928E-02 0.  1.
    10030    2    1    2    0    0  0.00000000000E+00  0.00000000000E+00 -0.35929979458E+03  0.24175161674E+04  0.23906668687E+04 0.  0.
        1    1    3    3  502    0  0.74537371378E+03  0.84725201159E+03 -0.57829049520E+03  0.12680054579E+04  0.50400001928E-02 0.  1.
       -1    1    3    3    0  502 -0.74537371378E+03 -0.84725201159E+03  0.21899070062E+03  0.11495107095E+04  0.50400001928E-02 0. -1.
</event>
<event>
 5   0  0.1198313E-05  0.2394834E+04  0.7818609E-02  0.8441440E-01
       -2   -1    0    0    0  501  0.00000000000E+00  0.00000000000E+00  0.10001302669E+04  0.10001302669E+04  0.25500000920E-02 0. -1.
        2   -1    0    0  501    0  0.00000000000E+00  0.00000000000E+00 -0.14336201398E+04  0.14336201398E+04  0.25500000920E-02 0.  1.
    10030    2    1    2    0    0  0.00000000000E+00  0.00000000000E+00 -0.43348987290E+03  0.24337504067E+04  0.23948335166E+04 0.  0.
        5    1    3    3  502    0  0.11737317678E+04  0.21670564300E+03 -0.31409941087E+03  0.12342155923E+04  0.46999998093E+01 0.  1.
       -5    1    3    3    0  502 -0.11737317678E+04 -0.21670564300E+03 -0.11939046202E+03  0.11995348143E+04  0.46999998093E+01 0. -1.
</event>
<event>
 5   0  0.1198313E-05  0.2378071E+04  0.7818609E-02  0.8447759E-01
        2   -1    0    0  501    0  0.00000000000E+00  0.00000000000E+00  0.29135670832E+04  0.29135670832E+04  0.25500000920E-02 0.  1.
       -2   -1    0    0    0  501  0.00000000000E+00  0.00000000000E+00 -0.48524881010E+03  0.48524881011E+03  0.25500000920E-02 0. -1.
    10030    2    1    2    0    0  0.00000000000E+00  0.00000000000E+00  0.24283182731E+04  0.33988158933E+04  0.23780706131E+04 0.  0.
        5    1    3    3  502    0 -0.34949722255E+03 -0.88497668671E+03  0.19503433048E+03  0.97128395676E+03  0.46999998093E+01 0. -1.
       -5    1    3    3    0  502  0.34949722255E+03  0.88497668671E+03  0.22332839426E+04  0.24275319365E+04  0.46999998093E+01 0.  1.
</event>
<event>
 5   0  0.1174210E-05  0.2402403E+04  0.7818609E-02  0.8438604E-01
        2   -1    0    0  501    0  0.00000000000E+00  0.00000000000E+00  0.26515118480E+04  0.26515118480E+04  0.25500000920E-02 0.  1.
       -2   -1    0    0    0  501  0.00000000000E+00  0.00000000000E+00 -0.54417460934E+03  0.54417460935E+03  0.25500000920E-02 0. -1.
    10030    2    1    2    0    0  0.00000000000E+00  0.00000000000E+00  0.21073372386E+04  0.31956864573E+04  0.24024033167E+04 0.  0.
        3    1    3    3  502    0  0.16239699686E+03  0.43092139667E+03 -0.42209026431E+03  0.62468090744E+03  0.10100000352E+00 0. -1.
       -3    1    3    3    0  502 -0.16239699686E+03 -0.43092139667E+03  0.25294275029E+04  0.25710055499E+04  0.10100000352E+00 0.  1.
</event>
<event>
 5   0  0.5064437E-06  0.2417654E+04  0.7818609E-02  0.8432924E-01
        1   -1    0    0  501    0  0.00000000000E+00  0.00000000000E+00  0.21393946785E+04  0.21393946785E+04  0.50400001928E-02 0. -1.
       -1   -1    0    0    0  501  0.00000000000E+00  0.00000000000E+00 -0.68302632614E+03  0.68302632616E+03  0.50400001928E-02 0.  1.
    10030    2    1    2    0    0  0.00000000000E+00  0.00000000000E+00  0.14563683524E+04  0.28224210047E+04  0.24176541419E+04 0.  0.
        2    1    3    3  502    0 -0.73878204154E+03  0.78714224279E+03  0.93176645939E+02  0.10835468161E+04  0.25500000920E-02 0.  1.
       -2    1    3    3    0  502  0.73878204154E+03 -0.78714224279E+03  0.13631917065E+04  0.17388741886E+04  0.25500000920E-02 0. -1.
</event>
<event>
 5   0  0.5042742E-06  0.2392289E+04  0.7818609E-02  0.8442396E-01
        1   -1    0    0  501    0  0.00000000000E+00  0.00000000000E+00  0.78218061863E+03  0.78218061865E+03  0.50400001928E-02 0.  1.
       -1   -1    0    0    0  501  0.00000000000E+00  0.00000000000E+00 -0.18291967252E+04  0.18291967252E+04  0.50400001928E-02 0. -1.
    10030    2    1    2    0    0  0.00000000000E+00  0.00000000000E+00 -0.10470161066E+04  0.26113773439E+04  0.23922894692E+04 0.  0.
        5    1    3    3  502    0 -0.49690109933E+03  0.84446552518E+03 -0.12724211426E+04  0.16059608899E+04  0.46999998093E+01 0. -1.
       -5    1    3    3    0  502  0.49690109933E+03 -0.84446552518E+03  0.22540503599E+03  0.10054164540E+04  0.46999998093E+01 0.  1.
</event>
<event>
 5   0  0.1169371E-05  0.2385969E+04  0.7818609E-02  0.8444775E-01
        2   -1    0    0  501    0  0.00000000000E+00  0.00000000000E+00  0.18551843926E+04  0.18551843926E+04  0.25500000920E-02 0.  1.
       -2   -1    0    0    0  501  0.00000000000E+00  0.00000000000E+00 -0.76715391083E+03  0.76715391084E+03  0.25500000920E-02 0. -1.
    10030    2    1    2    0    0  0.00000000000E+00  0.00000000000E+00  0.10880304817E+04  0.26223383034E+04  0.23859689538E+04 0.  0.
        2    1    3    3  502    0  0.99667882751E+03  0.64452787026E+03  0.41200322242E+03  0.12563962417E+04  0.25500000920E-02 0.  1.
       -2    1    3    3    0  502 -0.99667882751E+03 -0.64452787026E+03  0.67602725933E+03  0.13659420618E+04  0.25500000920E-02 0. -1.
</event>
<event>
 5   0  0.1168435E-05  0.2386717E+04  0.7818609E-02  0.8444493E-01
        2   -1    0    0  501    0  0.00000000000E+00  0.00000000000E+00  0.24094040957E+04  0.24094040957E+04  0.25500000920E-02 0.  1.
       -2   -1    0    0    0  501  0.00000000000E+00  0.00000000000E+00 -0.59106083335E+03  0.59106083336E+03  0.25500000920E-02 0. -1.
    10030    2    1    2    0    0  0.00000000000E+00  0.00000000000E+00  0.18183432624E+04  0.30004649291E+04  0.23867169021E+04 0.  0.
        1    1    3    3  502    0  0.94200075091E+03  0.61796778803E+03  0.14038808111E+04  0.18000363701E+04  0.50400001928E-02 0.  1.
       -1    1    3    3    0  502 -0.94200075091E+03 -0.61796778803E+03  0.41446245125E+03  0.12004285590E+04  0.50400001928E-02 0. -1.
</event>
<event>
 5   0  0.5064437E-06  0.2403125E+04  0.7818609E-02  0.8438335E-01
       -1   -1    0    0    0  501  0.00000000000E+00  0.00000000000E+00  0.68887649985E+03  0.68887649987E+03  0.50400001928E-02 0.  1.
        1   -1    0    0  501    0  0.00000000000E+00  0.00000000000E+00 -0.20958071596E+04  0.20958071597E+04  0.50400001928E-02 0. -1.
    10030    2    1    2    0    0  0.00000000000E+00  0.00000000000E+00 -0.14069306598E+04  0.27846836595E+04  0.24031248828E+04 0.  0.
        2    1    3    3  502    0 -0.11734338520E+04 -0.24921476292E+03 -0.78288417406E+03  0.14324673235E+04  0.25500000920E-02 0.  1.
       -2    1    3    3    0  502  0.11734338520E+04  0.24921476292E+03 -0.62404648574E+03  0.13522163360E+04  0.25500000920E-02 0. -1.
</event>
<event>
 5   0  0.5104174E-06  0.2406426E+04  0.7818609E-02  0.8437102E-01
        1   -1    0    0  501    0  0.00000000000E+00  0.00000000000E+00  0.20478189040E+04  0.20478189040E+04  0.50400001928E-02 0.  1.
       -1   -1    0    0    0  501  0.00000000000E+00  0.00000000000E+00 -0.70695806132E+03  0.70695806134E+03  0.50400001928E-02 0. -1.
    10030    2    1    2    0    0  0.00000000000E+00  0.00000000000E+00  0.13408608427E+04  0.27547769653E+04  0.24064264646E+04 0.  0.
        3    1    3    3  502    0 -0.12677014624E+03  0.28485389993E+03 -0.65990971813E+03  0.72985838391E+03  0.10100000352E+00 0. -1.
       -3    1    3    3    0  502  0.12677014624E+03 -0.28485389993E+03  0.20007705608E+04  0.20249185814E+04  0.10100000352E+00 0.  1.
</event>
<event>
 5   0  0.1169371E-05  0.2416604E+04  0.7818609E-02  0.8433313E-01
       -2   -1    0    0    0  501  0.00000000000E+00  0.00000000000E+00  0.84574574351E+03  0.84574574352E+03  0.25500000920E-02 0.  1.
        2   -1    0    0  501    0  0.00000000000E+00  0.00000000000E+00 -0.17262791178E+04  0.17262791178E+04  0.25500000920E-02 0. -1.
    10030    2    1    2    0    0  0.00000000000E+00  0.00000000000E+00 -0.88053337433E+03  0.25720248614E+04  0.24166035803E+04 0.  0.
        2    1    3    3  502    0  0.11415982039E+04  0.28796942202E+03 -0.72943976218E+03  0.13850109075E+04  0.25500000920E-02 0. -1.
       -2    1    3    3    0  502 -0.11415982039E+04 -0.28796942202E+03 -0.15109361215E+03  0.11870139539E+04  0.25500000920E-02 0.  1.
</event>
<event>
 5   0  0.5196696E-06  0.2380021E+04  0.7818609E-02  0.8447021E-01
       -1   -1    0    0    0  501  0.00000000000E+00  0.00000000000E+00  0.81007040350E+03  0.81007040352E+03  0.50400001928E-02 0. -1.
        1   -1    0    0  501    0  0.00000000000E+00  0.00000000000E+00 -0.17481504889E+04  0.17481504889E+04  0.50400001928E-02 0.  1.
    10030    2    1    2    0    0  0.00000000000E+00  0.00000000000E+00 -0.93808008544E+03  0.25582208925E+04  0.23800209848E+04 0.  0.
        1    1    3    3  502    0 -0.32851582491E+03  0.40164925377E+03 -0.16201486014E+04  0.17012131733E+04  0.50400001928E-02 0.  1.
       -1    1    3    3    0  502  0.32851582491E+03 -0.40164925377E+03  0.68206851596E+03  0.85700771920E+03  0.50400001928E-02 0. -1.
</event>
<event>
 5   0  0.5196696E-06  0.2236258E+04  0.7818609E-02  0.8503487E-01
       -1   -1    0    0    0  501  0.00000000000E+00  0.00000000000E+00  0.79328603653E+03  0.79328603654E+03  0.50400001928E-02 0.  1.
        1   -1    0    0  501    0  0.00000000000E+00  0.00000000000E+00 -0.15759916580E+04  0.15759916580E+04  0.50400001928E-02 0. -1.
    10030    2    1    2    0    0  0.00000000000E+00  0.00000000000E+00 -0.78270562145E+03  0.23692776945E+04  0.22362577454E+04 0.  0.
        1    1    3    3  502    0  0.80915740422E+03 -0.40470385675E+03 -0.10874673999E+04  0.14146046311E+04  0.50400001928E-02 0. -1.
       -1    1    3    3    0  502 -0.80915740422E+03  0.40470385675E+03  0.30476177841E+03  0.95467306345E+03  0.50400001928E-02 0.  1.
</event>
<event>
 5   0  0.5064437E-06  0.2403001E+04  0.7818609E-02  0.8438381E-01
       -1   -1    0    0    0  501  0.00000000000E+00  0.00000000000E+00  0.79736216323E+03  0.79736216325E+03  0.50400001928E-02 0. -1.
        1   -1    0    0  501    0  0.00000000000E+00  0.00000000000E+00 -0.18104739832E+04  0.18104739832E+04  0.50400001928E-02 0.  1.
    10030    2    1    2    0    0  0.00000000000E+00  0.00000000000E+00 -0.10131118199E+04  0.26078361464E+04  0.24030010002E+04 0.  0.
        2    1    3    3  502    0  0.39144808889E+03  0.63846969990E+03  0.51306767159E+03  0.90780702775E+03  0.25500000920E-02 0. -1.
       -2    1    3    3    0  502 -0.39144808889E+03 -0.63846969990E+03 -0.15261794915E+04  0.17000291187E+04  0.25500000920E-02 0.  1.
</event>
<event>
 5   0  0.1154897E-05  0.2398379E+04  0.7818609E-02  0.8440111E-01
       -2   -1    0    0    0  501  0.00000000000E+00  0.00000000000E+00  0.10983628186E+04  0.10983628186E+04  0.25500000920E-02 0. -1.
        2   -1    0    0  501    0  0.00000000000E+00  0.00000000000E+00 -0.13092712674E+04  0.13092712674E+04  0.25500000920E-02 0.  1.
    10030    2    1    2    0    0  0.00000000000E+00  0.00000000000E+00 -0.21090844875E+03  0.24076340860E+04  0.23983785185E+04 0.  0.
        4    1    3    3  502    0 -0.14965680962E+03 -0.59153346954E+03 -0.11417870599E+04  0.12945996715E+04  0.12699999809E+01 0.  1.
       -4    1    3    3    0  502  0.14965680962E+03  0.59153346954E+03  0.93087861118E+03  0.11130344145E+04  0.12699999809E+01 0. -1.
</event>
<event>
 5   0  0.1198313E-05  0.2392113E+04  0.7818609E-02  0.8442462E-01
       -2   -1    0    0    0  501  0.00000000000E+00  0.00000000000E+00  0.11734625804E+04  0.11734625804E+04  0.25500000920E-02 0.  1.
        2   -1    0    0  501    0  0.00000000000E+00  0.00000000000E+00 -0.12190851206E+04  0.12190851206E+04  0.25500000920E-02 0. -1.
    10030    2    1    2    0    0  0.00000000000E+00  0.00000000000E+00 -0.45622540231E+02  0.23925477010E+04  0.23921126824E+04 0.  0.
        5    1    3    3  502    0  0.11466095198E+03  0.83470291728E+03 -0.87187824054E+03  0.12124643708E+04  0.46999998093E+01 0. -1.
       -5    1    3    3    0  502 -0.11466095198E+03 -0.83470291728E+03  0.82625570031E+03  0.11800833302E+04  0.46999998093E+01 0.  1.
</event>
<event>
 5   0  0.1154897E-05  0.2397892E+04  0.7818609E-02  0.8440293E-01
       -2   -1    0    0    0  501  0.00000000000E+00  0.00000000000E+00  0.83513382030E+03  0.83513382030E+03  0.25500000920E-02 0. -1.
        2   -1    0    0  501    0  0.00000000000E+00  0.00000000000E+00 -0.17212471331E+04  0.17212471331E+04  0.25500000920E-02 0.  1.
    10030    2    1    2    0    0  0.00000000000E+00  0.00000000000E+00 -0.88611331281E+03  0.25563809534E+04  0.23978921527E+04 0.  0.
        4    1    3    3  502    0  0.42199436990E+03  0.75922724328E+03  0.43798226655E+03  0.97279768394E+03  0.12699999809E+01 0. -1.
       -4    1    3    3    0  502 -0.42199436990E+03 -0.75922724328E+03 -0.13240955794E+04  0.15835832695E+04  0.12699999809E+01 0.  1.
</event>
<event>
 5   0  0.1168435E-05  0.2400461E+04  0.7818609E-02  0.8439331E-01
        2   -1    0    0  501    0  0.00000000000E+00  0.00000000000E+00  0.26120812406E+04  0.26120812406E+04  0.25500000920E-02 0. -1.
       -2   -1    0    0    0  501  0.00000000000E+00  0.00000000000E+00 -0.55149614029E+03  0.55149614029E+03  0.25500000920E-02 0.  1.
    10030    2    1    2    0    0  0.00000000000E+00  0.00000000000E+00  0.20605851003E+04  0.31635773809E+04  0.24004605578E+04 0.  0.
        1    1    3    3  502    0  0.65199107730E+03 -0.10076381316E+04  0.10450714987E+04  0.15914149071E+04  0.50400001928E-02 0.  1.
       -1    1    3    3    0  502 -0.65199107730E+03  0.10076381316E+04  0.10155136016E+04  0.15721624738E+04  0.50400001928E-02 0. -1.
</event>
<event>
 5   0  0.1198313E-05  0.2394414E+04  0.7818609E-02  0.8441598E-01
       -2   -1    0    0    0  501  0.00000000000E+00  0.00000000000E+00  0.19226389593E+04  0.19226389593E+04  0.25500000920E-02 0.  1.
        2   -1    0    0  501    0  0.00000000000E+00  0.00000000000E+00 -0.74548817417E+03  0.74548817417E+03  0.25500000920E-02 0. -1.
    10030    2    1    2    0    0  0.00000000000E+00  0.00000000000E+00  0.11771507851E+04  0.26681271335E+04  0.23944140054E+04 0.  0.
        5    1    3    3  502    0 -0.79081685997E+03 -0.48723388988E+03  0.14302281456E+04  0.17053922739E+04  0.46999998093E+01 0.  1.
       -5    1    3    3    0  502  0.79081685997E+03  0.48723388988E+03 -0.25307736045E+03  0.96273485958E+03  0.46999998093E+01 0. -1.
</event>
<event>
 5   0  0.1174210E-05  0.2390199E+04  0.7818609E-02  0.8443182E-01
        2   -1    0    0  501    0  0.00000000000E+00  0.00000000000E+00  0.18210211872E+04  0.18210211872E+04  0.25500000920E-02 0.  1.
       -2   -1    0    0    0  501  0.00000000000E+00  0.00000000000E+00 -0.78431990385E+03  0.78431990386E+03  0.25500000920E-02 0. -1.
    10030    2    1    2    0    0  0.00000000000E+00  0.00000000000E+00  0.10367012833E+04  0.26053410910E+04  0.23901992908E+04 0.  0.
        3    1    3    3  502    0 -0.57185135150E+03  0.23320560531E+03  0.16336094886E+04  0.17464474781E+04  0.10100000352E+00 0.  1.
       -3    1    3    3    0  502  0.57185135150E+03 -0.23320560531E+03 -0.59690820525E+03  0.85889361289E+03  0.10100000352E+00 0. -1.
</event>
<event>
 5   0  0.1154897E-05  0.2382363E+04  0.7818609E-02  0.8446136E-01
       -2   -1    0    0    0  501  0.00000000000E+00  0.00000000000E+00  0.10861499781E+04  0.10861499781E+04  0.25500000920E-02 0. -1.
        2   -1    0    0  501    0  0.00000000000E+00  0.00000000000E+00 -0.13063691664E+04  0.13063691664E+04  0.25500000920E-02 0.  1.
    10030    2    1    2    0    0  0.00000000000E+00  0.00000000000E+00 -0.22021918829E+03  0.23925191445E+04  0.23823625597E+04 0.  0.
        4    1    3    3  502    0  0.31127764931E+03 -0.80988295187E+03 -0.92974287426E+03  0.12717026366E+04  0.12699999809E+01 0.  1.
       -4    1    3    3    0  502 -0.31127764931E+03  0.80988295187E+03  0.70952368597E+03  0.11208165080E+04  0.12699999809E+01 0. -1.
</event>
<event>
 5   0  0.5104174E-06  0.2403755E+04  0.7818609E-02  0.8438099E-01
        1   -1    0    0  501    0  0.00000000000E+00  0.00000000000E+00  0.13816347768E+04  0.13816347768E+04  0.50400001928E-02 0. -1.
       -1   -1    0    0    0  501  0.00000000000E+00  0.00000000000E+00 -0.10455079311E+04  0.10455079311E+04  0.50400001928E-02 0.  1.
    10030    2    1    2    0    0  0.00000000000E+00  0.00000000000E+00  0.33612684575E+03  0.24271427079E+04  0.24037554926E+04 0.  0.
        3    1    3    3  502    0 -0.10527304285E+04  0.91016166910E+02  0.74633505408E+03  0.12936542509E+04  0.10100000352E+00 0. -1.
       -3    1    3    3    0  502  0.10527304285E+04 -0.91016166910E+02 -0.41020820833E+03  0.11334884570E+04  0.10100000352E+00 0.  1.
</event>
<event>
 5   0  0.5064437E-06  0.2394067E+04  0.7818609E-02  0.8441728E-01
        1   -1    0    0  501    0  0.00000000000E+00  0.00000000000E+00  0.17234904538E+04  0.17234904538E+04  0.50400001928E-02 0.  1.
       -1   -1    0    0    0  501  0.00000000000E+00  0.00000000000E+00 -0.83138763135E+03  0.83138763137E+03  0.50400001928E-02 0. -1.
    10030    2    1    2    0    0  0.00000000000E+00  0.00000000000E+00  0.89210282243E+03  0.25548780852E+04  0.23940665371E+04 0.  0.
        2    1    3    3  502    0  0.44955787394E+03  0.39460699174E+03  0.15525546177E+04  0.16638037146E+04  0.25500000920E-02 0.  1.
       -2    1    3    3    0  502 -0.44955787394E+03 -0.39460699174E+03 -0.66045179525E+03  0.89107437052E+03  0.25500000920E-02 0. -1.
</event>
<event>
 5   0  0.5042742E-06  0.2387746E+04  0.7818609E-02  0.8444106E-01
       -1   -1    0    0    0  501  0.00000000000E+00  0.00000000000E+00  0.68723535288E+03  0.68723535289E+03  0.50400001928E-02 0. -1.
        1   -1    0    0  501    0  0.00000000000E+00  0.00000000000E+00 -0.20740092604E+04  0.20740092604E+04  0.50400001928E-02 0.  1.
    10030    2    1    2    0    0  0.00000000000E+00  0.00000000000E+00 -0.13867739075E+04  0.27612446133E+04  0.23877457871E+04 0.  0.
        5    1    3    3  502    0  0.45534443734E+03 -0.63269904739E+03  0.35230596630E+03  0.85544621401E+03  0.46999998093E+01 0. -1.
       -5    1    3    3    0  502 -0.45534443734E+03  0.63269904739E+03 -0.17390798738E+04  0.19057983992E+04  0.46999998093E+01 0.  1.
</event>
<event>
 5   0  0.1154897E-05  0.2404175E+04  0.7818609E-02  0.8437942E-01
        2   -1    0    0  501    0  0.00000000000E+00  0.00000000000E+00  0.76485699106E+03  0.76485699106E+03  0.25500000920E-02 0. -1.
       -2   -1    0    0    0  501  0.00000000000E+00  0.00000000000E+00 -0.18892603583E+04  0.18892603583E+04  0.25500000920E-02 0.  1.
    10030    2    1    2    0    0  0.00000000000E+00  0.00000000000E+00 -0.11244033672E+04  0.26541173493E+04  0.24041746966E+04 0.  0.
        4    1    3    3  502    0 -0.48957788557E+03  0.82826266275E+03 -0.13577491894E+04  0.16640883446E+04  0.12699999809E+01 0.  1.
       -4    1    3    3    0  502  0.48957788557E+03 -0.82826266275E+03  0.23334582216E+03  0.99002900471E+03  0.12699999809E+01 0. -1.
</event>
<event>
 5   0  0.5196696E-06  0.2430257E+04  0.7818609E-02  0.8428262E-01
       -1   -1    0    0    0  501  0.00000000000E+00  0.00000000000E+00  0.19124956561E+04  0.19124956562E+04  0.50400001928E-02 0.  1.
        1   -1    0    0  501    0  0.00000000000E+00  0.00000000000E+00 -0.77204736965E+03  0.77204736967E+03  0.50400001928E-02 0. -1.
    10030    2    1    2    0    0  0.00000000000E+00  0.00000000000E+00  0.11404482865E+04  0.26845430258E+04  0.24302569748E+04 0.  0.
        1    1    3    3  502    0 -0.11359463243E+04  0.16342094341E+03  0.12912148856E+03  0.11548821651E+04  0.50400001928E-02 0. -1.
       -1    1    3    3    0  502  0.11359463243E+04 -0.16342094341E+03  0.10113267979E+04  0.15296608607E+04  0.50400001928E-02 0.  1.
</event>
<event>
 5   0  0.5042742E-06  0.2403101E+04  0.7818609E-02  0.8438343E-01
        1   -1    0    0  501    0  0.00000000000E+00  0.00000000000E+00  0.12121953105E+04  0.12121953105E+04  0.50400001928E-02 0. -1.
       -1   -1    0    0    0  501  0.00000000000E+00  0.00000000000E+00 -0.11909992411E+04  0.11909992411E+04  0.50400001928E-02 0.  1.
    10030    2    1    2    0    0  0.00000000000E+00  0.00000000000E+00  0.21196069433E+02  0.24031945516E+04  0.24031010756E+04 0.  0.
        5    1    3    3  502    0 -0.11012643954E+04  0.32976943377E+02 -0.46882738997E+03  0.11973687648E+04  0.46999998093E+01 0. -1.
       -5    1    3    3    0  502  0.11012643954E+04 -0.32976943377E+02  0.49002345940E+03  0.12058257868E+04  0.46999998093E+01 0.  1.
</event>
<event>
 5   0  0.5196696E-06  0.2419962E+04  0.7818609E-02  0.8432068E-01
       -1   -1    0    0    0  501  0.00000000000E+00  0.00000000000E+00  0.89399601555E+03  0.89399601557E+03  0.50400001928E-02 0. -1.
        1   -1    0    0  501    0  0.00000000000E+00  0.00000000000E+00 -0.16376521509E+04  0.16376521509E+04  0.50400001928E-02 0.  1.
    10030    2    1    2    0    0  0.00000000000E+00  0.00000000000E+00 -0.74365613538E+03  0.25316481665E+04  0.24199623946E+04 0.  0.
        1    1    3    3  502    0 -0.27895269242E+03 -0.14910995857E+03 -0.15936358612E+04  0.16247226356E+04  0.50400001928E-02 0.  1.
       -1    1    3    3    0  502  0.27895269242E+03  0.14910995857E+03  0.84997972583E+03  0.90692553095E+03  0.50400001928E-02 0. -1.
</event>
<event>
 5   0  0.5064437E-06  0.2374401E+04  0.7818609E-02  0.8449150E-01
        1   -1    0    0  501    0  0.00000000000E+00  0.00000000000E+00  0.22548308575E+04  0.22548308575E+04  0.50400001928E-02 0.  1.
       -1   -1    0    0    0  501  0.00000000000E+00  0.00000000000E+00 -0.62507800592E+03  0.62507800595E+03  0.50400001928E-02 0. -1.
    10030    2    1    2    0    0  0.00000000000E+00  0.00000000000E+00  0.16297528516E+04  0.28799088634E+04  0.23744011255E+04 0.  0.
        2    1    3    3  502    0  0.37263860511E+03 -0.10782355572E+04  0.41628869674E+03  0.12143919161E+04  0.25500000920E-02 0.  1.
       -2    1    3    3    0  502 -0.37263860511E+03  0.10782355572E+04  0.12134641548E+04  0.16655169473E+04  0.25500000920E-02 0. -1.
</event>
<event>
 5   0  0.1198313E-05  0.2426337E+04  0.7818609E-02  0.8429709E-01
        2   -1    0    0  501    0  0.00000000000E+00  0.00000000000E+00  0.10358630458E+04  0.10358630458E+04  0.25500000920E-02 0. -1.
       -2   -1    0    0    0  501  0.00000000000E+00  0.00000000000E+00 -0.14208226292E+04  0.14208226292E+04  0.25500000920E-02 0.  1.
    10030    2    1    2    0    0  0.00000000000E+00  0.00000000000E+00 -0.38495958340E+03  0.24566856749E+04  0.24263368737E+04 0.  0.
        5    1    3    3  502    0 -0.40348615737E+03  0.10136214807E+03  0.96137087417E+03  0.10475358762E+04  0.46999998093E+01 0. -1.
       -5    1    3    3    0  502  0.40348615737E+03 -0.10136214807E+03 -0.13463304576E+04  0.14091497987E+04  0.46999998093E+01 0.  1.
</event>
<event>
 5   0  0.1154897E-05  0.2392689E+04  0.7818609E-02  0.8442246E-01
       -2   -1    0    0    0  501  0.00000000000E+00  0.00000000000E+00  0.11910725890E+04  0.11910725890E+04  0.25500000920E-02 0.  1.
        2   -1    0    0  501    0  0.00000000000E+00  0.00000000000E+00 -0.12016397443E+04  0.12016397443E+04  0.25500000920E-02 0. -1.
    10030    2    1    2    0    0  0.00000000000E+00  0.00000000000E+00 -0.10567155282E+02  0.23927123334E+04  0.23926889989E+04 0.  0.
        4    1    3    3  502    0  0.46912093843E+03  0.10919664607E+04 -0.14230076114E+03  0.11969612883E+04  0.12699999809E+01 0. -1.
       -4    1    3    3    0  502 -0.46912093843E+03 -0.10919664607E+04  0.13173360586E+03  0.11957510451E+04  0.12699999809E+01 0.  1.
</event>
<event>
 5   0  0.5104174E-06  0.2389480E+04  0.7818609E-02  0.8443453E-01
        1   -1    0    0  501    0  0.00000000000E+00  0.00000000000E+00  0.13125483629E+04  0.13125483629E+04  0.50400001928E-02 0. -1.
       -1   -1    0    0    0  501  0.00000000000E+00  0.00000000000E+00 -0.10875052734E+04  0.10875052734E+04  0.50400001928E-02 0.  1.
    10030    2    1    2    0    0  0.00000000000E+00  0.00000000000E+00  0.22504308949E+03  0.24000536363E+04  0.23894796640E+04 0.  0.
        3    1    3    3  502    0  0.76054061135E+03 -0.45876857015E+03 -0.69008437008E+03  0.11247697856E+04  0.10100000352E+00 0.  1.
       -3    1    3    3    0  502 -0.76054061135E+03  0.45876857015E+03  0.91512745956E+03  0.12752838507E+04  0.10100000352E+00 0. -1.
</event>
<event>
 5   0  0.5064437E-06  0.2398961E+04  0.7818609E-02  0.8439893E-01
       -1   -1    0    0    0  501  0.00000000000E+00  0.00000000000E+00  0.80587191640E+03  0.80587191641E+03  0.50400001928E-02 0.  1.
        1   -1    0    0  501    0  0.00000000000E+00  0.00000000000E+00 -0.17853379929E+04  0.17853379929E+04  0.50400001928E-02 0. -1.
    10030    2    1    2    0    0  0.00000000000E+00  0.00000000000E+00 -0.97946607651E+03  0.25912099093E+04  0.23989612334E+04 0.  0.
        2    1    3    3  502    0  0.85948731366E+03 -0.81269307042E+03 -0.27488247742E+03  0.12143923771E+04  0.25500000920E-02 0.  1.
       -2    1    3    3    0  502 -0.85948731366E+03  0.81269307042E+03 -0.70458359910E+03  0.13768175323E+04  0.25500000920E-02 0. -1.
</event>
<event>
 5   0  0.1154897E-05  0.2404580E+04  0.7818609E-02  0.8437791E-01
       -2   -1    0    0    0  501  0.00000000000E+00  0.00000000000E+00  0.63672628256E+03  0.63672628257E+03  0.25500000920E-02 0. -1.
        2   -1    0    0  501    0  0.00000000000E+00  0.00000000000E+00 -0.22702075765E+04  0.22702075765E+04  0.25500000920E-02 0.  1.
    10030    2    1    2    0    0  0.00000000000E+00  0.00000000000E+00 -0.16334812939E+04  0.29069338591E+04  0.24045796563E+04 0.  0.
        4    1    3    3  502    0  0.54328593157E+03  0.39379511274E+03  0.38930946411E+03  0.77575618979E+03  0.12699999809E+01 0. -1.
       -4    1    3    3    0  502 -0.54328593157E+03 -0.39379511274E+03 -0.20227907581E+04  0.21311776693E+04  0.12699999809E+01 0.  1.
</event>
<event>
 5   0  0.5196696E-06  0.2435453E+04  0.7818609E-02  0.8426349E-01
        1   -1    0    0  501    0  0.00000000000E+00  0.00000000000E+00  0.12652891056E+04  0.12652891056E+04  0.50400001928E-02 0. -1.
       -1   -1    0    0    0  501  0.00000000000E+00  0.00000000000E+00 -0.11719515470E+04  0.11719515470E+04  0.50400001928E-02 0.  1.
    10030    2    1    2    0    0  0.00000000000E+00  0.00000000000E+00  0.93337558580E+02  0.24372406526E+04  0.24354527503E+04 0.  0.
        1    1    3    3  502    0  0.76378363133E+03 -0.20164200636E+02 -0.90222849809E+03  0.11822809705E+04  0.50400001928E-02 0.  1.
       -1    1    3    3    0  502 -0.76378363133E+03  0.20164200636E+02  0.99556605667E+03  0.12549596821E+04  0.50400001928E-02 0. -1.
</event>
<event>
 5   0  0.1154897E-05  0.2398497E+04  0.7818609E-02  0.8440066E-01
       -2   -1    0    0    0  501  0.00000000000E+00  0.00000000000E+00  0.85312698938E+03  0.85312698938E+03  0.25500000920E-02 0.  1.
        2   -1    0    0  501    0  0.00000000000E+00  0.00000000000E+00 -0.16857952967E+04  0.16857952967E+04  0.25500000920E-02 0. -1.
    10030    2    1    2    0    0  0.00000000000E+00  0.00000000000E+00 -0.83266830736E+03  0.25389222861E+04  0.23984974182E+04 0.  0.
        4    1    3    3  502    0  0.59557930869E+02  0.84434253522E+03  0.48295395765E+03  0.97452942594E+03  0.12699999809E+01 0.  1.
       -4    1    3    3    0  502 -0.59557930869E+02 -0.84434253522E+03 -0.13156222650E+04  0.15643928602E+04  0.12699999809E+01 0. -1.
</event>
<event>
 5   0  0.5196696E-06  0.2397475E+04  0.7818609E-02  0.8440450E-01
        1   -1    0    0  501    0  0.00000000000E+00  0.00000000000E+00  0.93236076767E+03  0.93236076768E+03  0.50400001928E-02 0.  1.
       -1   -1    0    0    0  501  0.00000000000E+00  0.00000000000E+00 -0.15412178379E+04  0.15412178379E+04  0.50400001928E-02 0. -1.
    10030    2    1    2    0    0  0.00000000000E+00  0.00000000000E+00 -0.60885707019E+03  0.24735786056E+04  0.23974745433E+04 0.  0.
        1    1    3    3  502    0  0.66880801985E+02  0.32362352344E+03  0.88443622427E+03  0.94415711692E+03  0.50400001928E-02 0.  1.
       -1    1    3    3    0  502 -0.66880801985E+02 -0.32362352344E+03 -0.14932932945E+04  0.15294214886E+04  0.50400001928E-02 0. -1.
</event>
<event>
 5   0  0.5196696E-06  0.2392965E+04  0.7818609E-02  0.8442142E-01
        1   -1    0    0  501    0  0.00000000000E+00  0.00000000000E+00  0.14451046845E+04  0.14451046845E+04  0.50400001928E-02 0.  1.
       -1   -1    0    0    0  501  0.00000000000E+00  0.00000000000E+00 -0.99063399698E+03  0.99063399699E+03  0.50400001928E-02 0. -1.
    10030    2    1    2    0    0  0.00000000000E+00  0.00000000000E+00  0.45447068754E+03  0.24357386815E+04  0.23929645461E+04 0.  0.
        1    1    3    3  502    0 -0.68940211058E+03  0.37977859518E+03  0.11444885347E+04  0.13890144195E+04  0.50400001928E-02 0.  1.
       -1    1    3    3    0  502  0.68940211058E+03 -0.37977859518E+03 -0.69001784713E+03  0.10467242621E+04  0.50400001928E-02 0. -1.
</event>
<event>
 5   0  0.1174210E-05  0.2390429E+04  0.7818609E-02  0.8443096E-01
       -2   -1    0    0    0  501  0.00000000000E+00  0.00000000000E+00  0.10500020136E+04  0.10500020136E+04  0.25500000920E-02 0. -1.
        2   -1    0    0  501    0  0.00000000000E+00  0.00000000000E+00 -0.13605094003E+04  0.13605094003E+04  0.25500000920E-02 0.  1.
    10030    2    1    2    0    0  0.00000000000E+00  0.00000000000E+00 -0.31050738677E+03  0.24105114139E+04  0.23904289237E+04 0.  0.
        3    1    3    3  502    0 -0.58544691061E+03  0.44172309415E+03  0.79642823754E+03  0.10826658417E+04  0.10100000352E+00 0. -1.
       -3    1    3    3    0  502  0.58544691061E+03 -0.44172309415E+03 -0.11069356243E+04  0.13278455722E+04  0.10100000352E+00 0.  1.
</event>
<event>
 5   0  0.5042742E-06  0.2363074E+04  0.7818609E-02  0.8453459E-01
        1   -1    0    0  501    0  0.00000000000E+00  0.00000000000E+00  0.10608610196E+04  0.10608610196E+04  0.50400001928E-02 0.  1.
       -1   -1    0    0    0  501  0.00000000000E+00  0.00000000000E+00 -0.13159402660E+04  0.13159402660E+04  0.50400001928E-02 0. -1.
    10030    2    1    2    0    0  0.00000000000E+00  0.00000000000E+00 -0.25507924638E+03  0.23768012855E+04  0.23630740422E+04 0.  0.
        5    1    3    3  502    0 -0.51386165249E+03 -0.10114431703E+04  0.20443307453E+03  0.11527732026E+04  0.46999998093E+01 0.  1.
       -5    1    3    3    0  502  0.51386165249E+03  0.10114431703E+04 -0.45951232091E+03  0.12240280829E+04  0.46999998093E+01 0. -1.
</event>
<event>
 5   0  0.1174210E-05  0.2416400E+04  0.7818609E-02  0.8433389E-01
        2   -1    0    0  501    0  0.00000000000E+00  0.00000000000E+00  0.12360944224E+04  0.12360944224E+04  0.25500000920E-02 0.  1.
       -2   -1    0    0    0  501  0.00000000000E+00  0.00000000000E+00 -0.11809353987E+04  0.11809353987E+04  0.25500000920E-02 0. -1.
    10030    2    1    2    0    0  0.00000000000E+00  0.00000000000E+00  0.55159023779E+02  0.24170298211E+04  0.24164003473E+04 0.  0.
        3    1    3    3  502    0  0.17305511638E+03  0.11568745210E+04  0.33005028037E+03  0.12154175942E+04  0.10100000352E+00 0.  1.
       -3    1    3    3    0  502 -0.17305511638E+03 -0.11568745210E+04 -0.27489125659E+03  0.12016122269E+04  0.10100000352E+00 0. -1.
</event>
<event>
 5   0  0.1154897E-05  0.2395146E+04  0.7818609E-02  0.8441323E-01
       -2   -1    0    0    0  501  0.00000000000E+00  0.00000000000E+00  0.10456168524E+04  0.10456168524E+04  0.25500000920E-02 0. -1.
        2   -1    0    0  501    0  0.00000000000E+00  0.00000000000E+00 -0.13716122988E+04  0.13716122988E+04  0.25500000920E-02 0.  1.
    10030    2    1    2    0    0  0.00000000000E+00  0.00000000000E+00 -0.32599544639E+03  0.24172291512E+04  0.23951458700E+04 0.  0.
        4    1    3    3  502    0 -0.67419485480E+03 -0.95456711892E+03 -0.42702448322E+03  0.12442220899E+04  0.12699999809E+01 0. -1.
       -4    1    3    3    0  502  0.67419485480E+03  0.95456711892E+03  0.10102903683E+03  0.11730070613E+04  0.12699999809E+01 0.  1.
</event>
<event>
 5   0  0.1174210E-05  0.2379295E+04  0.7818609E-02  0.8447296E-01
        2   -1    0    0  501    0  0.00000000000E+00  0.00000000000E+00  0.73244444798E+03  0.73244444799E+03  0.25500000920E-02 0.  1.
       -2   -1    0    0    0  501  0.00000000000E+00  0.00000000000E+00 -0.19322429510E+04  0.19322429510E+04  0.25500000920E-02 0. -1.
    10030    2    1    2    0    0  0.00000000000E+00  0.00000000000E+00 -0.11997985031E+04  0.26646873990E+04  0.23792945355E+04 0.  0.
        3    1    3    3  502    0  0.70775397483E+02 -0.45907801402E+02  0.72909035496E+03  0.73395465732E+03  0.10100000352E+00 0.  1.
       -3    1    3    3    0  502 -0.70775397483E+02  0.45907801402E+02 -0.19288888580E+04  0.19307327417E+04  0.10100000352E+00 0. -1.
</event>
<event>
 5   0  0.1168435E-05  0.2389743E+04  0.7818609E-02  0.8443354E-01
        2   -1    0    0  501    0  0.00000000000E+00  0.00000000000E+00  0.24261949286E+04  0.24261949286E+04  0.25500000920E-02 0.  1.
       -2   -1    0    0    0  501  0.00000000000E+00  0.00000000000E+00 -0.58845973452E+03  0.58845973453E+03  0.25500000920E-02 0. -1.
    10030    2    1    2    0    0  0.00000000000E+00  0.00000000000E+00  0.18377351941E+04  0.30146546631E+04  0.23897431022E+04 0.  0.
        1    1    3    3  502    0 -0.43044238732E+03  0.10153610903E+04  0.14989907709E+04  0.18609707477E+04  0.50400001928E-02 0.  1.
       -1    1    3    3    0  502  0.43044238732E+03 -0.10153610903E+04  0.33874442317E+03  0.11536839154E+04  0.50400001928E-02 0. -1.
</event>
<event>
 5   0  0.5064437E-06  0.2395274E+04  0.7818609E-02  0.8441275E-01
        1   -1    0    0  501    0  0.00000000000E+00  0.00000000000E+00  0.12352273590E+04  0.12352273590E+04  0.50400001928E-02 0. -1.
       -1   -1    0    0    0  501  0.00000000000E+00  0.00000000000E+00 -0.11611903481E+04  0.11611903481E+04  0.50400001928E-02 0.  1.
    10030    2    1    2    0    0  0.00000000000E+00  0.00000000000E+00  0.74037010935E+02  0.23964177072E+04  0.23952737522E+04 0.  0.
        2    1    3    3  502    0  0.29793379297E+03  0.10771384642E+04  0.46773807541E+03  0.12115158782E+04  0.25500000920E-02 0. -1.
       -2    1    3    3    0  502 -0.29793379297E+03 -0.10771384642E+04 -0.39370106447E+03  0.11849018289E+04  0.25500000920E-02 0.  1.
</event>
<event>
 5   0  0.5034479E-06  0.2402206E+04  0.7818609E-02  0.8438678E-01
        1   -1    0    0  501    0  0.00000000000E+00  0.00000000000E+00  0.61753340845E+03  0.61753340847E+03  0.50400001928E-02 0. -1.
       -1   -1    0    0    0  501  0.00000000000E+00  0.00000000000E+00 -0.23361466331E+04  0.23361466331E+04  0.50400001928E-02 0.  1.
    10030    2    1    2    0    0  0.00000000000E+00  0.00000000000E+00 -0.17186132247E+04  0.29536800416E+04  0.24022061469E+04 0.  0.
        4    1    3    3  502    0 -0.49770420130E+03 -0.94780422900E+03 -0.18966543178E+03  0.10872060142E+04  0.12699999809E+01 0. -1.
       -4    1    3    3    0  502  0.49770420130E+03  0.94780422900E+03 -0.15289477929E+04  0.18664740274E+04  0.12699999809E+01 0.  1.
</event>
<event>
 5   0  0.1198313E-05  0.2384174E+04  0.7818609E-02  0.8445452E-01
        2   -1    0    0  501    0  0.00000000000E+00  0.00000000000E+00  0.20611618730E+04  0.20611618730E+04  0.25500000920E-02 0.  1.
       -2   -1    0    0    0  501  0.00000000000E+00  0.00000000000E+00 -0.68945183623E+03  0.68945183624E+03  0.25500000920E-02 0. -1.
    10030    2    1    2    0    0  0.00000000000E+00  0.00000000000E+00  0.13717100368E+04  0.27506137093E+04  0.23841743545E+04 0.  0.
        5    1    3    3  502    0  0.54539489437E+02 -0.10654701015E+04  0.12994314228E+04  0.16812927186E+04  0.46999998093E+01 0.  1.
       -5    1    3    3    0  502 -0.54539489437E+02  0.10654701015E+04  0.72278613983E+02  0.10693209907E+04  0.46999998093E+01 0. -1.
</event>
<event>
 5   0  0.5196696E-06  0.2404384E+04  0.7818609E-02  0.8437864E-01
       -1   -1    0    0    0  501  0.00000000000E+00  0.00000000000E+00  0.11782696006E+04  0.11782696006E+04  0.50400001928E-02 0.  1.
        1   -1    0    0  501    0  0.00000000000E+00  0.00000000000E+00 -0.12266004290E+04  0.12266004290E+04  0.50400001928E-02 0. -1.
    10030    2    1    2    0    0  0.00000000000E+00  0.00000000000E+00 -0.48330828390E+02  0.24048700296E+04  0.24043843266E+04 0.  0.
        1    1    3    3  502    0  0.47303846193E+03 -0.48618272007E+03 -0.10169015420E+04  0.12223860969E+04  0.50400001928E-02 0. -1.
       -1    1    3    3    0  502 -0.47303846193E+03  0.48618272007E+03  0.96857071360E+03  0.11824839327E+04  0.50400001928E-02 0.  1.
</event>
<event>
 5   0  0.5034479E-06  0.2399027E+04  0.7818609E-02  0.8439868E-01
       -1   -1    0    0    0  501  0.00000000000E+00  0.00000000000E+00  0.69475889064E+03  0.69475889066E+03  0.50400001928E-02 0.  1.
        1   -1    0    0  501    0  0.00000000000E+00  0.00000000000E+00 -0.20709811122E+04  0.20709811122E+04  0.50400001928E-02 0. -1.
    10030    2    1    2    0    0  0.00000000000E+00  0.00000000000E+00 -0.13762222216E+04  0.27657400029E+04  0.23990269195E+04 0.  0.
        4    1    3    3  502    0  0.61063296494E+03 -0.76093436178E+03  0.11636418098E+03  0.98256600610E+03  0.12699999809E+01 0.  1.
       -4    1    3    3    0  502 -0.61063296494E+03  0.76093436178E+03 -0.14925864026E+04  0.17831739968E+04  0.12699999809E+01 0. -1.
</event>
<event>
 5   0  0.5042742E-06  0.2371921E+04  0.7818609E-02  0.8450091E-01
        1   -1    0    0  501    0  0.00000000000E+00  0.00000000000E+00  0.19633048213E+04  0.19633048213E+04  0.50400001928E-02 0.  1.
       -1   -1    0    0    0  501  0.00000000000E+00  0.00000000000E+00 -0.71639513412E+03  0.71639513414E+03  0.50400001928E-02 0. -1.
    10030    2    1    2    0    0  0.00000000000E+00  0.00000000000E+00  0.12469096872E+04  0.26796999554E+04  0.23719207582E+04 0.  0.
        5    1    3    3  502    0 -0.42586622663E+03  0.71280987554E+03 -0.33319194654E+03  0.89470605502E+03  0.46999998093E+01 0. -1.
       -5    1    3    3    0  502  0.42586622663E+03 -0.71280987554E+03  0.15801016337E+04  0.17849939004E+04  0.46999998093E+01 0.  1.
</event>
<event>
 5   0  0.1154897E-05  0.2389392E+04  0.7818609E-02  0.8443486E-01
       -2   -1    0    0    0  501  0.00000000000E+00  0.00000000000E+00  0.13719001198E+04  0.13719001198E+04  0.25500000920E-02 0. -1.
        2   -1    0    0  501    0  0.00000000000E+00  0.00000000000E+00 -0.10403807883E+04  0.10403807883E+04  0.25500000920E-02 0.  1.
    10030    2    1    2    0    0  0.00000000000E+00  0.00000000000E+00  0.33151933147E+03  0.24122809081E+04  0.23893919964E+04 0.  0.
        4    1    3    3  502    0 -0.16844026194E+03 -0.77567247236E+02 -0.10257613573E+04  0.10423899341E+04  0.12699999809E+01 0.  1.
       -4    1    3    3    0  502  0.16844026194E+03  0.77567247236E+02  0.13572806888E+04  0.13698909740E+04  0.12699999809E+01 0. -1.
</event>
<event>
 5   0  0.5196696E-06  0.2401695E+04  0.7818609E-02  0.8438869E-01
       -1   -1    0    0    0  501  0.00000000000E+00  0.00000000000E+00  0.87532357255E+03  0.87532357257E+03  0.50400001928E-02 0. -1.
        1   -1    0    0  501    0  0.00000000000E+00  0.00000000000E+00 -0.16474311212E+04  0.16474311213E+04  0.50400001928E-02 0.  1.
    10030    2    1    2    0    0  0.00000000000E+00  0.00000000000E+00 -0.77210754869E+03  0.25227546938E+04  0.24016954800E+04 0.  0.
        1    1    3    3  502    0  0.85667585165E+03 -0.21811390635E+03 -0.12397746121E+04  0.15226648613E+04  0.50400001928E-02 0.  1.
       -1    1    3    3    0  502 -0.85667585165E+03  0.21811390635E+03  0.46766706340E+03  0.10000898325E+04  0.50400001928E-02 0. -1.
</event>
<event>
 5   0  0.1169371E-05  0.2401878E+04  0.7818609E-02  0.8438801E-01
        2   -1    0    0  501    0  0.00000000000E+00  0.00000000000E+00  0.18070189153E+04  0.18070189153E+04  0.25500000920E-02 0.  1.
       -2   -1    0    0    0  501  0.00000000000E+00  0.00000000000E+00 -0.79813994177E+03  0.79813994177E+03  0.25500000920E-02 0. -1.
    10030    2    1    2    0    0  0.00000000000E+00  0.00000000000E+00  0.10088789735E+04  0.26051588570E+04  0.24018775754E+04 0.  0.
        2    1    3    3  502    0  0.69299704637E+03 -0.28316666507E+03 -0.51409261271E+03  0.90814067243E+03  0.25500000920E-02 0. -1.
       -2    1    3    3    0  502 -0.69299704637E+03  0.28316666507E+03  0.15229715862E+04  0.16970181846E+04  0.25500000920E-02 0.  1.
</event>
<event>
 5   0  0.1198313E-05  0.2407381E+04  0.7818609E-02  0.8436746E-01
        2   -1    0    0  501    0  0.00000000000E+00  0.00000000000E+00  0.82637176090E+03  0.82637176091E+03  0.25500000920E-02 0. -1.
       -2   -1    0    0    0  501  0.00000000000E+00  0.00000000000E+00 -0.17532910934E+04  0.17532910934E+04  0.25500000920E-02 0.  1.
    10030    2    1    2    0    0  0.00000000000E+00  0.00000000000E+00 -0.92691933254E+03  0.25796628544E+04  0.24073805252E+04 0.  0.
        5    1    3    3  502    0 -0.10318864761E+04  0.10919788508E+03  0.19022462200E+03  0.10549508872E+04  0.46999998093E+01 0. -1.
       -5    1    3    3    0  502  0.10318864761E+04 -0.10919788508E+03 -0.11171439545E+04  0.15247119671E+04  0.46999998093E+01 0.  1.
</event>
<event>
 5   0  0.5104174E-06  0.2391576E+04  0.7818609E-02  0.8442664E-01
       -1   -1    0    0    0  501  0.00000000000E+00  0.00000000000E+00  0.65803091693E+03  0.65803091694E+03  0.50400001928E-02 0.  1.
        1   -1    0    0  501    0  0.00000000000E+00  0.00000000000E+00 -0.21730116559E+04  0.21730116559E+04  0.50400001928E-02 0. -1.
    10030    2    1    2    0    0  0.00000000000E+00  0.00000000000E+00 -0.15149807390E+04  0.28310425728E+04  0.23915759260E+04 0.  0.
        3    1    3    3  502    0  0.11236247964E+04  0.22363440909E+03 -0.35195444962E+03  0.11985061439E+04  0.10100000352E+00 0.  1.
       -3    1    3    3    0  502 -0.11236247964E+04 -0.22363440909E+03 -0.11630262893E+04  0.16325364290E+04  0.10100000352E+00 0. -1.
</event>
<event>
 5   0  0.5042742E-06  0.2482949E+04  0.7818609E-02  0.8409085E-01
        1   -1    0    0  501    0  0.00000000000E+00  0.00000000000E+00  0.16105552754E+04  0.16105552754E+04  0.50400001928E-02 0. -1.
       -1   -1    0    0    0  501  0.00000000000E+00  0.00000000000E+00 -0.95697383722E+03  0.95697383724E+03  0.50400001928E-02 0.  1.
    10030    2    1    2    0    0  0.00000000000E+00  0.00000000000E+00  0.65358143813E+03  0.25675291126E+04  0.24829492640E+04 0.  0.
        5    1    3    3  502    0 -0.51637935752E+03 -0.87371931498E+03 -0.41255011153E+03  0.10955604807E+04  0.46999998093E+01 0.  1.
       -5    1    3    3    0  502  0.51637935752E+03  0.87371931498E+03  0.10661315497E+04  0.14719686319E+04  0.46999998093E+01 0. -1.
</event>
<event>
 5   0  0.1169371E-05  0.2431774E+04  0.7818609E-02  0.8427703E-01
        2   -1    0    0  501    0  0.00000000000E+00  0.00000000000E+00  0.12838666340E+04  0.12838666340E+04  0.25500000920E-02 0. -1.
       -2   -1    0    0    0  501  0.00000000000E+00  0.00000000000E+00 -0.11515071510E+04  0.11515071510E+04  0.25500000920E-02 0.  1.
    10030    2    1    2    0    0  0.00000000000E+00  0.00000000000E+00  0.13235948303E+03  0.24353737851E+04  0.24317743399E+04 0.  0.
        2    1    3    3  502    0 -0.19775447944E+03  0.11940575660E+04  0.18254684600E+03  0.12240112974E+04  0.25500000920E-02 0.  1.
       -2    1    3    3    0  502  0.19775447944E+03 -0.11940575660E+04 -0.50187362962E+02  0.12113624877E+04  0.25500000920E-02 0. -1.
</event>
<event>
 5   0  0.5034479E-06  0.2400111E+04  0.7818609E-02  0.8439462E-01
       -1   -1    0    0    0  501  0.00000000000E+00  0.00000000000E+00  0.12730243875E+04  0.12730243875E+04  0.50400001928E-02 0. -1.
        1   -1    0    0  501    0  0.00000000000E+00  0.00000000000E+00 -0.11312694211E+04  0.11312694211E+04  0.50400001928E-02 0.  1.
    10030    2    1    2    0    0  0.00000000000E+00  0.00000000000E+00  0.14175496639E+03  0.24042938086E+04  0.24001112990E+04 0.  0.
        4    1    3    3  502    0 -0.10495306157E+04  0.57822992095E+03  0.54368165464E+01  0.11982885824E+04  0.12699999809E+01 0. -1.
       -4    1    3    3    0  502  0.10495306157E+04 -0.57822992095E+03  0.13631814985E+03  0.12060052262E+04  0.12699999809E+01 0.  1.
</event>
<event>
 5   0  0.1174210E-05  0.2400381E+04  0.7818609E-02  0.8439361E-01
       -2   -1    0    0    0  501  0.00000000000E+00  0.00000000000E+00  0.98405800304E+03  0.98405800304E+03  0.25500000920E-02 0.  1.
        2   -1    0    0  501    0  0.00000000000E+00  0.00000000000E+00 -0.14637924311E+04  0.14637924311E+04  0.25500000920E-02 0. -1.
    10030    2    1    2    0    0  0.00000000000E+00  0.00000000000E+00 -0.47973442803E+03  0.24478504341E+04  0.24003805170E+04 0.  0.
        3    1    3    3  502    0  0.43011636887E+03 -0.37681710666E+03 -0.13159437290E+04  0.14348167586E+04  0.10100000352E+00 0. -1.
       -3    1    3    3    0  502 -0.43011636887E+03  0.37681710666E+03  0.83620930093E+03  0.10130336756E+04  0.10100000352E+00 0.  1.
</event>
<event>
 5   0  0.1198313E-05  0.2405567E+04  0.7818609E-02  0.8437422E-01
        2   -1    0    0  501    0  0.00000000000E+00  0.00000000000E+00  0.26415964670E+04  0.26415964670E+04  0.25500000920E-02 0.  1.
       -2   -1    0    0    0  501  0.00000000000E+00  0.00000000000E+00 -0.54765691403E+03  0.54765691403E+03  0.25500000920E-02 0. -1.
    10030    2    1    2    0    0  0.00000000000E+00  0.00000000000E+00  0.20939395529E+04  0.31892533810E+04  0.24055673503E+04 0.  0.
        5    1    3    3  502    0 -0.74371296686E+03  0.93411776336E+03  0.85493059948E+03  0.14685412466E+04  0.46999998093E+01 0.  1.
       -5    1    3    3    0  502  0.74371296686E+03 -0.93411776336E+03  0.12390089535E+04  0.17207121344E+04  0.46999998093E+01 0. -1.
</event>
<event>
 5   0  0.1154897E-05  0.2403170E+04  0.7818609E-02  0.8438318E-01
        2   -1    0    0  501    0  0.00000000000E+00  0.00000000000E+00  0.26156128627E+04  0.26156128627E+04  0.25500000920E-02 0.  1.
       -2   -1    0    0    0  501  0.00000000000E+00  0.00000000000E+00 -0.55199568300E+03  0.55199568301E+03  0.25500000920E-02 0. -1.
    10030    2    1    2    0    0  0.00000000000E+00  0.00000000000E+00  0.20636171797E+04  0.31676085458E+04  0.24031704131E+04 0.  0.
        4    1    3    3  502    0 -0.11262089609E+04  0.13763189641E+03  0.51034182887E+03  0.12440818131E+04  0.12699999809E+01 0. -1.
       -4    1    3    3    0  502  0.11262089609E+04 -0.13763189641E+03  0.15532753509E+04  0.19235267326E+04  0.12699999809E+01 0.  1.
</event>
<event>
 5   0  0.5034479E-06  0.2397066E+04  0.7818609E-02  0.8440603E-01
       -1   -1    0    0    0  501  0.00000000000E+00  0.00000000000E+00  0.60464911788E+03  0.60464911790E+03  0.50400001928E-02 0. -1.
        1   -1    0    0  501    0  0.00000000000E+00  0.00000000000E+00 -0.23757272840E+04  0.23757272840E+04  0.50400001928E-02 0.  1.
    10030    2    1    2    0    0  0.00000000000E+00  0.00000000000E+00 -0.17710781662E+04  0.29803764019E+04  0.23970660455E+04 0.  0.
        4    1    3    3  502    0  0.10834978476E+04  0.50663520353E+03 -0.98049812168E+03  0.15466172748E+04  0.12699999809E+01 0. -1.
       -4    1    3    3    0  502 -0.10834978476E+04 -0.50663520353E+03 -0.79058004448E+03  0.14337591272E+04  0.12699999809E+01 0.  1.
</event>
<event>
 5   0  0.1168435E-05  0.2441133E+04  0.7818609E-02  0.8424263E-01
       -2   -1    0    0    0  501  0.00000000000E+00  0.00000000000E+00  0.97441586824E+03  0.97441586825E+03  0.25500000920E-02 0.  1.
        2   -1    0    0  501    0  0.00000000000E+00  0.00000000000E+00 -0.15288983116E+04  0.15288983116E+04  0.25500000920E-02 0. -1.
    10030    2    1    2    0    0  0.00000000000E+00  0.00000000000E+00 -0.55448244337E+03  0.25033141799E+04  0.24411331596E+04 0.  0.
        1    1    3    3  502    0 -0.92825423585E+03  0.61094809726E+03 -0.79494654231E+03  0.13663284777E+04  0.50400001928E-02 0.  1.
       -1    1    3    3    0  502  0.92825423585E+03 -0.61094809726E+03  0.24046409894E+03  0.11369857021E+04  0.50400001928E-02 0. -1.
</event>
<event>
 5   0  0.5034479E-06  0.2403670E+04  0.7818609E-02  0.8438131E-01
       -1   -1    0    0    0  501  0.00000000000E+00  0.00000000000E+00  0.12293991301E+04  0.12293991301E+04  0.50400001928E-02 0. -1.
        1   -1    0    0  501    0  0.00000000000E+00  0.00000000000E+00 -0.11748886142E+04  0.11748886143E+04  0.50400001928E-02 0.  1.
    10030    2    1    2    0    0  0.00000000000E+00  0.00000000000E+00  0.54510515828E+02  0.24042877443E+04  0.24036697280E+04 0.  0.
        4    1    3    3  502    0 -0.62909028252E+03 -0.35407023712E+03 -0.93386905794E+03  0.11803530602E+04  0.12699999809E+01 0.  1.
       -4    1    3    3    0  502  0.62909028252E+03  0.35407023712E+03  0.98837957377E+03  0.12239346842E+04  0.12699999809E+01 0. -1.
</event>
<event>
 5   0  0.1154897E-05  0.2386521E+04  0.7818609E-02  0.8444567E-01
        2   -1    0    0  501    0  0.00000000000E+00  0.00000000000E+00  0.14233408806E+04  0.14233408806E+04  0.25500000920E-02 0. -1.
       -2   -1    0    0    0  501  0.00000000000E+00  0.00000000000E+00 -0.10003720951E+04  0.10003720951E+04  0.25500000920E-02 0.  1.
    10030    2    1    2    0    0  0.00000000000E+00  0.00000000000E+00  0.42296878543E+03  0.24237129757E+04  0.23865208977E+04 0.  0.
        4    1    3    3  502    0  0.10838265768E+04 -0.49918392084E+03  0.21357821507E+03  0.12122218865E+04  0.12699999809E+01 0. -1.
       -4    1    3    3    0  502 -0.10838265768E+04  0.49918392084E+03  0.20939057036E+03  0.12114910892E+04  0.12699999809E+01 0.  1.
</event>
<event>
 5   0  0.5196696E-06  0.2511035E+04  0.7818609E-02  0.8399065E-01
        1   -1    0    0  501    0  0.00000000000E+00  0.00000000000E+00  0.13023340872E+04  0.13023340873E+04  0.50400001928E-02 0. -1.
       -1   -1    0    0    0  501  0.00000000000E+00  0.00000000000E+00 -0.12103837480E+04  0.12103837480E+04  0.50400001928E-02 0.  1.
    10030    2    1    2    0    0  0.00000000000E+00  0.00000000000E+00  0.91950339215E+02  0.25127178353E+04  0.25110348574E+04 0.  0.
        1    1    3    3  502    0  0.76319103856E+03  0.16226390426E+03 -0.93831709301E+03  0.12203397490E+04  0.50400001928E-02 0.  1.
       -1    1    3    3    0  502 -0.76319103856E+03 -0.16226390426E+03  0.10302674322E+04  0.12923780863E+04  0.50400001928E-02 0. -1.
</event>
<event>
 5   0  0.1198313E-05  0.2360816E+04  0.7818609E-02  0.8454321E-01
       -2   -1    0    0    0  501  0.00000000000E+00  0.00000000000E+00  0.66588900595E+03  0.66588900596E+03  0.25500000920E-02 0.  1.
        2   -1    0    0  501    0  0.00000000000E+00  0.00000000000E+00 -0.20924855990E+04  0.20924855990E+04  0.25500000920E-02 0. -1.
    10030    2    1    2    0    0  0.00000000000E+00  0.00000000000E+00 -0.14265965930E+04  0.27583746050E+04  0.23608160924E+04 0.  0.
        5    1    3    3  502    0 -0.11771832308E+04  0.67419325201E+02 -0.64892661526E+03  0.13458950799E+04  0.46999998093E+01 0.  1.
       -5    1    3    3    0  502  0.11771832308E+04 -0.67419325201E+02 -0.77766997779E+03  0.14124795250E+04  0.46999998093E+01 0. -1.
</event>
<event>
 5   0  0.1198313E-05  0.2401293E+04  0.7818609E-02  0.8439020E-01
       -2   -1    0    0    0  501  0.00000000000E+00  0.00000000000E+00  0.96685732169E+03  0.96685732169E+03  0.25500000920E-02 0.  1.
        2   -1    0    0  501    0  0.00000000000E+00  0.00000000000E+00 -0.14909660330E+04  0.14909660330E+04  0.25500000920E-02 0. -1.
    10030    2    1    2    0    0  0.00000000000E+00  0.00000000000E+00 -0.52410871135E+03  0.24578233547E+04  0.24012925065E+04 0.  0.
        5    1    3    3  502    0  0.58360606743E+03  0.26316880323E+03  0.77757169705E+03  0.10072207777E+04  0.46999998093E+01 0.  1.
       -5    1    3    3    0  502 -0.58360606743E+03 -0.26316880323E+03 -0.13016804084E+04  0.14506025770E+04  0.46999998093E+01 0. -1.
</event>
<event>
 5   0  0.1169371E-05  0.2398042E+04  0.7818609E-02  0.8440237E-01
       -2   -1    0    0    0  501  0.00000000000E+00  0.00000000000E+00  0.77677836874E+03  0.77677836875E+03  0.25500000920E-02 0. -1.
        2   -1    0    0  501    0  0.00000000000E+00  0.00000000000E+00 -0.18507869099E+04  0.18507869099E+04  0.25500000920E-02 0.  1.
    10030    2    1    2    0    0  0.00000000000E+00  0.00000000000E+00 -0.10740085411E+04  0.26275652786E+04  0.23980418985E+04 0.  0.
        2    1    3    3  502    0 -0.17302434683E+03  0.33256630525E+03  0.71091281652E+03  0.80370069347E+03  0.25500000920E-02 0. -1.
       -2    1    3    3    0  502  0.17302434683E+03 -0.33256630525E+03 -0.17849213576E+04  0.18238645851E+04  0.25500000920E-02 0.  1.
</event>
<event>
 5   0  0.1169371E-05  0.2387696E+04  0.7818609E-02  0.8444124E-01
       -2   -1    0    0    0  501  0.00000000000E+00  0.00000000000E+00  0.10106669176E+04  0.10106669176E+04  0.25500000920E-02 0. -1.
        2   -1    0    0  501    0  0.00000000000E+00  0.00000000000E+00 -0.14102299240E+04  0.14102299240E+04  0.25500000920E-02 0.  1.
    10030    2    1    2    0    0  0.00000000000E+00  0.00000000000E+00 -0.39956300634E+03  0.24208968416E+04  0.23876957348E+04 0.  0.
        2    1    3    3  502    0 -0.16601283130E+03  0.48850128930E+03  0.89179407732E+03  0.10302865845E+04  0.25500000920E-02 0. -1.
       -2    1    3    3    0  502  0.16601283130E+03 -0.48850128930E+03 -0.12913570837E+04  0.13906102572E+04  0.25500000920E-02 0.  1.
</event>
<event>
 5   0  0.1168435E-05  0.2416369E+04  0.7818609E-02  0.8433400E-01
       -2   -1    0    0    0  501  0.00000000000E+00  0.00000000000E+00  0.45937536988E+03  0.45937536989E+03  0.25500000920E-02 0.  1.
        2   -1    0    0  501    0  0.00000000000E+00  0.00000000000E+00 -0.31775981168E+04  0.31775981168E+04  0.25500000920E-02 0. -1.
    10030    2    1    2    0    0  0.00000000000E+00  0.00000000000E+00 -0.27182227469E+04  0.36369734867E+04  0.24163694339E+04 0.  0.
        1    1    3    3  502    0  0.68313210803E+03 -0.67322749028E+03 -0.25326324764E+03  0.99199143309E+03  0.50400001928E-02 0.  1.
       -1    1    3    3    0  502 -0.68313210803E+03  0.67322749028E+03 -0.24649594993E+04  0.26449820536E+04  0.50400001928E-02 0. -1.
</event>
<event>
 5   0  0.5042742E-06  0.2396753E+04  0.7818609E-02  0.8440720E-01
        1   -1    0    0  501    0  0.00000000000E+00  0.00000000000E+00  0.10601099931E+04  0.10601099931E+04  0.50400001928E-02 0. -1.
       -1   -1    0    0    0  501  0.00000000000E+00  0.00000000000E+00 -0.13546766825E+04  0.13546766825E+04  0.50400001928E-02 0.  1.
    10030    2    1    2    0    0  0.00000000000E+00  0.00000000000E+00 -0.29456668947E+03  0.24147866756E+04  0.23967530440E+04 0.  0.
        5    1    3    3  502    0 -0.45799556845E+03  0.10412235421E+04  0.23261846977E+03  0.11610511822E+04  0.46999998093E+01 0. -1.
       -5    1    3    3    0  502  0.45799556845E+03 -0.10412235421E+04 -0.52718515923E+03  0.12537354934E+04  0.46999998093E+01 0.  1.
</event>
<event>
 5   0  0.5104174E-06  0.2411399E+04  0.7818609E-02  0.8435248E-01
        1   -1    0    0  501    0  0.00000000000E+00  0.00000000000E+00  0.20809443890E+04  0.20809443890E+04  0.50400001928E-02 0.  1.
       -1   -1    0    0    0  501  0.00000000000E+00  0.00000000000E+00 -0.69858255073E+03  0.69858255074E+03  0.50400001928E-02 0. -1.
    10030    2    1    2    0    0  0.00000000000E+00  0.00000000000E+00  0.13823618383E+04  0.27795269398E+04  0.24113991285E+04 0.  0.
        3    1    3    3  502    0 -0.10776867278E+04 -0.23843403818E+03  0.13187046278E+03  0.11115976354E+04  0.10100000352E+00 0. -1.
       -3    1    3    3    0  502  0.10776867278E+04  0.23843403818E+03  0.12504913755E+04  0.16679293043E+04  0.10100000352E+00 0.  1.
</event>
<event>
 5   0  0.1174210E-05  0.2393428E+04  0.7818609E-02  0.8441968E-01
       -2   -1    0    0    0  501  0.00000000000E+00  0.00000000000E+00  0.18302960915E+04  0.18302960915E+04  0.25500000920E-02 0. -1.
        2   -1    0    0  501    0  0.00000000000E+00  0.00000000000E+00 -0.78245495459E+03  0.78245495459E+03  0.25500000920E-02 0.  1.
    10030    2    1    2    0    0  0.00000000000E+00  0.00000000000E+00  0.10478411369E+04  0.26127510461E+04  0.23934278724E+04 0.  0.
        3    1    3    3  502    0  0.90084794539E+03  0.26225784682E+03  0.13348361243E+04  0.16315923780E+04  0.10100000352E+00 0. -1.
       -3    1    3    3    0  502 -0.90084794539E+03 -0.26225784682E+03 -0.28699498743E+03  0.98115866808E+03  0.10100000352E+00 0.  1.
</event>
<event>
 5   0  0.5196696E-06  0.2398920E+04  0.7818609E-02  0.8439908E-01
        1   -1    0    0  501    0  0.00000000000E+00  0.00000000000E+00  0.13129776149E+04  0.13129776149E+04  0.50400001928E-02 0.  1.
       -1   -1    0    0    0  501  0.00000000000E+00  0.00000000000E+00 -0.10957568207E+04  0.10957568207E+04  0.50400001928E-02 0. -1.
    10030    2    1    2    0    0  0.00000000000E+00  0.00000000000E+00  0.21722079425E+03  0.24087344356E+04  0.23989199044E+04 0.  0.
        1    1    3    3  502    0 -0.52930256508E+03  0.21357203310E+02  0.11891575840E+04  0.13018114668E+04  0.50400001928E-02 0.  1.
       -1    1    3    3    0  502  0.52930256508E+03 -0.21357203310E+02 -0.97193678975E+03  0.11069229688E+04  0.50400001928E-02 0. -1.
</event>
<event>
 5   0  0.1169371E-05  0.2398822E+04  0.7818609E-02  0.8439945E-01
        2   -1    0    0  501    0  0.00000000000E+00  0.00000000000E+00  0.21815768297E+04  0.21815768297E+04  0.25500000920E-02 0.  1.
       -2   -1    0    0    0  501  0.00000000000E+00  0.00000000000E+00 -0.65942523182E+03  0.65942523183E+03  0.25500000920E-02 0. -1.
    10030    2    1    2    0    0  0.00000000000E+00  0.00000000000E+00  0.15221515979E+04  0.28410020616E+04  0.23988220498E+04 0.  0.
        2    1    3    3  502    0 -0.48156953990E+03  0.10198787894E+04  0.27777999011E+03  0.11615608851E+04  0.25500000920E-02 0. -1.
       -2    1    3    3    0  502  0.48156953990E+03 -0.10198787894E+04  0.12443716078E+04  0.16794411765E+04  0.25500000920E-02 0.  1.
</event>
<event>
 5   0  0.5034479E-06  0.2413001E+04  0.7818609E-02  0.8434652E-01
       -1   -1    0    0    0  501  0.00000000000E+00  0.00000000000E+00  0.15185502596E+04  0.15185502596E+04  0.50400001928E-02 0.  1.
        1   -1    0    0  501    0  0.00000000000E+00  0.00000000000E+00 -0.95857427940E+03  0.95857427942E+03  0.50400001928E-02 0. -1.
    10030    2    1    2    0    0  0.00000000000E+00  0.00000000000E+00  0.55997598019E+03  0.24771245390E+04  0.24130008047E+04 0.  0.
        4    1    3    3  502    0 -0.18426039990E+03  0.11830608992E+04  0.43244937926E+03  0.12730275192E+04  0.12699999809E+01 0. -1.
       -4    1    3    3    0  502  0.18426039990E+03 -0.11830608992E+04  0.12752660092E+03  0.12040970198E+04  0.12699999809E+01 0.  1.
</event>
<event>
 5   0  0.5196696E-06  0.2421541E+04  0.7818609E-02  0.8431483E-01
       -1   -1    0    0    0  501  0.00000000000E+00  0.00000000000E+00  0.19067301663E+04  0.19067301663E+04  0.50400001928E-02 0. -1.
        1   -1    0    0  501    0  0.00000000000E+00  0.00000000000E+00 -0.76883709735E+03  0.76883709736E+03  0.50400001928E-02 0.  1.
    10030    2    1    2    0    0  0.00000000000E+00  0.00000000000E+00  0.11378930690E+04  0.26755672637E+04  0.24215407381E+04 0.  0.
        1    1    3    3  502    0  0.65848950702E+03  0.27958109336E+03  0.16482454032E+04  0.17967990783E+04  0.50400001928E-02 0. -1.
       -1    1    3    3    0  502 -0.65848950702E+03 -0.27958109336E+03 -0.51035233421E+03  0.87876818540E+03  0.50400001928E-02 0.  1.
</event>
<event>
 5   0  0.5064437E-06  0.2406364E+04  0.7818609E-02  0.8437125E-01
       -1   -1    0    0    0  501  0.00000000000E+00  0.00000000000E+00  0.11627772968E+04  0.11627772968E+04  0.50400001928E-02 0.  1.
        1   -1    0    0  501    0  0.00000000000E+00  0.00000000000E+00 -0.12449911311E+04  0.12449911311E+04  0.50400001928E-02 0. -1.
    10030    2    1    2    0    0  0.00000000000E+00  0.00000000000E+00 -0.82213834348E+02  0.24077684279E+04  0.24063644129E+04 0.  0.
        2    1    3    3  502    0  0.70159361001E+03  0.21299528345E+03  0.91341343222E+03  0.11712918861E+04  0.25500000920E-02 0.  1.
       -2    1    3    3    0  502 -0.70159361001E+03 -0.21299528345E+03 -0.99562726656E+03  0.12364765418E+04  0.25500000920E-02 0. -1.
</event>
<event>
 5   0  0.5104174E-06  0.2412187E+04  0.7818609E-02  0.8434955E-01
       -1   -1    0    0    0  501  0.00000000000E+00  0.00000000000E+00  0.10625440310E+04  0.10625440310E+04  0.50400001928E-02 0.  1.
        1   -1    0    0  501    0  0.00000000000E+00  0.00000000000E+00 -0.13690360717E+04  0.13690360717E+04  0.50400001928E-02 0. -1.
    10030    2    1    2    0    0  0.00000000000E+00  0.00000000000E+00 -0.30649204063E+03  0.24315801027E+04  0.24121866480E+04 0.  0.
        3    1    3    3  502    0 -0.42834572803E+00 -0.11598187611E+04  0.18029384700E+03  0.11737485350E+04  0.10100000352E+00 0.  1.
       -3    1    3    3    0  502  0.42834572803E+00  0.11598187611E+04 -0.48678588763E+03  0.12578315677E+04  0.10100000352E+00 0. -1.
</event>
<event>
 5   0  0.1154897E-05  0.2430242E+04  0.7818609E-02  0.8428267E-01
        2   -1    0    0  501    0  0.00000000000E+00  0.00000000000E+00  0.11937899036E+04  0.11937899036E+04  0.25500000920E-02 0. -1.
       -2   -1    0    0    0  501  0.00000000000E+00  0.00000000000E+00 -0.12368335252E+04  0.12368335252E+04  0.25500000920E-02 0.  1.
    10030    2    1    2    0    0  0.00000000000E+00  0.00000000000E+00 -0.43043621601E+02  0.24306234288E+04  0.24302422717E+04 0.  0.
        4    1    3    3  502    0  0.23582534234E+03 -0.53471338375E+03  0.10440023866E+04  0.11964424729E+04  0.12699999809E+01 0. -1.
       -4    1    3    3    0  502 -0.23582534234E+03  0.53471338375E+03 -0.10870460082E+04  0.12341809558E+04  0.12699999809E+01 0.  1.
</event>
<event>
 5   0  0.1154897E-05  0.2396220E+04  0.7818609E-02  0.8440920E-01
       -2   -1    0    0    0  501  0.00000000000E+00  0.00000000000E+00  0.14119429099E+04  0.14119429099E+04  0.25500000920E-02 0. -1.
        2   -1    0    0  501    0  0.00000000000E+00  0.00000000000E+00 -0.10166610528E+04  0.10166610528E+04  0.25500000920E-02 0.  1.
    10030    2    1    2    0    0  0.00000000000E+00  0.00000000000E+00  0.39528185707E+03  0.24286039627E+04  0.23962198274E+04 0.  0.
        4    1    3    3  502    0  0.57563975743E+03  0.75517368041E+03 -0.54286131404E+03  0.10937771423E+04  0.12699999809E+01 0.  1.
       -4    1    3    3    0  502 -0.57563975743E+03 -0.75517368041E+03  0.93814317111E+03  0.13348268203E+04  0.12699999809E+01 0. -1.
</event>
<event>
 5   0  0.5064437E-06  0.2295120E+04  0.7818609E-02  0.8479848E-01
       -1   -1    0    0    0  501  0.00000000000E+00  0.00000000000E+00  0.14548042806E+04  0.14548042806E+04  0.50400001928E-02 0.  1.
        1   -1    0    0  501    0  0.00000000000E+00  0.00000000000E+00 -0.90520333498E+03  0.90520333499E+03  0.50400001928E-02 0. -1.
    10030    2    1    2    0    0  0.00000000000E+00  0.00000000000E+00  0.54960094560E+03  0.23600076156E+04  0.22951197673E+04 0.  0.
        2    1    3    3  502    0 -0.18789486715E+03 -0.61365021983E+02 -0.88756711974E+03  0.90931047452E+03  0.25500000920E-02 0. -1.
       -2    1    3    3    0  502  0.18789486715E+03  0.61365021983E+02  0.14371680653E+04  0.14506971411E+04  0.25500000920E-02 0.  1.
</event>
<event>
 5   0  0.1154897E-05  0.2399962E+04  0.7818609E-02  0.8439518E-01
        2   -1    0    0  501    0  0.00000000000E+00  0.00000000000E+00  0.14178076659E+04  0.14178076659E+04  0.25500000920E-02 0.  1.
       -2   -1    0    0    0  501  0.00000000000E+00  0.00000000000E+00 -0.10156201015E+04  0.10156201015E+04  0.25500000920E-02 0. -1.
    10030    2    1    2    0    0  0.00000000000E+00  0.00000000000E+00  0.40218756439E+03  0.24334277675E+04  0.23999616377E+04 0.  0.
        4    1    3    3  502    0  0.11034348359E+04 -0.17153808949E+03  0.64648969659E+03  0.12903272042E+04  0.12699999809E+01 0.  1.
       -4    1    3    3    0  502 -0.11034348359E+04  0.17153808949E+03 -0.24430213219E+03  0.11431005633E+04  0.12699999809E+01 0. -1.
</event>
<event>
 5   0  0.1168435E-05  0.2397715E+04  0.7818609E-02  0.8440359E-01
       -2   -1    0    0    0  501  0.00000000000E+00  0.00000000000E+00  0.71568518244E+03  0.71568518245E+03  0.25500000920E-02 0. -1.
        2   -1    0    0  501    0  0.00000000000E+00  0.00000000000E+00 -0.20082286533E+04  0.20082286533E+04  0.25500000920E-02 0.  1.
    10030    2    1    2    0    0  0.00000000000E+00  0.00000000000E+00 -0.12925434709E+04  0.27239138358E+04  0.23977151542E+04 0.  0.
        1    1    3    3  502    0  0.38877420983E+03 -0.55352287874E+03 -0.17707426098E+04  0.18955374841E+04  0.50400001928E-02 0.  1.
       -1    1    3    3    0  502 -0.38877420983E+03  0.55352287874E+03  0.47819913891E+03  0.82837635166E+03  0.50400001928E-02 0. -1.
</event>
<event>
 5   0  0.1154897E-05  0.2407479E+04  0.7818609E-02  0.8436709E-01
       -2   -1    0    0    0  501  0.00000000000E+00  0.00000000000E+00  0.15120047641E+04  0.15120047641E+04  0.25500000920E-02 0.  1.
        2   -1    0    0  501    0  0.00000000000E+00  0.00000000000E+00 -0.95832290429E+03  0.95832290429E+03  0.25500000920E-02 0. -1.
    10030    2    1    2    0    0  0.00000000000E+00  0.00000000000E+00  0.55368185985E+03  0.24703276684E+04  0.24074790108E+04 0.  0.
        4    1    3    3  502    0 -0.29923190642E+03  0.97055223318E+03  0.93983205152E+03  0.13837619987E+04  0.12699999809E+01 0.  1.
       -4    1    3    3    0  502  0.29923190642E+03 -0.97055223318E+03 -0.38615019168E+03  0.10865656697E+04  0.12699999809E+01 0. -1.
</event>
<event>
 5   0  0.5042742E-06  0.2400852E+04  0.7818609E-02  0.8439185E-01
        1   -1    0    0  501    0  0.00000000000E+00  0.00000000000E+00  0.20933479965E+04  0.20933479965E+04  0.50400001928E-02 0.  1.
       -1   -1    0    0    0  501  0.00000000000E+00  0.00000000000E+00 -0.68838190884E+03  0.68838190886E+03  0.50400001928E-02 0. -1.
    10030    2    1    2    0    0  0.00000000000E+00  0.00000000000E+00  0.14049660877E+04  0.27817299054E+04  0.24008522568E+04 0.  0.
        5    1    3    3  502    0 -0.31856928781E+02 -0.54565047698E+03  0.19407959271E+04  0.20162986454E+04  0.46999998093E+01 0.  1.
       -5    1    3    3    0  502  0.31856928781E+02  0.54565047698E+03 -0.53582983940E+03  0.76543125996E+03  0.46999998093E+01 0. -1.
</event>
<event>
 5   0  0.1198313E-05  0.2399378E+04  0.7818609E-02  0.8439737E-01
       -2   -1    0    0    0  501  0.00000000000E+00  0.00000000000E+00  0.60148439579E+03  0.60148439580E+03  0.25500000920E-02 0.  1.
        2   -1    0    0  501    0  0.00000000000E+00  0.00000000000E+00 -0.23928357528E+04  0.23928357528E+04  0.25500000920E-02 0. -1.
    10030    2    1    2    0    0  0.00000000000E+00  0.00000000000E+00 -0.17913513570E+04  0.29943201486E+04  0.23993777252E+04 0.  0.
        5    1    3    3  502    0 -0.45892477573E+03  0.43845078154E+03  0.37477898512E+03  0.73711085686E+03  0.46999998093E+01 0.  1.
       -5    1    3    3    0  502  0.45892477573E+03 -0.43845078154E+03 -0.21661303421E+04  0.22572092917E+04  0.46999998093E+01 0. -1.
</event>
<event>
 5   0  0.5042742E-06  0.2401181E+04  0.7818609E-02  0.8439062E-01
        1   -1    0    0  501    0  0.00000000000E+00  0.00000000000E+00  0.11273659993E+04  0.11273659993E+04  0.50400001928E-02 0.  1.
       -1   -1    0    0    0  501  0.00000000000E+00  0.00000000000E+00 -0.12785705761E+04  0.12785705761E+04  0.50400001928E-02 0. -1.
    10030    2    1    2    0    0  0.00000000000E+00  0.00000000000E+00 -0.15120457677E+03  0.24059365754E+04  0.24011805390E+04 0.  0.
        5    1    3    3  502    0 -0.41166828961E+03 -0.81990456527E+03  0.70032204101E+03  0.11542041968E+04  0.46999998093E+01 0.  1.
       -5    1    3    3    0  502  0.41166828961E+03  0.81990456527E+03 -0.85152661778E+03  0.12517323786E+04  0.46999998093E+01 0. -1.
</event>
<event>
 5   0  0.5104174E-06  0.2399274E+04  0.7818609E-02  0.8439776E-01
        1   -1    0    0  501    0  0.00000000000E+00  0.00000000000E+00  0.56658617839E+03  0.56658617841E+03  0.50400001928E-02 0.  1.
       -1   -1    0    0    0  501  0.00000000000E+00  0.00000000000E+00 -0.25399990260E+04  0.25399990260E+04  0.50400001928E-02 0. -1.
    10030    2    1    2    0    0  0.00000000000E+00  0.00000000000E+00 -0.19734128477E+04  0.31065852045E+04  0.23992735078E+04 0.  0.
        3    1    3    3  502    0  0.92528637890E+03 -0.23596975716E+03 -0.19269253465E+04  0.21505529313E+04  0.10100000352E+00 0. -1.
       -3    1    3    3    0  502 -0.92528637890E+03  0.23596975716E+03 -0.46487501138E+02  0.95603227311E+03  0.10100000352E+00 0.  1.
</event>
<event>
 5   0  0.1174210E-05  0.2393145E+04  0.7818609E-02  0.8442074E-01
        2   -1    0    0  501    0  0.00000000000E+00  0.00000000000E+00  0.18764182815E+04  0.18764182815E+04  0.25500000920E-02 0. -1.
       -2   -1    0    0    0  501  0.00000000000E+00  0.00000000000E+00 -0.76304182123E+03  0.76304182123E+03  0.25500000920E-02 0.  1.
    10030    2    1    2    0    0  0.00000000000E+00  0.00000000000E+00  0.11133764603E+04  0.26394601028E+04  0.23931448957E+04 0.  0.
        3    1    3    3  502    0 -0.88093927284E+03  0.39862595793E+03 -0.22072075730E+03  0.99180356909E+03  0.10100000352E+00 0.  1.
       -3    1    3    3    0  502  0.88093927284E+03 -0.39862595793E+03  0.13340972176E+04  0.16476565337E+04  0.10100000352E+00 0. -1.
</event>
<event>
 5   0  0.5196696E-06  0.2394282E+04  0.7818609E-02  0.8441647E-01
       -1   -1    0    0    0  501  0.00000000000E+00  0.00000000000E+00  0.54337329942E+03  0.54337329944E+03  0.50400001928E-02 0.  1.
        1   -1    0    0  501    0  0.00000000000E+00  0.00000000000E+00 -0.26374995471E+04  0.26374995471E+04  0.50400001928E-02 0. -1.
    10030    2    1    2    0    0  0.00000000000E+00  0.00000000000E+00 -0.20941262477E+04  0.31808728466E+04  0.23942822149E+04 0.  0.
        1    1    3    3  502    0 -0.11727787820E+04 -0.86719627910E+02 -0.74935269953E+03  0.13944388956E+04  0.50400001928E-02 0.  1.
       -1    1    3    3    0  502  0.11727787820E+04  0.86719627910E+02 -0.13447735482E+04  0.17864339510E+04  0.50400001928E-02 0. -1.
</event>
<event>
 5   0  0.5034479E-06  0.2401067E+04  0.7818609E-02  0.8439104E-01
       -1   -1    0    0    0  501  0.00000000000E+00  0.00000000000E+00  0.62150212900E+03  0.62150212902E+03  0.50400001928E-02 0.  1.
        1   -1    0    0  501    0  0.00000000000E+00  0.00000000000E+00 -0.23190271334E+04  0.23190271334E+04  0.50400001928E-02 0. -1.
    10030    2    1    2    0    0  0.00000000000E+00  0.00000000000E+00 -0.16975250044E+04  0.29405292624E+04  0.24010666802E+04 0.  0.
        4    1    3    3  502    0 -0.95318690409E+03 -0.37438229882E+03 -0.81454903750E+02  0.10273090548E+04  0.12699999809E+01 0.  1.
       -4    1    3    3    0  502  0.95318690409E+03  0.37438229882E+03 -0.16160701006E+04  0.19132202076E+04  0.12699999809E+01 0. -1.
</event>
<event>
 5   0  0.5042742E-06  0.2409290E+04  0.7818609E-02  0.8436034E-01
       -1   -1    0    0    0  501  0.00000000000E+00  0.00000000000E+00  0.69709902703E+03  0.69709902705E+03  0.50400001928E-02 0.  1.
        1   -1    0    0  501    0  0.00000000000E+00  0.00000000000E+00 -0.20817263453E+04  0.20817263453E+04  0.50400001928E-02 0. -1.
    10030    2    1    2    0    0  0.00000000000E+00  0.00000000000E+00 -0.13846273183E+04  0.27788253723E+04  0.24092898621E+04 0.  0.
        5    1    3    3  502    0 -0.91019865579E+02 -0.22900420419E+03 -0.20523332703E+04  0.20670804251E+04  0.46999998093E+01 0. -1.
       -5    1    3    3    0  502  0.91019865579E+02  0.22900420419E+03  0.66770595207E+03  0.71174494722E+03  0.46999998093E+01 0.  1.
</event>
<event>
 5   0  0.5034479E-06  0.2400491E+04  0.7818609E-02  0.8439320E-01
       -1   -1    0    0    0  501  0.00000000000E+00  0.00000000000E+00  0.64560741716E+03  0.64560741718E+03  0.50400001928E-02 0.  1.
        1   -1    0    0  501    0  0.00000000000E+00  0.00000000000E+00 -0.22313707619E+04  0.22313707619E+04  0.50400001928E-02 0. -1.
    10030    2    1    2    0    0  0.00000000000E+00  0.00000000000E+00 -0.15857633447E+04  0.28769781791E+04  0.24004912117E+04 0.  0.
        4    1    3    3  502    0  0.54134390831E+03  0.20195634242E+03  0.46796094938E+03  0.74352448134E+03  0.12699999809E+01 0.  1.
       -4    1    3    3    0  502 -0.54134390831E+03 -0.20195634242E+03 -0.20537242941E+04  0.21334536978E+04  0.12699999809E+01 0. -1.
</event>
<event>
 5   0  0.5196696E-06  0.2349480E+04  0.7818609E-02  0.8458663E-01
        1   -1    0    0  501    0  0.00000000000E+00  0.00000000000E+00  0.15431520876E+04  0.15431520877E+04  0.50400001928E-02 0. -1.
       -1   -1    0    0    0  501  0.00000000000E+00  0.00000000000E+00 -0.89428285159E+03  0.89428285161E+03  0.50400001928E-02 0.  1.
    10030    2    1    2    0    0  0.00000000000E+00  0.00000000000E+00  0.64886923606E+03  0.24374349393E+04  0.23494803250E+04 0.  0.
        1    1    3    3  502    0 -0.56702354904E+03 -0.10045445022E+04  0.55499077283E+03  0.12800937934E+04  0.50400001928E-02 0.  1.
       -1    1    3    3    0  502  0.56702354904E+03  0.10045445022E+04  0.93878463224E+02  0.11573411458E+04  0.50400001928E-02 0. -1.
</event>
<event>
 5   0  0.1154897E-05  0.2395427E+04  0.7818609E-02  0.8441218E-01
        2   -1    0    0  501    0  0.00000000000E+00  0.00000000000E+00  0.13026131810E+04  0.13026131810E+04  0.25500000920E-02 0. -1.
       -2   -1    0    0    0  501  0.00000000000E+00  0.00000000000E+00 -0.11012613872E+04  0.11012613872E+04  0.25500000920E-02 0.  1.
    10030    2    1    2    0    0  0.00000000000E+00  0.00000000000E+00  0.20135179386E+03  0.24038745682E+04  0.23954269755E+04 0.  0.
        4    1    3    3  502    0 -0.10296511929E+04 -0.45431863751E+03  0.51191243566E+03  0.12363830143E+04  0.12699999809E+01 0. -1.
       -4    1    3    3    0  502  0.10296511929E+04  0.45431863751E+03 -0.31056064180E+03  0.11674915539E+04  0.12699999809E+01 0.  1.
</event>
<event>
 5   0  0.5034479E-06  0.2405656E+04  0.7818609E-02  0.8437389E-01
        1   -1    0    0  501    0  0.00000000000E+00  0.00000000000E+00  0.98616932667E+03  0.98616932668E+03  0.50400001928E-02 0. -1.
       -1   -1    0    0    0  501  0.00000000000E+00  0.00000000000E+00 -0.14670865541E+04  0.14670865541E+04  0.50400001928E-02 0.  1.
    10030    2    1    2    0    0  0.00000000000E+00  0.00000000000E+00 -0.48091722744E+03  0.24532558808E+04  0.24056564670E+04 0.  0.
        4    1    3    3  502    0 -0.58386282341E+03 -0.11707969692E+03  0.82529907712E+03  0.10177050809E+04  0.12699999809E+01 0. -1.
       -4    1    3    3    0  502  0.58386282341E+03  0.11707969692E+03 -0.13062163046E+04  0.14355507999E+04  0.12699999809E+01 0.  1.
</event>
<event>
 5   0  0.5196696E-06  0.2398814E+04  0.7818609E-02  0.8439948E-01
       -1   -1    0    0    0  501  0.00000000000E+00  0.00000000000E+00  0.68074965016E+03  0.68074965018E+03  0.50400001928E-02 0. -1.
        1   -1    0    0  501    0  0.00000000000E+00  0.00000000000E+00 -0.21132249743E+04  0.21132249743E+04  0.50400001928E-02 0.  1.
    10030    2    1    2    0    0  0.00000000000E+00  0.00000000000E+00 -0.14324753241E+04  0.27939746245E+04  0.23988140086E+04 0.  0.
        1    1    3    3  502    0  0.72294248347E+03  0.48622497454E+03 -0.16763585474E+04  0.18892428483E+04  0.50400001928E-02 0.  1.
       -1    1    3    3    0  502 -0.72294248347E+03 -0.48622497454E+03  0.24388322326E+03  0.90473177621E+03  0.50400001928E-02 0. -1.
</event>
<event>
 5   0  0.5104174E-06  0.2400717E+04  0.7818609E-02  0.8439235E-01
        1   -1    0    0  501    0  0.00000000000E+00  0.00000000000E+00  0.28493001043E+04  0.28493001043E+04  0.50400001928E-02 0. -1.
       -1   -1    0    0    0  501  0.00000000000E+00  0.00000000000E+00 -0.50568933034E+03  0.50568933037E+03  0.50400001928E-02 0.  1.
    10030    2    1    2    0    0  0.00000000000E+00  0.00000000000E+00  0.23436107740E+04  0.33549894347E+04  0.24007171110E+04 0.  0.
        3    1    3    3  502    0  0.25795809860E+03 -0.11449580006E+04  0.15236562765E+04  0.19232783633E+04  0.10100000352E+00 0.  1.
       -3    1    3    3    0  502 -0.25795809860E+03  0.11449580006E+04  0.81995449751E+03  0.14317110714E+04  0.10100000352E+00 0. -1.
</event>
<event>
 5   0  0.5104174E-06  0.2361477E+04  0.7818609E-02  0.8454068E-01
       -1   -1    0    0    0  501  0.00000000000E+00  0.00000000000E+00  0.84605711631E+03  0.84605711633E+03  0.50400001928E-02 0. -1.
        1   -1    0    0  501    0  0.00000000000E+00  0.00000000000E+00 -0.16478122213E+04  0.16478122213E+04  0.50400001928E-02 0.  1.
    10030    2    1    2    0    0  0.00000000000E+00  0.00000000000E+00 -0.80175510502E+03  0.24938693377E+04  0.23614768737E+04 0.  0.
        3    1    3    3  502    0  0.44124013343E+03 -0.22093407287E+03 -0.15336937610E+04  0.16111242294E+04  0.10100000352E+00 0.  1.
       -3    1    3    3    0  502 -0.44124013343E+03  0.22093407287E+03  0.73193865595E+03  0.88274510827E+03  0.10100000352E+00 0. -1.
</event>
<event>
 5   0  0.1154897E-05  0.2398187E+04  0.7818609E-02  0.8440183E-01
       -2   -1    0    0    0  501  0.00000000000E+00  0.00000000000E+00  0.67631403957E+03  0.67631403958E+03  0.25500000920E-02 0.  1.
        2   -1    0    0  501    0  0.00000000000E+00  0.00000000000E+00 -0.21259718880E+04  0.21259718880E+04  0.25500000920E-02 0. -1.
    10030    2    1    2    0    0  0.00000000000E+00  0.00000000000E+00 -0.14496578484E+04  0.28022859276E+04  0.23981865112E+04 0.  0.
        4    1    3    3  502    0 -0.56770419973E+03 -0.54712957659E+03 -0.17804877407E+04  0.19472485819E+04  0.12699999809E+01 0. -1.
       -4    1    3    3    0  502  0.56770419973E+03  0.54712957659E+03  0.33082989229E+03  0.85503734568E+03  0.12699999809E+01 0.  1.
</event>
<event>
 5   0  0.5064437E-06  0.2402754E+04  0.7818609E-02  0.8438473E-01
       -1   -1    0    0    0  501  0.00000000000E+00  0.00000000000E+00  0.18638145952E+04  0.18638145952E+04  0.50400001928E-02 0. -1.
        1   -1    0    0  501    0  0.00000000000E+00  0.00000000000E+00 -0.77438289104E+03  0.77438289105E+03  0.50400001928E-02 0.  1.
    10030    2    1    2    0    0  0.00000000000E+00  0.00000000000E+00  0.10894317042E+04  0.26381974863E+04  0.24027535326E+04 0.  0.
        2    1    3    3  502    0  0.82381043123E+03 -0.51022779125E+03  0.13244506471E+04  0.16410866955E+04  0.25500000920E-02 0. -1.
       -2    1    3    3    0  502 -0.82381043123E+03  0.51022779125E+03 -0.23501894290E+03  0.99711079079E+03  0.25500000920E-02 0.  1.
</event>
<event>
 5   0  0.5034479E-06  0.2395662E+04  0.7818609E-02  0.8441129E-01
       -1   -1    0    0    0  501  0.00000000000E+00  0.00000000000E+00  0.14900739742E+04  0.14900739742E+04  0.50400001928E-02 0.  1.
        1   -1    0    0  501    0  0.00000000000E+00  0.00000000000E+00 -0.96290489618E+03  0.96290489619E+03  0.50400001928E-02 0. -1.
    10030    2    1    2    0    0  0.00000000000E+00  0.00000000000E+00  0.52716907804E+03  0.24529788704E+04  0.23956623514E+04 0.  0.
        4    1    3    3  502    0 -0.45736776652E+03 -0.87931461398E+03 -0.42512857465E+03  0.10784782715E+04  0.12699999809E+01 0. -1.
       -4    1    3    3    0  502  0.45736776652E+03  0.87931461398E+03  0.95229765269E+03  0.13745005989E+04  0.12699999809E+01 0.  1.
</event>
<event>
 5   0  0.1154897E-05  0.2398086E+04  0.7818609E-02  0.8440221E-01
        2   -1    0    0  501    0  0.00000000000E+00  0.00000000000E+00  0.16873018493E+04  0.16873018493E+04  0.25500000920E-02 0. -1.
       -2   -1    0    0    0  501  0.00000000000E+00  0.00000000000E+00 -0.85207257330E+03  0.85207257330E+03  0.25500000920E-02 0.  1.
    10030    2    1    2    0    0  0.00000000000E+00  0.00000000000E+00  0.83522927601E+03  0.25393744226E+04  0.23980855937E+04 0.  0.
        4    1    3    3  502    0 -0.69075858881E+03  0.63018843836E+03  0.12124498169E+04  0.15311175877E+04  0.12699999809E+01 0. -1.
       -4    1    3    3    0  502  0.69075858881E+03 -0.63018843836E+03 -0.37722054089E+03  0.10082568350E+04  0.12699999809E+01 0.  1.
</event>
<event>
 5   0  0.1198313E-05  0.2371898E+04  0.7818609E-02  0.8450100E-01
        2   -1    0    0  501    0  0.00000000000E+00  0.00000000000E+00  0.11377410107E+04  0.11377410107E+04  0.25500000920E-02 0.  1.
       -2   -1    0    0    0  501  0.00000000000E+00  0.00000000000E+00 -0.12361996957E+04  0.12361996957E+04  0.25500000920E-02 0. -1.
    10030    2    1    2    0    0  0.00000000000E+00  0.00000000000E+00 -0.98458685006E+02  0.23739407065E+04  0.23718980512E+04 0.  0.
        5    1    3    3  502    0 -0.11712634277E+03 -0.50748728189E+03 -0.11156003626E+04  0.12311978641E+04  0.46999998093E+01 0. -1.
       -5    1    3    3    0  502  0.11712634277E+03  0.50748728189E+03  0.10171416776E+04  0.11427428424E+04  0.46999998093E+01 0.  1.
</event>
<event>
 5   0  0.5034479E-06  0.2400063E+04  0.7818609E-02  0.8439480E-01
       -1   -1    0    0    0  501  0.00000000000E+00  0.00000000000E+00  0.81206226243E+03  0.81206226245E+03  0.50400001928E-02 0.  1.
        1   -1    0    0  501    0  0.00000000000E+00  0.00000000000E+00 -0.17733568023E+04  0.17733568023E+04  0.50400001928E-02 0. -1.
    10030    2    1    2    0    0  0.00000000000E+00  0.00000000000E+00 -0.96129453985E+03  0.25854190647E+04  0.24000634467E+04 0.  0.
        4    1    3    3  502    0 -0.24330294516E+03 -0.55695287424E+03  0.63400245606E+03  0.87826735932E+03  0.12699999809E+01 0.  1.
       -4    1    3    3    0  502  0.24330294516E+03  0.55695287424E+03 -0.15952969959E+04  0.17071517054E+04  0.12699999809E+01 0. -1.
</event>
<event>
 5   0  0.1154897E-05  0.2416525E+04  0.7818609E-02  0.8433343E-01
        2   -1    0    0  501    0  0.00000000000E+00  0.00000000000E+00  0.18234385302E+04  0.18234385302E+04  0.25500000920E-02 0. -1.
       -2   -1    0    0    0  501  0.00000000000E+00  0.00000000000E+00 -0.80062941340E+03  0.80062941340E+03  0.25500000920E-02 0.  1.
    10030    2    1    2    0    0  0.00000000000E+00  0.00000000000E+00  0.10228091168E+04  0.26240679436E+04  0.24165252085E+04 0.  0.
        4    1    3    3  502    0  0.11481332651E+04  0.73533294232E+02  0.11053835889E+03  0.11557843577E+04  0.12699999809E+01 0. -1.
       -4    1    3    3    0  502 -0.11481332651E+04 -0.73533294232E+02  0.91227075792E+03  0.14682835859E+04  0.12699999809E+01 0.  1.
</event>
<event>
 5   0  0.1174210E-05  0.2425125E+04  0.7818609E-02  0.8430156E-01
        2   -1    0    0  501    0  0.00000000000E+00  0.00000000000E+00  0.12122904348E+04  0.12122904348E+04  0.25500000920E-02 0. -1.
       -2   -1    0    0    0  501  0.00000000000E+00  0.00000000000E+00 -0.12128351199E+04  0.12128351199E+04  0.25500000920E-02 0.  1.
    10030    2    1    2    0    0  0.00000000000E+00  0.00000000000E+00 -0.54468509366E+00  0.24251255547E+04  0.24251254935E+04 0.  0.
        3    1    3    3  502    0  0.56158587981E+03  0.12885714212E+03 -0.10671957693E+04  0.12128024092E+04  0.10100000352E+00 0.  1.
       -3    1    3    3    0  502 -0.56158587981E+03 -0.12885714212E+03  0.10666510842E+04  0.12123231455E+04  0.10100000352E+00 0. -1.
</event>
<event>
 5   0  0.5042742E-06  0.2414493E+04  0.7818609E-02  0.8434097E-01
        1   -1    0    0  501    0  0.00000000000E+00  0.00000000000E+00  0.20089652707E+04  0.20089652707E+04  0.50400001928E-02 0.  1.
       -1   -1    0    0    0  501  0.00000000000E+00  0.00000000000E+00 -0.72547021204E+03  0.72547021206E+03  0.50400001928E-02 0. -1.
    10030    2    1    2    0    0  0.00000000000E+00  0.00000000000E+00  0.12834950586E+04  0.27344354827E+04  0.24144932892E+04 0.  0.
        5    1    3    3  502    0 -0.65120953255E+03  0.33919238804E+03 -0.44351115647E+03  0.85781674459E+03  0.46999998093E+01 0. -1.
       -5    1    3    3    0  502  0.65120953255E+03 -0.33919238804E+03  0.17270062151E+04  0.18766187381E+04  0.46999998093E+01 0.  1.
</event>
<event>
 5   0  0.1169371E-05  0.2391686E+04  0.7818609E-02  0.8442623E-01
       -2   -1    0    0    0  501  0.00000000000E+00  0.00000000000E+00  0.94897737943E+03  0.94897737943E+03  0.25500000920E-02 0.  1.
        2   -1    0    0  501    0  0.00000000000E+00  0.00000000000E+00 -0.15069274508E+04  0.15069274508E+04  0.25500000920E-02 0. -1.
    10030    2    1    2    0    0  0.00000000000E+00  0.00000000000E+00 -0.55795007136E+03  0.24559048302E+04  0.23916856509E+04 0.  0.
        2    1    3    3  502    0 -0.87473884094E+03  0.73989233079E+03 -0.63085900700E+03  0.13078959392E+04  0.25500000920E-02 0. -1.
       -2    1    3    3    0  502  0.87473884094E+03 -0.73989233079E+03  0.72908935636E+02  0.11480088910E+04  0.25500000920E-02 0.  1.
</event>
<event>
 5   0  0.4067750E-06  0.2396658E+04  0.7818609E-02  0.8440756E-01
       -3   -1    0    0    0  501  0.00000000000E+00  0.00000000000E+00  0.11880826010E+04  0.11880826053E+04  0.10100000352E+00 0.  1.
        3   -1    0    0  501    0  0.00000000000E+00  0.00000000000E+00 -0.12086641493E+04  0.12086641535E+04  0.10100000352E+00 0. -1.
    10030    2    1    2    0    0  0.00000000000E+00  0.00000000000E+00 -0.20581548294E+02  0.23967467588E+04  0.23966583873E+04 0.  0.
        2    1    3    3  502    0  0.11787180584E+04  0.10357379887E+03 -0.19974184982E+03  0.12000002498E+04  0.25500000920E-02 0.  1.
       -2    1    3    3    0  502 -0.11787180584E+04 -0.10357379887E+03  0.17916030152E+03  0.11967465089E+04  0.25500000920E-02 0. -1.
</event>
<event>
 5   0  0.1169371E-05  0.2401385E+04  0.7818609E-02  0.8438985E-01
       -2   -1    0    0    0  501  0.00000000000E+00  0.00000000000E+00  0.65375943491E+03  0.65375943491E+03  0.25500000920E-02 0.  1.
        2   -1    0    0  501    0  0.00000000000E+00  0.00000000000E+00 -0.22051886249E+04  0.22051886249E+04  0.25500000920E-02 0. -1.
    10030    2    1    2    0    0  0.00000000000E+00  0.00000000000E+00 -0.15514291900E+04  0.28589480598E+04  0.24013853246E+04 0.  0.
        2    1    3    3  502    0  0.60073822237E+03  0.54648246587E+03 -0.18286090087E+04  0.20008349267E+04  0.25500000920E-02 0. -1.
       -2    1    3    3    0  502 -0.60073822237E+03 -0.54648246587E+03  0.27717981869E+03  0.85811313311E+03  0.25500000920E-02 0.  1.
</event>
<event>
 5   0  0.5104174E-06  0.2426143E+04  0.7818609E-02  0.8429780E-01
        1   -1    0    0  501    0  0.00000000000E+00  0.00000000000E+00  0.15093277481E+04  0.15093277481E+04  0.50400001928E-02 0.  1.
       -1   -1    0    0    0  501  0.00000000000E+00  0.00000000000E+00 -0.97496531842E+03  0.97496531843E+03  0.50400001928E-02 0. -1.
    10030    2    1    2    0    0  0.00000000000E+00  0.00000000000E+00  0.53436242967E+03  0.24842930665E+04  0.24261427893E+04 0.  0.
        3    1    3    3  502    0 -0.83657695175E+03 -0.17485461076E+03 -0.61432818401E+03  0.10525370582E+04  0.10100000352E+00 0.  1.
       -3    1    3    3    0  502  0.83657695175E+03  0.17485461076E+03  0.11486906137E+04  0.14317560083E+04  0.10100000352E+00 0. -1.
</event>
<event>
 5   0  0.1174210E-05  0.2418581E+04  0.7818609E-02  0.8432580E-01
       -2   -1    0    0    0  501  0.00000000000E+00  0.00000000000E+00  0.84139341432E+03  0.84139341432E+03  0.25500000920E-02 0.  1.
        2   -1    0    0  501    0  0.00000000000E+00  0.00000000000E+00 -0.17380491610E+04  0.17380491610E+04  0.25500000920E-02 0. -1.
    10030    2    1    2    0    0  0.00000000000E+00  0.00000000000E+00 -0.89665574673E+03  0.25794425754E+04  0.24185806729E+04 0.  0.
        3    1    3    3  502    0 -0.86499140353E+03 -0.39040346516E+03  0.35102761798E+03  0.10118524559E+04  0.10100000352E+00 0.  1.
       -3    1    3    3    0  502  0.86499140353E+03  0.39040346516E+03 -0.12476833647E+04  0.15675901194E+04  0.10100000352E+00 0. -1.
</event>
<event>
 5   0  0.5034479E-06  0.2380192E+04  0.7818609E-02  0.8446957E-01
        1   -1    0    0  501    0  0.00000000000E+00  0.00000000000E+00  0.14482864609E+04  0.14482864609E+04  0.50400001928E-02 0. -1.
       -1   -1    0    0    0  501  0.00000000000E+00  0.00000000000E+00 -0.97793377951E+03  0.97793377952E+03  0.50400001928E-02 0.  1.
    10030    2    1    2    0    0  0.00000000000E+00  0.00000000000E+00  0.47035268143E+03  0.24262202405E+04  0.23801918012E+04 0.  0.
        4    1    3    3  502    0  0.52414174905E+03  0.91486377407E+03 -0.32742659488E+03  0.11040426107E+04  0.12699999809E+01 0.  1.
       -4    1    3    3    0  502 -0.52414174905E+03 -0.91486377407E+03  0.79777927631E+03  0.13221776298E+04  0.12699999809E+01 0. -1.
</event>
<event>
 5   0  0.5196696E-06  0.2403313E+04  0.7818609E-02  0.8438264E-01
       -1   -1    0    0    0  501  0.00000000000E+00  0.00000000000E+00  0.15989261659E+04  0.15989261659E+04  0.50400001928E-02 0. -1.
        1   -1    0    0  501    0  0.00000000000E+00  0.00000000000E+00 -0.90309251641E+03  0.90309251642E+03  0.50400001928E-02 0.  1.
    10030    2    1    2    0    0  0.00000000000E+00  0.00000000000E+00  0.69583364950E+03  0.25020186823E+04  0.24033129257E+04 0.  0.
        1    1    3    3  502    0 -0.23558294752E+03 -0.10365238238E+04  0.93137848333E+03  0.14132752180E+04  0.50400001928E-02 0. -1.
       -1    1    3    3    0  502  0.23558294752E+03  0.10365238238E+04 -0.23554483383E+03  0.10887434644E+04  0.50400001928E-02 0.  1.
</event>
<event>
 5   0  0.1169371E-05  0.2406357E+04  0.7818609E-02  0.8437127E-01
       -2   -1    0    0    0  501  0.00000000000E+00  0.00000000000E+00  0.16750200814E+04  0.16750200814E+04  0.25500000920E-02 0.  1.
        2   -1    0    0  501    0  0.00000000000E+00  0.00000000000E+00 -0.86425133248E+03  0.86425133248E+03  0.25500000920E-02 0. -1.
    10030    2    1    2    0    0  0.00000000000E+00  0.00000000000E+00  0.81076874893E+03  0.25392714139E+04  0.24063568624E+04 0.  0.
        2    1    3    3  502    0 -0.47661625041E+00 -0.18033908255E+03 -0.84990860293E+03  0.86883084959E+03  0.25500000920E-02 0. -1.
       -2    1    3    3    0  502  0.47661625041E+00  0.18033908255E+03  0.16606773519E+04  0.16704405643E+04  0.25500000920E-02 0.  1.
</event>
<event>
 5   0  0.5104174E-06  0.2403495E+04  0.7818609E-02  0.8438196E-01
       -1   -1    0    0    0  501  0.00000000000E+00  0.00000000000E+00  0.12599228362E+04  0.12599228362E+04  0.50400001928E-02 0. -1.
        1   -1    0    0  501    0  0.00000000000E+00  0.00000000000E+00 -0.11462580684E+04  0.11462580684E+04  0.50400001928E-02 0.  1.
    10030    2    1    2    0    0  0.00000000000E+00  0.00000000000E+00  0.11366476779E+03  0.24061809045E+04  0.24034947194E+04 0.  0.
        3    1    3    3  502    0 -0.10031443312E+04 -0.59959668880E+03 -0.22344831057E+03  0.11898503671E+04  0.10100000352E+00 0. -1.
       -3    1    3    3    0  502  0.10031443312E+04  0.59959668880E+03  0.33711307836E+03  0.12163305374E+04  0.10100000352E+00 0.  1.
</event>
<event>
 5   0  0.1154897E-05  0.2452258E+04  0.7818609E-02  0.8420194E-01
       -2   -1    0    0    0  501  0.00000000000E+00  0.00000000000E+00  0.97369144394E+03  0.97369144395E+03  0.25500000920E-02 0.  1.
        2   -1    0    0  501    0  0.00000000000E+00  0.00000000000E+00 -0.15440136909E+04  0.15440136909E+04  0.25500000920E-02 0. -1.
    10030    2    1    2    0    0  0.00000000000E+00  0.00000000000E+00 -0.57032224696E+03  0.25177051348E+04  0.24522584857E+04 0.  0.
        4    1    3    3  502    0  0.44031958026E+03  0.66747802631E+03  0.66915274023E+03  0.10426769639E+04  0.12699999809E+01 0.  1.
       -4    1    3    3    0  502 -0.44031958026E+03 -0.66747802631E+03 -0.12394749872E+04  0.14750281710E+04  0.12699999809E+01 0. -1.
</event>
<event>
 5   0  0.1174210E-05  0.2415432E+04  0.7818609E-02  0.8433749E-01
       -2   -1    0    0    0  501  0.00000000000E+00  0.00000000000E+00  0.98549946321E+03  0.98549946321E+03  0.25500000920E-02 0. -1.
        2   -1    0    0  501    0  0.00000000000E+00  0.00000000000E+00 -0.14800388835E+04  0.14800388835E+04  0.25500000920E-02 0.  1.
    10030    2    1    2    0    0  0.00000000000E+00  0.00000000000E+00 -0.49453942028E+03  0.24655383467E+04  0.24154316593E+04 0.  0.
        3    1    3    3  502    0 -0.32145076098E+03 -0.47914475734E+03 -0.13302536538E+04  0.14499948565E+04  0.10100000352E+00 0.  1.
       -3    1    3    3    0  502  0.32145076098E+03  0.47914475734E+03  0.83571423351E+03  0.10155434902E+04  0.10100000352E+00 0. -1.
</event>
<event>
 5   0  0.1198313E-05  0.2411865E+04  0.7818609E-02  0.8435075E-01
        2   -1    0    0  501    0  0.00000000000E+00  0.00000000000E+00  0.15616744317E+04  0.15616744317E+04  0.25500000920E-02 0. -1.
       -2   -1    0    0    0  501  0.00000000000E+00  0.00000000000E+00 -0.93122651992E+03  0.93122651992E+03  0.25500000920E-02 0.  1.
    10030    2    1    2    0    0  0.00000000000E+00  0.00000000000E+00  0.63044791174E+03  0.24929009516E+04  0.24118645453E+04 0.  0.
        5    1    3    3  502    0 -0.96181818040E+03 -0.69784572811E+03  0.10297674907E+03  0.11927737309E+04  0.46999998093E+01 0.  1.
       -5    1    3    3    0  502  0.96181818040E+03  0.69784572811E+03  0.52747116267E+03  0.13001272206E+04  0.46999998093E+01 0. -1.
</event>
<event>
 5   0  0.5034479E-06  0.2388813E+04  0.7818609E-02  0.8443704E-01
        1   -1    0    0  501    0  0.00000000000E+00  0.00000000000E+00  0.10052377395E+04  0.10052377395E+04  0.50400001928E-02 0.  1.
       -1   -1    0    0    0  501  0.00000000000E+00  0.00000000000E+00 -0.14191741049E+04  0.14191741049E+04  0.50400001928E-02 0. -1.
    10030    2    1    2    0    0  0.00000000000E+00  0.00000000000E+00 -0.41393636545E+03  0.24244118444E+04  0.23888134035E+04 0.  0.
        4    1    3    3  502    0 -0.59153537445E+03 -0.44054416126E+03  0.74650658937E+03  0.10494126729E+04  0.12699999809E+01 0.  1.
       -4    1    3    3    0  502  0.59153537445E+03  0.44054416126E+03 -0.11604429548E+04  0.13749991715E+04  0.12699999809E+01 0. -1.
</event>
<event>
 5   0  0.5104174E-06  0.2425068E+04  0.7818609E-02  0.8430178E-01
        1   -1    0    0  501    0  0.00000000000E+00  0.00000000000E+00  0.12603225483E+04  0.12603225483E+04  0.50400001928E-02 0. -1.
       -1   -1    0    0    0  501  0.00000000000E+00  0.00000000000E+00 -0.11665576299E+04  0.11665576299E+04  0.50400001928E-02 0.  1.
    10030    2    1    2    0    0  0.00000000000E+00  0.00000000000E+00  0.93764918411E+02  0.24268801783E+04  0.24250681516E+04 0.  0.
        3    1    3    3  502    0 -0.34884073758E+03 -0.11546788440E+04 -0.76764634527E+02  0.12086628613E+04  0.10100000352E+00 0.  1.
       -3    1    3    3    0  502  0.34884073758E+03  0.11546788440E+04  0.17052955294E+03  0.12182173170E+04  0.10100000352E+00 0. -1.
</event>
<event>
 5   0  0.5042742E-06  0.2401097E+04  0.7818609E-02  0.8439093E-01
        1   -1    0    0  501    0  0.00000000000E+00  0.00000000000E+00  0.83926366756E+03  0.83926366758E+03  0.50400001928E-02 0.  1.
       -1   -1    0    0    0  501  0.00000000000E+00  0.00000000000E+00 -0.17173581388E+04  0.17173581388E+04  0.50400001928E-02 0. -1.
    10030    2    1    2    0    0  0.00000000000E+00  0.00000000000E+00 -0.87809447122E+03  0.25566218064E+04  0.24010966579E+04 0.  0.
        5    1    3    3  502    0 -0.14542109658E+03  0.94761864073E+03 -0.12084629718E+04  0.15425735729E+04  0.46999998093E+01 0. -1.
       -5    1    3    3    0  502  0.14542109658E+03 -0.94761864073E+03  0.33036850059E+03  0.10140482335E+04  0.46999998093E+01 0.  1.
</event>
<event>
 5   0  0.1154897E-05  0.2398793E+04  0.7818609E-02  0.8439956E-01
        2   -1    0    0  501    0  0.00000000000E+00  0.00000000000E+00  0.23727515648E+04  0.23727515648E+04  0.25500000920E-02 0. -1.
       -2   -1    0    0    0  501  0.00000000000E+00  0.00000000000E+00 -0.60628005468E+03  0.60628005468E+03  0.25500000920E-02 0.  1.
    10030    2    1    2    0    0  0.00000000000E+00  0.00000000000E+00  0.17664715101E+04  0.29790316195E+04  0.23987929869E+04 0.  0.
        4    1    3    3  502    0 -0.69326215554E+03  0.68309398833E+03  0.12743733769E+02  0.97334157871E+03  0.12699999809E+01 0.  1.
       -4    1    3    3    0  502  0.69326215554E+03 -0.68309398833E+03  0.17537277763E+04  0.20056900408E+04  0.12699999809E+01 0. -1.
</event>
<event>
 5   0  0.1154897E-05  0.2396241E+04  0.7818609E-02  0.8440912E-01
        2   -1    0    0  501    0  0.00000000000E+00  0.00000000000E+00  0.12299941557E+04  0.12299941557E+04  0.25500000920E-02 0. -1.
       -2   -1    0    0    0  501  0.00000000000E+00  0.00000000000E+00 -0.11670727925E+04  0.11670727925E+04  0.25500000920E-02 0.  1.
    10030    2    1    2    0    0  0.00000000000E+00  0.00000000000E+00  0.62921363187E+02  0.23970669483E+04  0.23962409847E+04 0.  0.
        4    1    3    3  502    0  0.31441330498E+03 -0.14512369017E+02 -0.11249761879E+04  0.11681777995E+04  0.12699999809E+01 0.  1.
       -4    1    3    3    0  502 -0.31441330498E+03  0.14512369017E+02  0.11878975510E+04  0.12288891487E+04  0.12699999809E+01 0. -1.
</event>
<event>
 5   0  0.1198313E-05  0.2399309E+04  0.7818609E-02  0.8439762E-01
       -2   -1    0    0    0  501  0.00000000000E+00  0.00000000000E+00  0.10141735106E+04  0.10141735106E+04  0.25500000920E-02 0.  1.
        2   -1    0    0  501    0  0.00000000000E+00  0.00000000000E+00 -0.14190575628E+04  0.14190575628E+04  0.25500000920E-02 0. -1.
    10030    2    1    2    0    0  0.00000000000E+00  0.00000000000E+00 -0.40488405216E+03  0.24332310734E+04  0.23993087257E+04 0.  0.
        5    1    3    3  502    0  0.11581429467E+04 -0.26805353121E+03 -0.38914861786E+02  0.11894049928E+04  0.46999998093E+01 0. -1.
       -5    1    3    3    0  502 -0.11581429467E+04  0.26805353121E+03 -0.36596919037E+03  0.12438260806E+04  0.46999998093E+01 0.  1.
</event>
<event>
 5   0  0.1154897E-05  0.2450910E+04  0.7818609E-02  0.8420686E-01
       -2   -1    0    0    0  501  0.00000000000E+00  0.00000000000E+00  0.12204468123E+04  0.12204468123E+04  0.25500000920E-02 0. -1.
        2   -1    0    0  501    0  0.00000000000E+00  0.00000000000E+00 -0.12304837855E+04  0.12304837856E+04  0.25500000920E-02 0.  1.
    10030    2    1    2    0    0  0.00000000000E+00  0.00000000000E+00 -0.10036973249E+02  0.24509305979E+04  0.24509100462E+04 0.  0.
        4    1    3    3  502    0  0.79100582795E+03 -0.88894151856E+03  0.28795352046E+03  0.12242655293E+04  0.12699999809E+01 0. -1.
       -4    1    3    3    0  502 -0.79100582795E+03  0.88894151856E+03 -0.29799049371E+03  0.12266650686E+04  0.12699999809E+01 0.  1.
</event>
<event>
 5   0  0.1169371E-05  0.2406287E+04  0.7818609E-02  0.8437153E-01
       -2   -1    0    0    0  501  0.00000000000E+00  0.00000000000E+00  0.11196839801E+04  0.11196839801E+04  0.25500000920E-02 0. -1.
        2   -1    0    0  501    0  0.00000000000E+00  0.00000000000E+00 -0.12928244934E+04  0.12928244934E+04  0.25500000920E-02 0.  1.
    10030    2    1    2    0    0  0.00000000000E+00  0.00000000000E+00 -0.17314051337E+03  0.24125084735E+04  0.24062874927E+04 0.  0.
        2    1    3    3  502    0  0.10927522261E+04 -0.14298812335E+03 -0.57052083368E+03  0.12409863226E+04  0.25500000920E-02 0.  1.
       -2    1    3    3    0  502 -0.10927522261E+04  0.14298812335E+03  0.39738032031E+03  0.11715221509E+04  0.25500000920E-02 0. -1.
</event>
<event>
 5   0  0.1198313E-05  0.2428042E+04  0.7818609E-02  0.8429079E-01
        2   -1    0    0  501    0  0.00000000000E+00  0.00000000000E+00  0.22508223374E+04  0.22508223374E+04  0.25500000920E-02 0. -1.
       -2   -1    0    0    0  501  0.00000000000E+00  0.00000000000E+00 -0.65480360231E+03  0.65480360232E+03  0.25500000920E-02 0.  1.
    10030    2    1    2    0    0  0.00000000000E+00  0.00000000000E+00  0.15960187350E+04  0.29056259397E+04  0.24280416592E+04 0.  0.
        5    1    3    3  502    0 -0.12317656444E+03  0.85399621474E+03  0.18200056733E+04  0.20141809109E+04  0.46999998093E+01 0. -1.
       -5    1    3    3    0  502  0.12317656444E+03 -0.85399621474E+03 -0.22398693830E+03  0.89144502878E+03  0.46999998093E+01 0.  1.
</event>
<event>
 5   0  0.1198313E-05  0.2395890E+04  0.7818609E-02  0.8441044E-01
        2   -1    0    0  501    0  0.00000000000E+00  0.00000000000E+00  0.15813448859E+04  0.15813448859E+04  0.25500000920E-02 0.  1.
       -2   -1    0    0    0  501  0.00000000000E+00  0.00000000000E+00 -0.90750138854E+03  0.90750138854E+03  0.25500000920E-02 0. -1.
    10030    2    1    2    0    0  0.00000000000E+00  0.00000000000E+00  0.67384349740E+03  0.24888462745E+04  0.23958903813E+04 0.  0.
        5    1    3    3  502    0 -0.40096950327E+03 -0.82641814788E+03 -0.46187754626E+03  0.10281519613E+04  0.46999998093E+01 0. -1.
       -5    1    3    3    0  502  0.40096950327E+03  0.82641814788E+03  0.11357210437E+04  0.14606943132E+04  0.46999998093E+01 0.  1.
</event>
<event>
 5   0  0.5064437E-06  0.2398076E+04  0.7818609E-02  0.8440224E-01
       -1   -1    0    0    0  501  0.00000000000E+00  0.00000000000E+00  0.78150877579E+03  0.78150877581E+03  0.50400001928E-02 0. -1.
        1   -1    0    0  501    0  0.00000000000E+00  0.00000000000E+00 -0.18396362254E+04  0.18396362254E+04  0.50400001928E-02 0.  1.
    10030    2    1    2    0    0  0.00000000000E+00  0.00000000000E+00 -0.10581274496E+04  0.26211450012E+04  0.23980757740E+04 0.  0.
        2    1    3    3  502    0  0.67877269010E+03  0.58369134078E+03  0.34279634789E+03  0.95861216467E+03  0.25500000920E-02 0. -1.
       -2    1    3    3    0  502 -0.67877269010E+03 -0.58369134078E+03 -0.14009237975E+04  0.16625328365E+04  0.25500000920E-02 0.  1.
</event>
<event>
 5   0  0.5064437E-06  0.2394078E+04  0.7818609E-02  0.8441724E-01
        1   -1    0    0  501    0  0.00000000000E+00  0.00000000000E+00  0.18941570982E+04  0.18941570983E+04  0.50400001928E-02 0.  1.
       -1   -1    0    0    0  501  0.00000000000E+00  0.00000000000E+00 -0.75648573508E+03  0.75648573509E+03  0.50400001928E-02 0. -1.
    10030    2    1    2    0    0  0.00000000000E+00  0.00000000000E+00  0.11376713632E+04  0.26506428333E+04  0.23940783820E+04 0.  0.
        2    1    3    3  502    0 -0.26714828297E+03 -0.85513219968E+03  0.14478193981E+04  0.17025863542E+04  0.25500000920E-02 0.  1.
       -2    1    3    3    0  502  0.26714828297E+03  0.85513219968E+03 -0.31014803495E+03  0.94805647912E+03  0.25500000920E-02 0. -1.
</event>
<event>
 5   0  0.4067750E-06  0.2399199E+04  0.7818609E-02  0.8439803E-01
        4   -1    0    0  501    0  0.00000000000E+00  0.00000000000E+00  0.11048701564E+04  0.11048708863E+04  0.12699999809E+01 0. -1.
       -4   -1    0    0    0  501  0.00000000000E+00  0.00000000000E+00 -0.13024495492E+04  0.13024501683E+04  0.12699999809E+01 0.  1.
    10030    2    1    2    0    0  0.00000000000E+00  0.00000000000E+00 -0.19757939271E+03  0.24073210547E+04  0.23991992506E+04 0.  0.
        3    1    3    3  502    0 -0.51012503473E+02  0.49782221403E+03 -0.11927143004E+04  0.12934437154E+04  0.10100000352E+00 0.  1.
       -3    1    3    3    0  502  0.51012503473E+02 -0.49782221403E+03  0.99513490769E+03  0.11138773393E+04  0.10100000352E+00 0. -1.
</event>
<event>
 5   0  0.5042742E-06  0.2396478E+04  0.7818609E-02  0.8440823E-01
        1   -1    0    0  501    0  0.00000000000E+00  0.00000000000E+00  0.19603218808E+04  0.19603218808E+04  0.50400001928E-02 0.  1.
       -1   -1    0    0    0  501  0.00000000000E+00  0.00000000000E+00 -0.73241855438E+03  0.73241855440E+03  0.50400001928E-02 0. -1.
    10030    2    1    2    0    0  0.00000000000E+00  0.00000000000E+00  0.12279033264E+04  0.26927404352E+04  0.23964775134E+04 0.  0.
        5    1    3    3  502    0 -0.10485113137E+04 -0.46406223676E+03  0.10048442300E+04  0.15246192151E+04  0.46999998093E+01 0.  1.
       -5    1    3    3    0  502  0.10485113137E+04  0.46406223676E+03  0.22305909646E+03  0.11681212202E+04  0.46999998093E+01 0. -1.
</event>
<event>
 5   0  0.1174210E-05  0.2398533E+04  0.7818609E-02  0.8440053E-01
        2   -1    0    0  501    0  0.00000000000E+00  0.00000000000E+00  0.19619429572E+04  0.19619429572E+04  0.25500000920E-02 0.  1.
       -2   -1    0    0    0  501  0.00000000000E+00  0.00000000000E+00 -0.73306937165E+03  0.73306937165E+03  0.25500000920E-02 0. -1.
    10030    2    1    2    0    0  0.00000000000E+00  0.00000000000E+00  0.12288735855E+04  0.26950123288E+04  0.23985331274E+04 0.  0.
        3    1    3    3  502    0  0.12405594174E+03 -0.22671280322E+03 -0.70140990573E+03  0.74750547682E+03  0.10100000352E+00 0. -1.
       -3    1    3    3    0  502 -0.12405594174E+03  0.22671280322E+03  0.19302834913E+04  0.19475068520E+04  0.10100000352E+00 0.  1.
</event>
<event>
 5   0  0.5196696E-06  0.2403100E+04  0.7818609E-02  0.8438344E-01
       -1   -1    0    0    0  501  0.00000000000E+00  0.00000000000E+00  0.88180958392E+03  0.88180958393E+03  0.50400001928E-02 0.  1.
        1   -1    0    0  501    0  0.00000000000E+00  0.00000000000E+00 -0.16372272892E+04  0.16372272892E+04  0.50400001928E-02 0. -1.
    10030    2    1    2    0    0  0.00000000000E+00  0.00000000000E+00 -0.75541770532E+03  0.25190368732E+04  0.24031002599E+04 0.  0.
        1    1    3    3  502    0 -0.90816456463E+03 -0.72925316882E+03 -0.68255303590E+02  0.11667184096E+04  0.50400001928E-02 0. -1.
       -1    1    3    3    0  502  0.90816456463E+03  0.72925316882E+03 -0.68716240173E+03  0.13523184636E+04  0.50400001928E-02 0.  1.
</event>
<event>
 5   0  0.5064437E-06  0.2415198E+04  0.7818609E-02  0.8433835E-01
       -1   -1    0    0    0  501  0.00000000000E+00  0.00000000000E+00  0.95765573234E+03  0.95765573235E+03  0.50400001928E-02 0. -1.
        1   -1    0    0  501    0  0.00000000000E+00  0.00000000000E+00 -0.15227763207E+04  0.15227763207E+04  0.50400001928E-02 0.  1.
    10030    2    1    2    0    0  0.00000000000E+00  0.00000000000E+00 -0.56512058839E+03  0.24804320531E+04  0.24151981059E+04 0.  0.
        2    1    3    3  502    0  0.11837722627E+04  0.13058230830E+03 -0.77345948833E+02  0.11934617317E+04  0.25500000920E-02 0. -1.
       -2    1    3    3    0  502 -0.11837722627E+04 -0.13058230830E+03 -0.48777463956E+03  0.12869703214E+04  0.25500000920E-02 0.  1.
</event>
<event>
 5   0  0.5042742E-06  0.2396948E+04  0.7818609E-02  0.8440647E-01
       -1   -1    0    0    0  501  0.00000000000E+00  0.00000000000E+00  0.17325419883E+04  0.17325419883E+04  0.50400001928E-02 0. -1.
        1   -1    0    0  501    0  0.00000000000E+00  0.00000000000E+00 -0.82903617042E+03  0.82903617043E+03  0.50400001928E-02 0.  1.
    10030    2    1    2    0    0  0.00000000000E+00  0.00000000000E+00  0.90350581787E+03  0.25615781587E+04  0.23969480387E+04 0.  0.
        5    1    3    3  502    0 -0.67838446835E+03  0.52559641517E+03  0.13457885421E+04  0.15961284311E+04  0.46999998093E+01 0. -1.
       -5    1    3    3    0  502  0.67838446835E+03 -0.52559641517E+03 -0.44228272418E+03  0.96544972766E+03  0.46999998093E+01 0.  1.
</event>
<event>
 5   0  0.1169371E-05  0.2387954E+04  0.7818609E-02  0.8444027E-01
        2   -1    0    0  501    0  0.00000000000E+00  0.00000000000E+00  0.13099088583E+04  0.13099088583E+04  0.25500000920E-02 0.  1.
       -2   -1    0    0    0  501  0.00000000000E+00  0.00000000000E+00 -0.10883052768E+04  0.10883052768E+04  0.25500000920E-02 0. -1.
    10030    2    1    2    0    0  0.00000000000E+00  0.00000000000E+00  0.22160358156E+03  0.23982141351E+04  0.23879537035E+04 0.  0.
        2    1    3    3  502    0 -0.67084344421E+02  0.15871328355E+03 -0.10757528236E+04  0.10894651684E+04  0.25500000920E-02 0. -1.
       -2    1    3    3    0  502  0.67084344421E+02 -0.15871328355E+03  0.12973564052E+04  0.13087489667E+04  0.25500000920E-02 0.  1.
</event>
<event>
 5   0  0.1154897E-05  0.2402114E+04  0.7818609E-02  0.8438712E-01
        2   -1    0    0  501    0  0.00000000000E+00  0.00000000000E+00  0.20095953943E+04  0.20095953943E+04  0.25500000920E-02 0.  1.
       -2   -1    0    0    0  501  0.00000000000E+00  0.00000000000E+00 -0.71782518305E+03  0.71782518305E+03  0.25500000920E-02 0. -1.
    10030    2    1    2    0    0  0.00000000000E+00  0.00000000000E+00  0.12917702113E+04  0.27274205774E+04  0.24021142203E+04 0.  0.
        4    1    3    3  502    0 -0.86145441940E+03 -0.11259248157E+03  0.15875049113E+04  0.18096834640E+04  0.12699999809E+01 0.  1.
       -4    1    3    3    0  502  0.86145441940E+03  0.11259248157E+03 -0.29573470000E+03  0.91773711339E+03  0.12699999809E+01 0. -1.
</event>
<event>
 5   0  0.5104174E-06  0.2403114E+04  0.7818609E-02  0.8438339E-01
       -1   -1    0    0    0  501  0.00000000000E+00  0.00000000000E+00  0.16834386971E+04  0.16834386971E+04  0.50400001928E-02 0. -1.
        1   -1    0    0  501    0  0.00000000000E+00  0.00000000000E+00 -0.85761302434E+03  0.85761302436E+03  0.50400001928E-02 0.  1.
    10030    2    1    2    0    0  0.00000000000E+00  0.00000000000E+00  0.82582567274E+03  0.25410517214E+04  0.24031137737E+04 0.  0.
        3    1    3    3  502    0 -0.73916369249E+03  0.35538348397E+03  0.13414268982E+04  0.15722870344E+04  0.10100000352E+00 0. -1.
       -3    1    3    3    0  502  0.73916369249E+03 -0.35538348397E+03 -0.51560122550E+03  0.96876468707E+03  0.10100000352E+00 0.  1.
</event>
<event>
 5   0  0.1169371E-05  0.2395499E+04  0.7818609E-02  0.8441191E-01
        2   -1    0    0  501    0  0.00000000000E+00  0.00000000000E+00  0.21230375633E+04  0.21230375633E+04  0.25500000920E-02 0. -1.
       -2   -1    0    0    0  501  0.00000000000E+00  0.00000000000E+00 -0.67573147092E+03  0.67573147093E+03  0.25500000920E-02 0.  1.
    10030    2    1    2    0    0  0.00000000000E+00  0.00000000000E+00  0.14473060923E+04  0.27987690342E+04  0.23954985247E+04 0.  0.
        2    1    3    3  502    0 -0.13132541785E+03  0.10822715980E+04  0.13031865238E+04  0.16990742459E+04  0.25500000920E-02 0. -1.
       -2    1    3    3    0  502  0.13132541785E+03 -0.10822715980E+04  0.14411956853E+03  0.10996947883E+04  0.25500000920E-02 0.  1.
</event>
<event>
 5   0  0.5042742E-06  0.2400291E+04  0.7818609E-02  0.8439395E-01
       -1   -1    0    0    0  501  0.00000000000E+00  0.00000000000E+00  0.10342149875E+04  0.10342149876E+04  0.50400001928E-02 0. -1.
        1   -1    0    0  501    0  0.00000000000E+00  0.00000000000E+00 -0.13926975868E+04  0.13926975868E+04  0.50400001928E-02 0.  1.
    10030    2    1    2    0    0  0.00000000000E+00  0.00000000000E+00 -0.35848259921E+03  0.24269125743E+04  0.24002905802E+04 0.  0.
        5    1    3    3  502    0  0.30083813242E+03  0.54055882179E+03 -0.12190536595E+04  0.13670484031E+04  0.46999998093E+01 0.  1.
       -5    1    3    3    0  502 -0.30083813242E+03 -0.54055882179E+03  0.86057106025E+03  0.10598641712E+04  0.46999998093E+01 0. -1.
</event>
<event>
 5   0  0.5034479E-06  0.2422307E+04  0.7818609E-02  0.8431199E-01
       -1   -1    0    0    0  501  0.00000000000E+00  0.00000000000E+00  0.86589931738E+03  0.86589931740E+03  0.50400001928E-02 0. -1.
        1   -1    0    0  501    0  0.00000000000E+00  0.00000000000E+00 -0.16940681958E+04  0.16940681958E+04  0.50400001928E-02 0.  1.
    10030    2    1    2    0    0  0.00000000000E+00  0.00000000000E+00 -0.82816887844E+03  0.25599675132E+04  0.24223067472E+04 0.  0.
        4    1    3    3  502    0 -0.15918109981E+03  0.48527747903E+03 -0.15747027471E+04  0.16554525691E+04  0.12699999809E+01 0.  1.
       -4    1    3    3    0  502  0.15918109981E+03 -0.48527747903E+03  0.74653386861E+03  0.90451494409E+03  0.12699999809E+01 0. -1.
</event>
<event>
 5   0  0.5064437E-06  0.2390573E+04  0.7818609E-02  0.8443041E-01
       -1   -1    0    0    0  501  0.00000000000E+00  0.00000000000E+00  0.15636122885E+04  0.15636122885E+04  0.50400001928E-02 0. -1.
        1   -1    0    0  501    0  0.00000000000E+00  0.00000000000E+00 -0.91372375195E+03  0.91372375196E+03  0.50400001928E-02 0.  1.
    10030    2    1    2    0    0  0.00000000000E+00  0.00000000000E+00  0.64988853653E+03  0.24773360404E+04  0.23905728910E+04 0.  0.
        2    1    3    3  502    0 -0.15325965801E+03  0.45858457323E+03 -0.80785403942E+03  0.94149693711E+03  0.25500000920E-02 0.  1.
       -2    1    3    3    0  502  0.15325965801E+03 -0.45858457323E+03  0.14577425759E+04  0.15358391033E+04  0.25500000920E-02 0. -1.
</event>
<event>
 5   0  0.5042742E-06  0.2400669E+04  0.7818609E-02  0.8439253E-01
        1   -1    0    0  501    0  0.00000000000E+00  0.00000000000E+00  0.19662941850E+04  0.19662941850E+04  0.50400001928E-02 0.  1.
       -1   -1    0    0    0  501  0.00000000000E+00  0.00000000000E+00 -0.73275071296E+03  0.73275071298E+03  0.50400001928E-02 0. -1.
    10030    2    1    2    0    0  0.00000000000E+00  0.00000000000E+00  0.12335434720E+04  0.26990448980E+04  0.24006694616E+04 0.  0.
        5    1    3    3  502    0  0.43406774382E+03 -0.78899723370E+03 -0.27549825198E+03  0.94172863281E+03  0.46999998093E+01 0.  1.
       -5    1    3    3    0  502 -0.43406774382E+03  0.78899723370E+03  0.15090417240E+04  0.17573162651E+04  0.46999998093E+01 0. -1.
</event>
<event>
 5   0  0.5196696E-06  0.2371118E+04  0.7818609E-02  0.8450396E-01
        1   -1    0    0  501    0  0.00000000000E+00  0.00000000000E+00  0.14350780445E+04  0.14350780445E+04  0.50400001928E-02 0. -1.
       -1   -1    0    0    0  501  0.00000000000E+00  0.00000000000E+00 -0.97942397682E+03  0.97942397683E+03  0.50400001928E-02 0.  1.
    10030    2    1    2    0    0  0.00000000000E+00  0.00000000000E+00  0.45565406771E+03  0.24145020214E+04  0.23711177495E+04 0.  0.
        1    1    3    3  502    0 -0.81105990489E+03 -0.27004197897E+03  0.10643249949E+04  0.13651111803E+04  0.50400001928E-02 0. -1.
       -1    1    3    3    0  502  0.81105990489E+03  0.27004197897E+03 -0.60867092719E+03  0.10493908411E+04  0.50400001928E-02 0.  1.
</event>
<event>
 5   0  0.1174210E-05  0.2407360E+04  0.7818609E-02  0.8436753E-01
        2   -1    0    0  501    0  0.00000000000E+00  0.00000000000E+00  0.28456995196E+04  0.28456995196E+04  0.25500000920E-02 0. -1.
       -2   -1    0    0    0  501  0.00000000000E+00  0.00000000000E+00 -0.50913528089E+03  0.50913528090E+03  0.25500000920E-02 0.  1.
    10030    2    1    2    0    0  0.00000000000E+00  0.00000000000E+00  0.23365642387E+04  0.33548348005E+04  0.24073604003E+04 0.  0.
        3    1    3    3  502    0 -0.85989562073E+03 -0.78760438304E+03  0.15842700697E+04  0.19671433111E+04  0.10100000352E+00 0. -1.
       -3    1    3    3    0  502  0.85989562073E+03  0.78760438304E+03  0.75229416908E+03  0.13876914894E+04  0.10100000352E+00 0.  1.
</event>
<event>
 5   0  0.1174210E-05  0.2393037E+04  0.7818609E-02  0.8442115E-01
        2   -1    0    0  501    0  0.00000000000E+00  0.00000000000E+00  0.17866818074E+04  0.17866818074E+04  0.25500000920E-02 0.  1.
       -2   -1    0    0    0  501  0.00000000000E+00  0.00000000000E+00 -0.80129324457E+03  0.80129324457E+03  0.25500000920E-02 0. -1.
    10030    2    1    2    0    0  0.00000000000E+00  0.00000000000E+00  0.98538856281E+03  0.25879750520E+04  0.23930366169E+04 0.  0.
        3    1    3    3  502    0 -0.31058061047E+03 -0.92219910523E+03 -0.26025757358E+03  0.10072961432E+04  0.10100000352E+00 0. -1.
       -3    1    3    3    0  502  0.31058061047E+03  0.92219910523E+03  0.12456461364E+04  0.15806789088E+04  0.10100000352E+00 0.  1.
</event>
<event>
 5   0  0.5042742E-06  0.2415358E+04  0.7818609E-02  0.8433776E-01
        1   -1    0    0  501    0  0.00000000000E+00  0.00000000000E+00  0.94162725723E+03  0.94162725725E+03  0.50400001928E-02 0. -1.
       -1   -1    0    0    0  501  0.00000000000E+00  0.00000000000E+00 -0.15489027011E+04  0.15489027011E+04  0.50400001928E-02 0.  1.
    10030    2    1    2    0    0  0.00000000000E+00  0.00000000000E+00 -0.60727544384E+03  0.24905299583E+04  0.24153583603E+04 0.  0.
        5    1    3    3  502    0 -0.10304371146E+04  0.98770656627E+02 -0.94501788217E+03  0.14016551564E+04  0.46999998093E+01 0.  1.
       -5    1    3    3    0  502  0.10304371146E+04 -0.98770656627E+02  0.33774243833E+03  0.10888748020E+04  0.46999998093E+01 0. -1.
</event>
<event>
 5   0  0.5104174E-06  0.2405139E+04  0.7818609E-02  0.8437582E-01
        1   -1    0    0  501    0  0.00000000000E+00  0.00000000000E+00  0.99843203260E+03  0.99843203262E+03  0.50400001928E-02 0. -1.
       -1   -1    0    0    0  501  0.00000000000E+00  0.00000000000E+00 -0.14484447091E+04  0.14484447091E+04  0.50400001928E-02 0.  1.
    10030    2    1    2    0    0  0.00000000000E+00  0.00000000000E+00 -0.45001267653E+03  0.24468767418E+04  0.24051391603E+04 0.  0.
        3    1    3    3  502    0  0.25891191196E+03  0.98333911782E+03  0.42814917620E+03  0.11033145182E+04  0.10100000352E+00 0. -1.
       -3    1    3    3    0  502 -0.25891191196E+03 -0.98333911782E+03 -0.87816185274E+03  0.13435622236E+04  0.10100000352E+00 0.  1.
</event>
<event>
 5   0  0.5104174E-06  0.2405520E+04  0.7818609E-02  0.8437440E-01
       -1   -1    0    0    0  501  0.00000000000E+00  0.00000000000E+00  0.91400026835E+03  0.91400026836E+03  0.50400001928E-02 0. -1.
        1   -1    0    0  501    0  0.00000000000E+00  0.00000000000E+00 -0.15827472291E+04  0.15827472291E+04  0.50400001928E-02 0.  1.
    10030    2    1    2    0    0  0.00000000000E+00  0.00000000000E+00 -0.66874696077E+03  0.24967474975E+04  0.24055198126E+04 0.  0.
        3    1    3    3  502    0 -0.65111900465E+03 -0.61985149664E+03  0.49496607077E+03  0.10262374275E+04  0.10100000352E+00 0. -1.
       -3    1    3    3    0  502  0.65111900465E+03  0.61985149664E+03 -0.11637130315E+04  0.14705100700E+04  0.10100000352E+00 0.  1.
</event>
<event>
 5   0  0.1169371E-05  0.2400201E+04  0.7818609E-02  0.8439428E-01
       -2   -1    0    0    0  501  0.00000000000E+00  0.00000000000E+00  0.11925679923E+04  0.11925679923E+04  0.25500000920E-02 0.  1.
        2   -1    0    0  501    0  0.00000000000E+00  0.00000000000E+00 -0.12076809728E+04  0.12076809728E+04  0.25500000920E-02 0. -1.
    10030    2    1    2    0    0  0.00000000000E+00  0.00000000000E+00 -0.15112980542E+02  0.24002489651E+04  0.24002013858E+04 0.  0.
        2    1    3    3  502    0 -0.61933619192E+03 -0.77072659458E+03  0.67263702127E+03  0.11958416971E+04  0.25500000920E-02 0.  1.
       -2    1    3    3    0  502  0.61933619192E+03  0.77072659458E+03 -0.68775000181E+03  0.12044072680E+04  0.25500000920E-02 0. -1.
</event>
<event>
 5   0  0.1169371E-05  0.2390099E+04  0.7818609E-02  0.8443220E-01
        2   -1    0    0  501    0  0.00000000000E+00  0.00000000000E+00  0.25865863992E+04  0.25865863992E+04  0.25500000920E-02 0. -1.
       -2   -1    0    0    0  501  0.00000000000E+00  0.00000000000E+00 -0.55213433487E+03  0.55213433488E+03  0.25500000920E-02 0.  1.
    10030    2    1    2    0    0  0.00000000000E+00  0.00000000000E+00  0.20344520643E+04  0.31387207341E+04  0.23900988776E+04 0.  0.
        2    1    3    3  502    0  0.76698159022E+03  0.70837683790E+03  0.17807972318E+04  0.20642909885E+04  0.25500000920E-02 0. -1.
       -2    1    3    3    0  502 -0.76698159022E+03 -0.70837683790E+03  0.25365483252E+03  0.10744297456E+04  0.25500000920E-02 0.  1.
</event>
<event>
 5   0  0.5034479E-06  0.2388484E+04  0.7818609E-02  0.8443828E-01
        1   -1    0    0  501    0  0.00000000000E+00  0.00000000000E+00  0.27545596773E+04  0.27545596773E+04  0.50400001928E-02 0. -1.
       -1   -1    0    0    0  501  0.00000000000E+00  0.00000000000E+00 -0.51776460891E+03  0.51776460893E+03  0.50400001928E-02 0.  1.
    10030    2    1    2    0    0  0.00000000000E+00  0.00000000000E+00  0.22367950684E+04  0.32723242863E+04  0.23884836312E+04 0.  0.
        4    1    3    3  502    0 -0.39372552599E+03 -0.95047420793E+03  0.28752471671E+03  0.10682195867E+04  0.12699999809E+01 0.  1.
       -4    1    3    3    0  502  0.39372552599E+03  0.95047420793E+03  0.19492703517E+04  0.22041046996E+04  0.12699999809E+01 0. -1.
</event>
<event>
 5   0  0.1168435E-05  0.2408566E+04  0.7818609E-02  0.8436304E-01
        2   -1    0    0  501    0  0.00000000000E+00  0.00000000000E+00  0.83014556550E+03  0.83014556550E+03  0.25500000920E-02 0.  1.
       -2   -1    0    0    0  501  0.00000000000E+00  0.00000000000E+00 -0.17470395325E+04  0.17470395325E+04  0.25500000920E-02 0. -1.
    10030    2    1    2    0    0  0.00000000000E+00  0.00000000000E+00 -0.91689396701E+03  0.25771850980E+04  0.24085656484E+04 0.  0.
        1    1    3    3  502    0 -0.55641300967E+03  0.97701412898E+03 -0.92009704595E+03  0.14528353725E+04  0.50400001928E-02 0. -1.
       -1    1    3    3    0  502  0.55641300967E+03 -0.97701412898E+03  0.32030789415E+01  0.11243497255E+04  0.50400001928E-02 0.  1.
</event>
<event>
 5   0  0.1198313E-05  0.2395867E+04  0.7818609E-02  0.8441053E-01
       -2   -1    0    0    0  501  0.00000000000E+00  0.00000000000E+00  0.14146596566E+04  0.14146596566E+04  0.25500000920E-02 0. -1.
        2   -1    0    0  501    0  0.00000000000E+00  0.00000000000E+00 -0.10144096719E+04  0.10144096719E+04  0.25500000920E-02 0.  1.
    10030    2    1    2    0    0  0.00000000000E+00  0.00000000000E+00  0.40024998469E+03  0.24290693285E+04  0.23958668061E+04 0.  0.
        5    1    3    3  502    0  0.62479806799E+03  0.90909812282E+03 -0.27345678681E+03  0.11365002098E+04  0.46999998093E+01 0.  1.
       -5    1    3    3    0  502 -0.62479806799E+03 -0.90909812282E+03  0.67370677150E+03  0.12925691187E+04  0.46999998093E+01 0. -1.
</event>
<event>
 5   0  0.1198313E-05  0.2371077E+04  0.7818609E-02  0.8450412E-01
       -2   -1    0    0    0  501  0.00000000000E+00  0.00000000000E+00  0.62580701780E+03  0.62580701780E+03  0.25500000920E-02 0. -1.
        2   -1    0    0  501    0  0.00000000000E+00  0.00000000000E+00 -0.22459020962E+04  0.22459020962E+04  0.25500000920E-02 0.  1.
    10030    2    1    2    0    0  0.00000000000E+00  0.00000000000E+00 -0.16200950784E+04  0.28717091140E+04  0.23710767959E+04 0.  0.
        5    1    3    3  502    0  0.10430225722E+04  0.53905151600E+03 -0.61101246163E+03  0.13235675053E+04  0.46999998093E+01 0.  1.
       -5    1    3    3    0  502 -0.10430225722E+04 -0.53905151600E+03 -0.10090826167E+04  0.15481416086E+04  0.46999998093E+01 0. -1.
</event>
<event>
 5   0  0.1169371E-05  0.2336928E+04  0.7818609E-02  0.8463502E-01
       -2   -1    0    0    0  501  0.00000000000E+00  0.00000000000E+00  0.89399424852E+03  0.89399424853E+03  0.25500000920E-02 0. -1.
        2   -1    0    0  501    0  0.00000000000E+00  0.00000000000E+00 -0.15271997991E+04  0.15271997991E+04  0.25500000920E-02 0.  1.
    10030    2    1    2    0    0  0.00000000000E+00  0.00000000000E+00 -0.63320555056E+03  0.24211940476E+04  0.23369277582E+04 0.  0.
        2    1    3    3  502    0 -0.13886549613E+03  0.98905596135E+02 -0.15142443184E+04  0.15238116021E+04  0.25500000920E-02 0.  1.
       -2    1    3    3    0  502  0.13886549613E+03 -0.98905596135E+02  0.88103876786E+03  0.89738244547E+03  0.25500000920E-02 0. -1.
</event>
<event>
 5   0  0.5042742E-06  0.2404803E+04  0.7818609E-02  0.8437707E-01
       -1   -1    0    0    0  501  0.00000000000E+00  0.00000000000E+00  0.11085880545E+04  0.11085880545E+04  0.50400001928E-02 0. -1.
        1   -1    0    0  501    0  0.00000000000E+00  0.00000000000E+00 -0.13041541764E+04  0.13041541764E+04  0.50400001928E-02 0.  1.
    10030    2    1    2    0    0  0.00000000000E+00  0.00000000000E+00 -0.19556612190E+03  0.24127422309E+04  0.24048033110E+04 0.  0.
        5    1    3    3  502    0  0.22314907204E+02 -0.11838467807E+04  0.11208803621E+03  0.11893599006E+04  0.46999998093E+01 0.  1.
       -5    1    3    3    0  502 -0.22314907204E+02  0.11838467807E+04 -0.30765415810E+03  0.12233823303E+04  0.46999998093E+01 0. -1.
</event>
<event>
 5   0  0.1174210E-05  0.2399939E+04  0.7818609E-02  0.8439527E-01
        2   -1    0    0  501    0  0.00000000000E+00  0.00000000000E+00  0.11346125174E+04  0.11346125174E+04  0.25500000920E-02 0.  1.
       -2   -1    0    0    0  501  0.00000000000E+00  0.00000000000E+00 -0.12690908629E+04  0.12690908629E+04  0.25500000920E-02 0. -1.
    10030    2    1    2    0    0  0.00000000000E+00  0.00000000000E+00 -0.13447834544E+03  0.24037033803E+04  0.23999386482E+04 0.  0.
        3    1    3    3  502    0  0.28759530313E+03  0.72348086044E+03  0.84731465606E+03  0.11506857739E+04  0.10100000352E+00 0.  1.
       -3    1    3    3    0  502 -0.28759530313E+03 -0.72348086044E+03 -0.98179300150E+03  0.12530176063E+04  0.10100000352E+00 0. -1.
</event>
<event>
 5   0  0.5104174E-06  0.2396639E+04  0.7818609E-02  0.8440763E-01
        1   -1    0    0  501    0  0.00000000000E+00  0.00000000000E+00  0.12980056127E+04  0.12980056127E+04  0.50400001928E-02 0. -1.
       -1   -1    0    0    0  501  0.00000000000E+00  0.00000000000E+00 -0.11062887694E+04  0.11062887695E+04  0.50400001928E-02 0.  1.
    10030    2    1    2    0    0  0.00000000000E+00  0.00000000000E+00  0.19171684321E+03  0.24042943821E+04  0.23966385059E+04 0.  0.
        3    1    3    3  502    0 -0.31419985665E+03 -0.88979107795E+03  0.83681058914E+03  0.12612302266E+04  0.10100000352E+00 0. -1.
       -3    1    3    3    0  502  0.31419985665E+03  0.88979107795E+03 -0.64509374592E+03  0.11430641555E+04  0.10100000352E+00 0.  1.
</event>
<event>
 5   0  0.1154897E-05  0.2395243E+04  0.7818609E-02  0.8441287E-01
       -2   -1    0    0    0  501  0.00000000000E+00  0.00000000000E+00  0.62814389727E+03  0.62814389727E+03  0.25500000920E-02 0. -1.
        2   -1    0    0  501    0  0.00000000000E+00  0.00000000000E+00 -0.22833893949E+04  0.22833893949E+04  0.25500000920E-02 0.  1.
    10030    2    1    2    0    0  0.00000000000E+00  0.00000000000E+00 -0.16552454977E+04  0.29115332922E+04  0.23952428800E+04 0.  0.
        4    1    3    3  502    0 -0.35513138230E+03 -0.43377452730E+02 -0.22169128277E+04  0.22455965801E+04  0.12699999809E+01 0.  1.
       -4    1    3    3    0  502  0.35513138230E+03  0.43377452730E+02  0.56166732999E+03  0.66593671214E+03  0.12699999809E+01 0. -1.
</event>
<event>
 5   0  0.5064437E-06  0.2396210E+04  0.7818609E-02  0.8440924E-01
        1   -1    0    0  501    0  0.00000000000E+00  0.00000000000E+00  0.11543249263E+04  0.11543249264E+04  0.50400001928E-02 0.  1.
       -1   -1    0    0    0  501  0.00000000000E+00  0.00000000000E+00 -0.12435454470E+04  0.12435454470E+04  0.50400001928E-02 0. -1.
    10030    2    1    2    0    0  0.00000000000E+00  0.00000000000E+00 -0.89220520670E+02  0.23978703734E+04  0.23962099295E+04 0.  0.
        2    1    3    3  502    0 -0.71509676350E+02 -0.46502347864E+03 -0.11472335978E+04  0.12399618533E+04  0.25500000920E-02 0. -1.
       -2    1    3    3    0  502  0.71509676350E+02  0.46502347864E+03  0.10580130772E+04  0.11579085201E+04  0.25500000920E-02 0.  1.
</event>
<event>
 5   0  0.5196696E-06  0.2406685E+04  0.7818609E-02  0.8437005E-01
       -1   -1    0    0    0  501  0.00000000000E+00  0.00000000000E+00  0.69916974004E+03  0.69916974006E+03  0.50400001928E-02 0.  1.
        1   -1    0    0  501    0  0.00000000000E+00  0.00000000000E+00 -0.20710749700E+04  0.20710749700E+04  0.50400001928E-02 0. -1.
    10030    2    1    2    0    0  0.00000000000E+00  0.00000000000E+00 -0.13719052299E+04  0.27702447100E+04  0.24066848139E+04 0.  0.
        1    1    3    3  502    0  0.11229982090E+04 -0.22959400868E+03 -0.11076164704E+04  0.15939424807E+04  0.50400001928E-02 0.  1.
       -1    1    3    3    0  502 -0.11229982090E+04  0.22959400868E+03 -0.26428875956E+03  0.11763022293E+04  0.50400001928E-02 0. -1.
</event>
<event>
 5   0  0.1198313E-05  0.2393680E+04  0.7818609E-02  0.8441873E-01
       -2   -1    0    0    0  501  0.00000000000E+00  0.00000000000E+00  0.78454591772E+03  0.78454591772E+03  0.25500000920E-02 0.  1.
        2   -1    0    0  501    0  0.00000000000E+00  0.00000000000E+00 -0.18258030386E+04  0.18258030386E+04  0.25500000920E-02 0. -1.
    10030    2    1    2    0    0  0.00000000000E+00  0.00000000000E+00 -0.10412571208E+04  0.26103489563E+04  0.23936802798E+04 0.  0.
        5    1    3    3  502    0 -0.11433059937E+04  0.21654860649E+03 -0.82589995773E+03  0.14269459430E+04  0.46999998093E+01 0. -1.
       -5    1    3    3    0  502  0.11433059937E+04 -0.21654860649E+03 -0.21535716311E+03  0.11834030133E+04  0.46999998093E+01 0.  1.
</event>
<event>
 5   0  0.5042742E-06  0.2411592E+04  0.7818609E-02  0.8435176E-01
       -1   -1    0    0    0  501  0.00000000000E+00  0.00000000000E+00  0.75318985634E+03  0.75318985636E+03  0.50400001928E-02 0. -1.
        1   -1    0    0  501    0  0.00000000000E+00  0.00000000000E+00 -0.19303823051E+04  0.19303823052E+04  0.50400001928E-02 0.  1.
    10030    2    1    2    0    0  0.00000000000E+00  0.00000000000E+00 -0.11771924488E+04  0.26835721615E+04  0.24115923131E+04 0.  0.
        5    1    3    3  502    0 -0.56517634196E+03 -0.10647299398E+04 -0.55618892217E+03  0.13275700921E+04  0.46999998093E+01 0.  1.
       -5    1    3    3    0  502  0.56517634196E+03  0.10647299398E+04 -0.62100352663E+03  0.13560020694E+04  0.46999998093E+01 0. -1.
</event>
<event>
 5   0  0.1174210E-05  0.2406139E+04  0.7818609E-02  0.8437209E-01
        2   -1    0    0  501    0  0.00000000000E+00  0.00000000000E+00  0.12111467408E+04  0.12111467408E+04  0.25500000920E-02 0.  1.
       -2   -1    0    0    0  501  0.00000000000E+00  0.00000000000E+00 -0.11950462163E+04  0.11950462163E+04  0.25500000920E-02 0. -1.
    10030    2    1    2    0    0  0.00000000000E+00  0.00000000000E+00  0.16100524468E+02  0.24061929571E+04  0.24061390899E+04 0.  0.
        3    1    3    3  502    0 -0.64982696429E+03  0.97964854907E+03  0.26377058683E+03  0.12048075763E+04  0.10100000352E+00 0.  1.
       -3    1    3    3    0  502  0.64982696429E+03 -0.97964854907E+03 -0.24767006236E+03  0.12013853808E+04  0.10100000352E+00 0. -1.
</event>
<event>
 5   0  0.1168435E-05  0.2399734E+04  0.7818609E-02  0.8439603E-01
        2   -1    0    0  501    0  0.00000000000E+00  0.00000000000E+00  0.10604660318E+04  0.10604660318E+04  0.25500000920E-02 0.  1.
       -2   -1    0    0    0  501  0.00000000000E+00  0.00000000000E+00 -0.13575931097E+04  0.13575931097E+04  0.25500000920E-02 0. -1.
    10030    2    1    2    0    0  0.00000000000E+00  0.00000000000E+00 -0.29712707789E+03  0.24180591415E+04  0.23997344668E+04 0.  0.
        1    1    3    3  502    0 -0.85178164590E+03 -0.72072874481E+03 -0.59318060388E+03  0.12636633748E+04  0.50400001928E-02 0. -1.
       -1    1    3    3    0  502  0.85178164590E+03  0.72072874481E+03  0.29605352599E+03  0.11543957667E+04  0.50400001928E-02 0.  1.
</event>
<event>
 5   0  0.5064437E-06  0.2407545E+04  0.7818609E-02  0.8436684E-01
       -1   -1    0    0    0  501  0.00000000000E+00  0.00000000000E+00  0.11383757288E+04  0.11383757288E+04  0.50400001928E-02 0.  1.
        1   -1    0    0  501    0  0.00000000000E+00  0.00000000000E+00 -0.12729263981E+04  0.12729263982E+04  0.50400001928E-02 0. -1.
    10030    2    1    2    0    0  0.00000000000E+00  0.00000000000E+00 -0.13455066933E+03  0.24113021270E+04  0.24075452363E+04 0.  0.
        2    1    3    3  502    0  0.49975690527E+03 -0.81222630541E+03 -0.80299630667E+03  0.12467042970E+04  0.25500000920E-02 0. -1.
       -2    1    3    3    0  502 -0.49975690527E+03  0.81222630541E+03  0.66844563734E+03  0.11645978300E+04  0.25500000920E-02 0.  1.
</event>
<event>
 5   0  0.5064437E-06  0.2427623E+04  0.7818609E-02  0.8429234E-01
       -1   -1    0    0    0  501  0.00000000000E+00  0.00000000000E+00  0.18810106376E+04  0.18810106376E+04  0.50400001928E-02 0.  1.
        1   -1    0    0  501    0  0.00000000000E+00  0.00000000000E+00 -0.78326985848E+03  0.78326985849E+03  0.50400001928E-02 0. -1.
    10030    2    1    2    0    0  0.00000000000E+00  0.00000000000E+00  0.10977407791E+04  0.26642804961E+04  0.24276234765E+04 0.  0.
        2    1    3    3  502    0 -0.10098172295E+04 -0.26450442954E+03 -0.13090224022E+03  0.10520593266E+04  0.25500000920E-02 0. -1.
       -2    1    3    3    0  502  0.10098172295E+04  0.26450442954E+03  0.12286430193E+04  0.16122211694E+04  0.25500000920E-02 0.  1.
</event>
<event>
 5   0  0.1174210E-05  0.2410495E+04  0.7818609E-02  0.8435585E-01
        2   -1    0    0  501    0  0.00000000000E+00  0.00000000000E+00  0.11297755893E+04  0.11297755893E+04  0.25500000920E-02 0.  1.
       -2   -1    0    0    0  501  0.00000000000E+00  0.00000000000E+00 -0.12857607836E+04  0.12857607836E+04  0.25500000920E-02 0. -1.
    10030    2    1    2    0    0  0.00000000000E+00  0.00000000000E+00 -0.15598519433E+03  0.24155363729E+04  0.24104946770E+04 0.  0.
        3    1    3    3  502    0  0.64859506019E+03  0.66947064693E+03  0.68764380987E+03  0.11583266028E+04  0.10100000352E+00 0.  1.
       -3    1    3    3    0  502 -0.64859506019E+03 -0.66947064693E+03 -0.84362900420E+03  0.12572097701E+04  0.10100000352E+00 0. -1.
</event>
<event>
 5   0  0.1174210E-05  0.2391481E+04  0.7818609E-02  0.8442700E-01
       -2   -1    0    0    0  501  0.00000000000E+00  0.00000000000E+00  0.72273854191E+03  0.72273854192E+03  0.25500000920E-02 0. -1.
        2   -1    0    0  501    0  0.00000000000E+00  0.00000000000E+00 -0.19783020544E+04  0.19783020544E+04  0.25500000920E-02 0.  1.
    10030    2    1    2    0    0  0.00000000000E+00  0.00000000000E+00 -0.12555635125E+04  0.27010405963E+04  0.23914808319E+04 0.  0.
        3    1    3    3  502    0 -0.56746190424E+03  0.32244171322E+03 -0.17593759618E+04  0.18765354930E+04  0.10100000352E+00 0.  1.
       -3    1    3    3    0  502  0.56746190424E+03 -0.32244171322E+03  0.50381244931E+03  0.82450510336E+03  0.10100000352E+00 0. -1.
</event>
<event>
 5   0  0.5034479E-06  0.2402599E+04  0.7818609E-02  0.8438531E-01
        1   -1    0    0  501    0  0.00000000000E+00  0.00000000000E+00  0.13480737622E+04  0.13480737623E+04  0.50400001928E-02 0. -1.
       -1   -1    0    0    0  501  0.00000000000E+00  0.00000000000E+00 -0.10705059681E+04  0.10705059681E+04  0.50400001928E-02 0.  1.
    10030    2    1    2    0    0  0.00000000000E+00  0.00000000000E+00  0.27756779417E+03  0.24185797303E+04  0.24025994322E+04 0.  0.
        4    1    3    3  502    0 -0.61199674876E+03  0.32508209964E+02 -0.90129809203E+03  0.10899250744E+04  0.12699999809E+01 0.  1.
       -4    1    3    3    0  502  0.61199674876E+03 -0.32508209964E+02  0.11788658862E+04  0.13286546559E+04  0.12699999809E+01 0. -1.
</event>
<event>
 5   0  0.5034479E-06  0.2400023E+04  0.7818609E-02  0.8439495E-01
       -1   -1    0    0    0  501  0.00000000000E+00  0.00000000000E+00  0.52252615252E+03  0.52252615254E+03  0.50400001928E-02 0.  1.
        1   -1    0    0  501    0  0.00000000000E+00  0.00000000000E+00 -0.27558955540E+04  0.27558955540E+04  0.50400001928E-02 0. -1.
    10030    2    1    2    0    0  0.00000000000E+00  0.00000000000E+00 -0.22333694014E+04  0.32784217065E+04  0.24000229171E+04 0.  0.
        4    1    3    3  502    0  0.36622476789E+03  0.10924416261E+04 -0.65856336416E+03  0.13271234323E+04  0.12699999809E+01 0.  1.
       -4    1    3    3    0  502 -0.36622476789E+03 -0.10924416261E+04 -0.15748060373E+04  0.19512982742E+04  0.12699999809E+01 0. -1.
</event>
<event>
 5   0  0.5196696E-06  0.2398812E+04  0.7818609E-02  0.8439949E-01
       -1   -1    0    0    0  501  0.00000000000E+00  0.00000000000E+00  0.94367014733E+03  0.94367014734E+03  0.50400001928E-02 0.  1.
        1   -1    0    0  501    0  0.00000000000E+00  0.00000000000E+00 -0.15244464337E+04  0.15244464337E+04  0.50400001928E-02 0. -1.
    10030    2    1    2    0    0  0.00000000000E+00  0.00000000000E+00 -0.58077628633E+03  0.24681165810E+04  0.23988118648E+04 0.  0.
        1    1    3    3  502    0 -0.82040483674E+03  0.67697788542E+03 -0.86066818319E+03  0.13682517587E+04  0.50400001928E-02 0. -1.
       -1    1    3    3    0  502  0.82040483674E+03 -0.67697788542E+03  0.27989189686E+03  0.10998648224E+04  0.50400001928E-02 0.  1.
</event>
<event>
 5   0  0.5196696E-06  0.2398614E+04  0.7818609E-02  0.8440023E-01
       -1   -1    0    0    0  501  0.00000000000E+00  0.00000000000E+00  0.97723495960E+03  0.97723495961E+03  0.50400001928E-02 0.  1.
        1   -1    0    0  501    0  0.00000000000E+00  0.00000000000E+00 -0.14718440098E+04  0.14718440098E+04  0.50400001928E-02 0. -1.
    10030    2    1    2    0    0  0.00000000000E+00  0.00000000000E+00 -0.49460905019E+03  0.24490789694E+04  0.23986141178E+04 0.  0.
        1    1    3    3  502    0  0.47519131604E+03 -0.72897729651E+03 -0.10899697893E+04  0.13947217741E+04  0.50400001928E-02 0. -1.
       -1    1    3    3    0  502 -0.47519131604E+03  0.72897729651E+03  0.59536073906E+03  0.10543571953E+04  0.50400001928E-02 0.  1.
</event>
<event>
 5   0  0.5064437E-06  0.2395753E+04  0.7818609E-02  0.8441095E-01
       -1   -1    0    0    0  501  0.00000000000E+00  0.00000000000E+00  0.10930042012E+04  0.10930042012E+04  0.50400001928E-02 0. -1.
        1   -1    0    0  501    0  0.00000000000E+00  0.00000000000E+00 -0.13128109174E+04  0.13128109174E+04  0.50400001928E-02 0.  1.
    10030    2    1    2    0    0  0.00000000000E+00  0.00000000000E+00 -0.21980671623E+03  0.24058151186E+04  0.23957527820E+04 0.  0.
        2    1    3    3  502    0 -0.10891905072E+04 -0.26825002712E+03 -0.53192291626E+03  0.12414652741E+04  0.25500000920E-02 0.  1.
       -2    1    3    3    0  502  0.10891905072E+04  0.26825002712E+03  0.31211620002E+03  0.11643498445E+04  0.25500000920E-02 0. -1.
</event>
<event>
 5   0  0.5042742E-06  0.2394439E+04  0.7818609E-02  0.8441588E-01
        1   -1    0    0  501    0  0.00000000000E+00  0.00000000000E+00  0.77263692982E+03  0.77263692984E+03  0.50400001928E-02 0.  1.
       -1   -1    0    0    0  501  0.00000000000E+00  0.00000000000E+00 -0.18551210387E+04  0.18551210387E+04  0.50400001928E-02 0. -1.
    10030    2    1    2    0    0  0.00000000000E+00  0.00000000000E+00 -0.10824841089E+04  0.26277579685E+04  0.23944394115E+04 0.  0.
        5    1    3    3  502    0  0.86488604716E+03  0.28430783104E+03  0.31198217399E+03  0.96240001260E+03  0.46999998093E+01 0.  1.
       -5    1    3    3    0  502 -0.86488604716E+03 -0.28430783104E+03 -0.13944662828E+04  0.16653579559E+04  0.46999998093E+01 0. -1.
</event>
<event>
 5   0  0.5064437E-06  0.2388456E+04  0.7818609E-02  0.8443838E-01
        1   -1    0    0  501    0  0.00000000000E+00  0.00000000000E+00  0.13762808897E+04  0.13762808897E+04  0.50400001928E-02 0.  1.
       -1   -1    0    0    0  501  0.00000000000E+00  0.00000000000E+00 -0.10362570314E+04  0.10362570314E+04  0.50400001928E-02 0. -1.
    10030    2    1    2    0    0  0.00000000000E+00  0.00000000000E+00  0.34002385835E+03  0.24125379211E+04  0.23884561952E+04 0.  0.
        2    1    3    3  502    0 -0.15761316416E+03  0.46141505305E+03 -0.93113325170E+03  0.10510732102E+04  0.25500000920E-02 0. -1.
       -2    1    3    3    0  502  0.15761316416E+03 -0.46141505305E+03  0.12711571101E+04  0.13614647109E+04  0.25500000920E-02 0.  1.
</event>
<event>
 5   0  0.1168435E-05  0.2389908E+04  0.7818609E-02  0.8443292E-01
       -2   -1    0    0    0  501  0.00000000000E+00  0.00000000000E+00  0.77564134885E+03  0.77564134886E+03  0.25500000920E-02 0. -1.
        2   -1    0    0  501    0  0.00000000000E+00  0.00000000000E+00 -0.18409468816E+04  0.18409468816E+04  0.25500000920E-02 0.  1.
    10030    2    1    2    0    0  0.00000000000E+00  0.00000000000E+00 -0.10653055328E+04  0.26165882305E+04  0.23899075484E+04 0.  0.
        1    1    3    3  502    0  0.62885880366E+03 -0.22655479678E+03 -0.16171195233E+04  0.17498188545E+04  0.50400001928E-02 0.  1.
       -1    1    3    3    0  502 -0.62885880366E+03  0.22655479678E+03  0.55181399056E+03  0.86676937596E+03  0.50400001928E-02 0. -1.
</event>
<event>
 5   0  0.1168435E-05  0.2397094E+04  0.7818609E-02  0.8440592E-01
        2   -1    0    0  501    0  0.00000000000E+00  0.00000000000E+00  0.15927895877E+04  0.15927895877E+04  0.25500000920E-02 0.  1.
       -2   -1    0    0    0  501  0.00000000000E+00  0.00000000000E+00 -0.90188630480E+03  0.90188630481E+03  0.25500000920E-02 0. -1.
    10030    2    1    2    0    0  0.00000000000E+00  0.00000000000E+00  0.69090328290E+03  0.24946758925E+04  0.23970941705E+04 0.  0.
        1    1    3    3  502    0 -0.37819143366E+03  0.54727856844E+03  0.13830188174E+04  0.15346933379E+04  0.50400001928E-02 0.  1.
       -1    1    3    3    0  502  0.37819143366E+03 -0.54727856844E+03 -0.69211553455E+03  0.95998255461E+03  0.50400001928E-02 0. -1.
</event>
<event>
 5   0  0.1169371E-05  0.2395088E+04  0.7818609E-02  0.8441345E-01
        2   -1    0    0  501    0  0.00000000000E+00  0.00000000000E+00  0.16402657288E+04  0.16402657288E+04  0.25500000920E-02 0.  1.
       -2   -1    0    0    0  501  0.00000000000E+00  0.00000000000E+00 -0.87431653659E+03  0.87431653659E+03  0.25500000920E-02 0. -1.
    10030    2    1    2    0    0  0.00000000000E+00  0.00000000000E+00  0.76594919224E+03  0.25145822654E+04  0.23950878490E+04 0.  0.
        2    1    3    3  502    0  0.95505369188E+02  0.11678851584E+04  0.12359736151E+03  0.11782840602E+04  0.25500000920E-02 0. -1.
       -2    1    3    3    0  502 -0.95505369188E+02 -0.11678851584E+04  0.64235183073E+03  0.13362982052E+04  0.25500000920E-02 0.  1.
</event>
<event>
 5   0  0.5034479E-06  0.2397709E+04  0.7818609E-02  0.8440362E-01
       -1   -1    0    0    0  501  0.00000000000E+00  0.00000000000E+00  0.10357249776E+04  0.10357249776E+04  0.50400001928E-02 0. -1.
        1   -1    0    0  501    0  0.00000000000E+00  0.00000000000E+00 -0.13876768724E+04  0.13876768725E+04  0.50400001928E-02 0.  1.
    10030    2    1    2    0    0  0.00000000000E+00  0.00000000000E+00 -0.35195189483E+03  0.24234018501E+04  0.23977085709E+04 0.  0.
        4    1    3    3  502    0  0.79553661485E+03 -0.15659772910E+03 -0.10685293220E+04  0.13413269099E+04  0.12699999809E+01 0.  1.
       -4    1    3    3    0  502 -0.79553661485E+03  0.15659772910E+03  0.71657742713E+03  0.10820749402E+04  0.12699999809E+01 0. -1.
</event>
<event>
 5   0  0.5034479E-06  0.2384674E+04  0.7818609E-02  0.8445264E-01
        1   -1    0    0  501    0  0.00000000000E+00  0.00000000000E+00  0.12040314706E+04  0.12040314706E+04  0.50400001928E-02 0. -1.
       -1   -1    0    0    0  501  0.00000000000E+00  0.00000000000E+00 -0.11807562981E+04  0.11807562981E+04  0.50400001928E-02 0.  1.
    10030    2    1    2    0    0  0.00000000000E+00  0.00000000000E+00  0.23275172516E+02  0.23847877687E+04  0.23846741849E+04 0.  0.
        4    1    3    3  502    0  0.11377673548E+03  0.11729620619E+04  0.19297737030E+03  0.11941637336E+04  0.12699999809E+01 0. -1.
       -4    1    3    3    0  502 -0.11377673548E+03 -0.11729620619E+04 -0.16970219779E+03  0.11906240351E+04  0.12699999809E+01 0.  1.
</event>
<event>
 5   0  0.5196696E-06  0.2398463E+04  0.7818609E-02  0.8440079E-01
        1   -1    0    0  501    0  0.00000000000E+00  0.00000000000E+00  0.19167123609E+04  0.19167123609E+04  0.50400001928E-02 0.  1.
       -1   -1    0    0    0  501  0.00000000000E+00  0.00000000000E+00 -0.75032463789E+03  0.75032463791E+03  0.50400001928E-02 0. -1.
    10030    2    1    2    0    0  0.00000000000E+00  0.00000000000E+00  0.11663877230E+04  0.26670369988E+04  0.23984632648E+04 0.  0.
        1    1    3    3  502    0 -0.61701934567E+03 -0.10174697461E+04  0.41751687129E+03  0.12610622090E+04  0.50400001928E-02 0.  1.
       -1    1    3    3    0  502  0.61701934567E+03  0.10174697461E+04  0.74887085174E+03  0.14059747899E+04  0.50400001928E-02 0. -1.
</event>
<event>
 5   0  0.5064437E-06  0.2397849E+04  0.7818609E-02  0.8440309E-01
        1   -1    0    0  501    0  0.00000000000E+00  0.00000000000E+00  0.12224975663E+04  0.12224975663E+04  0.50400001928E-02 0. -1.
       -1   -1    0    0    0  501  0.00000000000E+00  0.00000000000E+00 -0.11758061839E+04  0.11758061839E+04  0.50400001928E-02 0.  1.
    10030    2    1    2    0    0  0.00000000000E+00  0.00000000000E+00  0.46691382416E+02  0.23983037502E+04  0.23978492014E+04 0.  0.
        2    1    3    3  502    0 -0.75588209540E+03  0.44928378321E+03  0.83848885835E+03  0.12150214918E+04  0.25500000920E-02 0. -1.
       -2    1    3    3    0  502  0.75588209540E+03 -0.44928378321E+03 -0.79179747593E+03  0.11832822583E+04  0.25500000920E-02 0.  1.
</event>
<event>
 5   0  0.5064437E-06  0.2397594E+04  0.7818609E-02  0.8440405E-01
        1   -1    0    0  501    0  0.00000000000E+00  0.00000000000E+00  0.12488951140E+04  0.12488951140E+04  0.50400001928E-02 0. -1.
       -1   -1    0    0    0  501  0.00000000000E+00  0.00000000000E+00 -0.11507087819E+04  0.11507087819E+04  0.50400001928E-02 0.  1.
    10030    2    1    2    0    0  0.00000000000E+00  0.00000000000E+00  0.98186332058E+02  0.23996038959E+04  0.23975942737E+04 0.  0.
        2    1    3    3  502    0  0.35519747168E+03  0.55595739422E+03 -0.95267571740E+03  0.11588118444E+04  0.25500000920E-02 0.  1.
       -2    1    3    3    0  502 -0.35519747168E+03 -0.55595739422E+03  0.10508620495E+04  0.12407920515E+04  0.25500000920E-02 0. -1.
</event>
<event>
 5   0  0.1174210E-05  0.2396263E+04  0.7818609E-02  0.8440904E-01
        2   -1    0    0  501    0  0.00000000000E+00  0.00000000000E+00  0.21905173540E+04  0.21905173540E+04  0.25500000920E-02 0.  1.
       -2   -1    0    0    0  501  0.00000000000E+00  0.00000000000E+00 -0.65533355672E+03  0.65533355673E+03  0.25500000920E-02 0. -1.
    10030    2    1    2    0    0  0.00000000000E+00  0.00000000000E+00  0.15351837972E+04  0.28458509107E+04  0.23962633650E+04 0.  0.
        3    1    3    3  502    0  0.48034400077E+03 -0.18483213535E+03 -0.51735956626E+03  0.72976311796E+03  0.10100000352E+00 0. -1.
       -3    1    3    3    0  502 -0.48034400077E+03  0.18483213535E+03  0.20525433635E+04  0.21160877927E+04  0.10100000352E+00 0.  1.
</event>
<event>
 5   0  0.1168435E-05  0.2325835E+04  0.7818609E-02  0.8467804E-01
       -2   -1    0    0    0  501  0.00000000000E+00  0.00000000000E+00  0.49309800589E+03  0.49309800590E+03  0.25500000920E-02 0. -1.
        2   -1    0    0  501    0  0.00000000000E+00  0.00000000000E+00 -0.27426139911E+04  0.27426139911E+04  0.25500000920E-02 0.  1.
    10030    2    1    2    0    0  0.00000000000E+00  0.00000000000E+00 -0.22495159852E+04  0.32357119970E+04  0.23258353252E+04 0.  0.
        1    1    3    3  502    0  0.11095538949E+04  0.17506831443E+03 -0.70596454205E+03  0.13267044490E+04  0.50400001928E-02 0. -1.
       -1    1    3    3    0  502 -0.11095538949E+04 -0.17506831443E+03 -0.15435514432E+04  0.19090075480E+04  0.50400001928E-02 0.  1.
</event>
<event>
 5   0  0.1174210E-05  0.2401557E+04  0.7818609E-02  0.8438921E-01
        2   -1    0    0  501    0  0.00000000000E+00  0.00000000000E+00  0.14308871396E+04  0.14308871396E+04  0.25500000920E-02 0.  1.
       -2   -1    0    0    0  501  0.00000000000E+00  0.00000000000E+00 -0.10076750304E+04  0.10076750304E+04  0.25500000920E-02 0. -1.
    10030    2    1    2    0    0  0.00000000000E+00  0.00000000000E+00  0.42321210925E+03  0.24385621700E+04  0.24015571964E+04 0.  0.
        3    1    3    3  502    0 -0.28888468501E+03 -0.63232562004E+03 -0.78255076034E+03  0.10467453146E+04  0.10100000352E+00 0. -1.
       -3    1    3    3    0  502  0.28888468501E+03  0.63232562004E+03  0.12057628696E+04  0.13918168554E+04  0.10100000352E+00 0.  1.
</event>
<event>
 5   0  0.5196696E-06  0.2407554E+04  0.7818609E-02  0.8436681E-01
       -1   -1    0    0    0  501  0.00000000000E+00  0.00000000000E+00  0.11720053221E+04  0.11720053221E+04  0.50400001928E-02 0. -1.
        1   -1    0    0  501    0  0.00000000000E+00  0.00000000000E+00 -0.12364101658E+04  0.12364101658E+04  0.50400001928E-02 0.  1.
    10030    2    1    2    0    0  0.00000000000E+00  0.00000000000E+00 -0.64404843738E+02  0.24084154879E+04  0.24075541901E+04 0.  0.
        1    1    3    3  502    0  0.82117166587E+03  0.79696222310E+03 -0.40597710166E+03  0.12142030707E+04  0.50400001928E-02 0.  1.
       -1    1    3    3    0  502 -0.82117166587E+03 -0.79696222310E+03  0.34157225793E+03  0.11942124171E+04  0.50400001928E-02 0. -1.
</event>
<event>
 5   0  0.1169371E-05  0.2400531E+04  0.7818609E-02  0.8439305E-01
       -2   -1    0    0    0  501  0.00000000000E+00  0.00000000000E+00  0.10927911658E+04  0.10927911658E+04  0.25500000920E-02 0.  1.
        2   -1    0    0  501    0  0.00000000000E+00  0.00000000000E+00 -0.13183092477E+04  0.13183092477E+04  0.25500000920E-02 0. -1.
    10030    2    1    2    0    0  0.00000000000E+00  0.00000000000E+00 -0.22551808187E+03  0.24111004135E+04  0.24005305244E+04 0.  0.
        2    1    3    3  502    0 -0.11589035602E+04  0.87562392495E+02 -0.41393274573E+03  0.12337199652E+04  0.25500000920E-02 0.  1.
       -2    1    3    3    0  502  0.11589035602E+04 -0.87562392495E+02  0.18841466385E+03  0.11773804483E+04  0.25500000920E-02 0. -1.
</event>
<event>
 5   0  0.1169371E-05  0.2369096E+04  0.7818609E-02  0.8451165E-01
        2   -1    0    0  501    0  0.00000000000E+00  0.00000000000E+00  0.18101202875E+04  0.18101202875E+04  0.25500000920E-02 0. -1.
       -2   -1    0    0    0  501  0.00000000000E+00  0.00000000000E+00 -0.77517155268E+03  0.77517155268E+03  0.25500000920E-02 0.  1.
    10030    2    1    2    0    0  0.00000000000E+00  0.00000000000E+00  0.10349487348E+04  0.25852918402E+04  0.23690958223E+04 0.  0.
        2    1    3    3  502    0 -0.46385059204E+02  0.61901685657E+03  0.16184114627E+04  0.17333750618E+04  0.25500000920E-02 0. -1.
       -2    1    3    3    0  502  0.46385059204E+02 -0.61901685657E+03 -0.58346272786E+03  0.85191677835E+03  0.25500000920E-02 0.  1.
</event>
<event>
 5   0  0.5196696E-06  0.2394938E+04  0.7818609E-02  0.8441401E-01
        1   -1    0    0  501    0  0.00000000000E+00  0.00000000000E+00  0.12718773363E+04  0.12718773363E+04  0.50400001928E-02 0.  1.
       -1   -1    0    0    0  501  0.00000000000E+00  0.00000000000E+00 -0.11274137888E+04  0.11274137889E+04  0.50400001928E-02 0. -1.
    10030    2    1    2    0    0  0.00000000000E+00  0.00000000000E+00  0.14446354747E+03  0.23992911252E+04  0.23949380340E+04 0.  0.
        1    1    3    3  502    0  0.46436097363E+03  0.10384682230E+04  0.44692319303E+03  0.12222060810E+04  0.50400001928E-02 0.  1.
       -1    1    3    3    0  502 -0.46436097363E+03 -0.10384682230E+04 -0.30245964556E+03  0.11770850442E+04  0.50400001928E-02 0. -1.
</event>
<event>
 5   0  0.5034479E-06  0.2399015E+04  0.7818609E-02  0.8439872E-01
       -1   -1    0    0    0  501  0.00000000000E+00  0.00000000000E+00  0.90807161969E+03  0.90807161970E+03  0.50400001928E-02 0.  1.
        1   -1    0    0  501    0  0.00000000000E+00  0.00000000000E+00 -0.15844764136E+04  0.15844764136E+04  0.50400001928E-02 0. -1.
    10030    2    1    2    0    0  0.00000000000E+00  0.00000000000E+00 -0.67640479390E+03  0.24925480333E+04  0.23990148505E+04 0.  0.
        4    1    3    3  502    0  0.10235711059E+04  0.20634639757E+03 -0.95159253926E+03  0.14127302001E+04  0.12699999809E+01 0. -1.
       -4    1    3    3    0  502 -0.10235711059E+04 -0.20634639757E+03  0.27518774536E+03  0.10798178332E+04  0.12699999809E+01 0.  1.
</event>
<event>
 5   0  0.5042742E-06  0.2397591E+04  0.7818609E-02  0.8440406E-01
        1   -1    0    0  501    0  0.00000000000E+00  0.00000000000E+00  0.14659829832E+04  0.14659829832E+04  0.50400001928E-02 0. -1.
       -1   -1    0    0    0  501  0.00000000000E+00  0.00000000000E+00 -0.98030508483E+03  0.98030508484E+03  0.50400001928E-02 0.  1.
    10030    2    1    2    0    0  0.00000000000E+00  0.00000000000E+00  0.48567789833E+03  0.24462880680E+04  0.23975909348E+04 0.  0.
        5    1    3    3  502    0  0.93745010926E+03  0.27309092608E+03  0.95244818690E+03  0.13640274924E+04  0.46999998093E+01 0. -1.
       -5    1    3    3    0  502 -0.93745010926E+03 -0.27309092608E+03 -0.46677028857E+03  0.10822605756E+04  0.46999998093E+01 0.  1.
</event>
<event>
 5   0  0.1154897E-05  0.2399941E+04  0.7818609E-02  0.8439526E-01
       -2   -1    0    0    0  501  0.00000000000E+00  0.00000000000E+00  0.76027394377E+03  0.76027394377E+03  0.25500000920E-02 0.  1.
        2   -1    0    0  501    0  0.00000000000E+00  0.00000000000E+00 -0.18939603364E+04  0.18939603364E+04  0.25500000920E-02 0. -1.
    10030    2    1    2    0    0  0.00000000000E+00  0.00000000000E+00 -0.11336863927E+04  0.26542342802E+04  0.23999405779E+04 0.  0.
        4    1    3    3  502    0  0.40619635777E+03  0.13062871337E+03 -0.18072274793E+04  0.18569146767E+04  0.12699999809E+01 0. -1.
       -4    1    3    3    0  502 -0.40619635777E+03 -0.13062871337E+03  0.67354108663E+03  0.79731960348E+03  0.12699999809E+01 0.  1.
</event>
<event>
 5   0  0.5042742E-06  0.2401493E+04  0.7818609E-02  0.8438945E-01
        1   -1    0    0  501    0  0.00000000000E+00  0.00000000000E+00  0.15523970075E+04  0.15523970075E+04  0.50400001928E-02 0. -1.
       -1   -1    0    0    0  501  0.00000000000E+00  0.00000000000E+00 -0.92875200215E+03  0.92875200217E+03  0.50400001928E-02 0.  1.
    10030    2    1    2    0    0  0.00000000000E+00  0.00000000000E+00  0.62364500538E+03  0.24811490097E+04  0.24014927265E+04 0.  0.
        5    1    3    3  502    0  0.46421214906E+03 -0.56885695710E+03  0.12934306192E+04  0.14873049498E+04  0.46999998093E+01 0. -1.
       -5    1    3    3    0  502 -0.46421214906E+03  0.56885695710E+03 -0.66978561381E+03  0.99384405993E+03  0.46999998093E+01 0.  1.
</event>
<event>
 5   0  0.1168435E-05  0.2394854E+04  0.7818609E-02  0.8441433E-01
       -2   -1    0    0    0  501  0.00000000000E+00  0.00000000000E+00  0.11007813753E+04  0.11007813754E+04  0.25500000920E-02 0.  1.
        2   -1    0    0  501    0  0.00000000000E+00  0.00000000000E+00 -0.13025582505E+04  0.13025582505E+04  0.25500000920E-02 0. -1.
    10030    2    1    2    0    0  0.00000000000E+00  0.00000000000E+00 -0.20177687510E+03  0.24033396258E+04  0.23948543692E+04 0.  0.
        1    1    3    3  502    0  0.53321685810E+03  0.10531177021E+04  0.10095786575E+03  0.11847234288E+04  0.50400001928E-02 0.  1.
       -1    1    3    3    0  502 -0.53321685810E+03 -0.10531177021E+04 -0.30273474086E+03  0.12186161970E+04  0.50400001928E-02 0. -1.
</event>
<event>
 5   0  0.5042742E-06  0.2410923E+04  0.7818609E-02  0.8435426E-01
       -1   -1    0    0    0  501  0.00000000000E+00  0.00000000000E+00  0.12394132026E+04  0.12394132026E+04  0.50400001928E-02 0. -1.
        1   -1    0    0  501    0  0.00000000000E+00  0.00000000000E+00 -0.11724394689E+04  0.11724394689E+04  0.50400001928E-02 0.  1.
    10030    2    1    2    0    0  0.00000000000E+00  0.00000000000E+00  0.66973733638E+02  0.24118526715E+04  0.24109226093E+04 0.  0.
        5    1    3    3  502    0  0.87476525218E+03 -0.66468009434E+03 -0.46279017905E+03  0.11921454249E+04  0.46999998093E+01 0.  1.
       -5    1    3    3    0  502 -0.87476525218E+03  0.66468009434E+03  0.52976391269E+03  0.12197072466E+04  0.46999998093E+01 0. -1.
</event>
<event>
 5   0  0.5104174E-06  0.2429302E+04  0.7818609E-02  0.8428614E-01
       -1   -1    0    0    0  501  0.00000000000E+00  0.00000000000E+00  0.89771782627E+03  0.89771782628E+03  0.50400001928E-02 0. -1.
        1   -1    0    0  501    0  0.00000000000E+00  0.00000000000E+00 -0.16434752968E+04  0.16434752968E+04  0.50400001928E-02 0.  1.
    10030    2    1    2    0    0  0.00000000000E+00  0.00000000000E+00 -0.74575747054E+03  0.25411931231E+04  0.24293020158E+04 0.  0.
        3    1    3    3  502    0  0.10631442496E+04  0.24049714616E+03 -0.93353363198E+03  0.14351305255E+04  0.10100000352E+00 0.  1.
       -3    1    3    3    0  502 -0.10631442496E+04 -0.24049714616E+03  0.18777616144E+03  0.11060625976E+04  0.10100000352E+00 0. -1.
</event>
<event>
 5   0  0.5104174E-06  0.2400298E+04  0.7818609E-02  0.8439392E-01
        1   -1    0    0  501    0  0.00000000000E+00  0.00000000000E+00  0.10751019025E+04  0.10751019025E+04  0.50400001928E-02 0. -1.
       -1   -1    0    0    0  501  0.00000000000E+00  0.00000000000E+00 -0.13397404937E+04  0.13397404937E+04  0.50400001928E-02 0.  1.
    10030    2    1    2    0    0  0.00000000000E+00  0.00000000000E+00 -0.26463859113E+03  0.24148423962E+04  0.24002979429E+04 0.  0.
        3    1    3    3  502    0 -0.58146003572E+03 -0.71947107706E+03 -0.90155890635E+03  0.12917208970E+04  0.10100000352E+00 0.  1.
       -3    1    3    3    0  502  0.58146003572E+03  0.71947107706E+03  0.63692031522E+03  0.11231214992E+04  0.10100000352E+00 0. -1.
</event>
<event>
 5   0  0.5042742E-06  0.2549171E+04  0.7818609E-02  0.8385674E-01
       -1   -1    0    0    0  501  0.00000000000E+00  0.00000000000E+00  0.18487387172E+04  0.18487387172E+04  0.50400001928E-02 0.  1.
        1   -1    0    0  501    0  0.00000000000E+00  0.00000000000E+00 -0.87874435303E+03  0.87874435304E+03  0.50400001928E-02 0. -1.
    10030    2    1    2    0    0  0.00000000000E+00  0.00000000000E+00  0.96999436420E+03  0.27274830703E+04  0.25491714011E+04 0.  0.
        5    1    3    3  502    0  0.21755956704E+03 -0.80510074090E+02  0.18259520220E+04  0.18406349214E+04  0.46999998093E+01 0.  1.
       -5    1    3    3    0  502 -0.21755956704E+03  0.80510074090E+02 -0.85595765779E+03  0.88684814888E+03  0.46999998093E+01 0. -1.
</event>
<event>
 5   0  0.1154897E-05  0.2443197E+04  0.7818609E-02  0.8423506E-01
        2   -1    0    0  501    0  0.00000000000E+00  0.00000000000E+00  0.99452639084E+03  0.99452639085E+03  0.25500000920E-02 0.  1.
       -2   -1    0    0    0  501  0.00000000000E+00  0.00000000000E+00 -0.15005164257E+04  0.15005164257E+04  0.25500000920E-02 0. -1.
    10030    2    1    2    0    0  0.00000000000E+00  0.00000000000E+00 -0.50599003483E+03  0.24950428165E+04  0.24431972374E+04 0.  0.
        4    1    3    3  502    0 -0.21043117232E+03 -0.11234377065E+03 -0.14765002181E+04  0.14956459835E+04  0.12699999809E+01 0. -1.
       -4    1    3    3    0  502  0.21043117232E+03  0.11234377065E+03  0.97051018327E+03  0.99939683300E+03  0.12699999809E+01 0.  1.
</event>
<event>
 5   0  0.1174210E-05  0.2395654E+04  0.7818609E-02  0.8441133E-01
       -2   -1    0    0    0  501  0.00000000000E+00  0.00000000000E+00  0.81297206290E+03  0.81297206291E+03  0.25500000920E-02 0.  1.
        2   -1    0    0  501    0  0.00000000000E+00  0.00000000000E+00 -0.17648687451E+04  0.17648687451E+04  0.25500000920E-02 0. -1.
    10030    2    1    2    0    0  0.00000000000E+00  0.00000000000E+00 -0.95189668224E+03  0.25778408081E+04  0.23956535513E+04 0.  0.
        3    1    3    3  502    0 -0.10585162373E+04 -0.55450606184E+03 -0.38685448548E+03  0.12560214968E+04  0.10100000352E+00 0.  1.
       -3    1    3    3    0  502  0.10585162373E+04  0.55450606184E+03 -0.56504219676E+03  0.13218193113E+04  0.10100000352E+00 0. -1.
</event>
<event>
 5   0  0.1169371E-05  0.2388507E+04  0.7818609E-02  0.8443819E-01
        2   -1    0    0  501    0  0.00000000000E+00  0.00000000000E+00  0.24718166057E+04  0.24718166057E+04  0.25500000920E-02 0.  1.
       -2   -1    0    0    0  501  0.00000000000E+00  0.00000000000E+00 -0.57700154262E+03  0.57700154262E+03  0.25500000920E-02 0. -1.
    10030    2    1    2    0    0  0.00000000000E+00  0.00000000000E+00  0.18948150631E+04  0.30488181483E+04  0.23885074792E+04 0.  0.
        2    1    3    3  502    0  0.11304160511E+04  0.11898442614E+03  0.14150918039E+04  0.18150709507E+04  0.25500000920E-02 0.  1.
       -2    1    3    3    0  502 -0.11304160511E+04 -0.11898442614E+03  0.47972325912E+03  0.12337471976E+04  0.25500000920E-02 0. -1.
</event>
<event>
 5   0  0.1168435E-05  0.2409676E+04  0.7818609E-02  0.8435890E-01
        2   -1    0    0  501    0  0.00000000000E+00  0.00000000000E+00  0.13112092176E+04  0.13112092176E+04  0.25500000920E-02 0.  1.
       -2   -1    0    0    0  501  0.00000000000E+00  0.00000000000E+00 -0.11070961038E+04  0.11070961038E+04  0.25500000920E-02 0. -1.
    10030    2    1    2    0    0  0.00000000000E+00  0.00000000000E+00  0.20411311381E+03  0.24183053213E+04  0.24096760081E+04 0.  0.
        1    1    3    3  502    0 -0.13001844024E+03 -0.28718360390E+03 -0.10649729583E+04  0.11106514391E+04  0.50400001928E-02 0. -1.
       -1    1    3    3    0  502  0.13001844024E+03  0.28718360390E+03  0.12690860721E+04  0.13076538822E+04  0.50400001928E-02 0.  1.
</event>
<event>
 5   0  0.1198313E-05  0.2403639E+04  0.7818609E-02  0.8438142E-01
        2   -1    0    0  501    0  0.00000000000E+00  0.00000000000E+00  0.20566997868E+04  0.20566997868E+04  0.25500000920E-02 0. -1.
       -2   -1    0    0    0  501  0.00000000000E+00  0.00000000000E+00 -0.70227563311E+03  0.70227563312E+03  0.25500000920E-02 0.  1.
    10030    2    1    2    0    0  0.00000000000E+00  0.00000000000E+00  0.13544241537E+04  0.27589754199E+04  0.24036390286E+04 0.  0.
        5    1    3    3  502    0 -0.84825954141E+03  0.69637379506E+03  0.11504663280E+03  0.11035119074E+04  0.46999998093E+01 0.  1.
       -5    1    3    3    0  502  0.84825954141E+03 -0.69637379506E+03  0.12393775209E+04  0.16554635125E+04  0.46999998093E+01 0. -1.
</event>
<event>
 5   0  0.1174210E-05  0.2410270E+04  0.7818609E-02  0.8435669E-01
        2   -1    0    0  501    0  0.00000000000E+00  0.00000000000E+00  0.15696481482E+04  0.15696481482E+04  0.25500000920E-02 0.  1.
       -2   -1    0    0    0  501  0.00000000000E+00  0.00000000000E+00 -0.92527152322E+03  0.92527152322E+03  0.25500000920E-02 0. -1.
    10030    2    1    2    0    0  0.00000000000E+00  0.00000000000E+00  0.64437662503E+03  0.24949196715E+04  0.24102703027E+04 0.  0.
        3    1    3    3  502    0 -0.76706493853E+03  0.33843846476E+03 -0.57390635743E+03  0.10160205370E+04  0.10100000352E+00 0. -1.
       -3    1    3    3    0  502  0.76706493853E+03 -0.33843846476E+03  0.12182829825E+04  0.14788991345E+04  0.10100000352E+00 0.  1.
</event>
<event>
 5   0  0.5196696E-06  0.2405495E+04  0.7818609E-02  0.8437449E-01
       -1   -1    0    0    0  501  0.00000000000E+00  0.00000000000E+00  0.77026536101E+03  0.77026536103E+03  0.50400001928E-02 0. -1.
        1   -1    0    0  501    0  0.00000000000E+00  0.00000000000E+00 -0.18780567239E+04  0.18780567239E+04  0.50400001928E-02 0.  1.
    10030    2    1    2    0    0  0.00000000000E+00  0.00000000000E+00 -0.11077913629E+04  0.26483220849E+04  0.24054954088E+04 0.  0.
        1    1    3    3  502    0  0.92690122671E+03  0.48834303808E+03 -0.12042721471E+04  0.15962130845E+04  0.50400001928E-02 0.  1.
       -1    1    3    3    0  502 -0.92690122671E+03 -0.48834303808E+03  0.96480784230E+02  0.10521090004E+04  0.50400001928E-02 0. -1.
</event>
<event>
 5   0  0.5104174E-06  0.2380601E+04  0.7818609E-02  0.8446802E-01
       -1   -1    0    0    0  501  0.00000000000E+00  0.00000000000E+00  0.59397632983E+03  0.59397632985E+03  0.50400001928E-02 0.  1.
        1   -1    0    0  501    0  0.00000000000E+00  0.00000000000E+00 -0.23853063049E+04  0.23853063049E+04  0.50400001928E-02 0. -1.
    10030    2    1    2    0    0  0.00000000000E+00  0.00000000000E+00 -0.17913299751E+04  0.29792826347E+04  0.23806011716E+04 0.  0.
        3    1    3    3  502    0  0.20427892859E+03  0.11922237367E+03 -0.23556003925E+04  0.23674452632E+04  0.10100000352E+00 0. -1.
       -3    1    3    3    0  502 -0.20427892859E+03 -0.11922237367E+03  0.56427041741E+03  0.61183737154E+03  0.10100000352E+00 0.  1.
</event>
<event>
 5   0  0.5042742E-06  0.2408442E+04  0.7818609E-02  0.8436350E-01
       -1   -1    0    0    0  501  0.00000000000E+00  0.00000000000E+00  0.99466817819E+03  0.99466817820E+03  0.50400001928E-02 0.  1.
        1   -1    0    0  501    0  0.00000000000E+00  0.00000000000E+00 -0.14579217589E+04  0.14579217589E+04  0.50400001928E-02 0. -1.
    10030    2    1    2    0    0  0.00000000000E+00  0.00000000000E+00 -0.46325358074E+03  0.24525899371E+04  0.24084421354E+04 0.  0.
        5    1    3    3  502    0 -0.62645120822E+03  0.10265269740E+04 -0.16780788906E+03  0.12142406361E+04  0.46999998093E+01 0.  1.
       -5    1    3    3    0  502  0.62645120822E+03 -0.10265269740E+04 -0.29544569169E+03  0.12383493011E+04  0.46999998093E+01 0. -1.
</event>
<event>
 5   0  0.5104174E-06  0.2359490E+04  0.7818609E-02  0.8454828E-01
       -1   -1    0    0    0  501  0.00000000000E+00  0.00000000000E+00  0.81179987211E+03  0.81179987213E+03  0.50400001928E-02 0.  1.
        1   -1    0    0  501    0  0.00000000000E+00  0.00000000000E+00 -0.17144593709E+04  0.17144593709E+04  0.50400001928E-02 0. -1.
    10030    2    1    2    0    0  0.00000000000E+00  0.00000000000E+00 -0.90265949876E+03  0.25262592430E+04  0.23594896889E+04 0.  0.
        3    1    3    3  502    0  0.78521290964E+03 -0.87446646267E+03 -0.34137249327E+03  0.12238407156E+04  0.10100000352E+00 0. -1.
       -3    1    3    3    0  502 -0.78521290964E+03  0.87446646267E+03 -0.56128700548E+03  0.13024185274E+04  0.10100000352E+00 0.  1.
</event>
<event>
 5   0  0.1169371E-05  0.2393686E+04  0.7818609E-02  0.8441871E-01
       -2   -1    0    0    0  501  0.00000000000E+00  0.00000000000E+00  0.13357775664E+04  0.13357775664E+04  0.25500000920E-02 0. -1.
        2   -1    0    0  501    0  0.00000000000E+00  0.00000000000E+00 -0.10723592909E+04  0.10723592909E+04  0.25500000920E-02 0.  1.
    10030    2    1    2    0    0  0.00000000000E+00  0.00000000000E+00  0.26341827551E+03  0.24081368573E+04  0.23936862650E+04 0.  0.
        2    1    3    3  502    0  0.11071908754E+04  0.34518452605E+03  0.42914493474E+03  0.12366039652E+04  0.25500000920E-02 0.  1.
       -2    1    3    3    0  502 -0.11071908754E+04 -0.34518452605E+03 -0.16572665923E+03  0.11715328921E+04  0.25500000920E-02 0. -1.
</event>
<event>
 5   0  0.1174210E-05  0.2415323E+04  0.7818609E-02  0.8433789E-01
        2   -1    0    0  501    0  0.00000000000E+00  0.00000000000E+00  0.23260738235E+04  0.23260738235E+04  0.25500000920E-02 0. -1.
       -2   -1    0    0    0  501  0.00000000000E+00  0.00000000000E+00 -0.62699939971E+03  0.62699939971E+03  0.25500000920E-02 0.  1.
    10030    2    1    2    0    0  0.00000000000E+00  0.00000000000E+00  0.16990744238E+04  0.29530732232E+04  0.24153234906E+04 0.  0.
        3    1    3    3  502    0  0.69658643326E+03  0.28162082635E+03 -0.30642685513E+03  0.81144339087E+03  0.10100000352E+00 0.  1.
       -3    1    3    3    0  502 -0.69658643326E+03 -0.28162082635E+03  0.20055012789E+04  0.21416298324E+04  0.10100000352E+00 0. -1.
</event>
<event>
 5   0  0.5104174E-06  0.2405793E+04  0.7818609E-02  0.8437338E-01
        1   -1    0    0  501    0  0.00000000000E+00  0.00000000000E+00  0.22141139715E+04  0.22141139715E+04  0.50400001928E-02 0.  1.
       -1   -1    0    0    0  501  0.00000000000E+00  0.00000000000E+00 -0.65351659601E+03  0.65351659603E+03  0.50400001928E-02 0. -1.
    10030    2    1    2    0    0  0.00000000000E+00  0.00000000000E+00  0.15605973755E+04  0.28676305675E+04  0.24057931963E+04 0.  0.
        3    1    3    3  502    0 -0.27707858249E+03 -0.44160316064E+03 -0.51186060640E+03  0.73060740685E+03  0.10100000352E+00 0. -1.
       -3    1    3    3    0  502  0.27707858249E+03  0.44160316064E+03  0.20724579819E+04  0.21370231607E+04  0.10100000352E+00 0.  1.
</event>
<event>
 5   0  0.5064437E-06  0.2397567E+04  0.7818609E-02  0.8440415E-01
        1   -1    0    0  501    0  0.00000000000E+00  0.00000000000E+00  0.14727309656E+04  0.14727309656E+04  0.50400001928E-02 0.  1.
       -1   -1    0    0    0  501  0.00000000000E+00  0.00000000000E+00 -0.97579353185E+03  0.97579353187E+03  0.50400001928E-02 0. -1.
    10030    2    1    2    0    0  0.00000000000E+00  0.00000000000E+00  0.49693743376E+03  0.24485244975E+04  0.23975665583E+04 0.  0.
        2    1    3    3  502    0 -0.34265369324E+03 -0.10406474572E+04 -0.24841378559E+03  0.11234180400E+04  0.25500000920E-02 0. -1.
       -2    1    3    3    0  502  0.34265369324E+03  0.10406474572E+04  0.74535121935E+03  0.13251064575E+04  0.25500000920E-02 0.  1.
</event>
<event>
 5   0  0.1169371E-05  0.2333530E+04  0.7818609E-02  0.8464817E-01
       -2   -1    0    0    0  501  0.00000000000E+00  0.00000000000E+00  0.64839388450E+03  0.64839388451E+03  0.25500000920E-02 0.  1.
        2   -1    0    0  501    0  0.00000000000E+00  0.00000000000E+00 -0.20995578469E+04  0.20995578469E+04  0.25500000920E-02 0. -1.
    10030    2    1    2    0    0  0.00000000000E+00  0.00000000000E+00 -0.14511639624E+04  0.27479517314E+04  0.23335299167E+04 0.  0.
        2    1    3    3  502    0 -0.35748234099E+03  0.24239408018E+03  0.55078690388E+03  0.69993908857E+03  0.25500000920E-02 0.  1.
       -2    1    3    3    0  502  0.35748234099E+03 -0.24239408018E+03 -0.20019508662E+04  0.20480126428E+04  0.25500000920E-02 0. -1.
</event>
<event>
 5   0  0.5034479E-06  0.2396280E+04  0.7818609E-02  0.8440897E-01
       -1   -1    0    0    0  501  0.00000000000E+00  0.00000000000E+00  0.11441541207E+04  0.11441541207E+04  0.50400001928E-02 0.  1.
        1   -1    0    0  501    0  0.00000000000E+00  0.00000000000E+00 -0.12546733754E+04  0.12546733754E+04  0.50400001928E-02 0. -1.
    10030    2    1    2    0    0  0.00000000000E+00  0.00000000000E+00 -0.11051925466E+03  0.23988274961E+04  0.23962802112E+04 0.  0.
        4    1    3    3  502    0  0.48135217488E+03 -0.95166843962E+03 -0.60188528599E+03  0.12245979935E+04  0.12699999809E+01 0. -1.
       -4    1    3    3    0  502 -0.48135217488E+03  0.95166843962E+03  0.49136603133E+03  0.11742295026E+04  0.12699999809E+01 0.  1.
</event>
<event>
 5   0  0.1168435E-05  0.2407956E+04  0.7818609E-02  0.8436531E-01
       -2   -1    0    0    0  501  0.00000000000E+00  0.00000000000E+00  0.57946894932E+03  0.57946894932E+03  0.25500000920E-02 0. -1.
        2   -1    0    0  501    0  0.00000000000E+00  0.00000000000E+00 -0.25015368418E+04  0.25015368418E+04  0.25500000920E-02 0.  1.
    10030    2    1    2    0    0  0.00000000000E+00  0.00000000000E+00 -0.19220678925E+04  0.30810057911E+04  0.24079559177E+04 0.  0.
        1    1    3    3  502    0  0.88695453918E+03 -0.80709117716E+03 -0.10981172961E+04  0.16260215616E+04  0.50400001928E-02 0.  1.
       -1    1    3    3    0  502 -0.88695453918E+03  0.80709117716E+03 -0.82395059637E+03  0.14549842295E+04  0.50400001928E-02 0. -1.
</event>
<event>
 5   0  0.5034479E-06  0.2382308E+04  0.7818609E-02  0.8446157E-01
        1   -1    0    0  501    0  0.00000000000E+00  0.00000000000E+00  0.12770727163E+04  0.12770727163E+04  0.50400001928E-02 0. -1.
       -1   -1    0    0    0  501  0.00000000000E+00  0.00000000000E+00 -0.11110159102E+04  0.11110159102E+04  0.50400001928E-02 0.  1.
    10030    2    1    2    0    0  0.00000000000E+00  0.00000000000E+00  0.16605680612E+03  0.23880886265E+04  0.23823082137E+04 0.  0.
        4    1    3    3  502    0 -0.77532025226E+02  0.11885634497E+04  0.70661346317E+02  0.11931843644E+04  0.12699999809E+01 0.  1.
       -4    1    3    3    0  502  0.77532025226E+02 -0.11885634497E+04  0.95395459798E+02  0.11949042620E+04  0.12699999809E+01 0. -1.
</event>
<event>
 5   0  0.5104174E-06  0.2396689E+04  0.7818609E-02  0.8440744E-01
        1   -1    0    0  501    0  0.00000000000E+00  0.00000000000E+00  0.16138960005E+04  0.16138960005E+04  0.50400001928E-02 0.  1.
       -1   -1    0    0    0  501  0.00000000000E+00  0.00000000000E+00 -0.88979034849E+03  0.88979034851E+03  0.50400001928E-02 0. -1.
    10030    2    1    2    0    0  0.00000000000E+00  0.00000000000E+00  0.72410565201E+03  0.25036863490E+04  0.23966886195E+04 0.  0.
        3    1    3    3  502    0 -0.11739280361E+04 -0.18174559222E+03  0.52686368383E+03  0.12995090787E+04  0.10100000352E+00 0. -1.
       -3    1    3    3    0  502  0.11739280361E+04  0.18174559222E+03  0.19724196818E+03  0.12041772703E+04  0.10100000352E+00 0.  1.
</event>
<event>
 5   0  0.5064437E-06  0.2410590E+04  0.7818609E-02  0.8435550E-01
        1   -1    0    0  501    0  0.00000000000E+00  0.00000000000E+00  0.10550651638E+04  0.10550651638E+04  0.50400001928E-02 0. -1.
       -1   -1    0    0    0  501  0.00000000000E+00  0.00000000000E+00 -0.13769156608E+04  0.13769156608E+04  0.50400001928E-02 0.  1.
    10030    2    1    2    0    0  0.00000000000E+00  0.00000000000E+00 -0.32185049703E+03  0.24319808246E+04  0.24105897595E+04 0.  0.
        2    1    3    3  502    0 -0.97283174895E+03 -0.31082785058E+03 -0.80669919251E+03  0.13014527082E+04  0.25500000920E-02 0.  1.
       -2    1    3    3    0  502  0.97283174895E+03  0.31082785058E+03  0.48484869547E+03  0.11305281164E+04  0.25500000920E-02 0. -1.
</event>
<event>
 5   0  0.1168435E-05  0.2400407E+04  0.7818609E-02  0.8439351E-01
       -2   -1    0    0    0  501  0.00000000000E+00  0.00000000000E+00  0.73646752971E+03  0.73646752972E+03  0.25500000920E-02 0.  1.
        2   -1    0    0  501    0  0.00000000000E+00  0.00000000000E+00 -0.19559427034E+04  0.19559427034E+04  0.25500000920E-02 0. -1.
    10030    2    1    2    0    0  0.00000000000E+00  0.00000000000E+00 -0.12194751736E+04  0.26924102331E+04  0.24004068747E+04 0.  0.
        1    1    3    3  502    0 -0.12360911428E+03  0.23021201232E+03  0.70417628897E+03  0.75109322306E+03  0.50400001928E-02 0.  1.
       -1    1    3    3    0  502  0.12360911428E+03 -0.23021201232E+03 -0.19236514626E+04  0.19413170100E+04  0.50400001928E-02 0. -1.
</event>
<event>
 5   0  0.1198313E-05  0.2453885E+04  0.7818609E-02  0.8419601E-01
        2   -1    0    0  501    0  0.00000000000E+00  0.00000000000E+00  0.16386541356E+04  0.16386541356E+04  0.25500000920E-02 0.  1.
       -2   -1    0    0    0  501  0.00000000000E+00  0.00000000000E+00 -0.91867330442E+03  0.91867330442E+03  0.25500000920E-02 0. -1.
    10030    2    1    2    0    0  0.00000000000E+00  0.00000000000E+00  0.71998083122E+03  0.25573274401E+04  0.24538849277E+04 0.  0.
        5    1    3    3  502    0 -0.63406717000E+03 -0.65692671922E+03  0.12141579084E+04  0.15191429844E+04  0.46999998093E+01 0.  1.
       -5    1    3    3    0  502  0.63406717000E+03  0.65692671922E+03 -0.49417707713E+03  0.10381844557E+04  0.46999998093E+01 0. -1.
</event>
<event>
 5   0  0.5042742E-06  0.2395519E+04  0.7818609E-02  0.8441183E-01
       -1   -1    0    0    0  501  0.00000000000E+00  0.00000000000E+00  0.14252016073E+04  0.14252016073E+04  0.50400001928E-02 0. -1.
        1   -1    0    0  501    0  0.00000000000E+00  0.00000000000E+00 -0.10066142834E+04  0.10066142834E+04  0.50400001928E-02 0.  1.
    10030    2    1    2    0    0  0.00000000000E+00  0.00000000000E+00  0.41858732391E+03  0.24318158907E+04  0.23955193964E+04 0.  0.
        5    1    3    3  502    0 -0.11716021373E+04  0.75697307741E+02 -0.31416269874E+02  0.11744746582E+04  0.46999998093E+01 0.  1.
       -5    1    3    3    0  502  0.11716021373E+04 -0.75697307741E+02  0.45000359378E+03  0.12573412325E+04  0.46999998093E+01 0. -1.
</event>
<event>
 5   0  0.1154897E-05  0.2403671E+04  0.7818609E-02  0.8438131E-01
        2   -1    0    0  501    0  0.00000000000E+00  0.00000000000E+00  0.19296755640E+04  0.19296755640E+04  0.25500000920E-02 0. -1.
       -2   -1    0    0    0  501  0.00000000000E+00  0.00000000000E+00 -0.74852381253E+03  0.74852381253E+03  0.25500000920E-02 0.  1.
    10030    2    1    2    0    0  0.00000000000E+00  0.00000000000E+00  0.11811517515E+04  0.26781993765E+04  0.24036706181E+04 0.  0.
        4    1    3    3  502    0 -0.38348119511E+01  0.10150251635E+04 -0.12644005074E+03  0.10228780414E+04  0.12699999809E+01 0. -1.
       -4    1    3    3    0  502  0.38348119511E+01 -0.10150251635E+04  0.13075918022E+04  0.16553213351E+04  0.12699999809E+01 0.  1.
</event>
<event>
 5   0  0.5196696E-06  0.2389738E+04  0.7818609E-02  0.8443355E-01
       -1   -1    0    0    0  501  0.00000000000E+00  0.00000000000E+00  0.78665313146E+03  0.78665313148E+03  0.50400001928E-02 0. -1.
        1   -1    0    0  501    0  0.00000000000E+00  0.00000000000E+00 -0.18149199483E+04  0.18149199484E+04  0.50400001928E-02 0.  1.
    10030    2    1    2    0    0  0.00000000000E+00  0.00000000000E+00 -0.10282668169E+04  0.26015730798E+04  0.23897384466E+04 0.  0.
        1    1    3    3  502    0 -0.64719988898E+03 -0.61447343555E+03  0.35081909164E+03  0.95891570764E+03  0.50400001928E-02 0. -1.
       -1    1    3    3    0  502  0.64719988898E+03  0.61447343555E+03 -0.13790859085E+04  0.16426573722E+04  0.50400001928E-02 0.  1.
</event>
<event>
 5   0  0.5042742E-06  0.2388885E+04  0.7818609E-02  0.8443677E-01
        1   -1    0    0  501    0  0.00000000000E+00  0.00000000000E+00  0.59702900049E+03  0.59702900051E+03  0.50400001928E-02 0. -1.
       -1   -1    0    0    0  501  0.00000000000E+00  0.00000000000E+00 -0.23896534568E+04  0.23896534568E+04  0.50400001928E-02 0.  1.
    10030    2    1    2    0    0  0.00000000000E+00  0.00000000000E+00 -0.17926244563E+04  0.29866824573E+04  0.23888846057E+04 0.  0.
        5    1    3    3  502    0  0.75690429500E+03  0.33702448271E+03 -0.19719418677E+04  0.21389404932E+04  0.46999998093E+01 0.  1.
       -5    1    3    3    0  502 -0.75690429500E+03 -0.33702448271E+03  0.17931741138E+03  0.84774196414E+03  0.46999998093E+01 0. -1.
</event>
<event>
 5   0  0.5064437E-06  0.2407361E+04  0.7818609E-02  0.8436753E-01
        1   -1    0    0  501    0  0.00000000000E+00  0.00000000000E+00  0.75244101081E+03  0.75244101083E+03  0.50400001928E-02 0. -1.
       -1   -1    0    0    0  501  0.00000000000E+00  0.00000000000E+00 -0.19255288868E+04  0.19255288868E+04  0.50400001928E-02 0.  1.
    10030    2    1    2    0    0  0.00000000000E+00  0.00000000000E+00 -0.11730878760E+04  0.26779698976E+04  0.24073611295E+04 0.  0.
        2    1    3    3  502    0  0.46766138461E+03  0.38000904937E+03  0.57256948932E+03  0.83123394322E+03  0.25500000920E-02 0. -1.
       -2    1    3    3    0  502 -0.46766138461E+03 -0.38000904937E+03 -0.17456573653E+04  0.18467359544E+04  0.25500000920E-02 0.  1.
</event>
<event>
 5   0  0.5064437E-06  0.2400059E+04  0.7818609E-02  0.8439482E-01
       -1   -1    0    0    0  501  0.00000000000E+00  0.00000000000E+00  0.10745634970E+04  0.10745634970E+04  0.50400001928E-02 0.  1.
        1   -1    0    0  501    0  0.00000000000E+00  0.00000000000E+00 -0.13401445989E+04  0.13401445989E+04  0.50400001928E-02 0. -1.
    10030    2    1    2    0    0  0.00000000000E+00  0.00000000000E+00 -0.26558110188E+03  0.24147080960E+04  0.24000587216E+04 0.  0.
        2    1    3    3  502    0  0.68265264011E+03 -0.64728802035E+03  0.61678987310E+03  0.11249116214E+04  0.25500000920E-02 0.  1.
       -2    1    3    3    0  502 -0.68265264011E+03  0.64728802035E+03 -0.88237097498E+03  0.12897964746E+04  0.25500000920E-02 0. -1.
</event>
<event>
 5   0  0.5042742E-06  0.2396182E+04  0.7818609E-02  0.8440935E-01
        1   -1    0    0  501    0  0.00000000000E+00  0.00000000000E+00  0.14533213317E+04  0.14533213317E+04  0.50400001928E-02 0. -1.
       -1   -1    0    0    0  501  0.00000000000E+00  0.00000000000E+00 -0.98768351072E+03  0.98768351074E+03  0.50400001928E-02 0.  1.
    10030    2    1    2    0    0  0.00000000000E+00  0.00000000000E+00  0.46563782098E+03  0.24410048425E+04  0.23961815583E+04 0.  0.
        5    1    3    3  502    0  0.13380903906E+03  0.98529445091E+03  0.91366939113E+03  0.13503791542E+04  0.46999998093E+01 0. -1.
       -5    1    3    3    0  502 -0.13380903906E+03 -0.98529445091E+03 -0.44803157015E+03  0.10906256882E+04  0.46999998093E+01 0.  1.
</event>
<event>
 5   0  0.5042742E-06  0.2403090E+04  0.7818609E-02  0.8438348E-01
        1   -1    0    0  501    0  0.00000000000E+00  0.00000000000E+00  0.14314380198E+04  0.14314380199E+04  0.50400001928E-02 0. -1.
       -1   -1    0    0    0  501  0.00000000000E+00  0.00000000000E+00 -0.10085731710E+04  0.10085731710E+04  0.50400001928E-02 0.  1.
    10030    2    1    2    0    0  0.00000000000E+00  0.00000000000E+00  0.42286484883E+03  0.24400111909E+04  0.24030896636E+04 0.  0.
        5    1    3    3  502    0 -0.65226913256E+03  0.99311097602E+03  0.39296256371E+03  0.12514655802E+04  0.46999998093E+01 0. -1.
       -5    1    3    3    0  502  0.65226913256E+03 -0.99311097602E+03  0.29902285121E+02  0.11885456107E+04  0.46999998093E+01 0.  1.
</event>
<event>
 5   0  0.5064437E-06  0.2370259E+04  0.7818609E-02  0.8450723E-01
        1   -1    0    0  501    0  0.00000000000E+00  0.00000000000E+00  0.12077153990E+04  0.12077153990E+04  0.50400001928E-02 0. -1.
       -1   -1    0    0    0  501  0.00000000000E+00  0.00000000000E+00 -0.11629663068E+04  0.11629663068E+04  0.50400001928E-02 0.  1.
    10030    2    1    2    0    0  0.00000000000E+00  0.00000000000E+00  0.44749092184E+02  0.23706817058E+04  0.23702593252E+04 0.  0.
        2    1    3    3  502    0 -0.10976435999E+04  0.17022708420E+03  0.43564738523E+03  0.11931418092E+04  0.25500000920E-02 0.  1.
       -2    1    3    3    0  502  0.10976435999E+04 -0.17022708420E+03 -0.39089829305E+03  0.11775398966E+04  0.25500000920E-02 0. -1.
</event>
<event>
 5   0  0.5064437E-06  0.2307017E+04  0.7818609E-02  0.8475160E-01
       -1   -1    0    0    0  501  0.00000000000E+00  0.00000000000E+00  0.11823556870E+04  0.11823556870E+04  0.50400001928E-02 0.  1.
        1   -1    0    0  501    0  0.00000000000E+00  0.00000000000E+00 -0.11253651763E+04  0.11253651763E+04  0.50400001928E-02 0. -1.
    10030    2    1    2    0    0  0.00000000000E+00  0.00000000000E+00  0.56990510679E+02  0.23077208633E+04  0.23070170490E+04 0.  0.
        2    1    3    3  502    0 -0.33056175944E+02 -0.13709718047E+03  0.11736997835E+04  0.11821419244E+04  0.25500000920E-02 0.  1.
       -2    1    3    3    0  502  0.33056175944E+02  0.13709718047E+03 -0.11167092728E+04  0.11255789389E+04  0.25500000920E-02 0. -1.
</event>
<event>
 5   0  0.4067750E-06  0.2402037E+04  0.7818609E-02  0.8438742E-01
        4   -1    0    0  501    0  0.00000000000E+00  0.00000000000E+00  0.13229590409E+04  0.13229596504E+04  0.12699999809E+01 0. -1.
       -4   -1    0    0    0  501  0.00000000000E+00  0.00000000000E+00 -0.10903158698E+04  0.10903166094E+04  0.12699999809E+01 0.  1.
    10030    2    1    2    0    0  0.00000000000E+00  0.00000000000E+00  0.23264317110E+03  0.24132762598E+04  0.24020365237E+04 0.  0.
        3    1    3    3  502    0 -0.17308751677E+03 -0.53797724292E+03  0.11810285230E+04  0.13092773521E+04  0.10100000352E+00 0. -1.
       -3    1    3    3    0  502  0.17308751677E+03  0.53797724292E+03 -0.94838535191E+03  0.11039989077E+04  0.10100000352E+00 0.  1.
</event>
<event>
 5   0  0.1168435E-05  0.2402273E+04  0.7818609E-02  0.8438653E-01
       -2   -1    0    0    0  501  0.00000000000E+00  0.00000000000E+00  0.15924185977E+04  0.15924185977E+04  0.25500000920E-02 0.  1.
        2   -1    0    0  501    0  0.00000000000E+00  0.00000000000E+00 -0.90599858005E+03  0.90599858006E+03  0.25500000920E-02 0. -1.
    10030    2    1    2    0    0  0.00000000000E+00  0.00000000000E+00  0.68642001760E+03  0.24984171777E+04  0.24022730805E+04 0.  0.
        1    1    3    3  502    0  0.31090443612E+03  0.68306636027E+03 -0.63213324447E+03  0.98124087752E+03  0.50400001928E-02 0. -1.
       -1    1    3    3    0  502 -0.31090443612E+03 -0.68306636027E+03  0.13185532621E+04  0.15171763002E+04  0.50400001928E-02 0.  1.
</event>
<event>
 5   0  0.5042742E-06  0.2401614E+04  0.7818609E-02  0.8438899E-01
       -1   -1    0    0    0  501  0.00000000000E+00  0.00000000000E+00  0.90026373990E+03  0.90026373991E+03  0.50400001928E-02 0.  1.
        1   -1    0    0  501    0  0.00000000000E+00  0.00000000000E+00 -0.16016836276E+04  0.16016836276E+04  0.50400001928E-02 0. -1.
    10030    2    1    2    0    0  0.00000000000E+00  0.00000000000E+00 -0.70141988769E+03  0.25019473675E+04  0.24016142011E+04 0.  0.
        5    1    3    3  502    0 -0.69304680511E+03  0.30899078481E+03  0.61882969709E+03  0.97916365494E+03  0.46999998093E+01 0.  1.
       -5    1    3    3    0  502  0.69304680511E+03 -0.30899078481E+03 -0.13202495848E+04  0.15227837126E+04  0.46999998093E+01 0. -1.
</event>
<event>
 5   0  0.5064437E-06  0.2396742E+04  0.7818609E-02  0.8440724E-01
       -1   -1    0    0    0  501  0.00000000000E+00  0.00000000000E+00  0.62211103746E+03  0.62211103748E+03  0.50400001928E-02 0. -1.
        1   -1    0    0  501    0  0.00000000000E+00  0.00000000000E+00 -0.23084182674E+04  0.23084182674E+04  0.50400001928E-02 0.  1.
    10030    2    1    2    0    0  0.00000000000E+00  0.00000000000E+00 -0.16863072299E+04  0.29305293049E+04  0.23967415240E+04 0.  0.
        2    1    3    3  502    0 -0.68741076168E+02 -0.10494824113E+04 -0.14080707660E+03  0.10611151210E+04  0.25500000920E-02 0. -1.
       -2    1    3    3    0  502  0.68741076168E+02  0.10494824113E+04 -0.15455001533E+04  0.18694141839E+04  0.25500000920E-02 0.  1.
</event>
<event>
 5   0  0.5196696E-06  0.2405523E+04  0.7818609E-02  0.8437439E-01
       -1   -1    0    0    0  501  0.00000000000E+00  0.00000000000E+00  0.16450428144E+04  0.16450428145E+04  0.50400001928E-02 0. -1.
        1   -1    0    0  501    0  0.00000000000E+00  0.00000000000E+00 -0.87939042532E+03  0.87939042533E+03  0.50400001928E-02 0.  1.
    10030    2    1    2    0    0  0.00000000000E+00  0.00000000000E+00  0.76565238913E+03  0.25244332398E+04  0.24055227293E+04 0.  0.
        1    1    3    3  502    0 -0.68821476665E+03 -0.93266381616E+03  0.45807190977E+02  0.11599998525E+04  0.50400001928E-02 0.  1.
       -1    1    3    3    0  502  0.68821476665E+03  0.93266381616E+03  0.71984519815E+03  0.13644333873E+04  0.50400001928E-02 0. -1.
</event>
<event>
 5   0  0.1198313E-05  0.2418503E+04  0.7818609E-02  0.8432609E-01
        2   -1    0    0  501    0  0.00000000000E+00  0.00000000000E+00  0.13288515420E+04  0.13288515420E+04  0.25500000920E-02 0. -1.
       -2   -1    0    0    0  501  0.00000000000E+00  0.00000000000E+00 -0.11004153873E+04  0.11004153873E+04  0.25500000920E-02 0.  1.
    10030    2    1    2    0    0  0.00000000000E+00  0.00000000000E+00  0.22843615462E+03  0.24292669293E+04  0.24185025816E+04 0.  0.
        5    1    3    3  502    0 -0.97171557127E+03  0.57540381497E+03  0.54851489434E+03  0.12554725728E+04  0.46999998093E+01 0. -1.
       -5    1    3    3    0  502  0.97171557127E+03 -0.57540381497E+03 -0.32007873972E+03  0.11737943565E+04  0.46999998093E+01 0.  1.
</event>
<event>
 5   0  0.1198313E-05  0.2403809E+04  0.7818609E-02  0.8438079E-01
        2   -1    0    0  501    0  0.00000000000E+00  0.00000000000E+00  0.91899938278E+03  0.91899938279E+03  0.25500000920E-02 0.  1.
       -2   -1    0    0    0  501  0.00000000000E+00  0.00000000000E+00 -0.15718998318E+04  0.15718998318E+04  0.25500000920E-02 0. -1.
    10030    2    1    2    0    0  0.00000000000E+00  0.00000000000E+00 -0.65290044897E+03  0.24908992145E+04  0.24038094560E+04 0.  0.
        5    1    3    3  502    0  0.23047917109E+03 -0.27235689871E+03 -0.15157487277E+04  0.15571818212E+04  0.46999998093E+01 0. -1.
       -5    1    3    3    0  502 -0.23047917109E+03  0.27235689871E+03  0.86284827874E+03  0.93371739338E+03  0.46999998093E+01 0.  1.
</event>
<event>
 5   0  0.1154897E-05  0.2406335E+04  0.7818609E-02  0.8437136E-01
        2   -1    0    0  501    0  0.00000000000E+00  0.00000000000E+00  0.75818754853E+03  0.75818754853E+03  0.25500000920E-02 0.  1.
       -2   -1    0    0    0  501  0.00000000000E+00  0.00000000000E+00 -0.19093065398E+04  0.19093065398E+04  0.25500000920E-02 0. -1.
    10030    2    1    2    0    0  0.00000000000E+00  0.00000000000E+00 -0.11511189913E+04  0.26674940883E+04  0.24063353422E+04 0.  0.
        4    1    3    3  502    0  0.10472316920E+04  0.33718746107E+03 -0.11154728803E+04  0.15667389572E+04  0.12699999809E+01 0. -1.
       -4    1    3    3    0  502 -0.10472316920E+04 -0.33718746107E+03 -0.35646111025E+02  0.11007551311E+04  0.12699999809E+01 0.  1.
</event>
<event>
 5   0  0.5042742E-06  0.2404788E+04  0.7818609E-02  0.8437713E-01
       -1   -1    0    0    0  501  0.00000000000E+00  0.00000000000E+00  0.16780758304E+04  0.16780758304E+04  0.50400001928E-02 0. -1.
        1   -1    0    0  501    0  0.00000000000E+00  0.00000000000E+00 -0.86155277894E+03  0.86155277896E+03  0.50400001928E-02 0.  1.
    10030    2    1    2    0    0  0.00000000000E+00  0.00000000000E+00  0.81652305149E+03  0.25396286094E+04  0.24047876372E+04 0.  0.
        5    1    3    3  502    0  0.58388431680E+03 -0.95414442685E+03 -0.57388725948E+02  0.11201017983E+04  0.46999998093E+01 0.  1.
       -5    1    3    3    0  502 -0.58388431680E+03  0.95414442685E+03  0.87391177743E+03  0.14195268111E+04  0.46999998093E+01 0. -1.
</event>
<event>
 5   0  0.1169371E-05  0.2388025E+04  0.7818609E-02  0.8444000E-01
        2   -1    0    0  501    0  0.00000000000E+00  0.00000000000E+00  0.18950717911E+04  0.18950717911E+04  0.25500000920E-02 0. -1.
       -2   -1    0    0    0  501  0.00000000000E+00  0.00000000000E+00 -0.75230200257E+03  0.75230200257E+03  0.25500000920E-02 0.  1.
    10030    2    1    2    0    0  0.00000000000E+00  0.00000000000E+00  0.11427697885E+04  0.26473737937E+04  0.23880253796E+04 0.  0.
        2    1    3    3  502    0  0.11576817914E+04  0.17264799676E+03  0.83286463704E+03  0.14365576788E+04  0.25500000920E-02 0. -1.
       -2    1    3    3    0  502 -0.11576817914E+04 -0.17264799676E+03  0.30990515148E+03  0.12108161148E+04  0.25500000920E-02 0.  1.
</event>
<event>
 5   0  0.5064437E-06  0.2348090E+04  0.7818609E-02  0.8459198E-01
       -1   -1    0    0    0  501  0.00000000000E+00  0.00000000000E+00  0.12181114842E+04  0.12181114842E+04  0.50400001928E-02 0.  1.
        1   -1    0    0  501    0  0.00000000000E+00  0.00000000000E+00 -0.11315723069E+04  0.11315723069E+04  0.50400001928E-02 0. -1.
    10030    2    1    2    0    0  0.00000000000E+00  0.00000000000E+00  0.86539177296E+02  0.23496837911E+04  0.23480896254E+04 0.  0.
        2    1    3    3  502    0  0.39347178359E+03 -0.46238664571E+03 -0.96228067159E+03  0.11378073411E+04  0.25500000920E-02 0. -1.
       -2    1    3    3    0  502 -0.39347178359E+03  0.46238664571E+03  0.10488198489E+04  0.12118764500E+04  0.25500000920E-02 0.  1.
</event>
<event>
 5   0  0.1169371E-05  0.2401898E+04  0.7818609E-02  0.8438793E-01
        2   -1    0    0  501    0  0.00000000000E+00  0.00000000000E+00  0.20053295528E+04  0.20053295528E+04  0.25500000920E-02 0.  1.
       -2   -1    0    0    0  501  0.00000000000E+00  0.00000000000E+00 -0.71922277862E+03  0.71922277862E+03  0.25500000920E-02 0. -1.
    10030    2    1    2    0    0  0.00000000000E+00  0.00000000000E+00  0.12861067742E+04  0.27245523314E+04  0.24018981602E+04 0.  0.
        2    1    3    3  502    0 -0.83237948177E+03 -0.62191077108E+03  0.13261536552E+04  0.16847290957E+04  0.25500000920E-02 0.  1.
       -2    1    3    3    0  502  0.83237948177E+03  0.62191077108E+03 -0.40046880964E+02  0.10398232357E+04  0.25500000920E-02 0. -1.
</event>
<event>
 5   0  0.5042742E-06  0.2395213E+04  0.7818609E-02  0.8441298E-01
        1   -1    0    0  501    0  0.00000000000E+00  0.00000000000E+00  0.14566570256E+04  0.14566570256E+04  0.50400001928E-02 0.  1.
       -1   -1    0    0    0  501  0.00000000000E+00  0.00000000000E+00 -0.98462564464E+03  0.98462564466E+03  0.50400001928E-02 0. -1.
    10030    2    1    2    0    0  0.00000000000E+00  0.00000000000E+00  0.47203138091E+03  0.24412826702E+04  0.23952134459E+04 0.  0.
        5    1    3    3  502    0 -0.42977107673E+03 -0.10538388436E+04 -0.14392796530E+03  0.11471777700E+04  0.46999998093E+01 0.  1.
       -5    1    3    3    0  502  0.42977107673E+03  0.10538388436E+04  0.61595934621E+03  0.12941049003E+04  0.46999998093E+01 0. -1.
</event>
<event>
 5   0  0.1154897E-05  0.2432314E+04  0.7818609E-02  0.8427504E-01
       -2   -1    0    0    0  501  0.00000000000E+00  0.00000000000E+00  0.10135144795E+04  0.10135144795E+04  0.25500000920E-02 0.  1.
        2   -1    0    0  501    0  0.00000000000E+00  0.00000000000E+00 -0.14593164252E+04  0.14593164252E+04  0.25500000920E-02 0. -1.
    10030    2    1    2    0    0  0.00000000000E+00  0.00000000000E+00 -0.44580194563E+03  0.24728309047E+04  0.24323143934E+04 0.  0.
        4    1    3    3  502    0  0.11980932689E+03  0.48692360456E+03 -0.13493226495E+04  0.14394867477E+04  0.12699999809E+01 0. -1.
       -4    1    3    3    0  502 -0.11980932689E+03 -0.48692360456E+03  0.90352070389E+03  0.10333441570E+04  0.12699999809E+01 0.  1.
</event>
<event>
 5   0  0.5196696E-06  0.2393469E+04  0.7818609E-02  0.8441953E-01
        1   -1    0    0  501    0  0.00000000000E+00  0.00000000000E+00  0.10144533672E+04  0.10144533672E+04  0.50400001928E-02 0.  1.
       -1   -1    0    0    0  501  0.00000000000E+00  0.00000000000E+00 -0.14117687524E+04  0.14117687524E+04  0.50400001928E-02 0. -1.
    10030    2    1    2    0    0  0.00000000000E+00  0.00000000000E+00 -0.39731538523E+03  0.24262221196E+04  0.23934690844E+04 0.  0.
        1    1    3    3  502    0 -0.77308661496E+03  0.75742861767E+03  0.31902896191E+03  0.11283352798E+04  0.50400001928E-02 0. -1.
       -1    1    3    3    0  502  0.77308661496E+03 -0.75742861767E+03 -0.71634434715E+03  0.12978868398E+04  0.50400001928E-02 0.  1.
</event>
<event>
 5   0  0.5042742E-06  0.2409004E+04  0.7818609E-02  0.8436140E-01
        1   -1    0    0  501    0  0.00000000000E+00  0.00000000000E+00  0.72999815947E+03  0.72999815949E+03  0.50400001928E-02 0. -1.
       -1   -1    0    0    0  501  0.00000000000E+00  0.00000000000E+00 -0.19874371325E+04  0.19874371325E+04  0.50400001928E-02 0.  1.
    10030    2    1    2    0    0  0.00000000000E+00  0.00000000000E+00 -0.12574389730E+04  0.27174352919E+04  0.24090043161E+04 0.  0.
        5    1    3    3  502    0 -0.10518338655E+04 -0.54155382795E+03 -0.37355381106E+03  0.12406448198E+04  0.46999998093E+01 0.  1.
       -5    1    3    3    0  502  0.10518338655E+04  0.54155382795E+03 -0.88388516192E+03  0.14767904721E+04  0.46999998093E+01 0. -1.
</event>
<event>
 5   0  0.5196696E-06  0.2470169E+04  0.7818609E-02  0.8413691E-01
       -1   -1    0    0    0  501  0.00000000000E+00  0.00000000000E+00  0.55826002872E+03  0.55826002875E+03  0.50400001928E-02 0. -1.
        1   -1    0    0  501    0  0.00000000000E+00  0.00000000000E+00 -0.27324788276E+04  0.27324788277E+04  0.50400001928E-02 0.  1.
    10030    2    1    2    0    0  0.00000000000E+00  0.00000000000E+00 -0.21742187989E+04  0.32907388564E+04  0.24701689892E+04 0.  0.
        1    1    3    3  502    0  0.20353257914E+03  0.66927537372E+03 -0.24431201135E+04  0.25412970951E+04  0.50400001928E-02 0.  1.
       -1    1    3    3    0  502 -0.20353257914E+03 -0.66927537372E+03  0.26890131453E+03  0.74944176133E+03  0.50400001928E-02 0. -1.
</event>
<event>
 5   0  0.1169371E-05  0.2397781E+04  0.7818609E-02  0.8440335E-01
        2   -1    0    0  501    0  0.00000000000E+00  0.00000000000E+00  0.12899309123E+04  0.12899309123E+04  0.25500000920E-02 0. -1.
       -2   -1    0    0    0  501  0.00000000000E+00  0.00000000000E+00 -0.11142750910E+04  0.11142750910E+04  0.25500000920E-02 0.  1.
    10030    2    1    2    0    0  0.00000000000E+00  0.00000000000E+00  0.17565582132E+03  0.24042060033E+04  0.23977805443E+04 0.  0.
        2    1    3    3  502    0 -0.72150143356E+03  0.58423329037E+03 -0.67278582939E+03  0.11465311284E+04  0.25500000920E-02 0.  1.
       -2    1    3    3    0  502  0.72150143356E+03 -0.58423329037E+03  0.84844165071E+03  0.12576748749E+04  0.25500000920E-02 0. -1.
</event>
<event>
 5   0  0.1174210E-05  0.2397359E+04  0.7818609E-02  0.8440493E-01
        2   -1    0    0  501    0  0.00000000000E+00  0.00000000000E+00  0.98045336588E+03  0.98045336588E+03  0.25500000920E-02 0.  1.
       -2   -1    0    0    0  501  0.00000000000E+00  0.00000000000E+00 -0.14654780712E+04  0.14654780712E+04  0.25500000920E-02 0. -1.
    10030    2    1    2    0    0  0.00000000000E+00  0.00000000000E+00 -0.48502470535E+03  0.24459314371E+04  0.23973593035E+04 0.  0.
        3    1    3    3  502    0  0.10068488481E+04  0.26979568466E+03 -0.84636411834E+03  0.13427086599E+04  0.10100000352E+00 0. -1.
       -3    1    3    3    0  502 -0.10068488481E+04 -0.26979568466E+03  0.36133941299E+03  0.11032227772E+04  0.10100000352E+00 0.  1.
</event>
<event>
 5   0  0.5042742E-06  0.2385212E+04  0.7818609E-02  0.8445061E-01
        1   -1    0    0  501    0  0.00000000000E+00  0.00000000000E+00  0.12953905536E+04  0.12953905536E+04  0.50400001928E-02 0.  1.
       -1   -1    0    0    0  501  0.00000000000E+00  0.00000000000E+00 -0.10979773934E+04  0.10979773934E+04  0.50400001928E-02 0. -1.
    10030    2    1    2    0    0  0.00000000000E+00  0.00000000000E+00  0.19741316016E+03  0.23933679470E+04  0.23852123960E+04 0.  0.
        5    1    3    3  502    0 -0.26007921550E+03 -0.16820998940E+03  0.12543178126E+04  0.12920027337E+04  0.46999998093E+01 0.  1.
       -5    1    3    3    0  502  0.26007921550E+03  0.16820998940E+03 -0.10569046524E+04  0.11013652133E+04  0.46999998093E+01 0. -1.
</event>
<event>
 5   0  0.1198313E-05  0.2384564E+04  0.7818609E-02  0.8445305E-01
        2   -1    0    0  501    0  0.00000000000E+00  0.00000000000E+00  0.16399143104E+04  0.16399143104E+04  0.25500000920E-02 0. -1.
       -2   -1    0    0    0  501  0.00000000000E+00  0.00000000000E+00 -0.86683570175E+03  0.86683570176E+03  0.25500000920E-02 0.  1.
    10030    2    1    2    0    0  0.00000000000E+00  0.00000000000E+00  0.77307860861E+03  0.25067500121E+04  0.23845639199E+04 0.  0.
        5    1    3    3  502    0  0.40911387600E+03 -0.10104431519E+04  0.89413132834E+03  0.14099157595E+04  0.46999998093E+01 0. -1.
       -5    1    3    3    0  502 -0.40911387600E+03  0.10104431519E+04 -0.12105271973E+03  0.10968342526E+04  0.46999998093E+01 0.  1.
</event>
<event>
 5   0  0.1198313E-05  0.2380972E+04  0.7818609E-02  0.8446662E-01
       -2   -1    0    0    0  501  0.00000000000E+00  0.00000000000E+00  0.17605940998E+04  0.17605940998E+04  0.25500000920E-02 0. -1.
        2   -1    0    0  501    0  0.00000000000E+00  0.00000000000E+00 -0.80498811465E+03  0.80498811465E+03  0.25500000920E-02 0.  1.
    10030    2    1    2    0    0  0.00000000000E+00  0.00000000000E+00  0.95560598513E+03  0.25655822144E+04  0.23809723434E+04 0.  0.
        5    1    3    3  502    0  0.85481120502E+03 -0.26840191625E+03 -0.36687312385E+03  0.96817341622E+03  0.46999998093E+01 0.  1.
       -5    1    3    3    0  502 -0.85481120502E+03  0.26840191625E+03  0.13224791090E+04  0.15974087982E+04  0.46999998093E+01 0. -1.
</event>
<event>
 5   0  0.1198313E-05  0.2407949E+04  0.7818609E-02  0.8436533E-01
       -2   -1    0    0    0  501  0.00000000000E+00  0.00000000000E+00  0.78532623317E+03  0.78532623318E+03  0.25500000920E-02 0. -1.
        2   -1    0    0  501    0  0.00000000000E+00  0.00000000000E+00 -0.18457998804E+04  0.18457998804E+04  0.25500000920E-02 0.  1.
    10030    2    1    2    0    0  0.00000000000E+00  0.00000000000E+00 -0.10604736472E+04  0.26311261135E+04  0.24079493909E+04 0.  0.
        5    1    3    3  502    0 -0.26876784714E+03 -0.80484538035E+03 -0.14635193404E+04  0.16917219605E+04  0.46999998093E+01 0.  1.
       -5    1    3    3    0  502  0.26876784714E+03  0.80484538035E+03  0.40304569322E+03  0.93940415304E+03  0.46999998093E+01 0. -1.
</event>
<event>
 5   0  0.5196696E-06  0.2400577E+04  0.7818609E-02  0.8439288E-01
        1   -1    0    0  501    0  0.00000000000E+00  0.00000000000E+00  0.12065982948E+04  0.12065982948E+04  0.50400001928E-02 0.  1.
       -1   -1    0    0    0  501  0.00000000000E+00  0.00000000000E+00 -0.11940117703E+04  0.11940117703E+04  0.50400001928E-02 0. -1.
    10030    2    1    2    0    0  0.00000000000E+00  0.00000000000E+00  0.12586524446E+02  0.24006100651E+04  0.24005770690E+04 0.  0.
        1    1    3    3  502    0  0.11774472646E+04  0.67332321129E+02 -0.21681709589E+03  0.11991352532E+04  0.50400001928E-02 0. -1.
       -1    1    3    3    0  502 -0.11774472646E+04 -0.67332321129E+02  0.22940362033E+03  0.12014748119E+04  0.50400001928E-02 0.  1.
</event>
<event>
 5   0  0.1154897E-05  0.2387621E+04  0.7818609E-02  0.8444153E-01
        2   -1    0    0  501    0  0.00000000000E+00  0.00000000000E+00  0.21249117391E+04  0.21249117391E+04  0.25500000920E-02 0. -1.
       -2   -1    0    0    0  501  0.00000000000E+00  0.00000000000E+00 -0.67070255631E+03  0.67070255632E+03  0.25500000920E-02 0.  1.
    10030    2    1    2    0    0  0.00000000000E+00  0.00000000000E+00  0.14542091828E+04  0.27956142954E+04  0.23876211889E+04 0.  0.
        4    1    3    3  502    0  0.49113231444E+03 -0.60257084993E+03  0.17879486408E+04  0.19496318972E+04  0.12699999809E+01 0. -1.
       -4    1    3    3    0  502 -0.49113231444E+03  0.60257084993E+03 -0.33373945798E+03  0.84598239827E+03  0.12699999809E+01 0.  1.
</event>
<event>
 5   0  0.5196696E-06  0.2409899E+04  0.7818609E-02  0.8435807E-01
        1   -1    0    0  501    0  0.00000000000E+00  0.00000000000E+00  0.17877558802E+04  0.17877558802E+04  0.50400001928E-02 0.  1.
       -1   -1    0    0    0  501  0.00000000000E+00  0.00000000000E+00 -0.81213709904E+03  0.81213709905E+03  0.50400001928E-02 0. -1.
    10030    2    1    2    0    0  0.00000000000E+00  0.00000000000E+00  0.97561878115E+03  0.25998929793E+04  0.24098986488E+04 0.  0.
        1    1    3    3  502    0 -0.59647450084E+03  0.49894386432E+03 -0.50517753795E+03  0.92732472995E+03  0.50400001928E-02 0. -1.
       -1    1    3    3    0  502  0.59647450084E+03 -0.49894386432E+03  0.14807963191E+04  0.16725682493E+04  0.50400001928E-02 0.  1.
</event>
<event>
 5   0  0.5104174E-06  0.2390492E+04  0.7818609E-02  0.8443072E-01
        1   -1    0    0  501    0  0.00000000000E+00  0.00000000000E+00  0.15183774550E+04  0.15183774550E+04  0.50400001928E-02 0. -1.
       -1   -1    0    0    0  501  0.00000000000E+00  0.00000000000E+00 -0.94088167196E+03  0.94088167197E+03  0.50400001928E-02 0.  1.
    10030    2    1    2    0    0  0.00000000000E+00  0.00000000000E+00  0.57749578302E+03  0.24592591270E+04  0.23904924334E+04 0.  0.
        3    1    3    3  502    0  0.94642141672E+02  0.90917207915E+03  0.10810068376E+04  0.14156718538E+04  0.10100000352E+00 0. -1.
       -3    1    3    3    0  502 -0.94642141672E+02 -0.90917207915E+03 -0.50351105456E+03  0.10435872732E+04  0.10100000352E+00 0.  1.
</event>
<event>
 5   0  0.5064437E-06  0.2411395E+04  0.7818609E-02  0.8435250E-01
       -1   -1    0    0    0  501  0.00000000000E+00  0.00000000000E+00  0.72063794898E+03  0.72063794900E+03  0.50400001928E-02 0. -1.
        1   -1    0    0  501    0  0.00000000000E+00  0.00000000000E+00 -0.20172500125E+04  0.20172500125E+04  0.50400001928E-02 0.  1.
    10030    2    1    2    0    0  0.00000000000E+00  0.00000000000E+00 -0.12966120635E+04  0.27378879615E+04  0.24113953733E+04 0.  0.
        2    1    3    3  502    0  0.10704155127E+04  0.22848929775E+03 -0.12224505993E+04  0.16408480115E+04  0.25500000920E-02 0.  1.
       -2    1    3    3    0  502 -0.10704155127E+04 -0.22848929775E+03 -0.74161464164E+02  0.10970399500E+04  0.25500000920E-02 0. -1.
</event>
<event>
 5   0  0.1154897E-05  0.2389974E+04  0.7818609E-02  0.8443267E-01
        2   -1    0    0  501    0  0.00000000000E+00  0.00000000000E+00  0.12227300653E+04  0.12227300653E+04  0.25500000920E-02 0. -1.
       -2   -1    0    0    0  501  0.00000000000E+00  0.00000000000E+00 -0.11678738011E+04  0.11678738011E+04  0.25500000920E-02 0.  1.
    10030    2    1    2    0    0  0.00000000000E+00  0.00000000000E+00  0.54856264242E+02  0.23906038664E+04  0.23899744008E+04 0.  0.
        4    1    3    3  502    0 -0.98209672899E+03 -0.52878239306E+02 -0.65148673870E+03  0.11797231357E+04  0.12699999809E+01 0. -1.
       -4    1    3    3    0  502  0.98209672899E+03  0.52878239306E+02  0.70634300294E+03  0.12108807307E+04  0.12699999809E+01 0.  1.
</event>
<event>
 5   0  0.5034479E-06  0.2408354E+04  0.7818609E-02  0.8436383E-01
       -1   -1    0    0    0  501  0.00000000000E+00  0.00000000000E+00  0.87934680231E+03  0.87934680232E+03  0.50400001928E-02 0.  1.
        1   -1    0    0  501    0  0.00000000000E+00  0.00000000000E+00 -0.16489990812E+04  0.16489990812E+04  0.50400001928E-02 0. -1.
    10030    2    1    2    0    0  0.00000000000E+00  0.00000000000E+00 -0.76965227893E+03  0.25283458836E+04  0.24083538520E+04 0.  0.
        4    1    3    3  502    0 -0.15644300176E+03  0.85575884144E+03 -0.12589216476E+04  0.15302558398E+04  0.12699999809E+01 0. -1.
       -4    1    3    3    0  502  0.15644300176E+03 -0.85575884144E+03  0.48926936866E+03  0.99809004379E+03  0.12699999809E+01 0.  1.
</event>
<event>
 5   0  0.5104174E-06  0.2402274E+04  0.7818609E-02  0.8438653E-01
       -1   -1    0    0    0  501  0.00000000000E+00  0.00000000000E+00  0.84067538938E+03  0.84067538939E+03  0.50400001928E-02 0. -1.
        1   -1    0    0  501    0  0.00000000000E+00  0.00000000000E+00 -0.17161560532E+04  0.17161560532E+04  0.50400001928E-02 0.  1.
    10030    2    1    2    0    0  0.00000000000E+00  0.00000000000E+00 -0.87548066380E+03  0.25568314426E+04  0.24022740545E+04 0.  0.
        3    1    3    3  502    0  0.63969850088E+03 -0.73412491220E+03 -0.11862481231E+04  0.15347111059E+04  0.10100000352E+00 0. -1.
       -3    1    3    3    0  502 -0.63969850088E+03  0.73412491220E+03  0.31076745930E+03  0.10221203367E+04  0.10100000352E+00 0.  1.
</event>
<event>
 5   0  0.1168435E-05  0.2392187E+04  0.7818609E-02  0.8442435E-01
        2   -1    0    0  501    0  0.00000000000E+00  0.00000000000E+00  0.20144560135E+04  0.20144560136E+04  0.25500000920E-02 0.  1.
       -2   -1    0    0    0  501  0.00000000000E+00  0.00000000000E+00 -0.71018642999E+03  0.71018643000E+03  0.25500000920E-02 0. -1.
    10030    2    1    2    0    0  0.00000000000E+00  0.00000000000E+00  0.13042695836E+04  0.27246424436E+04  0.23921867190E+04 0.  0.
        1    1    3    3  502    0 -0.67811195834E+02 -0.29042914912E+03  0.19714265146E+04  0.19938580570E+04  0.50400001928E-02 0.  1.
       -1    1    3    3    0  502  0.67811195834E+02  0.29042914912E+03 -0.66715693106E+03  0.73078438655E+03  0.50400001928E-02 0. -1.
</event>
<event>
 5   0  0.1198313E-05  0.2397482E+04  0.7818609E-02  0.8440447E-01
        2   -1    0    0  501    0  0.00000000000E+00  0.00000000000E+00  0.14667016871E+04  0.14667016871E+04  0.25500000920E-02 0.  1.
       -2   -1    0    0    0  501  0.00000000000E+00  0.00000000000E+00 -0.97973555575E+03  0.97973555576E+03  0.25500000920E-02 0. -1.
    10030    2    1    2    0    0  0.00000000000E+00  0.00000000000E+00  0.48696613131E+03  0.24464372428E+04  0.23974818394E+04 0.  0.
        5    1    3    3  502    0  0.19583693246E+03 -0.17669649658E+03 -0.94974646182E+03  0.98570491921E+03  0.46999998093E+01 0. -1.
       -5    1    3    3    0  502 -0.19583693246E+03  0.17669649658E+03  0.14367125931E+04  0.14607323236E+04  0.46999998093E+01 0.  1.
</event>
<event>
 5   0  0.5034479E-06  0.2392166E+04  0.7818609E-02  0.8442442E-01
        1   -1    0    0  501    0  0.00000000000E+00  0.00000000000E+00  0.17983380457E+04  0.17983380457E+04  0.50400001928E-02 0.  1.
       -1   -1    0    0    0  501  0.00000000000E+00  0.00000000000E+00 -0.79552039495E+03  0.79552039497E+03  0.50400001928E-02 0. -1.
    10030    2    1    2    0    0  0.00000000000E+00  0.00000000000E+00  0.10028176508E+04  0.25938584407E+04  0.23921660414E+04 0.  0.
        4    1    3    3  502    0  0.74898589951E+03 -0.88503548082E+03  0.18278789595E+03  0.11737464410E+04  0.12699999809E+01 0. -1.
       -4    1    3    3    0  502 -0.74898589951E+03  0.88503548082E+03  0.82002975483E+03  0.14201119997E+04  0.12699999809E+01 0.  1.
</event>
<event>
 5   0  0.1154897E-05  0.2403413E+04  0.7818609E-02  0.8438227E-01
       -2   -1    0    0    0  501  0.00000000000E+00  0.00000000000E+00  0.17086737826E+04  0.17086737826E+04  0.25500000920E-02 0.  1.
        2   -1    0    0  501    0  0.00000000000E+00  0.00000000000E+00 -0.84515760027E+03  0.84515760028E+03  0.25500000920E-02 0. -1.
    10030    2    1    2    0    0  0.00000000000E+00  0.00000000000E+00  0.86351618236E+03  0.25538313829E+04  0.24034131012E+04 0.  0.
        4    1    3    3  502    0 -0.81110652239E+03  0.54395750544E+03  0.11758056638E+04  0.15284973439E+04  0.12699999809E+01 0. -1.
       -4    1    3    3    0  502  0.81110652239E+03 -0.54395750544E+03 -0.31228948146E+03  0.10253340390E+04  0.12699999809E+01 0.  1.
</event>
<event>
 5   0  0.1169371E-05  0.2398378E+04  0.7818609E-02  0.8440111E-01
        2   -1    0    0  501    0  0.00000000000E+00  0.00000000000E+00  0.10545849487E+04  0.10545849487E+04  0.25500000920E-02 0.  1.
       -2   -1    0    0    0  501  0.00000000000E+00  0.00000000000E+00 -0.13636209502E+04  0.13636209502E+04  0.25500000920E-02 0. -1.
    10030    2    1    2    0    0  0.00000000000E+00  0.00000000000E+00 -0.30903600144E+03  0.24182058989E+04  0.23983778933E+04 0.  0.
        2    1    3    3  502    0 -0.15049532765E+03 -0.11491193839E+04 -0.46517220731E+03  0.12488031809E+04  0.25500000920E-02 0. -1.
       -2    1    3    3    0  502  0.15049532765E+03  0.11491193839E+04  0.15613620587E+03  0.11694027180E+04  0.25500000920E-02 0.  1.
</event>
<event>
 5   0  0.5196696E-06  0.2415149E+04  0.7818609E-02  0.8433854E-01
       -1   -1    0    0    0  501  0.00000000000E+00  0.00000000000E+00  0.29971695583E+04  0.29971695583E+04  0.50400001928E-02 0.  1.
        1   -1    0    0  501    0  0.00000000000E+00  0.00000000000E+00 -0.48653787901E+03  0.48653787904E+03  0.50400001928E-02 0. -1.
    10030    2    1    2    0    0  0.00000000000E+00  0.00000000000E+00  0.25106316793E+04  0.34837074373E+04  0.24151492873E+04 0.  0.
        1    1    3    3  502    0 -0.10649577762E+04  0.47616945907E+03  0.80522816096E+03  0.14174853827E+04  0.50400001928E-02 0. -1.
       -1    1    3    3    0  502  0.10649577762E+04 -0.47616945907E+03  0.17054035183E+04  0.20662220547E+04  0.50400001928E-02 0.  1.
</event>
<event>
 5   0  0.1169371E-05  0.2379193E+04  0.7818609E-02  0.8447335E-01
       -2   -1    0    0    0  501  0.00000000000E+00  0.00000000000E+00  0.72323731973E+03  0.72323731973E+03  0.25500000920E-02 0. -1.
        2   -1    0    0  501    0  0.00000000000E+00  0.00000000000E+00 -0.19566740281E+04  0.19566740281E+04  0.25500000920E-02 0.  1.
    10030    2    1    2    0    0  0.00000000000E+00  0.00000000000E+00 -0.12334367083E+04  0.26799113478E+04  0.23791928712E+04 0.  0.
        2    1    3    3  502    0 -0.30838132062E+03 -0.63331830595E+03  0.46306438184E+03  0.84298264353E+03  0.25500000920E-02 0. -1.
       -2    1    3    3    0  502  0.30838132062E+03  0.63331830595E+03 -0.16965010902E+04  0.18369287043E+04  0.25500000920E-02 0.  1.
</event>
<event>
 5   0  0.5064437E-06  0.2403649E+04  0.7818609E-02  0.8438139E-01
       -1   -1    0    0    0  501  0.00000000000E+00  0.00000000000E+00  0.11696814203E+04  0.11696814204E+04  0.50400001928E-02 0.  1.
        1   -1    0    0  501    0  0.00000000000E+00  0.00000000000E+00 -0.12348507932E+04  0.12348507933E+04  0.50400001928E-02 0. -1.
    10030    2    1    2    0    0  0.00000000000E+00  0.00000000000E+00 -0.65169372899E+02  0.24045322136E+04  0.24036489176E+04 0.  0.
        2    1    3    3  502    0  0.10408026153E+04  0.23337804501E+03  0.52137564533E+03  0.11872522728E+04  0.25500000920E-02 0.  1.
       -2    1    3    3    0  502 -0.10408026153E+04 -0.23337804501E+03 -0.58654501823E+03  0.12172799408E+04  0.25500000920E-02 0. -1.
</event>
<event>
 5   0  0.5034479E-06  0.2397418E+04  0.7818609E-02  0.8440471E-01
        1   -1    0    0  501    0  0.00000000000E+00  0.00000000000E+00  0.22293755400E+04  0.22293755400E+04  0.50400001928E-02 0.  1.
       -1   -1    0    0    0  501  0.00000000000E+00  0.00000000000E+00 -0.64453181137E+03  0.64453181139E+03  0.50400001928E-02 0. -1.
    10030    2    1    2    0    0  0.00000000000E+00  0.00000000000E+00  0.15848437286E+04  0.28739073514E+04  0.23974181571E+04 0.  0.
        4    1    3    3  502    0 -0.77722614698E+03 -0.73132439327E+03  0.14467971617E+04  0.17978151995E+04  0.12699999809E+01 0. -1.
       -4    1    3    3    0  502  0.77722614698E+03  0.73132439327E+03  0.13804656695E+03  0.10760921519E+04  0.12699999809E+01 0.  1.
</event>
<event>
 5   0  0.1168435E-05  0.2397406E+04  0.7818609E-02  0.8440476E-01
        2   -1    0    0  501    0  0.00000000000E+00  0.00000000000E+00  0.24779503100E+04  0.24779503100E+04  0.25500000920E-02 0.  1.
       -2   -1    0    0    0  501  0.00000000000E+00  0.00000000000E+00 -0.57986970320E+03  0.57986970321E+03  0.25500000920E-02 0. -1.
    10030    2    1    2    0    0  0.00000000000E+00  0.00000000000E+00  0.18980806068E+04  0.30578200132E+04  0.23974055233E+04 0.  0.
        1    1    3    3  502    0  0.74392062320E+03 -0.81861204300E+03  0.15381706407E+04  0.18946008789E+04  0.50400001928E-02 0.  1.
       -1    1    3    3    0  502 -0.74392062320E+03  0.81861204300E+03  0.35990996607E+03  0.11632191342E+04  0.50400001928E-02 0. -1.
</event>
<event>
 5   0  0.1169371E-05  0.2408830E+04  0.7818609E-02  0.8436205E-01
        2   -1    0    0  501    0  0.00000000000E+00  0.00000000000E+00  0.25198975413E+04  0.25198975413E+04  0.25500000920E-02 0.  1.
       -2   -1    0    0    0  501  0.00000000000E+00  0.00000000000E+00 -0.57566463872E+03  0.57566463872E+03  0.25500000920E-02 0. -1.
    10030    2    1    2    0    0  0.00000000000E+00  0.00000000000E+00  0.19442329026E+04  0.30955621800E+04  0.24088303450E+04 0.  0.
        2    1    3    3  502    0 -0.28244684305E+03  0.95261243814E+03  0.97340339964E+02  0.99835956361E+03  0.25500000920E-02 0. -1.
       -2    1    3    3    0  502  0.28244684305E+03 -0.95261243814E+03  0.18468925626E+04  0.20972026164E+04  0.25500000920E-02 0.  1.
</event>
<event>
 5   0  0.5196696E-06  0.2395015E+04  0.7818609E-02  0.8441372E-01
        1   -1    0    0  501    0  0.00000000000E+00  0.00000000000E+00  0.16373539543E+04  0.16373539543E+04  0.50400001928E-02 0. -1.
       -1   -1    0    0    0  501  0.00000000000E+00  0.00000000000E+00 -0.87581839438E+03  0.87581839440E+03  0.50400001928E-02 0.  1.
    10030    2    1    2    0    0  0.00000000000E+00  0.00000000000E+00  0.76153555991E+03  0.25131723487E+04  0.23950154165E+04 0.  0.
        1    1    3    3  502    0  0.48998880138E+03 -0.10502962247E+04  0.69698770331E+03  0.13524063900E+04  0.50400001928E-02 0. -1.
       -1    1    3    3    0  502 -0.48998880138E+03  0.10502962247E+04  0.64547856605E+02  0.11607659587E+04  0.50400001928E-02 0.  1.
</event>
<event>
 5   0  0.5064437E-06  0.2395039E+04  0.7818609E-02  0.8441363E-01
       -1   -1    0    0    0  501  0.00000000000E+00  0.00000000000E+00  0.70314698810E+03  0.70314698812E+03  0.50400001928E-02 0.  1.
        1   -1    0    0  501    0  0.00000000000E+00  0.00000000000E+00 -0.20394779074E+04  0.20394779074E+04  0.50400001928E-02 0. -1.
    10030    2    1    2    0    0  0.00000000000E+00  0.00000000000E+00 -0.13363309193E+04  0.27426248955E+04  0.23950388288E+04 0.  0.
        2    1    3    3  502    0  0.11036556458E+04  0.42932112100E+03 -0.87198638140E+03  0.14706232212E+04  0.25500000920E-02 0. -1.
       -2    1    3    3    0  502 -0.11036556458E+04 -0.42932112100E+03 -0.46434453786E+03  0.12720016743E+04  0.25500000920E-02 0.  1.
</event>
<event>
 5   0  0.1168435E-05  0.2405383E+04  0.7818609E-02  0.8437491E-01
        2   -1    0    0  501    0  0.00000000000E+00  0.00000000000E+00  0.15435381755E+04  0.15435381755E+04  0.25500000920E-02 0.  1.
       -2   -1    0    0    0  501  0.00000000000E+00  0.00000000000E+00 -0.93711117562E+03  0.93711117562E+03  0.25500000920E-02 0. -1.
    10030    2    1    2    0    0  0.00000000000E+00  0.00000000000E+00  0.60642699984E+03  0.24806493511E+04  0.24053830250E+04 0.  0.
        1    1    3    3  502    0  0.34867003375E+03  0.45376027486E+03  0.13941406082E+04  0.15070159969E+04  0.50400001928E-02 0.  1.
       -1    1    3    3    0  502 -0.34867003375E+03 -0.45376027486E+03 -0.78771360838E+03  0.97363335416E+03  0.50400001928E-02 0. -1.
</event>
<event>
 5   0  0.5064437E-06  0.2388157E+04  0.7818609E-02  0.8443951E-01
       -1   -1    0    0    0  501  0.00000000000E+00  0.00000000000E+00  0.10452346942E+04  0.10452346942E+04  0.50400001928E-02 0.  1.
        1   -1    0    0  501    0  0.00000000000E+00  0.00000000000E+00 -0.13641179755E+04  0.13641179755E+04  0.50400001928E-02 0. -1.
    10030    2    1    2    0    0  0.00000000000E+00  0.00000000000E+00 -0.31888328126E+03  0.24093526697E+04  0.23881569756E+04 0.  0.
        2    1    3    3  502    0  0.31596377512E+03 -0.97921799962E+03  0.45184227488E+03  0.11237715245E+04  0.25500000920E-02 0.  1.
       -2    1    3    3    0  502 -0.31596377512E+03  0.97921799962E+03 -0.77072555613E+03  0.12855811452E+04  0.25500000920E-02 0. -1.
</event>
<event>
 5   0  0.5104174E-06  0.2396590E+04  0.7818609E-02  0.8440781E-01
        1   -1    0    0  501    0  0.00000000000E+00  0.00000000000E+00  0.82529046129E+03  0.82529046130E+03  0.50400001928E-02 0.  1.
       -1   -1    0    0    0  501  0.00000000000E+00  0.00000000000E+00 -0.17398855061E+04  0.17398855061E+04  0.50400001928E-02 0. -1.
    10030    2    1    2    0    0  0.00000000000E+00  0.00000000000E+00 -0.91459504485E+03  0.25651759674E+04  0.23965900041E+04 0.  0.
        3    1    3    3  502    0  0.92657187570E+03  0.75874822959E+03 -0.41347108085E+03  0.12669619811E+04  0.10100000352E+00 0. -1.
       -3    1    3    3    0  502 -0.92657187570E+03 -0.75874822959E+03 -0.50112396400E+03  0.12982139863E+04  0.10100000352E+00 0.  1.
</event>
<event>
 5   0  0.1154897E-05  0.2398711E+04  0.7818609E-02  0.8439986E-01
       -2   -1    0    0    0  501  0.00000000000E+00  0.00000000000E+00  0.10321097879E+04  0.10321097879E+04  0.25500000920E-02 0.  1.
        2   -1    0    0  501    0  0.00000000000E+00  0.00000000000E+00 -0.13937017288E+04  0.13937017288E+04  0.25500000920E-02 0. -1.
    10030    2    1    2    0    0  0.00000000000E+00  0.00000000000E+00 -0.36159194096E+03  0.24258115167E+04  0.23987106501E+04 0.  0.
        4    1    3    3  502    0 -0.79449197648E+03 -0.32573354034E+03  0.66600043344E+03  0.10866821201E+04  0.12699999809E+01 0. -1.
       -4    1    3    3    0  502  0.79449197648E+03  0.32573354034E+03 -0.10275923744E+04  0.13391293966E+04  0.12699999809E+01 0.  1.
</event>
<event>
 5   0  0.1154897E-05  0.2435269E+04  0.7818609E-02  0.8426416E-01
       -2   -1    0    0    0  501  0.00000000000E+00  0.00000000000E+00  0.48178787135E+03  0.48178787135E+03  0.25500000920E-02 0. -1.
        2   -1    0    0  501    0  0.00000000000E+00  0.00000000000E+00 -0.30773576085E+04  0.30773576085E+04  0.25500000920E-02 0.  1.
    10030    2    1    2    0    0  0.00000000000E+00  0.00000000000E+00 -0.25955697372E+04  0.35591454799E+04  0.24352688325E+04 0.  0.
        4    1    3    3  502    0  0.14254358569E+03 -0.11463692522E+04 -0.18603215711E+04  0.21898125712E+04  0.12699999809E+01 0.  1.
       -4    1    3    3    0  502 -0.14254358569E+03  0.11463692522E+04 -0.73524816611E+03  0.13693329087E+04  0.12699999809E+01 0. -1.
</event>
<event>
 5   0  0.1154897E-05  0.2303090E+04  0.7818609E-02  0.8476704E-01
        2   -1    0    0  501    0  0.00000000000E+00  0.00000000000E+00  0.11483490833E+04  0.11483490833E+04  0.25500000920E-02 0. -1.
       -2   -1    0    0    0  501  0.00000000000E+00  0.00000000000E+00 -0.11547499198E+04  0.11547499198E+04  0.25500000920E-02 0.  1.
    10030    2    1    2    0    0  0.00000000000E+00  0.00000000000E+00 -0.64008365234E+01  0.23030990031E+04  0.23030901084E+04 0.  0.
        4    1    3    3  502    0  0.10232165053E+04  0.52261261696E+03 -0.80391615254E+02  0.11517640335E+04  0.12699999809E+01 0.  1.
       -4    1    3    3    0  502 -0.10232165053E+04 -0.52261261696E+03  0.73990778731E+02  0.11513349697E+04  0.12699999809E+01 0. -1.
</event>
<event>
 5   0  0.1174210E-05  0.2393550E+04  0.7818609E-02  0.8441922E-01
       -2   -1    0    0    0  501  0.00000000000E+00  0.00000000000E+00  0.68911340620E+03  0.68911340620E+03  0.25500000920E-02 0. -1.
        2   -1    0    0  501    0  0.00000000000E+00  0.00000000000E+00 -0.20784244084E+04  0.20784244084E+04  0.25500000920E-02 0.  1.
    10030    2    1    2    0    0  0.00000000000E+00  0.00000000000E+00 -0.13893110022E+04  0.27675378146E+04  0.23935497685E+04 0.  0.
        3    1    3    3  502    0  0.53036108494E+03  0.10126041295E+04 -0.28484726164E+03  0.11780441317E+04  0.10100000352E+00 0. -1.
       -3    1    3    3    0  502 -0.53036108494E+03 -0.10126041295E+04 -0.11044637406E+04  0.15894936829E+04  0.10100000352E+00 0.  1.
</event>
<event>
 5   0  0.5196696E-06  0.2349196E+04  0.7818609E-02  0.8458773E-01
       -1   -1    0    0    0  501  0.00000000000E+00  0.00000000000E+00  0.92852856100E+03  0.92852856101E+03  0.50400001928E-02 0.  1.
        1   -1    0    0  501    0  0.00000000000E+00  0.00000000000E+00 -0.14858778425E+04  0.14858778425E+04  0.50400001928E-02 0. -1.
    10030    2    1    2    0    0  0.00000000000E+00  0.00000000000E+00 -0.55734928147E+03  0.24144064035E+04  0.23491956197E+04 0.  0.
        1    1    3    3  502    0 -0.69168336694E+03 -0.56218191134E+03  0.50754780983E+03  0.10257091015E+04  0.50400001928E-02 0.  1.
       -1    1    3    3    0  502  0.69168336694E+03  0.56218191134E+03 -0.10648970913E+04  0.13886973020E+04  0.50400001928E-02 0. -1.
</event>
<event>
 5   0  0.1169371E-05  0.2418347E+04  0.7818609E-02  0.8432667E-01
       -2   -1    0    0    0  501  0.00000000000E+00  0.00000000000E+00  0.90614790447E+03  0.90614790447E+03  0.25500000920E-02 0. -1.
        2   -1    0    0  501    0  0.00000000000E+00  0.00000000000E+00 -0.16135337925E+04  0.16135337925E+04  0.25500000920E-02 0.  1.
    10030    2    1    2    0    0  0.00000000000E+00  0.00000000000E+00 -0.70738588798E+03  0.25196816969E+04  0.24183467616E+04 0.  0.
        2    1    3    3  502    0  0.46245494251E+03 -0.37449355847E+03  0.74302533053E+03  0.95194361230E+03  0.25500000920E-02 0. -1.
       -2    1    3    3    0  502 -0.46245494251E+03  0.37449355847E+03 -0.14504112185E+04  0.15677380846E+04  0.25500000920E-02 0.  1.
</event>
<event>
 5   0  0.1168435E-05  0.2404814E+04  0.7818609E-02  0.8437703E-01
        2   -1    0    0  501    0  0.00000000000E+00  0.00000000000E+00  0.10030593124E+04  0.10030593124E+04  0.25500000920E-02 0.  1.
       -2   -1    0    0    0  501  0.00000000000E+00  0.00000000000E+00 -0.14413729840E+04  0.14413729840E+04  0.25500000920E-02 0. -1.
    10030    2    1    2    0    0  0.00000000000E+00  0.00000000000E+00 -0.43831367153E+03  0.24444322964E+04  0.24048140005E+04 0.  0.
        1    1    3    3  502    0 -0.39175958460E+03  0.67674335245E+03 -0.11476191249E+04  0.13886996771E+04  0.50400001928E-02 0. -1.
       -1    1    3    3    0  502  0.39175958460E+03 -0.67674335245E+03  0.70930545340E+03  0.10557326193E+04  0.50400001928E-02 0.  1.
</event>
<event>
 5   0  0.5064437E-06  0.2399153E+04  0.7818609E-02  0.8439821E-01
       -1   -1    0    0    0  501  0.00000000000E+00  0.00000000000E+00  0.10199525525E+04  0.10199525526E+04  0.50400001928E-02 0. -1.
        1   -1    0    0  501    0  0.00000000000E+00  0.00000000000E+00 -0.14108346221E+04  0.14108346221E+04  0.50400001928E-02 0.  1.
    10030    2    1    2    0    0  0.00000000000E+00  0.00000000000E+00 -0.39088206956E+03  0.24307871747E+04  0.23991534958E+04 0.  0.
        2    1    3    3  502    0 -0.62774059718E+03  0.10149135481E+04 -0.31901894348E+03  0.12352654993E+04  0.25500000920E-02 0.  1.
       -2    1    3    3    0  502  0.62774059718E+03 -0.10149135481E+04 -0.71863126082E+02  0.11955216754E+04  0.25500000920E-02 0. -1.
</event>
<event>
 5   0  0.5064437E-06  0.2394632E+04  0.7818609E-02  0.8441516E-01
        1   -1    0    0  501    0  0.00000000000E+00  0.00000000000E+00  0.15465308739E+04  0.15465308739E+04  0.50400001928E-02 0. -1.
       -1   -1    0    0    0  501  0.00000000000E+00  0.00000000000E+00 -0.92695596413E+03  0.92695596414E+03  0.50400001928E-02 0.  1.
    10030    2    1    2    0    0  0.00000000000E+00  0.00000000000E+00  0.61957490974E+03  0.24734868380E+04  0.23946323453E+04 0.  0.
        2    1    3    3  502    0  0.72531669065E+03  0.35807480364E+03  0.12216158407E+04  0.14651440643E+04  0.25500000920E-02 0. -1.
       -2    1    3    3    0  502 -0.72531669065E+03 -0.35807480364E+03 -0.60204093100E+03  0.10083427737E+04  0.25500000920E-02 0.  1.
</event>
<event>
 5   0  0.1154897E-05  0.2400494E+04  0.7818609E-02  0.8439318E-01
       -2   -1    0    0    0  501  0.00000000000E+00  0.00000000000E+00  0.79394359118E+03  0.79394359118E+03  0.25500000920E-02 0. -1.
        2   -1    0    0  501    0  0.00000000000E+00  0.00000000000E+00 -0.18144782206E+04  0.18144782206E+04  0.25500000920E-02 0.  1.
    10030    2    1    2    0    0  0.00000000000E+00  0.00000000000E+00 -0.10205346294E+04  0.26084218118E+04  0.24004944112E+04 0.  0.
        4    1    3    3  502    0 -0.64336838376E+03  0.10474751534E+03  0.58484628137E+03  0.87575207960E+03  0.12699999809E+01 0. -1.
       -4    1    3    3    0  502  0.64336838376E+03 -0.10474751534E+03 -0.16053809108E+04  0.17326697322E+04  0.12699999809E+01 0.  1.
</event>
<event>
 5   0  0.1154897E-05  0.2395451E+04  0.7818609E-02  0.8441208E-01
       -2   -1    0    0    0  501  0.00000000000E+00  0.00000000000E+00  0.14691985298E+04  0.14691985298E+04  0.25500000920E-02 0.  1.
        2   -1    0    0  501    0  0.00000000000E+00  0.00000000000E+00 -0.97641448828E+03  0.97641448829E+03  0.25500000920E-02 0. -1.
    10030    2    1    2    0    0  0.00000000000E+00  0.00000000000E+00  0.49278404156E+03  0.24456130181E+04  0.23954512984E+04 0.  0.
        4    1    3    3  502    0  0.78101608396E+02 -0.16312599197E+03 -0.96239243661E+03  0.97923989167E+03  0.12699999809E+01 0. -1.
       -4    1    3    3    0  502 -0.78101608396E+02  0.16312599197E+03  0.14551764782E+04  0.14663731265E+04  0.12699999809E+01 0.  1.
</event>
<event>
 5   0  0.1154897E-05  0.2400155E+04  0.7818609E-02  0.8439446E-01
       -2   -1    0    0    0  501  0.00000000000E+00  0.00000000000E+00  0.62426716102E+03  0.62426716103E+03  0.25500000920E-02 0. -1.
        2   -1    0    0  501    0  0.00000000000E+00  0.00000000000E+00 -0.23070023542E+04  0.23070023542E+04  0.25500000920E-02 0.  1.
    10030    2    1    2    0    0  0.00000000000E+00  0.00000000000E+00 -0.16827351932E+04  0.29312695152E+04  0.24001548368E+04 0.  0.
        4    1    3    3  502    0  0.32434208558E+03  0.24057240781E+03 -0.22215321525E+04  0.22579370207E+04  0.12699999809E+01 0.  1.
       -4    1    3    3    0  502 -0.32434208558E+03 -0.24057240781E+03  0.53879695935E+03  0.67333249452E+03  0.12699999809E+01 0. -1.
</event>
<event>
 5   0  0.5104174E-06  0.2418850E+04  0.7818609E-02  0.8432480E-01
       -1   -1    0    0    0  501  0.00000000000E+00  0.00000000000E+00  0.94827741947E+03  0.94827741948E+03  0.50400001928E-02 0.  1.
        1   -1    0    0  501    0  0.00000000000E+00  0.00000000000E+00 -0.15424906136E+04  0.15424906136E+04  0.50400001928E-02 0. -1.
    10030    2    1    2    0    0  0.00000000000E+00  0.00000000000E+00 -0.59421319414E+03  0.24907680331E+04  0.24188501555E+04 0.  0.
        3    1    3    3  502    0 -0.14138097458E+03  0.15494322935E+03  0.92940482190E+03  0.95277978435E+03  0.10100000352E+00 0.  1.
       -3    1    3    3    0  502  0.14138097458E+03 -0.15494322935E+03 -0.15236180160E+04  0.15379882488E+04  0.10100000352E+00 0. -1.
</event>
<event>
 5   0  0.5042742E-06  0.2384474E+04  0.7818609E-02  0.8445339E-01
        1   -1    0    0  501    0  0.00000000000E+00  0.00000000000E+00  0.15743274593E+04  0.15743274593E+04  0.50400001928E-02 0. -1.
       -1   -1    0    0    0  501  0.00000000000E+00  0.00000000000E+00 -0.90288027153E+03  0.90288027154E+03  0.50400001928E-02 0.  1.
    10030    2    1    2    0    0  0.00000000000E+00  0.00000000000E+00  0.67144718778E+03  0.24772077309E+04  0.23844741173E+04 0.  0.
        5    1    3    3  502    0  0.97620156614E+03  0.61695728351E+03  0.64356026416E+03  0.13220429989E+04  0.46999998093E+01 0. -1.
       -5    1    3    3    0  502 -0.97620156614E+03 -0.61695728351E+03  0.27886923622E+02  0.11551647319E+04  0.46999998093E+01 0.  1.
</event>
<event>
 5   0  0.1169371E-05  0.2402390E+04  0.7818609E-02  0.8438609E-01
       -2   -1    0    0    0  501  0.00000000000E+00  0.00000000000E+00  0.13857354318E+04  0.13857354318E+04  0.25500000920E-02 0.  1.
        2   -1    0    0  501    0  0.00000000000E+00  0.00000000000E+00 -0.10412304498E+04  0.10412304498E+04  0.25500000920E-02 0. -1.
    10030    2    1    2    0    0  0.00000000000E+00  0.00000000000E+00  0.34450498195E+03  0.24269658816E+04  0.24023904154E+04 0.  0.
        2    1    3    3  502    0  0.63914463556E+03  0.31591669269E+03  0.11488685083E+04  0.13521124477E+04  0.25500000920E-02 0. -1.
       -2    1    3    3    0  502 -0.63914463556E+03 -0.31591669269E+03 -0.80436352634E+03  0.10748534339E+04  0.25500000920E-02 0.  1.
</event>
<event>
 5   0  0.5064437E-06  0.2410248E+04  0.7818609E-02  0.8435677E-01
        1   -1    0    0  501    0  0.00000000000E+00  0.00000000000E+00  0.22653435543E+04  0.22653435543E+04  0.50400001928E-02 0.  1.
       -1   -1    0    0    0  501  0.00000000000E+00  0.00000000000E+00 -0.64110547209E+03  0.64110547211E+03  0.50400001928E-02 0. -1.
    10030    2    1    2    0    0  0.00000000000E+00  0.00000000000E+00  0.16242380822E+04  0.29064490264E+04  0.24102482435E+04 0.  0.
        2    1    3    3  502    0  0.67796931241E+03  0.95827008353E+03  0.11410373195E+04  0.16370369898E+04  0.25500000920E-02 0.  1.
       -2    1    3    3    0  502 -0.67796931241E+03 -0.95827008353E+03  0.48320076272E+03  0.12694120366E+04  0.25500000920E-02 0. -1.
</event>
<event>
 5   0  0.5064437E-06  0.2396308E+04  0.7818609E-02  0.8440887E-01
        1   -1    0    0  501    0  0.00000000000E+00  0.00000000000E+00  0.16331052463E+04  0.16331052463E+04  0.50400001928E-02 0.  1.
       -1   -1    0    0    0  501  0.00000000000E+00  0.00000000000E+00 -0.87904481775E+03  0.87904481777E+03  0.50400001928E-02 0. -1.
    10030    2    1    2    0    0  0.00000000000E+00  0.00000000000E+00  0.75406042857E+03  0.25121500641E+04  0.23963077462E+04 0.  0.
        2    1    3    3  502    0  0.53460681674E+03  0.48156519295E+03  0.13813961407E+04  0.15575508920E+04  0.25500000920E-02 0.  1.
       -2    1    3    3    0  502 -0.53460681674E+03 -0.48156519295E+03 -0.62733571217E+03  0.95459917208E+03  0.25500000920E-02 0. -1.
</event>
<event>
 5   0  0.5196696E-06  0.2388594E+04  0.7818609E-02  0.8443786E-01
       -1   -1    0    0    0  501  0.00000000000E+00  0.00000000000E+00  0.13861585238E+04  0.13861585238E+04  0.50400001928E-02 0. -1.
        1   -1    0    0  501    0  0.00000000000E+00  0.00000000000E+00 -0.10289910863E+04  0.10289910863E+04  0.50400001928E-02 0.  1.
    10030    2    1    2    0    0  0.00000000000E+00  0.00000000000E+00  0.35716743748E+03  0.24151496101E+04  0.23885935319E+04 0.  0.
        1    1    3    3  502    0 -0.10198033277E+04 -0.27672313955E+03  0.74134166296E+03  0.12907989714E+04  0.50400001928E-02 0. -1.
       -1    1    3    3    0  502  0.10198033277E+04  0.27672313955E+03 -0.38417422548E+03  0.11243506387E+04  0.50400001928E-02 0.  1.
</event>
<event>
 5   0  0.1169371E-05  0.2391050E+04  0.7818609E-02  0.8442862E-01
       -2   -1    0    0    0  501  0.00000000000E+00  0.00000000000E+00  0.56246635961E+03  0.56246635961E+03  0.25500000920E-02 0.  1.
        2   -1    0    0  501    0  0.00000000000E+00  0.00000000000E+00 -0.25410938741E+04  0.25410938741E+04  0.25500000920E-02 0. -1.
    10030    2    1    2    0    0  0.00000000000E+00  0.00000000000E+00 -0.19786275145E+04  0.31035602337E+04  0.23910498287E+04 0.  0.
        2    1    3    3  502    0  0.48333333144E+03  0.97136593113E+03 -0.16410510390E+04  0.19672852853E+04  0.25500000920E-02 0. -1.
       -2    1    3    3    0  502 -0.48333333144E+03 -0.97136593113E+03 -0.33757647551E+03  0.11362749484E+04  0.25500000920E-02 0.  1.
</event>
<event>
 5   0  0.1154897E-05  0.2411291E+04  0.7818609E-02  0.8435288E-01
        2   -1    0    0  501    0  0.00000000000E+00  0.00000000000E+00  0.52234459756E+03  0.52234459757E+03  0.25500000920E-02 0. -1.
       -2   -1    0    0    0  501  0.00000000000E+00  0.00000000000E+00 -0.27828007420E+04  0.27828007420E+04  0.25500000920E-02 0.  1.
    10030    2    1    2    0    0  0.00000000000E+00  0.00000000000E+00 -0.22604561445E+04  0.33051453396E+04  0.24112908856E+04 0.  0.
        4    1    3    3  502    0  0.98557859770E+03  0.41261807118E+03 -0.36464778153E+03  0.11289767324E+04  0.12699999809E+01 0. -1.
       -4    1    3    3    0  502 -0.98557859770E+03 -0.41261807118E+03 -0.18958083629E+04  0.21761686072E+04  0.12699999809E+01 0.  1.
</event>
<event>
 5   0  0.5196696E-06  0.2409441E+04  0.7818609E-02  0.8435977E-01
       -1   -1    0    0    0  501  0.00000000000E+00  0.00000000000E+00  0.10681383289E+04  0.10681383289E+04  0.50400001928E-02 0.  1.
        1   -1    0    0  501    0  0.00000000000E+00  0.00000000000E+00 -0.13587676749E+04  0.13587676749E+04  0.50400001928E-02 0. -1.
    10030    2    1    2    0    0  0.00000000000E+00  0.00000000000E+00 -0.29062934598E+03  0.24269060038E+04  0.24094412909E+04 0.  0.
        1    1    3    3  502    0  0.33351615142E+03 -0.10196351015E+04  0.40680364686E+03  0.11473351605E+04  0.50400001928E-02 0.  1.
       -1    1    3    3    0  502 -0.33351615142E+03  0.10196351015E+04 -0.69743299284E+03  0.12795708433E+04  0.50400001928E-02 0. -1.
</event>
<event>
 5   0  0.1168435E-05  0.2424509E+04  0.7818609E-02  0.8430385E-01
       -2   -1    0    0    0  501  0.00000000000E+00  0.00000000000E+00  0.13159266085E+04  0.13159266085E+04  0.25500000920E-02 0.  1.
        2   -1    0    0  501    0  0.00000000000E+00  0.00000000000E+00 -0.11167495256E+04  0.11167495256E+04  0.25500000920E-02 0. -1.
    10030    2    1    2    0    0  0.00000000000E+00  0.00000000000E+00  0.19917708293E+03  0.24326761341E+04  0.24245085405E+04 0.  0.
        1    1    3    3  502    0  0.59473874368E+03 -0.17806307660E+03  0.11443164992E+04  0.13018759092E+04  0.50400001928E-02 0.  1.
       -1    1    3    3    0  502 -0.59473874368E+03  0.17806307660E+03 -0.94513941628E+03  0.11308002249E+04  0.50400001928E-02 0. -1.
</event>
<event>
 5   0  0.5064437E-06  0.2358691E+04  0.7818609E-02  0.8455133E-01
       -1   -1    0    0    0  501  0.00000000000E+00  0.00000000000E+00  0.88198650774E+03  0.88198650776E+03  0.50400001928E-02 0. -1.
        1   -1    0    0  501    0  0.00000000000E+00  0.00000000000E+00 -0.15769575551E+04  0.15769575551E+04  0.50400001928E-02 0.  1.
    10030    2    1    2    0    0  0.00000000000E+00  0.00000000000E+00 -0.69497104736E+03  0.24589440629E+04  0.23586905578E+04 0.  0.
        2    1    3    3  502    0  0.10611740681E+04  0.44855977718E+03 -0.84660783184E+02  0.11551899085E+04  0.25500000920E-02 0. -1.
       -2    1    3    3    0  502 -0.10611740681E+04 -0.44855977718E+03 -0.61031026418E+03  0.13037541544E+04  0.25500000920E-02 0.  1.
</event>
<event>
 5   0  0.5196696E-06  0.2401142E+04  0.7818609E-02  0.8439076E-01
        1   -1    0    0  501    0  0.00000000000E+00  0.00000000000E+00  0.12300593383E+04  0.12300593383E+04  0.50400001928E-02 0.  1.
       -1   -1    0    0    0  501  0.00000000000E+00  0.00000000000E+00 -0.11717897840E+04  0.11717897840E+04  0.50400001928E-02 0. -1.
    10030    2    1    2    0    0  0.00000000000E+00  0.00000000000E+00  0.58269554365E+02  0.24018491223E+04  0.24011422002E+04 0.  0.
        1    1    3    3  502    0 -0.82441243749E+03 -0.78145464222E+03  0.41789266110E+03  0.12103559399E+04  0.50400001928E-02 0.  1.
       -1    1    3    3    0  502  0.82441243749E+03  0.78145464222E+03 -0.35962310673E+03  0.11914931825E+04  0.50400001928E-02 0. -1.
</event>
<event>
 5   0  0.5104174E-06  0.2393161E+04  0.7818609E-02  0.8442068E-01
       -1   -1    0    0    0  501  0.00000000000E+00  0.00000000000E+00  0.73807949713E+03  0.73807949715E+03  0.50400001928E-02 0. -1.
        1   -1    0    0  501    0  0.00000000000E+00  0.00000000000E+00 -0.19399062626E+04  0.19399062626E+04  0.50400001928E-02 0.  1.
    10030    2    1    2    0    0  0.00000000000E+00  0.00000000000E+00 -0.12018267655E+04  0.26779857598E+04  0.23931611219E+04 0.  0.
        3    1    3    3  502    0  0.19133038785E+02  0.30826352130E+03  0.69270625048E+03  0.75844210814E+03  0.10100000352E+00 0. -1.
       -3    1    3    3    0  502 -0.19133038785E+02 -0.30826352130E+03 -0.18945330160E+04  0.19195436516E+04  0.10100000352E+00 0.  1.
</event>
<event>
 5   0  0.5196696E-06  0.2401983E+04  0.7818609E-02  0.8438761E-01
        1   -1    0    0  501    0  0.00000000000E+00  0.00000000000E+00  0.77623666485E+03  0.77623666486E+03  0.50400001928E-02 0. -1.
       -1   -1    0    0    0  501  0.00000000000E+00  0.00000000000E+00 -0.18581716663E+04  0.18581716663E+04  0.50400001928E-02 0.  1.
    10030    2    1    2    0    0  0.00000000000E+00  0.00000000000E+00 -0.10819350015E+04  0.26344083312E+04  0.24019833280E+04 0.  0.
        1    1    3    3  502    0 -0.90445348538E+03  0.61295321054E+03 -0.10878483176E+04  0.15418046918E+04  0.50400001928E-02 0.  1.
       -1    1    3    3    0  502  0.90445348538E+03 -0.61295321054E+03  0.59133161128E+01  0.10926036394E+04  0.50400001928E-02 0. -1.
</event>
<event>
 5   0  0.5196696E-06  0.2394204E+04  0.7818609E-02  0.8441677E-01
       -1   -1    0    0    0  501  0.00000000000E+00  0.00000000000E+00  0.10797580557E+04  0.10797580557E+04  0.50400001928E-02 0.  1.
        1   -1    0    0  501    0  0.00000000000E+00  0.00000000000E+00 -0.13271983163E+04  0.13271983163E+04  0.50400001928E-02 0. -1.
    10030    2    1    2    0    0  0.00000000000E+00  0.00000000000E+00 -0.24744026066E+03  0.24069563720E+04  0.23942038957E+04 0.  0.
        1    1    3    3  502    0 -0.98490485017E+02 -0.25165554628E+03  0.10486914015E+04  0.10829517742E+04  0.50400001928E-02 0.  1.
       -1    1    3    3    0  502  0.98490485017E+02  0.25165554628E+03 -0.12961316621E+04  0.13240045979E+04  0.50400001928E-02 0. -1.
</event>
<event>
 5   0  0.5064437E-06  0.2418556E+04  0.7818609E-02  0.8432589E-01
       -1   -1    0    0    0  501  0.00000000000E+00  0.00000000000E+00  0.59924703839E+03  0.59924703842E+03  0.50400001928E-02 0.  1.
        1   -1    0    0  501    0  0.00000000000E+00  0.00000000000E+00 -0.24403181299E+04  0.24403181299E+04  0.50400001928E-02 0. -1.
    10030    2    1    2    0    0  0.00000000000E+00  0.00000000000E+00 -0.18410710915E+04  0.30395651683E+04  0.24185561082E+04 0.  0.
        2    1    3    3  502    0 -0.65726193508E+03  0.98410918949E+03 -0.60788229332E+03  0.13304078437E+04  0.25500000920E-02 0. -1.
       -2    1    3    3    0  502  0.65726193508E+03 -0.98410918949E+03 -0.12331887982E+04  0.17091573246E+04  0.25500000920E-02 0.  1.
</event>
<event>
 5   0  0.5196696E-06  0.2409055E+04  0.7818609E-02  0.8436121E-01
       -1   -1    0    0    0  501  0.00000000000E+00  0.00000000000E+00  0.54581296241E+03  0.54581296244E+03  0.50400001928E-02 0.  1.
        1   -1    0    0  501    0  0.00000000000E+00  0.00000000000E+00 -0.26582118111E+04  0.26582118111E+04  0.50400001928E-02 0. -1.
    10030    2    1    2    0    0  0.00000000000E+00  0.00000000000E+00 -0.21123988487E+04  0.32040247735E+04  0.24090549710E+04 0.  0.
        1    1    3    3  502    0 -0.17250617253E+03  0.98416911222E+03 -0.19508990961E+04  0.21918837798E+04  0.50400001928E-02 0. -1.
       -1    1    3    3    0  502  0.17250617253E+03 -0.98416911222E+03 -0.16149975255E+03  0.10121409937E+04  0.50400001928E-02 0.  1.
</event>
<event>
 5   0  0.1169371E-05  0.2386921E+04  0.7818609E-02  0.8444416E-01
        2   -1    0    0  501    0  0.00000000000E+00  0.00000000000E+00  0.10182823386E+04  0.10182823386E+04  0.25500000920E-02 0.  1.
       -2   -1    0    0    0  501  0.00000000000E+00  0.00000000000E+00 -0.13987755870E+04  0.13987755870E+04  0.25500000920E-02 0. -1.
    10030    2    1    2    0    0  0.00000000000E+00  0.00000000000E+00 -0.38049324845E+03  0.24170579256E+04  0.23869214280E+04 0.  0.
        2    1    3    3  502    0 -0.73558453215E+03  0.68004566789E+03  0.46663590277E+03  0.11051225182E+04  0.25500000920E-02 0.  1.
       -2    1    3    3    0  502  0.73558453215E+03 -0.68004566789E+03 -0.84712915123E+03  0.13119354074E+04  0.25500000920E-02 0. -1.
</event>
<event>
 5   0  0.5064437E-06  0.2405270E+04  0.7818609E-02  0.8437533E-01
       -1   -1    0    0    0  501  0.00000000000E+00  0.00000000000E+00  0.74526126906E+03  0.74526126908E+03  0.50400001928E-02 0. -1.
        1   -1    0    0  501    0  0.00000000000E+00  0.00000000000E+00 -0.19407035560E+04  0.19407035560E+04  0.50400001928E-02 0.  1.
    10030    2    1    2    0    0  0.00000000000E+00  0.00000000000E+00 -0.11954422869E+04  0.26859648251E+04  0.24052702094E+04 0.  0.
        2    1    3    3  502    0  0.95881910590E+03  0.43287299154E+02  0.21149978097E+03  0.98282247912E+03  0.25500000920E-02 0. -1.
       -2    1    3    3    0  502 -0.95881910590E+03 -0.43287299154E+02 -0.14069420679E+04  0.17031423459E+04  0.25500000920E-02 0.  1.
</event>
<event>
 5   0  0.5042742E-06  0.2378639E+04  0.7818609E-02  0.8447544E-01
       -1   -1    0    0    0  501  0.00000000000E+00  0.00000000000E+00  0.96233607772E+03  0.96233607773E+03  0.50400001928E-02 0.  1.
        1   -1    0    0  501    0  0.00000000000E+00  0.00000000000E+00 -0.14698405541E+04  0.14698405541E+04  0.50400001928E-02 0. -1.
    10030    2    1    2    0    0  0.00000000000E+00  0.00000000000E+00 -0.50750447637E+03  0.24321766318E+04  0.23786387651E+04 0.  0.
        5    1    3    3  502    0 -0.22760112152E+03  0.27464492028E+03  0.90634418662E+03  0.97401949538E+03  0.46999998093E+01 0.  1.
       -5    1    3    3    0  502  0.22760112152E+03 -0.27464492028E+03 -0.14138486630E+04  0.14581571365E+04  0.46999998093E+01 0. -1.
</event>
<event>
 5   0  0.1168435E-05  0.2402176E+04  0.7818609E-02  0.8438690E-01
       -2   -1    0    0    0  501  0.00000000000E+00  0.00000000000E+00  0.93663550224E+03  0.93663550224E+03  0.25500000920E-02 0.  1.
        2   -1    0    0  501    0  0.00000000000E+00  0.00000000000E+00 -0.15402062522E+04  0.15402062522E+04  0.25500000920E-02 0. -1.
    10030    2    1    2    0    0  0.00000000000E+00  0.00000000000E+00 -0.60357074993E+03  0.24768417544E+04  0.24021755611E+04 0.  0.
        1    1    3    3  502    0 -0.11356825674E+04 -0.13525695935E+03  0.76416163516E+02  0.11462585960E+04  0.50400001928E-02 0. -1.
       -1    1    3    3    0  502  0.11356825674E+04  0.13525695935E+03 -0.67998691344E+03  0.13305831584E+04  0.50400001928E-02 0.  1.
</event>
<event>
 5   0  0.1168435E-05  0.2401477E+04  0.7818609E-02  0.8438951E-01
       -2   -1    0    0    0  501  0.00000000000E+00  0.00000000000E+00  0.92364438660E+03  0.92364438660E+03  0.25500000920E-02 0.  1.
        2   -1    0    0  501    0  0.00000000000E+00  0.00000000000E+00 -0.15609608905E+04  0.15609608905E+04  0.25500000920E-02 0. -1.
    10030    2    1    2    0    0  0.00000000000E+00  0.00000000000E+00 -0.63731650391E+03  0.24846052771E+04  0.24014768491E+04 0.  0.
        1    1    3    3  502    0  0.11644985392E+04 -0.23755081075E+03 -0.14160433757E+03  0.11968872228E+04  0.50400001928E-02 0.  1.
       -1    1    3    3    0  502 -0.11644985392E+04  0.23755081075E+03 -0.49571216634E+03  0.12877180543E+04  0.50400001928E-02 0. -1.
</event>
<event>
 5   0  0.1169371E-05  0.2390906E+04  0.7818609E-02  0.8442916E-01
        2   -1    0    0  501    0  0.00000000000E+00  0.00000000000E+00  0.17841355376E+04  0.17841355376E+04  0.25500000920E-02 0. -1.
       -2   -1    0    0    0  501  0.00000000000E+00  0.00000000000E+00 -0.80100846067E+03  0.80100846067E+03  0.25500000920E-02 0.  1.
    10030    2    1    2    0    0  0.00000000000E+00  0.00000000000E+00  0.98312707693E+03  0.25851439983E+04  0.23909058205E+04 0.  0.
        2    1    3    3  502    0  0.19747543632E+03  0.10112606149E+04 -0.16387070297E+03  0.10433111648E+04  0.25500000920E-02 0.  1.
       -2    1    3    3    0  502 -0.19747543632E+03 -0.10112606149E+04  0.11469977799E+04  0.15418328335E+04  0.25500000920E-02 0. -1.
</event>
<event>
 5   0  0.1198313E-05  0.2440287E+04  0.7818609E-02  0.8424573E-01
        2   -1    0    0  501    0  0.00000000000E+00  0.00000000000E+00  0.16470496856E+04  0.16470496856E+04  0.25500000920E-02 0.  1.
       -2   -1    0    0    0  501  0.00000000000E+00  0.00000000000E+00 -0.90388897920E+03  0.90388897920E+03  0.25500000920E-02 0. -1.
    10030    2    1    2    0    0  0.00000000000E+00  0.00000000000E+00  0.74316070643E+03  0.25509386648E+04  0.24402869168E+04 0.  0.
        5    1    3    3  502    0 -0.38557123631E+02  0.66202055787E+03 -0.69905277923E+03  0.96356356769E+03  0.46999998093E+01 0. -1.
       -5    1    3    3    0  502  0.38557123631E+02 -0.66202055787E+03  0.14422134857E+04  0.15873750971E+04  0.46999998093E+01 0.  1.
</event>
<event>
 5   0  0.5034479E-06  0.2412309E+04  0.7818609E-02  0.8434910E-01
        1   -1    0    0  501    0  0.00000000000E+00  0.00000000000E+00  0.15635227951E+04  0.15635227951E+04  0.50400001928E-02 0. -1.
       -1   -1    0    0    0  501  0.00000000000E+00  0.00000000000E+00 -0.93046822970E+03  0.93046822971E+03  0.50400001928E-02 0.  1.
    10030    2    1    2    0    0  0.00000000000E+00  0.00000000000E+00  0.63305456539E+03  0.24939910248E+04  0.24123086762E+04 0.  0.
        4    1    3    3  502    0  0.24922129180E+03  0.53855088845E+02 -0.90228658756E+03  0.93762163044E+03  0.12699999809E+01 0.  1.
       -4    1    3    3    0  502 -0.24922129180E+03 -0.53855088845E+02  0.15353411530E+04  0.15563693944E+04  0.12699999809E+01 0. -1.
</event>
<event>
 5   0  0.1168435E-05  0.2414623E+04  0.7818609E-02  0.8434049E-01
       -2   -1    0    0    0  501  0.00000000000E+00  0.00000000000E+00  0.12537164909E+04  0.12537164909E+04  0.25500000920E-02 0.  1.
        2   -1    0    0  501    0  0.00000000000E+00  0.00000000000E+00 -0.11626240640E+04  0.11626240640E+04  0.25500000920E-02 0. -1.
    10030    2    1    2    0    0  0.00000000000E+00  0.00000000000E+00  0.91092426934E+02  0.24163405549E+04  0.24146229203E+04 0.  0.
        1    1    3    3  502    0  0.45259143481E+03 -0.23232294338E+03  0.11412168391E+04  0.12494754222E+04  0.50400001928E-02 0.  1.
       -1    1    3    3    0  502 -0.45259143481E+03  0.23232294338E+03 -0.10501244122E+04  0.11668651327E+04  0.50400001928E-02 0. -1.
</event>
<event>
 5   0  0.5196696E-06  0.2420795E+04  0.7818609E-02  0.8431759E-01
       -1   -1    0    0    0  501  0.00000000000E+00  0.00000000000E+00  0.11448040671E+04  0.11448040671E+04  0.50400001928E-02 0. -1.
        1   -1    0    0  501    0  0.00000000000E+00  0.00000000000E+00 -0.12797495726E+04  0.12797495726E+04  0.50400001928E-02 0.  1.
    10030    2    1    2    0    0  0.00000000000E+00  0.00000000000E+00 -0.13494550554E+03  0.24245536397E+04  0.24207953368E+04 0.  0.
        1    1    3    3  502    0 -0.51511432417E+03 -0.25082045304E+03 -0.11353404401E+04  0.12717120671E+04  0.50400001928E-02 0.  1.
       -1    1    3    3    0  502  0.51511432417E+03  0.25082045304E+03  0.10003949345E+04  0.11528415727E+04  0.50400001928E-02 0. -1.
</event>
<event>
 5   0  0.5064437E-06  0.2397596E+04  0.7818609E-02  0.8440404E-01
        1   -1    0    0  501    0  0.00000000000E+00  0.00000000000E+00  0.12088657238E+04  0.12088657238E+04  0.50400001928E-02 0.  1.
       -1   -1    0    0    0  501  0.00000000000E+00  0.00000000000E+00 -0.11888138195E+04  0.11888138195E+04  0.50400001928E-02 0. -1.
    10030    2    1    2    0    0  0.00000000000E+00  0.00000000000E+00  0.20051904338E+02  0.23976795433E+04  0.23975956943E+04 0.  0.
        2    1    3    3  502    0 -0.67724887974E+03  0.30865061320E+03  0.94983806476E+03  0.12066994636E+04  0.25500000920E-02 0.  1.
       -2    1    3    3    0  502  0.67724887974E+03 -0.30865061320E+03 -0.92978616042E+03  0.11909800797E+04  0.25500000920E-02 0. -1.
</event>
<event>
 5   0  0.5196696E-06  0.2373218E+04  0.7818609E-02  0.8449599E-01
       -1   -1    0    0    0  501  0.00000000000E+00  0.00000000000E+00  0.14471104529E+04  0.14471104529E+04  0.50400001928E-02 0.  1.
        1   -1    0    0  501    0  0.00000000000E+00  0.00000000000E+00 -0.97300142078E+03  0.97300142079E+03  0.50400001928E-02 0. -1.
    10030    2    1    2    0    0  0.00000000000E+00  0.00000000000E+00  0.47410903208E+03  0.24201118737E+04  0.23732176695E+04 0.  0.
        1    1    3    3  502    0 -0.35085387947E+03 -0.16503595940E+03 -0.90658012012E+03  0.98601360379E+03  0.50400001928E-02 0. -1.
       -1    1    3    3    0  502  0.35085387947E+03  0.16503595940E+03  0.13806891522E+04  0.14340982699E+04  0.50400001928E-02 0.  1.
</event>
<event>
 5   0  0.5042742E-06  0.2378459E+04  0.7818609E-02  0.8447612E-01
       -1   -1    0    0    0  501  0.00000000000E+00  0.00000000000E+00  0.93708210562E+03  0.93708210564E+03  0.50400001928E-02 0. -1.
        1   -1    0    0  501    0  0.00000000000E+00  0.00000000000E+00 -0.15092243472E+04  0.15092243472E+04  0.50400001928E-02 0.  1.
    10030    2    1    2    0    0  0.00000000000E+00  0.00000000000E+00 -0.57214224160E+03  0.24463064529E+04  0.23784592737E+04 0.  0.
        5    1    3    3  502    0  0.78541985690E+03 -0.89285392030E+03 -0.27256001271E+03  0.12199932480E+04  0.46999998093E+01 0. -1.
       -5    1    3    3    0  502 -0.78541985690E+03  0.89285392030E+03 -0.29958222890E+03  0.12263132049E+04  0.46999998093E+01 0.  1.
</event>
<event>
 5   0  0.5064437E-06  0.2410809E+04  0.7818609E-02  0.8435468E-01
       -1   -1    0    0    0  501  0.00000000000E+00  0.00000000000E+00  0.11606962365E+04  0.11606962365E+04  0.50400001928E-02 0.  1.
        1   -1    0    0  501    0  0.00000000000E+00  0.00000000000E+00 -0.12518351525E+04  0.12518351526E+04  0.50400001928E-02 0. -1.
    10030    2    1    2    0    0  0.00000000000E+00  0.00000000000E+00 -0.91138916089E+02  0.24125313890E+04  0.24108092834E+04 0.  0.
        2    1    3    3  502    0 -0.30937745227E+03  0.73857944444E+03 -0.94720492883E+03  0.12403270460E+04  0.25500000920E-02 0. -1.
       -2    1    3    3    0  502  0.30937745227E+03 -0.73857944444E+03  0.85606601274E+03  0.11722043431E+04  0.25500000920E-02 0.  1.
</event>
<event>
 5   0  0.1168435E-05  0.2401333E+04  0.7818609E-02  0.8439005E-01
        2   -1    0    0  501    0  0.00000000000E+00  0.00000000000E+00  0.13196290427E+04  0.13196290427E+04  0.25500000920E-02 0. -1.
       -2   -1    0    0    0  501  0.00000000000E+00  0.00000000000E+00 -0.10924283393E+04  0.10924283393E+04  0.25500000920E-02 0.  1.
    10030    2    1    2    0    0  0.00000000000E+00  0.00000000000E+00  0.22720070332E+03  0.24120573820E+04  0.24013330994E+04 0.  0.
        1    1    3    3  502    0 -0.28244744503E+03 -0.32008915294E+03 -0.10136264418E+04  0.10998509847E+04  0.50400001928E-02 0.  1.
       -1    1    3    3    0  502  0.28244744503E+03  0.32008915294E+03  0.12408271451E+04  0.13122063973E+04  0.50400001928E-02 0. -1.
</event>
<event>
 5   0  0.1174210E-05  0.2408891E+04  0.7818609E-02  0.8436182E-01
        2   -1    0    0  501    0  0.00000000000E+00  0.00000000000E+00  0.14387296614E+04  0.14387296614E+04  0.25500000920E-02 0.  1.
       -2   -1    0    0    0  501  0.00000000000E+00  0.00000000000E+00 -0.10083124102E+04  0.10083124102E+04  0.25500000920E-02 0. -1.
    10030    2    1    2    0    0  0.00000000000E+00  0.00000000000E+00  0.43041725121E+03  0.24470420716E+04  0.24088910083E+04 0.  0.
        3    1    3    3  502    0 -0.31389549059E+03 -0.41681120904E+03  0.13179549724E+04  0.14174862548E+04  0.10100000352E+00 0.  1.
       -3    1    3    3    0  502  0.31389549059E+03  0.41681120904E+03 -0.88753772124E+03  0.10295558168E+04  0.10100000352E+00 0. -1.
</event>
<event>
 5   0  0.5196696E-06  0.2395668E+04  0.7818609E-02  0.8441127E-01
       -1   -1    0    0    0  501  0.00000000000E+00  0.00000000000E+00  0.74408249921E+03  0.74408249923E+03  0.50400001928E-02 0.  1.
        1   -1    0    0  501    0  0.00000000000E+00  0.00000000000E+00 -0.19282895842E+04  0.19282895842E+04  0.50400001928E-02 0. -1.
    10030    2    1    2    0    0  0.00000000000E+00  0.00000000000E+00 -0.11842070850E+04  0.26723720834E+04  0.23956682016E+04 0.  0.
        1    1    3    3  502    0 -0.10665384720E+03  0.38793354976E+02  0.73807164357E+03  0.74674608709E+03  0.50400001928E-02 0.  1.
       -1    1    3    3    0  502  0.10665384720E+03 -0.38793354976E+02 -0.19222787285E+04  0.19256259963E+04  0.50400001928E-02 0. -1.
</event>
<event>
 5   0  0.5064437E-06  0.2434230E+04  0.7818609E-02  0.8426798E-01
       -1   -1    0    0    0  501  0.00000000000E+00  0.00000000000E+00  0.29848614006E+04  0.29848614006E+04  0.50400001928E-02 0. -1.
        1   -1    0    0  501    0  0.00000000000E+00  0.00000000000E+00 -0.49629410031E+03  0.49629410034E+03  0.50400001928E-02 0.  1.
    10030    2    1    2    0    0  0.00000000000E+00  0.00000000000E+00  0.24885673003E+04  0.34811555010E+04  0.24342301481E+04 0.  0.
        2    1    3    3  502    0  0.71839389464E+03 -0.36977599720E+03  0.25460104438E+04  0.26711408155E+04  0.25500000920E-02 0.  1.
       -2    1    3    3    0  502 -0.71839389464E+03  0.36977599720E+03 -0.57443143537E+02  0.81001468549E+03  0.25500000920E-02 0. -1.
</event>
<event>
 5   0  0.5196696E-06  0.2403317E+04  0.7818609E-02  0.8438263E-01
        1   -1    0    0  501    0  0.00000000000E+00  0.00000000000E+00  0.12477814703E+04  0.12477814703E+04  0.50400001928E-02 0. -1.
       -1   -1    0    0    0  501  0.00000000000E+00  0.00000000000E+00 -0.11572399452E+04  0.11572399452E+04  0.50400001928E-02 0.  1.
    10030    2    1    2    0    0  0.00000000000E+00  0.00000000000E+00  0.90541525057E+02  0.24050214155E+04  0.24033165087E+04 0.  0.
        1    1    3    3  502    0  0.42852282666E+03  0.11223847864E+04  0.20694459644E+02  0.12015854869E+04  0.50400001928E-02 0.  1.
       -1    1    3    3    0  502 -0.42852282666E+03 -0.11223847864E+04  0.69847065413E+02  0.12034359286E+04  0.50400001928E-02 0. -1.
</event>
<event>
 5   0  0.5064437E-06  0.2398910E+04  0.7818609E-02  0.8439912E-01
       -1   -1    0    0    0  501  0.00000000000E+00  0.00000000000E+00  0.86976347519E+03  0.86976347521E+03  0.50400001928E-02 0.  1.
        1   -1    0    0  501    0  0.00000000000E+00  0.00000000000E+00 -0.16541193326E+04  0.16541193326E+04  0.50400001928E-02 0. -1.
    10030    2    1    2    0    0  0.00000000000E+00  0.00000000000E+00 -0.78435585743E+03  0.25238828078E+04  0.23989102352E+04 0.  0.
        2    1    3    3  502    0  0.99587881619E+03  0.43270140840E+03 -0.92832096807E+03  0.14285604450E+04  0.25500000920E-02 0. -1.
       -2    1    3    3    0  502 -0.99587881619E+03 -0.43270140840E+03  0.14396511064E+03  0.10953223628E+04  0.25500000920E-02 0.  1.
</event>
<event>
 5   0  0.5104174E-06  0.2403954E+04  0.7818609E-02  0.8438025E-01
       -1   -1    0    0    0  501  0.00000000000E+00  0.00000000000E+00  0.63358364492E+03  0.63358364494E+03  0.50400001928E-02 0. -1.
        1   -1    0    0  501    0  0.00000000000E+00  0.00000000000E+00 -0.22802802489E+04  0.22802802489E+04  0.50400001928E-02 0.  1.
    10030    2    1    2    0    0  0.00000000000E+00  0.00000000000E+00 -0.16466966040E+04  0.29138638939E+04  0.24039536365E+04 0.  0.
        3    1    3    3  502    0  0.67765064863E+03 -0.78539546958E+02  0.37619640778E+03  0.77903954293E+03  0.10100000352E+00 0. -1.
       -3    1    3    3    0  502 -0.67765064863E+03  0.78539546958E+02 -0.20228930118E+04  0.21348243510E+04  0.10100000352E+00 0.  1.
</event>
<event>
 5   0  0.1168435E-05  0.2397646E+04  0.7818609E-02  0.8440385E-01
       -2   -1    0    0    0  501  0.00000000000E+00  0.00000000000E+00  0.90720475971E+03  0.90720475972E+03  0.25500000920E-02 0.  1.
        2   -1    0    0  501    0  0.00000000000E+00  0.00000000000E+00 -0.15841811232E+04  0.15841811232E+04  0.25500000920E-02 0. -1.
    10030    2    1    2    0    0  0.00000000000E+00  0.00000000000E+00 -0.67697636348E+03  0.24913858829E+04  0.23976460583E+04 0.  0.
        1    1    3    3  502    0  0.10579309085E+04 -0.11274115954E+03 -0.91258156130E+03  0.14016895099E+04  0.50400001928E-02 0. -1.
       -1    1    3    3    0  502 -0.10579309085E+04  0.11274115954E+03  0.23560519781E+03  0.10896963730E+04  0.50400001928E-02 0.  1.
</event>
<event>
 5   0  0.5042742E-06  0.2405244E+04  0.7818609E-02  0.8437543E-01
        1   -1    0    0  501    0  0.00000000000E+00  0.00000000000E+00  0.15825325001E+04  0.15825325001E+04  0.50400001928E-02 0.  1.
       -1   -1    0    0    0  501  0.00000000000E+00  0.00000000000E+00 -0.91391468204E+03  0.91391468205E+03  0.50400001928E-02 0. -1.
    10030    2    1    2    0    0  0.00000000000E+00  0.00000000000E+00  0.66861781802E+03  0.24964471821E+04  0.24052440098E+04 0.  0.
        5    1    3    3  502    0  0.46275641478E+03  0.10729544542E+04  0.39089358758E+02  0.11691556048E+04  0.46999998093E+01 0. -1.
       -5    1    3    3    0  502 -0.46275641478E+03 -0.10729544542E+04  0.62952845926E+03  0.13272915773E+04  0.46999998093E+01 0.  1.
</event>
<event>
 5   0  0.1169371E-05  0.2414050E+04  0.7818609E-02  0.8434262E-01
        2   -1    0    0  501    0  0.00000000000E+00  0.00000000000E+00  0.17986553926E+04  0.17986553926E+04  0.25500000920E-02 0. -1.
       -2   -1    0    0    0  501  0.00000000000E+00  0.00000000000E+00 -0.80999941549E+03  0.80999941549E+03  0.25500000920E-02 0.  1.
    10030    2    1    2    0    0  0.00000000000E+00  0.00000000000E+00  0.98865597713E+03  0.26086548081E+04  0.24140503861E+04 0.  0.
        2    1    3    3  502    0 -0.87386806962E+03 -0.32170784303E+03 -0.33554391691E+03  0.98981364890E+03  0.25500000920E-02 0.  1.
       -2    1    3    3    0  502  0.87386806962E+03  0.32170784303E+03  0.13241998940E+04  0.16188411592E+04  0.25500000920E-02 0. -1.
</event>
<event>
 5   0  0.5064437E-06  0.2387970E+04  0.7818609E-02  0.8444021E-01
        1   -1    0    0  501    0  0.00000000000E+00  0.00000000000E+00  0.84789189043E+03  0.84789189045E+03  0.50400001928E-02 0. -1.
       -1   -1    0    0    0  501  0.00000000000E+00  0.00000000000E+00 -0.16813470704E+04  0.16813470704E+04  0.50400001928E-02 0.  1.
    10030    2    1    2    0    0  0.00000000000E+00  0.00000000000E+00 -0.83345517992E+03  0.25292389608E+04  0.23879703063E+04 0.  0.
        2    1    3    3  502    0 -0.29625545348E+02  0.12893999864E+03  0.84010456004E+03  0.85045803424E+03  0.25500000920E-02 0. -1.
       -2    1    3    3    0  502  0.29625545348E+02 -0.12893999864E+03 -0.16735597400E+04  0.16787809266E+04  0.25500000920E-02 0.  1.
</event>
<event>
 5   0  0.1174210E-05  0.2394791E+04  0.7818609E-02  0.8441456E-01
       -2   -1    0    0    0  501  0.00000000000E+00  0.00000000000E+00  0.72511033226E+03  0.72511033226E+03  0.25500000920E-02 0. -1.
        2   -1    0    0  501    0  0.00000000000E+00  0.00000000000E+00 -0.19772941569E+04  0.19772941569E+04  0.25500000920E-02 0.  1.
    10030    2    1    2    0    0  0.00000000000E+00  0.00000000000E+00 -0.12521838247E+04  0.27024044892E+04  0.23947913672E+04 0.  0.
        3    1    3    3  502    0 -0.75920212930E+03 -0.65485748639E+03  0.11261709194E+03  0.10089146744E+04  0.10100000352E+00 0. -1.
       -3    1    3    3    0  502  0.75920212930E+03  0.65485748639E+03 -0.13648009166E+04  0.16934898148E+04  0.10100000352E+00 0.  1.
</event>
<event>
 5   0  0.5196696E-06  0.2395264E+04  0.7818609E-02  0.8441279E-01
        1   -1    0    0  501    0  0.00000000000E+00  0.00000000000E+00  0.16268076993E+04  0.16268076993E+04  0.50400001928E-02 0.  1.
       -1   -1    0    0    0  501  0.00000000000E+00  0.00000000000E+00 -0.88167926413E+03  0.88167926415E+03  0.50400001928E-02 0. -1.
    10030    2    1    2    0    0  0.00000000000E+00  0.00000000000E+00  0.74512843514E+03  0.25084869634E+04  0.23952641735E+04 0.  0.
        1    1    3    3  502    0 -0.45427940121E+03  0.55082025813E+03  0.13795506146E+04  0.15533617188E+04  0.50400001928E-02 0.  1.
       -1    1    3    3    0  502  0.45427940121E+03 -0.55082025813E+03 -0.63442217947E+03  0.95512524464E+03  0.50400001928E-02 0. -1.
</event>
<event>
 5   0  0.1174210E-05  0.2400134E+04  0.7818609E-02  0.8439453E-01
        2   -1    0    0  501    0  0.00000000000E+00  0.00000000000E+00  0.11430392200E+04  0.11430392200E+04  0.25500000920E-02 0.  1.
       -2   -1    0    0    0  501  0.00000000000E+00  0.00000000000E+00 -0.12599397199E+04  0.12599397199E+04  0.25500000920E-02 0. -1.
    10030    2    1    2    0    0  0.00000000000E+00  0.00000000000E+00 -0.11690049988E+03  0.24029789399E+04  0.24001337585E+04 0.  0.
        3    1    3    3  502    0  0.56481120086E+03  0.29471794885E+03 -0.10766563907E+04  0.12510233235E+04  0.10100000352E+00 0. -1.
       -3    1    3    3    0  502 -0.56481120086E+03 -0.29471794885E+03  0.95975589084E+03  0.11519556164E+04  0.10100000352E+00 0.  1.
</event>
<event>
 5   0  0.5104174E-06  0.2382963E+04  0.7818609E-02  0.8445910E-01
        1   -1    0    0  501    0  0.00000000000E+00  0.00000000000E+00  0.20128161438E+04  0.20128161438E+04  0.50400001928E-02 0.  1.
       -1   -1    0    0    0  501  0.00000000000E+00  0.00000000000E+00 -0.70529449740E+03  0.70529449742E+03  0.50400001928E-02 0. -1.
    10030    2    1    2    0    0  0.00000000000E+00  0.00000000000E+00  0.13075216464E+04  0.27181106413E+04  0.23829629880E+04 0.  0.
        3    1    3    3  502    0  0.45085788635E+03  0.68448727642E+03 -0.33263674792E+03  0.88455801479E+03  0.10100000352E+00 0. -1.
       -3    1    3    3    0  502 -0.45085788635E+03 -0.68448727642E+03  0.16401583943E+04  0.18335526265E+04  0.10100000352E+00 0.  1.
</event>
<event>
 5   0  0.5042742E-06  0.2402346E+04  0.7818609E-02  0.8438626E-01
       -1   -1    0    0    0  501  0.00000000000E+00  0.00000000000E+00  0.10748757042E+04  0.10748757042E+04  0.50400001928E-02 0.  1.
        1   -1    0    0  501    0  0.00000000000E+00  0.00000000000E+00 -0.13423104225E+04  0.13423104225E+04  0.50400001928E-02 0. -1.
    10030    2    1    2    0    0  0.00000000000E+00  0.00000000000E+00 -0.26743471828E+03  0.24171861268E+04  0.24023462371E+04 0.  0.
        5    1    3    3  502    0  0.76443613534E+03 -0.75175120867E+03 -0.67863669275E+03  0.12688823174E+04  0.46999998093E+01 0. -1.
       -5    1    3    3    0  502 -0.76443613534E+03  0.75175120867E+03  0.41120197447E+03  0.11483038093E+04  0.46999998093E+01 0.  1.
</event>
<event>
 5   0  0.5104174E-06  0.2403725E+04  0.7818609E-02  0.8438110E-01
        1   -1    0    0  501    0  0.00000000000E+00  0.00000000000E+00  0.10028047391E+04  0.10028047391E+04  0.50400001928E-02 0.  1.
       -1   -1    0    0    0  501  0.00000000000E+00  0.00000000000E+00 -0.14404332408E+04  0.14404332408E+04  0.50400001928E-02 0. -1.
    10030    2    1    2    0    0  0.00000000000E+00  0.00000000000E+00 -0.43762850172E+03  0.24432379799E+04  0.24037248430E+04 0.  0.
        3    1    3    3  502    0  0.75032634119E+03  0.93809848757E+03 -0.25758413550E+03  0.12285633837E+04  0.10100000352E+00 0. -1.
       -3    1    3    3    0  502 -0.75032634119E+03 -0.93809848757E+03 -0.18004436621E+03  0.12146745962E+04  0.10100000352E+00 0.  1.
</event>
<event>
 5   0  0.1198313E-05  0.2391388E+04  0.7818609E-02  0.8442735E-01
        2   -1    0    0  501    0  0.00000000000E+00  0.00000000000E+00  0.18447248458E+04  0.18447248458E+04  0.25500000920E-02 0.  1.
       -2   -1    0    0    0  501  0.00000000000E+00  0.00000000000E+00 -0.77501227257E+03  0.77501227257E+03  0.25500000920E-02 0. -1.
    10030    2    1    2    0    0  0.00000000000E+00  0.00000000000E+00  0.10697125733E+04  0.26197371184E+04  0.23913882119E+04 0.  0.
        5    1    3    3  502    0 -0.11564417776E+04  0.11177479366E+03  0.22537148940E+03  0.11834971853E+04  0.46999998093E+01 0. -1.
       -5    1    3    3    0  502  0.11564417776E+04 -0.11177479366E+03  0.84434108387E+03  0.14362399331E+04  0.46999998093E+01 0.  1.
</event>
<event>
 5   0  0.1168435E-05  0.2398895E+04  0.7818609E-02  0.8439917E-01
       -2   -1    0    0    0  501  0.00000000000E+00  0.00000000000E+00  0.12994078010E+04  0.12994078010E+04  0.25500000920E-02 0.  1.
        2   -1    0    0  501    0  0.00000000000E+00  0.00000000000E+00 -0.11071766630E+04  0.11071766630E+04  0.25500000920E-02 0. -1.
    10030    2    1    2    0    0  0.00000000000E+00  0.00000000000E+00  0.19223113804E+03  0.24065844640E+04  0.23988947396E+04 0.  0.
        1    1    3    3  502    0 -0.10904829273E+04  0.47156146233E+03  0.26141865274E+03  0.12164961732E+04  0.50400001928E-02 0. -1.
       -1    1    3    3    0  502  0.10904829273E+04 -0.47156146233E+03 -0.69187514698E+02  0.11900882907E+04  0.50400001928E-02 0.  1.
</event>
<event>
 5   0  0.1168435E-05  0.2402868E+04  0.7818609E-02  0.8438431E-01
       -2   -1    0    0    0  501  0.00000000000E+00  0.00000000000E+00  0.92007856463E+03  0.92007856463E+03  0.25500000920E-02 0. -1.
        2   -1    0    0  501    0  0.00000000000E+00  0.00000000000E+00 -0.15688267439E+04  0.15688267439E+04  0.25500000920E-02 0.  1.
    10030    2    1    2    0    0  0.00000000000E+00  0.00000000000E+00 -0.64874817928E+03  0.24889053086E+04  0.24028681684E+04 0.  0.
        1    1    3    3  502    0 -0.50665984217E+03  0.95005853856E+03 -0.87649701504E+03  0.13883668246E+04  0.50400001928E-02 0.  1.
       -1    1    3    3    0  502  0.50665984217E+03 -0.95005853856E+03  0.22774883575E+03  0.11005384839E+04  0.50400001928E-02 0. -1.
</event>
<event>
 5   0  0.5064437E-06  0.2398552E+04  0.7818609E-02  0.8440046E-01
       -1   -1    0    0    0  501  0.00000000000E+00  0.00000000000E+00  0.12090968400E+04  0.12090968400E+04  0.50400001928E-02 0. -1.
        1   -1    0    0  501    0  0.00000000000E+00  0.00000000000E+00 -0.11895344919E+04  0.11895344919E+04  0.50400001928E-02 0.  1.
    10030    2    1    2    0    0  0.00000000000E+00  0.00000000000E+00  0.19562348116E+02  0.23986313319E+04  0.23985515589E+04 0.  0.
        2    1    3    3  502    0  0.64719972072E+03  0.61871383845E+02  0.10175680577E+04  0.12075348022E+04  0.25500000920E-02 0. -1.
       -2    1    3    3    0  502 -0.64719972072E+03 -0.61871383845E+02 -0.99800570955E+03  0.11910965296E+04  0.25500000920E-02 0.  1.
</event>
<event>
 5   0  0.4067750E-06  0.2403197E+04  0.7818609E-02  0.8438308E-01
        4   -1    0    0  501    0  0.00000000000E+00  0.00000000000E+00  0.16359213009E+04  0.16359217939E+04  0.12699999809E+01 0. -1.
       -4   -1    0    0    0  501  0.00000000000E+00  0.00000000000E+00 -0.88258361557E+03  0.88258452930E+03  0.12699999809E+01 0.  1.
    10030    2    1    2    0    0  0.00000000000E+00  0.00000000000E+00  0.75333768533E+03  0.25185063232E+04  0.24031971271E+04 0.  0.
        4    1    3    3  502    0  0.20505770213E+03  0.51665752315E+03 -0.73974089201E+03  0.92531176240E+03  0.12699999809E+01 0.  1.
       -4    1    3    3    0  502 -0.20505770213E+03 -0.51665752315E+03  0.14930785773E+04  0.15931945608E+04  0.12699999809E+01 0. -1.
</event>
<event>
 5   0  0.1169371E-05  0.2391658E+04  0.7818609E-02  0.8442633E-01
       -2   -1    0    0    0  501  0.00000000000E+00  0.00000000000E+00  0.73096564172E+03  0.73096564172E+03  0.25500000920E-02 0.  1.
        2   -1    0    0  501    0  0.00000000000E+00  0.00000000000E+00 -0.19563253347E+04  0.19563253347E+04  0.25500000920E-02 0. -1.
    10030    2    1    2    0    0  0.00000000000E+00  0.00000000000E+00 -0.12253596930E+04  0.26872909764E+04  0.23916576709E+04 0.  0.
        2    1    3    3  502    0  0.27364642066E+03  0.21348234967E+03  0.67312968442E+03  0.75733786992E+03  0.25500000920E-02 0.  1.
       -2    1    3    3    0  502 -0.27364642066E+03 -0.21348234967E+03 -0.18984893774E+04  0.19299531065E+04  0.25500000920E-02 0. -1.
</event>
<event>
 5   0  0.5042742E-06  0.2404208E+04  0.7818609E-02  0.8437930E-01
        1   -1    0    0  501    0  0.00000000000E+00  0.00000000000E+00  0.15799630266E+04  0.15799630266E+04  0.50400001928E-02 0.  1.
       -1   -1    0    0    0  501  0.00000000000E+00  0.00000000000E+00 -0.91461232851E+03  0.91461232852E+03  0.50400001928E-02 0. -1.
    10030    2    1    2    0    0  0.00000000000E+00  0.00000000000E+00  0.66535069812E+03  0.24945753552E+04  0.24042076972E+04 0.  0.
        5    1    3    3  502    0  0.79812731266E+03 -0.74636001866E+03  0.85247560744E+03  0.13859282939E+04  0.46999998093E+01 0.  1.
       -5    1    3    3    0  502 -0.79812731266E+03  0.74636001866E+03 -0.18712490932E+03  0.11086470612E+04  0.46999998093E+01 0. -1.
</event>
<event>
 5   0  0.5034479E-06  0.2397663E+04  0.7818609E-02  0.8440379E-01
       -1   -1    0    0    0  501  0.00000000000E+00  0.00000000000E+00  0.14705147892E+04  0.14705147892E+04  0.50400001928E-02 0.  1.
        1   -1    0    0  501    0  0.00000000000E+00  0.00000000000E+00 -0.97734239983E+03  0.97734239985E+03  0.50400001928E-02 0. -1.
    10030    2    1    2    0    0  0.00000000000E+00  0.00000000000E+00  0.49317238935E+03  0.24478571890E+04  0.23976625727E+04 0.  0.
        4    1    3    3  502    0 -0.12121762828E+03 -0.86481337380E+03  0.10851205199E+04  0.13928689962E+04  0.12699999809E+01 0.  1.
       -4    1    3    3    0  502  0.12121762828E+03  0.86481337380E+03 -0.59194813055E+03  0.10549881929E+04  0.12699999809E+01 0. -1.
</event>
<event>
 5   0  0.5104174E-06  0.2416176E+04  0.7818609E-02  0.8433472E-01
        1   -1    0    0  501    0  0.00000000000E+00  0.00000000000E+00  0.12855782441E+04  0.12855782441E+04  0.50400001928E-02 0.  1.
       -1   -1    0    0    0  501  0.00000000000E+00  0.00000000000E+00 -0.11352689727E+04  0.11352689728E+04  0.50400001928E-02 0. -1.
    10030    2    1    2    0    0  0.00000000000E+00  0.00000000000E+00  0.15030927137E+03  0.24208472169E+04  0.24161763947E+04 0.  0.
        3    1    3    3  502    0  0.64317953921E+03  0.22446665149E+02  0.10995269439E+04  0.12740264059E+04  0.10100000352E+00 0.  1.
       -3    1    3    3    0  502 -0.64317953921E+03 -0.22446665149E+02 -0.94921767251E+03  0.11468208110E+04  0.10100000352E+00 0. -1.
</event>
<event>
 5   0  0.5042742E-06  0.2390100E+04  0.7818609E-02  0.8443219E-01
        1   -1    0    0  501    0  0.00000000000E+00  0.00000000000E+00  0.11491293859E+04  0.11491293860E+04  0.50400001928E-02 0.  1.
       -1   -1    0    0    0  501  0.00000000000E+00  0.00000000000E+00 -0.12428053254E+04  0.12428053254E+04  0.50400001928E-02 0. -1.
    10030    2    1    2    0    0  0.00000000000E+00  0.00000000000E+00 -0.93675939480E+02  0.23919347114E+04  0.23900996803E+04 0.  0.
        5    1    3    3  502    0  0.10205760434E+04  0.48108125197E+03 -0.44097711043E+03  0.12114031258E+04  0.46999998093E+01 0. -1.
       -5    1    3    3    0  502 -0.10205760434E+04 -0.48108125197E+03  0.34730117095E+03  0.11805315856E+04  0.46999998093E+01 0.  1.
</event>
<event>
 5   0  0.1169371E-05  0.2384507E+04  0.7818609E-02  0.8445327E-01
        2   -1    0    0  501    0  0.00000000000E+00  0.00000000000E+00  0.16125027276E+04  0.16125027276E+04  0.25500000920E-02 0.  1.
       -2   -1    0    0    0  501  0.00000000000E+00  0.00000000000E+00 -0.88152895340E+03  0.88152895341E+03  0.25500000920E-02 0. -1.
    10030    2    1    2    0    0  0.00000000000E+00  0.00000000000E+00  0.73097377421E+03  0.24940316810E+04  0.23845065249E+04 0.  0.
        2    1    3    3  502    0 -0.12072757648E+03 -0.55978203928E+03 -0.72826834775E+03  0.92644798319E+03  0.25500000920E-02 0. -1.
       -2    1    3    3    0  502  0.12072757648E+03  0.55978203928E+03  0.14592421220E+04  0.15675836978E+04  0.25500000920E-02 0.  1.
</event>
<event>
 5   0  0.1169371E-05  0.2408766E+04  0.7818609E-02  0.8436229E-01
        2   -1    0    0  501    0  0.00000000000E+00  0.00000000000E+00  0.12667545209E+04  0.12667545209E+04  0.25500000920E-02 0.  1.
       -2   -1    0    0    0  501  0.00000000000E+00  0.00000000000E+00 -0.11450821410E+04  0.11450821410E+04  0.25500000920E-02 0. -1.
    10030    2    1    2    0    0  0.00000000000E+00  0.00000000000E+00  0.12167237992E+03  0.24118366619E+04  0.24087656415E+04 0.  0.
        2    1    3    3  502    0 -0.89512643227E+03 -0.49559825990E+03  0.69699574062E+03  0.12380113196E+04  0.25500000920E-02 0.  1.
       -2    1    3    3    0  502  0.89512643227E+03  0.49559825990E+03 -0.57532336070E+03  0.11738253423E+04  0.25500000920E-02 0. -1.
</event>
<event>
 5   0  0.5034479E-06  0.2402740E+04  0.7818609E-02  0.8438479E-01
        1   -1    0    0  501    0  0.00000000000E+00  0.00000000000E+00  0.16191323487E+04  0.16191323488E+04  0.50400001928E-02 0.  1.
       -1   -1    0    0    0  501  0.00000000000E+00  0.00000000000E+00 -0.89139679744E+03  0.89139679745E+03  0.50400001928E-02 0. -1.
    10030    2    1    2    0    0  0.00000000000E+00  0.00000000000E+00  0.72773555131E+03  0.25105291462E+04  0.24027395950E+04 0.  0.
        4    1    3    3  502    0  0.43712986267E+02  0.11993008155E+04  0.42161472742E+03  0.12720038768E+04  0.12699999809E+01 0.  1.
       -4    1    3    3    0  502 -0.43712986267E+02 -0.11993008155E+04  0.30612082389E+03  0.12385252694E+04  0.12699999809E+01 0. -1.
</event>
<event>
 5   0  0.5196696E-06  0.2410614E+04  0.7818609E-02  0.8435540E-01
       -1   -1    0    0    0  501  0.00000000000E+00  0.00000000000E+00  0.75203261547E+03  0.75203261549E+03  0.50400001928E-02 0.  1.
        1   -1    0    0  501    0  0.00000000000E+00  0.00000000000E+00 -0.19317850491E+04  0.19317850491E+04  0.50400001928E-02 0. -1.
    10030    2    1    2    0    0  0.00000000000E+00  0.00000000000E+00 -0.11797524336E+04  0.26838176646E+04  0.24106143309E+04 0.  0.
        1    1    3    3  502    0  0.98185779082E+03 -0.94506406883E+02  0.18129444340E+03  0.10029176724E+04  0.50400001928E-02 0.  1.
       -1    1    3    3    0  502 -0.98185779082E+03  0.94506406883E+02 -0.13610468770E+04  0.16808999922E+04  0.50400001928E-02 0. -1.
</event>
<event>
 5   0  0.5196696E-06  0.2396213E+04  0.7818609E-02  0.8440923E-01
        1   -1    0    0  501    0  0.00000000000E+00  0.00000000000E+00  0.14123401822E+04  0.14123401823E+04  0.50400001928E-02 0. -1.
       -1   -1    0    0    0  501  0.00000000000E+00  0.00000000000E+00 -0.10163688795E+04  0.10163688795E+04  0.50400001928E-02 0.  1.
    10030    2    1    2    0    0  0.00000000000E+00  0.00000000000E+00  0.39597130273E+03  0.24287090618E+04  0.23962125186E+04 0.  0.
        1    1    3    3  502    0  0.60037755004E+03 -0.96081804874E+03 -0.19695768999E+03  0.11499638503E+04  0.50400001928E-02 0.  1.
       -1    1    3    3    0  502 -0.60037755004E+03  0.96081804874E+03  0.59292899273E+03  0.12787452115E+04  0.50400001928E-02 0. -1.
</event>
<event>
 5   0  0.5042742E-06  0.2397110E+04  0.7818609E-02  0.8440586E-01
       -1   -1    0    0    0  501  0.00000000000E+00  0.00000000000E+00  0.20787699375E+04  0.20787699375E+04  0.50400001928E-02 0. -1.
        1   -1    0    0  501    0  0.00000000000E+00  0.00000000000E+00 -0.69105030891E+03  0.69105030893E+03  0.50400001928E-02 0.  1.
    10030    2    1    2    0    0  0.00000000000E+00  0.00000000000E+00  0.13877196286E+04  0.27698202465E+04  0.23971104334E+04 0.  0.
        5    1    3    3  502    0  0.24160031740E+02 -0.10776105270E+04  0.88267281558E+02  0.10814995876E+04  0.46999998093E+01 0.  1.
       -5    1    3    3    0  502 -0.24160031740E+02  0.10776105270E+04  0.12994523471E+04  0.16883206589E+04  0.46999998093E+01 0. -1.
</event>
<event>
 5   0  0.1154897E-05  0.2413999E+04  0.7818609E-02  0.8434281E-01
       -2   -1    0    0    0  501  0.00000000000E+00  0.00000000000E+00  0.17525725750E+04  0.17525725750E+04  0.25500000920E-02 0.  1.
        2   -1    0    0  501    0  0.00000000000E+00  0.00000000000E+00 -0.83126224413E+03  0.83126224413E+03  0.25500000920E-02 0. -1.
    10030    2    1    2    0    0  0.00000000000E+00  0.00000000000E+00  0.92131033084E+03  0.25838348191E+04  0.24139986841E+04 0.  0.
        4    1    3    3  502    0  0.96766360090E+03  0.34096766850E+03 -0.21985308479E+03  0.10492705977E+04  0.12699999809E+01 0. -1.
       -4    1    3    3    0  502 -0.96766360090E+03 -0.34096766850E+03  0.11411634156E+04  0.15345642214E+04  0.12699999809E+01 0.  1.
</event>
<event>
 5   0  0.1174210E-05  0.2419784E+04  0.7818609E-02  0.8432134E-01
       -2   -1    0    0    0  501  0.00000000000E+00  0.00000000000E+00  0.77147552439E+03  0.77147552439E+03  0.25500000920E-02 0.  1.
        2   -1    0    0  501    0  0.00000000000E+00  0.00000000000E+00 -0.18974535223E+04  0.18974535223E+04  0.25500000920E-02 0. -1.
    10030    2    1    2    0    0  0.00000000000E+00  0.00000000000E+00 -0.11259779979E+04  0.26689290467E+04  0.24197842475E+04 0.  0.
        3    1    3    3  502    0  0.91578438960E+02  0.47916777748E+03  0.65818950230E+03  0.81926906484E+03  0.10100000352E+00 0.  1.
       -3    1    3    3    0  502 -0.91578438960E+02 -0.47916777748E+03 -0.17841675002E+04  0.18496599818E+04  0.10100000352E+00 0. -1.
</event>
<event>
 5   0  0.1168435E-05  0.2398332E+04  0.7818609E-02  0.8440128E-01
       -2   -1    0    0    0  501  0.00000000000E+00  0.00000000000E+00  0.46644667958E+03  0.46644667959E+03  0.25500000920E-02 0.  1.
        2   -1    0    0  501    0  0.00000000000E+00  0.00000000000E+00 -0.30828790047E+04  0.30828790047E+04  0.25500000920E-02 0. -1.
    10030    2    1    2    0    0  0.00000000000E+00  0.00000000000E+00 -0.26164323251E+04  0.35493256842E+04  0.23983316495E+04 0.  0.
        1    1    3    3  502    0 -0.76511317167E+03  0.16740457847E+03 -0.26520699367E+04  0.27653024080E+04  0.50400001928E-02 0. -1.
       -1    1    3    3    0  502  0.76511317167E+03 -0.16740457847E+03  0.35637611631E+02  0.78402327628E+03  0.50400001928E-02 0.  1.
</event>
<event>
 5   0  0.1174210E-05  0.2403634E+04  0.7818609E-02  0.8438144E-01
       -2   -1    0    0    0  501  0.00000000000E+00  0.00000000000E+00  0.72750333225E+03  0.72750333226E+03  0.25500000920E-02 0.  1.
        2   -1    0    0  501    0  0.00000000000E+00  0.00000000000E+00 -0.19853706753E+04  0.19853706753E+04  0.25500000920E-02 0. -1.
    10030    2    1    2    0    0  0.00000000000E+00  0.00000000000E+00 -0.12578673430E+04  0.27128740075E+04  0.24036337342E+04 0.  0.
        3    1    3    3  502    0 -0.88370134619E+03 -0.11335976938E+03 -0.15392942549E+04  0.17785402216E+04  0.10100000352E+00 0. -1.
       -3    1    3    3    0  502  0.88370134619E+03  0.11335976938E+03  0.28142691187E+03  0.93433378591E+03  0.10100000352E+00 0.  1.
</event>
<event>
 5   0  0.1198313E-05  0.2383046E+04  0.7818609E-02  0.8445878E-01
       -2   -1    0    0    0  501  0.00000000000E+00  0.00000000000E+00  0.91550662802E+03  0.91550662803E+03  0.25500000920E-02 0.  1.
        2   -1    0    0  501    0  0.00000000000E+00  0.00000000000E+00 -0.15507557187E+04  0.15507557187E+04  0.25500000920E-02 0. -1.
    10030    2    1    2    0    0  0.00000000000E+00  0.00000000000E+00 -0.63524909070E+03  0.24662623468E+04  0.23830460667E+04 0.  0.
        5    1    3    3  502    0 -0.11032550701E+04  0.30500473050E+03 -0.66009619799E+03  0.13213435269E+04  0.46999998093E+01 0. -1.
       -5    1    3    3    0  502  0.11032550701E+04 -0.30500473050E+03  0.24847107288E+02  0.11449188199E+04  0.46999998093E+01 0.  1.
</event>
<event>
 5   0  0.1198313E-05  0.2393394E+04  0.7818609E-02  0.8441981E-01
       -2   -1    0    0    0  501  0.00000000000E+00  0.00000000000E+00  0.58430361622E+03  0.58430361622E+03  0.25500000920E-02 0. -1.
        2   -1    0    0  501    0  0.00000000000E+00  0.00000000000E+00 -0.24509235094E+04  0.24509235094E+04  0.25500000920E-02 0.  1.
    10030    2    1    2    0    0  0.00000000000E+00  0.00000000000E+00 -0.18666198932E+04  0.30352271257E+04  0.23933937993E+04 0.  0.
        5    1    3    3  502    0 -0.28053361798E+03 -0.73297518661E+03 -0.20789581765E+04  0.22221703186E+04  0.46999998093E+01 0.  1.
       -5    1    3    3    0  502  0.28053361798E+03  0.73297518661E+03  0.21233828331E+03  0.81305680709E+03  0.46999998093E+01 0. -1.
</event>
<event>
 5   0  0.5104174E-06  0.2399417E+04  0.7818609E-02  0.8439722E-01
       -1   -1    0    0    0  501  0.00000000000E+00  0.00000000000E+00  0.80163984729E+03  0.80163984731E+03  0.50400001928E-02 0. -1.
        1   -1    0    0  501    0  0.00000000000E+00  0.00000000000E+00 -0.17954450288E+04  0.17954450288E+04  0.50400001928E-02 0.  1.
    10030    2    1    2    0    0  0.00000000000E+00  0.00000000000E+00 -0.99380518151E+03  0.25970848761E+04  0.23994168281E+04 0.  0.
        3    1    3    3  502    0  0.43192991757E+03  0.73049765860E+03  0.42096091463E+03  0.94731113408E+03  0.10100000352E+00 0. -1.
       -3    1    3    3    0  502 -0.43192991757E+03 -0.73049765860E+03 -0.14147660961E+04  0.16497737420E+04  0.10100000352E+00 0.  1.
</event>
<event>
 5   0  0.1154897E-05  0.2405620E+04  0.7818609E-02  0.8437402E-01
        2   -1    0    0  501    0  0.00000000000E+00  0.00000000000E+00  0.83600617080E+03  0.83600617080E+03  0.25500000920E-02 0.  1.
       -2   -1    0    0    0  501  0.00000000000E+00  0.00000000000E+00 -0.17305522113E+04  0.17305522113E+04  0.25500000920E-02 0. -1.
    10030    2    1    2    0    0  0.00000000000E+00  0.00000000000E+00 -0.89454604053E+03  0.25665583821E+04  0.24056203587E+04 0.  0.
        4    1    3    3  502    0 -0.37037367464E+03 -0.60957192734E+03  0.58602257581E+03  0.92313523697E+03  0.12699999809E+01 0.  1.
       -4    1    3    3    0  502  0.37037367464E+03  0.60957192734E+03 -0.14805686163E+04  0.16434231452E+04  0.12699999809E+01 0. -1.
</event>
<event>
 5   0  0.5104174E-06  0.2388533E+04  0.7818609E-02  0.8443809E-01
       -1   -1    0    0    0  501  0.00000000000E+00  0.00000000000E+00  0.10230792864E+04  0.10230792864E+04  0.50400001928E-02 0. -1.
        1   -1    0    0  501    0  0.00000000000E+00  0.00000000000E+00 -0.13940973062E+04  0.13940973062E+04  0.50400001928E-02 0.  1.
    10030    2    1    2    0    0  0.00000000000E+00  0.00000000000E+00 -0.37101801980E+03  0.24171765926E+04  0.23885326685E+04 0.  0.
        3    1    3    3  502    0 -0.67661216015E+03  0.67037008116E+03 -0.91461555721E+03  0.13205005447E+04  0.10100000352E+00 0.  1.
       -3    1    3    3    0  502  0.67661216015E+03 -0.67037008116E+03  0.54359753741E+03  0.10966760478E+04  0.10100000352E+00 0. -1.
</event>
<event>
 5   0  0.5064437E-06  0.2342046E+04  0.7818609E-02  0.8461525E-01
        1   -1    0    0  501    0  0.00000000000E+00  0.00000000000E+00  0.12787024287E+04  0.12787024287E+04  0.50400001928E-02 0. -1.
       -1   -1    0    0    0  501  0.00000000000E+00  0.00000000000E+00 -0.10724116052E+04  0.10724116052E+04  0.50400001928E-02 0.  1.
    10030    2    1    2    0    0  0.00000000000E+00  0.00000000000E+00  0.20629082348E+03  0.23511140339E+04  0.23420463908E+04 0.  0.
        2    1    3    3  502    0  0.64089868645E+03 -0.58189520153E+03  0.89483184677E+03  0.12450209580E+04  0.25500000920E-02 0. -1.
       -2    1    3    3    0  502 -0.64089868645E+03  0.58189520153E+03 -0.68854102329E+03  0.11060930759E+04  0.25500000920E-02 0.  1.
</event>
<event>
 5   0  0.5034479E-06  0.2395854E+04  0.7818609E-02  0.8441058E-01
        1   -1    0    0  501    0  0.00000000000E+00  0.00000000000E+00  0.10592357439E+04  0.10592357439E+04  0.50400001928E-02 0.  1.
       -1   -1    0    0    0  501  0.00000000000E+00  0.00000000000E+00 -0.13547772599E+04  0.13547772599E+04  0.50400001928E-02 0. -1.
    10030    2    1    2    0    0  0.00000000000E+00  0.00000000000E+00 -0.29554151601E+03  0.24140130038E+04  0.23958535002E+04 0.  0.
        4    1    3    3  502    0 -0.14672534858E+03 -0.11849806087E+03  0.10441821290E+04  0.10610787199E+04  0.12699999809E+01 0.  1.
       -4    1    3    3    0  502  0.14672534858E+03  0.11849806087E+03 -0.13397236451E+04  0.13529342838E+04  0.12699999809E+01 0. -1.
</event>
<event>
 5   0  0.1154897E-05  0.2400441E+04  0.7818609E-02  0.8439338E-01
        2   -1    0    0  501    0  0.00000000000E+00  0.00000000000E+00  0.12348940764E+04  0.12348940764E+04  0.25500000920E-02 0. -1.
       -2   -1    0    0    0  501  0.00000000000E+00  0.00000000000E+00 -0.11665205108E+04  0.11665205108E+04  0.25500000920E-02 0.  1.
    10030    2    1    2    0    0  0.00000000000E+00  0.00000000000E+00  0.68373565554E+02  0.24014145872E+04  0.24004410168E+04 0.  0.
        4    1    3    3  502    0 -0.57598894170E+03  0.96103284493E+03  0.46468708134E+03  0.12129645858E+04  0.12699999809E+01 0. -1.
       -4    1    3    3    0  502  0.57598894170E+03 -0.96103284493E+03 -0.39631351578E+03  0.11884500013E+04  0.12699999809E+01 0.  1.
</event>
<event>
 5   0  0.5042742E-06  0.2393425E+04  0.7818609E-02  0.8441969E-01
        1   -1    0    0  501    0  0.00000000000E+00  0.00000000000E+00  0.73028708983E+03  0.73028708985E+03  0.50400001928E-02 0.  1.
       -1   -1    0    0    0  501  0.00000000000E+00  0.00000000000E+00 -0.19610382181E+04  0.19610382181E+04  0.50400001928E-02 0. -1.
    10030    2    1    2    0    0  0.00000000000E+00  0.00000000000E+00 -0.12307511283E+04  0.26913253079E+04  0.23934250716E+04 0.  0.
        5    1    3    3  502    0  0.72365407822E+03 -0.73630539410E+03 -0.12959125665E+04  0.16568742645E+04  0.46999998093E+01 0. -1.
       -5    1    3    3    0  502 -0.72365407822E+03  0.73630539410E+03  0.65161438218E+02  0.10344510435E+04  0.46999998093E+01 0.  1.
</event>
<event>
 5   0  0.5042742E-06  0.2396334E+04  0.7818609E-02  0.8440877E-01
        1   -1    0    0  501    0  0.00000000000E+00  0.00000000000E+00  0.17537923535E+04  0.17537923536E+04  0.50400001928E-02 0. -1.
       -1   -1    0    0    0  501  0.00000000000E+00  0.00000000000E+00 -0.81857121724E+03  0.81857121726E+03  0.50400001928E-02 0.  1.
    10030    2    1    2    0    0  0.00000000000E+00  0.00000000000E+00  0.93522113631E+03  0.25723635708E+04  0.23963338179E+04 0.  0.
        5    1    3    3  502    0 -0.82142272243E+01 -0.10271782331E+04  0.11296994265E+04  0.15268940632E+04  0.46999998093E+01 0. -1.
       -5    1    3    3    0  502  0.82142272243E+01  0.10271782331E+04 -0.19447829016E+03  0.10454695076E+04  0.46999998093E+01 0.  1.
</event>
<event>
 5   0  0.5042742E-06  0.2401684E+04  0.7818609E-02  0.8438873E-01
        1   -1    0    0  501    0  0.00000000000E+00  0.00000000000E+00  0.12917340445E+04  0.12917340445E+04  0.50400001928E-02 0. -1.
       -1   -1    0    0    0  501  0.00000000000E+00  0.00000000000E+00 -0.11163454703E+04  0.11163454703E+04  0.50400001928E-02 0.  1.
    10030    2    1    2    0    0  0.00000000000E+00  0.00000000000E+00  0.17538857422E+03  0.24080795149E+04  0.24016839505E+04 0.  0.
        5    1    3    3  502    0 -0.94579693785E+01 -0.11862425671E+04 -0.99184653144E+02  0.11904287323E+04  0.46999998093E+01 0.  1.
       -5    1    3    3    0  502  0.94579693785E+01  0.11862425671E+04  0.27457322736E+03  0.12176507826E+04  0.46999998093E+01 0. -1.
</event>
<event>
 5   0  0.1198313E-05  0.2374177E+04  0.7818609E-02  0.8449235E-01
       -2   -1    0    0    0  501  0.00000000000E+00  0.00000000000E+00  0.78704639623E+03  0.78704639623E+03  0.25500000920E-02 0. -1.
        2   -1    0    0  501    0  0.00000000000E+00  0.00000000000E+00 -0.17904651174E+04  0.17904651174E+04  0.25500000920E-02 0.  1.
    10030    2    1    2    0    0  0.00000000000E+00  0.00000000000E+00 -0.10034187212E+04  0.25775115137E+04  0.23741770096E+04 0.  0.
        5    1    3    3  502    0  0.38748957486E+03  0.10988409187E+04 -0.25520000042E+03  0.11927902856E+04  0.46999998093E+01 0. -1.
       -5    1    3    3    0  502 -0.38748957486E+03 -0.10988409187E+04 -0.74821872078E+03  0.13847212280E+04  0.46999998093E+01 0.  1.
</event>
<event>
 5   0  0.1168435E-05  0.2394807E+04  0.7818609E-02  0.8441450E-01
       -2   -1    0    0    0  501  0.00000000000E+00  0.00000000000E+00  0.10550258161E+04  0.10550258161E+04  0.25500000920E-02 0. -1.
        2   -1    0    0  501    0  0.00000000000E+00  0.00000000000E+00 -0.13589948982E+04  0.13589948982E+04  0.25500000920E-02 0.  1.
    10030    2    1    2    0    0  0.00000000000E+00  0.00000000000E+00 -0.30396908211E+03  0.24140207143E+04  0.23948066323E+04 0.  0.
        1    1    3    3  502    0 -0.63488476292E+03  0.55935544872E+03 -0.10060232741E+04  0.13145493556E+04  0.50400001928E-02 0.  1.
       -1    1    3    3    0  502  0.63488476292E+03 -0.55935544872E+03  0.70205419198E+03  0.10994713587E+04  0.50400001928E-02 0. -1.
</event>
<event>
 5   0  0.5064437E-06  0.2375754E+04  0.7818609E-02  0.8448637E-01
        1   -1    0    0  501    0  0.00000000000E+00  0.00000000000E+00  0.14709961129E+04  0.14709961129E+04  0.50400001928E-02 0.  1.
       -1   -1    0    0    0  501  0.00000000000E+00  0.00000000000E+00 -0.95924924301E+03  0.95924924303E+03  0.50400001928E-02 0. -1.
    10030    2    1    2    0    0  0.00000000000E+00  0.00000000000E+00  0.51174686988E+03  0.24302453559E+04  0.23757541184E+04 0.  0.
        2    1    3    3  502    0  0.61813530644E+03  0.76500136804E+03 -0.42553855020E+03  0.10716349229E+04  0.25500000920E-02 0.  1.
       -2    1    3    3    0  502 -0.61813530644E+03 -0.76500136804E+03  0.93728542008E+03  0.13586104331E+04  0.25500000920E-02 0. -1.
</event>
<event>
 5   0  0.1198313E-05  0.2393899E+04  0.7818609E-02  0.8441791E-01
       -2   -1    0    0    0  501  0.00000000000E+00  0.00000000000E+00  0.13499005584E+04  0.13499005584E+04  0.25500000920E-02 0. -1.
        2   -1    0    0  501    0  0.00000000000E+00  0.00000000000E+00 -0.10613283261E+04  0.10613283261E+04  0.25500000920E-02 0.  1.
    10030    2    1    2    0    0  0.00000000000E+00  0.00000000000E+00  0.28857223228E+03  0.24112288845E+04  0.23938986612E+04 0.  0.
        5    1    3    3  502    0  0.14159551613E+03  0.95723578038E+03 -0.56531094007E+03  0.11206909379E+04  0.46999998093E+01 0.  1.
       -5    1    3    3    0  502 -0.14159551613E+03 -0.95723578038E+03  0.85388317235E+03  0.12905379465E+04  0.46999998093E+01 0. -1.
</event>
<event>
 5   0  0.1168435E-05  0.2396511E+04  0.7818609E-02  0.8440811E-01
        2   -1    0    0  501    0  0.00000000000E+00  0.00000000000E+00  0.18430154036E+04  0.18430154036E+04  0.25500000920E-02 0. -1.
       -2   -1    0    0    0  501  0.00000000000E+00  0.00000000000E+00 -0.77905792724E+03  0.77905792725E+03  0.25500000920E-02 0.  1.
    10030    2    1    2    0    0  0.00000000000E+00  0.00000000000E+00  0.10639574764E+04  0.26220733309E+04  0.23965105969E+04 0.  0.
        1    1    3    3  502    0  0.61138157099E+03 -0.21557689688E+02 -0.59531861964E+03  0.85361374067E+03  0.50400001928E-02 0.  1.
       -1    1    3    3    0  502 -0.61138157099E+03  0.21557689688E+02  0.16592760960E+04  0.17684595902E+04  0.50400001928E-02 0. -1.
</event>
<event>
 5   0  0.1168435E-05  0.2415354E+04  0.7818609E-02  0.8433778E-01
       -2   -1    0    0    0  501  0.00000000000E+00  0.00000000000E+00  0.81557460552E+03  0.81557460552E+03  0.25500000920E-02 0.  1.
        2   -1    0    0  501    0  0.00000000000E+00  0.00000000000E+00 -0.17882898543E+04  0.17882898543E+04  0.25500000920E-02 0. -1.
    10030    2    1    2    0    0  0.00000000000E+00  0.00000000000E+00 -0.97271524879E+03  0.26038644598E+04  0.24153540465E+04 0.  0.
        1    1    3    3  502    0  0.56092503973E+02  0.12046142162E+04 -0.55657160618E+03  0.13281617867E+04  0.50400001928E-02 0. -1.
       -1    1    3    3    0  502 -0.56092503973E+02 -0.12046142162E+04 -0.41614364261E+03  0.12757026731E+04  0.50400001928E-02 0.  1.
</event>
<event>
 5   0  0.1174210E-05  0.2274843E+04  0.7818609E-02  0.8487907E-01
       -2   -1    0    0    0  501  0.00000000000E+00  0.00000000000E+00  0.95827591375E+03  0.95827591375E+03  0.25500000920E-02 0.  1.
        2   -1    0    0  501    0  0.00000000000E+00  0.00000000000E+00 -0.13500580747E+04  0.13500580747E+04  0.25500000920E-02 0. -1.
    10030    2    1    2    0    0  0.00000000000E+00  0.00000000000E+00 -0.39178216092E+03  0.23083339884E+04  0.22748434101E+04 0.  0.
        3    1    3    3  502    0 -0.19308590711E+03 -0.10889491048E+04 -0.46557781641E+03  0.11999395959E+04  0.10100000352E+00 0. -1.
       -3    1    3    3    0  502  0.19308590711E+03  0.10889491048E+04  0.73795655488E+02  0.11083943925E+04  0.10100000352E+00 0.  1.
</event>
<event>
 5   0  0.5034479E-06  0.2394018E+04  0.7818609E-02  0.8441746E-01
       -1   -1    0    0    0  501  0.00000000000E+00  0.00000000000E+00  0.11470835629E+04  0.11470835629E+04  0.50400001928E-02 0. -1.
        1   -1    0    0  501    0  0.00000000000E+00  0.00000000000E+00 -0.12491078879E+04  0.12491078879E+04  0.50400001928E-02 0.  1.
    10030    2    1    2    0    0  0.00000000000E+00  0.00000000000E+00 -0.10202432504E+03  0.23961914508E+04  0.23940184849E+04 0.  0.
        4    1    3    3  502    0  0.58583474894E+03  0.10266108386E+04  0.13809674377E+03  0.11900439028E+04  0.12699999809E+01 0. -1.
       -4    1    3    3    0  502 -0.58583474894E+03 -0.10266108386E+04 -0.24012106881E+03  0.12061475480E+04  0.12699999809E+01 0.  1.
</event>
<event>
 5   0  0.5034479E-06  0.2408017E+04  0.7818609E-02  0.8436508E-01
        1   -1    0    0  501    0  0.00000000000E+00  0.00000000000E+00  0.14546336293E+04  0.14546336293E+04  0.50400001928E-02 0. -1.
       -1   -1    0    0    0  501  0.00000000000E+00  0.00000000000E+00 -0.99656469795E+03  0.99656469797E+03  0.50400001928E-02 0.  1.
    10030    2    1    2    0    0  0.00000000000E+00  0.00000000000E+00  0.45806893137E+03  0.24511983273E+04  0.24080170460E+04 0.  0.
        4    1    3    3  502    0 -0.71166214846E+03  0.54917768234E+03 -0.58631327420E+03  0.10732306410E+04  0.12699999809E+01 0.  1.
       -4    1    3    3    0  502  0.71166214846E+03 -0.54917768234E+03  0.10443822056E+04  0.13779676863E+04  0.12699999809E+01 0. -1.
</event>
<event>
 5   0  0.5196696E-06  0.2429247E+04  0.7818609E-02  0.8428634E-01
       -1   -1    0    0    0  501  0.00000000000E+00  0.00000000000E+00  0.97952380517E+03  0.97952380519E+03  0.50400001928E-02 0.  1.
        1   -1    0    0  501    0  0.00000000000E+00  0.00000000000E+00 -0.15061503467E+04  0.15061503467E+04  0.50400001928E-02 0. -1.
    10030    2    1    2    0    0  0.00000000000E+00  0.00000000000E+00 -0.52662654149E+03  0.24856741519E+04  0.24292468946E+04 0.  0.
        1    1    3    3  502    0  0.17674584948E+02  0.44376888210E+02  0.97856235389E+03  0.97972750275E+03  0.50400001928E-02 0.  1.
       -1    1    3    3    0  502 -0.17674584948E+02 -0.44376888210E+02 -0.15051888954E+04  0.15059466491E+04  0.50400001928E-02 0. -1.
</event>
<event>
 5   0  0.1198313E-05  0.2397542E+04  0.7818609E-02  0.8440424E-01
        2   -1    0    0  501    0  0.00000000000E+00  0.00000000000E+00  0.16066613086E+04  0.16066613086E+04  0.25500000920E-02 0.  1.
       -2   -1    0    0    0  501  0.00000000000E+00  0.00000000000E+00 -0.89443378558E+03  0.89443378559E+03  0.25500000920E-02 0. -1.
    10030    2    1    2    0    0  0.00000000000E+00  0.00000000000E+00  0.71222752305E+03  0.25010950942E+04  0.23975422052E+04 0.  0.
        5    1    3    3  502    0  0.58523111413E+03 -0.25311123300E+03 -0.70285091798E+03  0.94899012436E+03  0.46999998093E+01 0. -1.
       -5    1    3    3    0  502 -0.58523111413E+03  0.25311123300E+03  0.14150784410E+04  0.15521049699E+04  0.46999998093E+01 0.  1.
</event>
<event>
 5   0  0.5196696E-06  0.2273786E+04  0.7818609E-02  0.8488329E-01
        1   -1    0    0  501    0  0.00000000000E+00  0.00000000000E+00  0.12200421728E+04  0.12200421728E+04  0.50400001928E-02 0. -1.
       -1   -1    0    0    0  501  0.00000000000E+00  0.00000000000E+00 -0.10594102744E+04  0.10594102744E+04  0.50400001928E-02 0.  1.
    10030    2    1    2    0    0  0.00000000000E+00  0.00000000000E+00  0.16063189845E+03  0.22794524472E+04  0.22737855775E+04 0.  0.
        1    1    3    3  502    0  0.47893458044E+03 -0.56606447198E+03  0.94427463052E+03  0.12006089691E+04  0.50400001928E-02 0. -1.
       -1    1    3    3    0  502 -0.47893458044E+03  0.56606447198E+03 -0.78364273207E+03  0.10788434781E+04  0.50400001928E-02 0.  1.
</event>
<event>
 5   0  0.1198313E-05  0.2281315E+04  0.7818609E-02  0.8485325E-01
       -2   -1    0    0    0  501  0.00000000000E+00  0.00000000000E+00  0.13283577714E+04  0.13283577714E+04  0.25500000920E-02 0. -1.
        2   -1    0    0  501    0  0.00000000000E+00  0.00000000000E+00 -0.97947979915E+03  0.97947979916E+03  0.25500000920E-02 0.  1.
    10030    2    1    2    0    0  0.00000000000E+00  0.00000000000E+00  0.34887797228E+03  0.23078375706E+04  0.22813150621E+04 0.  0.
        5    1    3    3  502    0  0.14764828883E+03  0.22424825848E+03  0.12959258315E+04  0.13234550046E+04  0.46999998093E+01 0. -1.
       -5    1    3    3    0  502 -0.14764828883E+03 -0.22424825848E+03 -0.94704785917E+03  0.98438256597E+03  0.46999998093E+01 0.  1.
</event>
<event>
 5   0  0.1168435E-05  0.2423639E+04  0.7818609E-02  0.8430706E-01
       -2   -1    0    0    0  501  0.00000000000E+00  0.00000000000E+00  0.84729792210E+03  0.84729792210E+03  0.25500000920E-02 0.  1.
        2   -1    0    0  501    0  0.00000000000E+00  0.00000000000E+00 -0.17331643686E+04  0.17331643686E+04  0.25500000920E-02 0. -1.
    10030    2    1    2    0    0  0.00000000000E+00  0.00000000000E+00 -0.88586644652E+03  0.25804622907E+04  0.24236390558E+04 0.  0.
        1    1    3    3  502    0  0.40086068697E+03 -0.45748559629E+03 -0.15588566383E+04  0.16733249475E+04  0.50400001928E-02 0. -1.
       -1    1    3    3    0  502 -0.40086068697E+03  0.45748559629E+03  0.67299019179E+03  0.90713734321E+03  0.50400001928E-02 0.  1.
</event>
<event>
 5   0  0.1154897E-05  0.2402335E+04  0.7818609E-02  0.8438630E-01
       -2   -1    0    0    0  501  0.00000000000E+00  0.00000000000E+00  0.95327098619E+03  0.95327098619E+03  0.25500000920E-02 0. -1.
        2   -1    0    0  501    0  0.00000000000E+00  0.00000000000E+00 -0.15135295641E+04  0.15135295641E+04  0.25500000920E-02 0.  1.
    10030    2    1    2    0    0  0.00000000000E+00  0.00000000000E+00 -0.56025857794E+03  0.24668005503E+04  0.24023353806E+04 0.  0.
        4    1    3    3  502    0  0.60549047980E+03  0.10353382370E+04 -0.21312316342E+03  0.12181818755E+04  0.12699999809E+01 0. -1.
       -4    1    3    3    0  502 -0.60549047980E+03 -0.10353382370E+04 -0.34713541452E+03  0.12486186748E+04  0.12699999809E+01 0.  1.
</event>
<event>
 5   0  0.1198313E-05  0.2383338E+04  0.7818609E-02  0.8445768E-01
       -2   -1    0    0    0  501  0.00000000000E+00  0.00000000000E+00  0.12120703407E+04  0.12120703407E+04  0.25500000920E-02 0. -1.
        2   -1    0    0  501    0  0.00000000000E+00  0.00000000000E+00 -0.11716114998E+04  0.11716114998E+04  0.25500000920E-02 0.  1.
    10030    2    1    2    0    0  0.00000000000E+00  0.00000000000E+00  0.40458840903E+02  0.23836818404E+04  0.23833384566E+04 0.  0.
        5    1    3    3  502    0 -0.11804525251E+04 -0.53234265382E+02  0.17436654523E+03  0.11944571290E+04  0.46999998093E+01 0.  1.
       -5    1    3    3    0  502  0.11804525251E+04  0.53234265382E+02 -0.13390770432E+03  0.11892247114E+04  0.46999998093E+01 0. -1.
</event>
<event>
 5   0  0.5034479E-06  0.2399625E+04  0.7818609E-02  0.8439644E-01
       -1   -1    0    0    0  501  0.00000000000E+00  0.00000000000E+00  0.11188767949E+04  0.11188767949E+04  0.50400001928E-02 0. -1.
        1   -1    0    0  501    0  0.00000000000E+00  0.00000000000E+00 -0.12866027347E+04  0.12866027347E+04  0.50400001928E-02 0.  1.
    10030    2    1    2    0    0  0.00000000000E+00  0.00000000000E+00 -0.16772593980E+03  0.24054795296E+04  0.23996249241E+04 0.  0.
        4    1    3    3  502    0 -0.99176281598E+02 -0.69679842171E+03  0.89019925536E+03  0.11348217051E+04  0.12699999809E+01 0. -1.
       -4    1    3    3    0  502  0.99176281598E+02  0.69679842171E+03 -0.10579251952E+04  0.12706578244E+04  0.12699999809E+01 0.  1.
</event>
<event>
 5   0  0.1168435E-05  0.2358740E+04  0.7818609E-02  0.8455114E-01
        2   -1    0    0  501    0  0.00000000000E+00  0.00000000000E+00  0.27880498301E+04  0.27880498301E+04  0.25500000920E-02 0.  1.
       -2   -1    0    0    0  501  0.00000000000E+00  0.00000000000E+00 -0.49888398327E+03  0.49888398328E+03  0.25500000920E-02 0. -1.
    10030    2    1    2    0    0  0.00000000000E+00  0.00000000000E+00  0.22891658468E+04  0.32869338133E+04  0.23587398371E+04 0.  0.
        1    1    3    3  502    0  0.66557466381E+03 -0.35170425898E+03 -0.12054537173E+03  0.76237569843E+03  0.50400001928E-02 0. -1.
       -1    1    3    3    0  502 -0.66557466381E+03  0.35170425898E+03  0.24097112185E+04  0.25245581149E+04  0.50400001928E-02 0.  1.
</event>
<event>
 5   0  0.5034479E-06  0.2401355E+04  0.7818609E-02  0.8438996E-01
       -1   -1    0    0    0  501  0.00000000000E+00  0.00000000000E+00  0.68679486848E+03  0.68679486850E+03  0.50400001928E-02 0.  1.
        1   -1    0    0  501    0  0.00000000000E+00  0.00000000000E+00 -0.20990649514E+04  0.20990649514E+04  0.50400001928E-02 0. -1.
    10030    2    1    2    0    0  0.00000000000E+00  0.00000000000E+00 -0.14122700829E+04  0.27858598199E+04  0.24013554816E+04 0.  0.
        4    1    3    3  502    0  0.96364903655E+03 -0.59868863892E+03 -0.11622522599E+04  0.16241550051E+04  0.12699999809E+01 0. -1.
       -4    1    3    3    0  502 -0.96364903655E+03  0.59868863892E+03 -0.25001782299E+03  0.11617048148E+04  0.12699999809E+01 0.  1.
</event>
<event>
 5   0  0.5064437E-06  0.2400504E+04  0.7818609E-02  0.8439315E-01
       -1   -1    0    0    0  501  0.00000000000E+00  0.00000000000E+00  0.79587225790E+03  0.79587225791E+03  0.50400001928E-02 0.  1.
        1   -1    0    0  501    0  0.00000000000E+00  0.00000000000E+00 -0.18100958523E+04  0.18100958523E+04  0.50400001928E-02 0. -1.
    10030    2    1    2    0    0  0.00000000000E+00  0.00000000000E+00 -0.10142235944E+04  0.26059681103E+04  0.24005041746E+04 0.  0.
        2    1    3    3  502    0 -0.88257923324E+03  0.36614823312E+03  0.28141550844E+03  0.99609503561E+03  0.25500000920E-02 0.  1.
       -2    1    3    3    0  502  0.88257923324E+03 -0.36614823312E+03 -0.12956391029E+04  0.16098730746E+04  0.25500000920E-02 0. -1.
</event>
<event>
 5   0  0.5064437E-06  0.2401733E+04  0.7818609E-02  0.8438855E-01
        1   -1    0    0  501    0  0.00000000000E+00  0.00000000000E+00  0.14151650893E+04  0.14151650893E+04  0.50400001928E-02 0.  1.
       -1   -1    0    0    0  501  0.00000000000E+00  0.00000000000E+00 -0.10190191725E+04  0.10190191725E+04  0.50400001928E-02 0. -1.
    10030    2    1    2    0    0  0.00000000000E+00  0.00000000000E+00  0.39614591677E+03  0.24341842618E+04  0.24017330062E+04 0.  0.
        2    1    3    3  502    0 -0.21404638336E+03 -0.39914432099E+03 -0.92913617841E+03  0.10336469810E+04  0.25500000920E-02 0. -1.
       -2    1    3    3    0  502  0.21404638336E+03  0.39914432099E+03  0.13252820952E+04  0.14005372808E+04  0.25500000920E-02 0.  1.
</event>
<event>
 5   0  0.5196696E-06  0.2400383E+04  0.7818609E-02  0.8439360E-01
        1   -1    0    0  501    0  0.00000000000E+00  0.00000000000E+00  0.16771507291E+04  0.16771507291E+04  0.50400001928E-02 0.  1.
       -1   -1    0    0    0  501  0.00000000000E+00  0.00000000000E+00 -0.85887338671E+03  0.85887338672E+03  0.50400001928E-02 0. -1.
    10030    2    1    2    0    0  0.00000000000E+00  0.00000000000E+00  0.81827734242E+03  0.25360241159E+04  0.24003834083E+04 0.  0.
        1    1    3    3  502    0  0.47516344854E+03  0.17754408319E+02  0.15733915300E+04  0.16436716304E+04  0.50400001928E-02 0.  1.
       -1    1    3    3    0  502 -0.47516344854E+03 -0.17754408319E+02 -0.75511418763E+03  0.89235248542E+03  0.50400001928E-02 0. -1.
</event>
<event>
 5   0  0.5034479E-06  0.2394567E+04  0.7818609E-02  0.8441540E-01
        1   -1    0    0  501    0  0.00000000000E+00  0.00000000000E+00  0.10200753316E+04  0.10200753316E+04  0.50400001928E-02 0.  1.
       -1   -1    0    0    0  501  0.00000000000E+00  0.00000000000E+00 -0.14052763151E+04  0.14052763152E+04  0.50400001928E-02 0. -1.
    10030    2    1    2    0    0  0.00000000000E+00  0.00000000000E+00 -0.38520098360E+03  0.24253516467E+04  0.23945669363E+04 0.  0.
        4    1    3    3  502    0  0.95401368112E+03 -0.62592849294E+03 -0.55997206910E+03  0.12710227823E+04  0.12699999809E+01 0. -1.
       -4    1    3    3    0  502 -0.95401368112E+03  0.62592849294E+03  0.17477108550E+03  0.11543288644E+04  0.12699999809E+01 0.  1.
</event>
<event>
 5   0  0.1154897E-05  0.2410197E+04  0.7818609E-02  0.8435696E-01
       -2   -1    0    0    0  501  0.00000000000E+00  0.00000000000E+00  0.22483937930E+04  0.22483937930E+04  0.25500000920E-02 0.  1.
        2   -1    0    0  501    0  0.00000000000E+00  0.00000000000E+00 -0.64591091981E+03  0.64591091981E+03  0.25500000920E-02 0. -1.
    10030    2    1    2    0    0  0.00000000000E+00  0.00000000000E+00  0.16024828732E+04  0.28943047128E+04  0.24101967579E+04 0.  0.
        4    1    3    3  502    0 -0.49440463074E+03 -0.69335092453E+03  0.18252074802E+04  0.20140892240E+04  0.12699999809E+01 0.  1.
       -4    1    3    3    0  502  0.49440463074E+03  0.69335092453E+03 -0.22272460696E+03  0.88021548889E+03  0.12699999809E+01 0. -1.
</event>
<event>
 5   0  0.1169371E-05  0.2398416E+04  0.7818609E-02  0.8440097E-01
       -2   -1    0    0    0  501  0.00000000000E+00  0.00000000000E+00  0.87457763892E+03  0.87457763893E+03  0.25500000920E-02 0. -1.
        2   -1    0    0  501    0  0.00000000000E+00  0.00000000000E+00 -0.16443364164E+04  0.16443364164E+04  0.25500000920E-02 0.  1.
    10030    2    1    2    0    0  0.00000000000E+00  0.00000000000E+00 -0.76975877744E+03  0.25189140553E+04  0.23984160278E+04 0.  0.
        2    1    3    3  502    0  0.45429635767E+03  0.78246961962E+03  0.44171804937E+03  0.10068558593E+04  0.25500000920E-02 0. -1.
       -2    1    3    3    0  502 -0.45429635767E+03 -0.78246961962E+03 -0.12114768268E+04  0.15120581960E+04  0.25500000920E-02 0.  1.
</event>
<event>
 5   0  0.5042742E-06  0.2478252E+04  0.7818609E-02  0.8410775E-01
       -1   -1    0    0    0  501  0.00000000000E+00  0.00000000000E+00  0.97896437301E+03  0.97896437302E+03  0.50400001928E-02 0.  1.
        1   -1    0    0  501    0  0.00000000000E+00  0.00000000000E+00 -0.15684260138E+04  0.15684260138E+04  0.50400001928E-02 0. -1.
    10030    2    1    2    0    0  0.00000000000E+00  0.00000000000E+00 -0.58946164079E+03  0.25473903868E+04  0.24782519559E+04 0.  0.
        5    1    3    3  502    0  0.12468890671E+03 -0.15610662720E+02  0.97238863807E+03  0.98048598649E+03  0.46999998093E+01 0.  1.
       -5    1    3    3    0  502 -0.12468890671E+03  0.15610662720E+02 -0.15618502789E+04  0.15669044003E+04  0.46999998093E+01 0. -1.
</event>
<event>
 5   0  0.1169371E-05  0.2407685E+04  0.7818609E-02  0.8436632E-01
       -2   -1    0    0    0  501  0.00000000000E+00  0.00000000000E+00  0.66859087148E+03  0.66859087149E+03  0.25500000920E-02 0.  1.
        2   -1    0    0  501    0  0.00000000000E+00  0.00000000000E+00 -0.21675993215E+04  0.21675993215E+04  0.25500000920E-02 0. -1.
    10030    2    1    2    0    0  0.00000000000E+00  0.00000000000E+00 -0.14990084500E+04  0.28361901930E+04  0.24076852946E+04 0.  0.
        2    1    3    3  502    0 -0.11997072858E+04 -0.67460084458E+02 -0.66303192297E+03  0.13723919868E+04  0.25500000920E-02 0. -1.
       -2    1    3    3    0  502  0.11997072858E+04  0.67460084458E+02 -0.83597652707E+03  0.14637982062E+04  0.25500000920E-02 0.  1.
</event>
<event>
 5   0  0.5042742E-06  0.2401247E+04  0.7818609E-02  0.8439037E-01
       -1   -1    0    0    0  501  0.00000000000E+00  0.00000000000E+00  0.16760066366E+04  0.16760066366E+04  0.50400001928E-02 0.  1.
        1   -1    0    0  501    0  0.00000000000E+00  0.00000000000E+00 -0.86007812019E+03  0.86007812021E+03  0.50400001928E-02 0. -1.
    10030    2    1    2    0    0  0.00000000000E+00  0.00000000000E+00  0.81592851644E+03  0.25360847569E+04  0.24012468740E+04 0.  0.
        5    1    3    3  502    0  0.72341519205E+03  0.36818405818E+03 -0.52634973115E+03  0.96744776100E+03  0.46999998093E+01 0. -1.
       -5    1    3    3    0  502 -0.72341519205E+03 -0.36818405818E+03  0.13422782476E+04  0.15686369959E+04  0.46999998093E+01 0.  1.
</event>
<event>
 5   0  0.1168435E-05  0.2403751E+04  0.7818609E-02  0.8438101E-01
        2   -1    0    0  501    0  0.00000000000E+00  0.00000000000E+00  0.14713916587E+04  0.14713916587E+04  0.25500000920E-02 0.  1.
       -2   -1    0    0    0  501  0.00000000000E+00  0.00000000000E+00 -0.98172702554E+03  0.98172702554E+03  0.25500000920E-02 0. -1.
    10030    2    1    2    0    0  0.00000000000E+00  0.00000000000E+00  0.48966463317E+03  0.24531186842E+04  0.24037511989E+04 0.  0.
        1    1    3    3  502    0 -0.93704982145E+03 -0.17873538300E+03 -0.50127513654E+03  0.10776295595E+04  0.50400001928E-02 0.  1.
       -1    1    3    3    0  502  0.93704982145E+03  0.17873538300E+03  0.99093976971E+03  0.13754891247E+04  0.50400001928E-02 0. -1.
</event>
<event>
 5   0  0.1154897E-05  0.2392931E+04  0.7818609E-02  0.8442155E-01
        2   -1    0    0  501    0  0.00000000000E+00  0.00000000000E+00  0.21005414871E+04  0.21005414871E+04  0.25500000920E-02 0. -1.
       -2   -1    0    0    0  501  0.00000000000E+00  0.00000000000E+00 -0.68150482124E+03  0.68150482124E+03  0.25500000920E-02 0.  1.
    10030    2    1    2    0    0  0.00000000000E+00  0.00000000000E+00  0.14190366658E+04  0.27820463083E+04  0.23929305470E+04 0.  0.
        4    1    3    3  502    0  0.32403946575E+03 -0.69242977074E+03  0.17795413899E+04  0.19368091630E+04  0.12699999809E+01 0. -1.
       -4    1    3    3    0  502 -0.32403946575E+03  0.69242977074E+03 -0.36050472407E+03  0.84523714527E+03  0.12699999809E+01 0.  1.
</event>
<event>
 5   0  0.5042742E-06  0.2417584E+04  0.7818609E-02  0.8432950E-01
        1   -1    0    0  501    0  0.00000000000E+00  0.00000000000E+00  0.23241370374E+04  0.23241370374E+04  0.50400001928E-02 0. -1.
       -1   -1    0    0    0  501  0.00000000000E+00  0.00000000000E+00 -0.62869691877E+03  0.62869691879E+03  0.50400001928E-02 0.  1.
    10030    2    1    2    0    0  0.00000000000E+00  0.00000000000E+00  0.16954401187E+04  0.29528339562E+04  0.24175837477E+04 0.  0.
        5    1    3    3  502    0  0.27573830935E+03 -0.14623675941E+02  0.22850891838E+04  0.23017167800E+04  0.46999998093E+01 0. -1.
       -5    1    3    3    0  502 -0.27573830935E+03  0.14623675941E+02 -0.58964906518E+03  0.65111717625E+03  0.46999998093E+01 0.  1.
</event>
<event>
 5   0  0.1154897E-05  0.2388353E+04  0.7818609E-02  0.8443877E-01
        2   -1    0    0  501    0  0.00000000000E+00  0.00000000000E+00  0.88063425943E+03  0.88063425943E+03  0.25500000920E-02 0. -1.
       -2   -1    0    0    0  501  0.00000000000E+00  0.00000000000E+00 -0.16193522571E+04  0.16193522571E+04  0.25500000920E-02 0.  1.
    10030    2    1    2    0    0  0.00000000000E+00  0.00000000000E+00 -0.73871799765E+03  0.24999865165E+04  0.23883526337E+04 0.  0.
        4    1    3    3  502    0 -0.47158557490E+03 -0.10234448309E+04  0.44366189818E+02  0.11277421017E+04  0.12699999809E+01 0.  1.
       -4    1    3    3    0  502  0.47158557490E+03  0.10234448309E+04 -0.78308418746E+03  0.13722444148E+04  0.12699999809E+01 0. -1.
</event>
<event>
 5   0  0.1198313E-05  0.2401131E+04  0.7818609E-02  0.8439080E-01
       -2   -1    0    0    0  501  0.00000000000E+00  0.00000000000E+00  0.12179423863E+04  0.12179423863E+04  0.25500000920E-02 0. -1.
        2   -1    0    0  501    0  0.00000000000E+00  0.00000000000E+00 -0.11834364717E+04  0.11834364717E+04  0.25500000920E-02 0.  1.
    10030    2    1    2    0    0  0.00000000000E+00  0.00000000000E+00  0.34505914663E+02  0.24013788580E+04  0.24011309338E+04 0.  0.
        5    1    3    3  502    0 -0.11723174851E+04  0.16994000745E+03 -0.17802974090E+03  0.11978833711E+04  0.46999998093E+01 0. -1.
       -5    1    3    3    0  502  0.11723174851E+04 -0.16994000745E+03  0.21253565557E+03  0.12034954869E+04  0.46999998093E+01 0.  1.
</event>
<event>
 5   0  0.1168435E-05  0.2394025E+04  0.7818609E-02  0.8441744E-01
       -2   -1    0    0    0  501  0.00000000000E+00  0.00000000000E+00  0.14640753556E+04  0.14640753556E+04  0.25500000920E-02 0. -1.
        2   -1    0    0  501    0  0.00000000000E+00  0.00000000000E+00 -0.97866464611E+03  0.97866464611E+03  0.25500000920E-02 0.  1.
    10030    2    1    2    0    0  0.00000000000E+00  0.00000000000E+00  0.48541070947E+03  0.24427400017E+04  0.23940248869E+04 0.  0.
        1    1    3    3  502    0  0.11404486650E+04 -0.36361355041E+03  0.24362828479E+03  0.12215534015E+04  0.50400001928E-02 0.  1.
       -1    1    3    3    0  502 -0.11404486650E+04  0.36361355041E+03  0.24178242468E+03  0.12211866002E+04  0.50400001928E-02 0. -1.
</event>
<event>
 5   0  0.5034479E-06  0.2357514E+04  0.7818609E-02  0.8455583E-01
        1   -1    0    0  501    0  0.00000000000E+00  0.00000000000E+00  0.13483122433E+04  0.13483122433E+04  0.50400001928E-02 0.  1.
       -1   -1    0    0    0  501  0.00000000000E+00  0.00000000000E+00 -0.10305238930E+04  0.10305238930E+04  0.50400001928E-02 0. -1.
    10030    2    1    2    0    0  0.00000000000E+00  0.00000000000E+00  0.31778835029E+03  0.23788361363E+04  0.23575139295E+04 0.  0.
        4    1    3    3  502    0 -0.69489317220E+03  0.55738802018E+03  0.93782704185E+03  0.12934755889E+04  0.12699999809E+01 0.  1.
       -4    1    3    3    0  502  0.69489317220E+03 -0.55738802018E+03 -0.62003869155E+03  0.10853605473E+04  0.12699999809E+01 0. -1.
</event>
<event>
 5   0  0.1168435E-05  0.2401589E+04  0.7818609E-02  0.8438909E-01
       -2   -1    0    0    0  501  0.00000000000E+00  0.00000000000E+00  0.10925058468E+04  0.10925058468E+04  0.25500000920E-02 0.  1.
        2   -1    0    0  501    0  0.00000000000E+00  0.00000000000E+00 -0.13198164796E+04  0.13198164796E+04  0.25500000920E-02 0. -1.
    10030    2    1    2    0    0  0.00000000000E+00  0.00000000000E+00 -0.22731063281E+03  0.24123223265E+04  0.24015888247E+04 0.  0.
        1    1    3    3  502    0  0.68091690058E+03  0.82068218405E+03 -0.66815527671E+03  0.12584111198E+04  0.50400001928E-02 0. -1.
       -1    1    3    3    0  502 -0.68091690058E+03 -0.82068218405E+03  0.44084464390E+03  0.11539112066E+04  0.50400001928E-02 0.  1.
</event>
<event>
 5   0  0.5064437E-06  0.2396468E+04  0.7818609E-02  0.8440827E-01
       -1   -1    0    0    0  501  0.00000000000E+00  0.00000000000E+00  0.75735617053E+03  0.75735617054E+03  0.50400001928E-02 0. -1.
        1   -1    0    0  501    0  0.00000000000E+00  0.00000000000E+00 -0.18957585314E+04  0.18957585314E+04  0.50400001928E-02 0.  1.
    10030    2    1    2    0    0  0.00000000000E+00  0.00000000000E+00 -0.11384023609E+04  0.26531147020E+04  0.23964677520E+04 0.  0.
        2    1    3    3  502    0  0.30061829465E+03 -0.21805833254E+03  0.69203267838E+03  0.78538527069E+03  0.25500000920E-02 0. -1.
       -2    1    3    3    0  502 -0.30061829465E+03  0.21805833254E+03 -0.18304350393E+04  0.18677294313E+04  0.25500000920E-02 0.  1.
</event>
<event>
 5   0  0.1174210E-05  0.2422741E+04  0.7818609E-02  0.8431038E-01
       -2   -1    0    0    0  501  0.00000000000E+00  0.00000000000E+00  0.91843692722E+03  0.91843692722E+03  0.25500000920E-02 0. -1.
        2   -1    0    0  501    0  0.00000000000E+00  0.00000000000E+00 -0.15977349573E+04  0.15977349573E+04  0.25500000920E-02 0.  1.
    10030    2    1    2    0    0  0.00000000000E+00  0.00000000000E+00 -0.67929803003E+03  0.25161718845E+04  0.24227412447E+04 0.  0.
        3    1    3    3  502    0  0.10430482615E+03 -0.62626865648E+03 -0.14110962321E+04  0.15473475735E+04  0.10100000352E+00 0.  1.
       -3    1    3    3    0  502 -0.10430482615E+03  0.62626865648E+03  0.73179820203E+03  0.96882431098E+03  0.10100000352E+00 0. -1.
</event>
<event>
 5   0  0.5034479E-06  0.2401550E+04  0.7818609E-02  0.8438923E-01
        1   -1    0    0  501    0  0.00000000000E+00  0.00000000000E+00  0.88397242084E+03  0.88397242085E+03  0.50400001928E-02 0. -1.
       -1   -1    0    0    0  501  0.00000000000E+00  0.00000000000E+00 -0.16311149217E+04  0.16311149218E+04  0.50400001928E-02 0.  1.
    10030    2    1    2    0    0  0.00000000000E+00  0.00000000000E+00 -0.74714250091E+03  0.25150873426E+04  0.24015500045E+04 0.  0.
        4    1    3    3  502    0  0.29503765783E+03  0.83447797951E+03  0.47624604936E+03  0.10050933441E+04  0.12699999809E+01 0. -1.
       -4    1    3    3    0  502 -0.29503765783E+03 -0.83447797951E+03 -0.12233885503E+04  0.15099939986E+04  0.12699999809E+01 0.  1.
</event>
<event>
 5   0  0.5034479E-06  0.2395837E+04  0.7818609E-02  0.8441064E-01
       -1   -1    0    0    0  501  0.00000000000E+00  0.00000000000E+00  0.56058127264E+03  0.56058127266E+03  0.50400001928E-02 0. -1.
        1   -1    0    0  501    0  0.00000000000E+00  0.00000000000E+00 -0.25598584835E+04  0.25598584835E+04  0.50400001928E-02 0.  1.
    10030    2    1    2    0    0  0.00000000000E+00  0.00000000000E+00 -0.19992772108E+04  0.31204397561E+04  0.23958369949E+04 0.  0.
        4    1    3    3  502    0 -0.10559870432E+03 -0.22957473394E+03 -0.25247488990E+04  0.25373636438E+04  0.12699999809E+01 0.  1.
       -4    1    3    3    0  502  0.10559870432E+03  0.22957473394E+03  0.52547168818E+03  0.58307611236E+03  0.12699999809E+01 0. -1.
</event>
<event>
 5   0  0.1168435E-05  0.2400520E+04  0.7818609E-02  0.8439309E-01
       -2   -1    0    0    0  501  0.00000000000E+00  0.00000000000E+00  0.10758371649E+04  0.10758371649E+04  0.25500000920E-02 0.  1.
        2   -1    0    0  501    0  0.00000000000E+00  0.00000000000E+00 -0.13390723711E+04  0.13390723711E+04  0.25500000920E-02 0. -1.
    10030    2    1    2    0    0  0.00000000000E+00  0.00000000000E+00 -0.26323520620E+03  0.24149095360E+04  0.24005197965E+04 0.  0.
        1    1    3    3  502    0 -0.67381748574E+03 -0.97086163053E+03 -0.34268835641E+03  0.12304623600E+04  0.50400001928E-02 0. -1.
       -1    1    3    3    0  502  0.67381748574E+03  0.97086163053E+03  0.79453150201E+02  0.11844471760E+04  0.50400001928E-02 0.  1.
</event>
<event>
 5   0  0.1154897E-05  0.2403248E+04  0.7818609E-02  0.8438289E-01
       -2   -1    0    0    0  501  0.00000000000E+00  0.00000000000E+00  0.20440418422E+04  0.20440418422E+04  0.25500000920E-02 0. -1.
        2   -1    0    0  501    0  0.00000000000E+00  0.00000000000E+00 -0.70639440932E+03  0.70639440933E+03  0.25500000920E-02 0.  1.
    10030    2    1    2    0    0  0.00000000000E+00  0.00000000000E+00  0.13376474329E+04  0.27504362516E+04  0.24032475776E+04 0.  0.
        4    1    3    3  502    0  0.27835381551E+03  0.31952463819E+01  0.20066296537E+04  0.20258467948E+04  0.12699999809E+01 0. -1.
       -4    1    3    3    0  502 -0.27835381551E+03 -0.31952463819E+01 -0.66898222076E+03  0.72458945673E+03  0.12699999809E+01 0.  1.
</event>
<event>
 5   0  0.5042742E-06  0.2399720E+04  0.7818609E-02  0.8439609E-01
       -1   -1    0    0    0  501  0.00000000000E+00  0.00000000000E+00  0.11348938904E+04  0.11348938904E+04  0.50400001928E-02 0. -1.
        1   -1    0    0  501    0  0.00000000000E+00  0.00000000000E+00 -0.12685446580E+04  0.12685446580E+04  0.50400001928E-02 0.  1.
    10030    2    1    2    0    0  0.00000000000E+00  0.00000000000E+00 -0.13365076760E+03  0.24034385484E+04  0.23997196353E+04 0.  0.
        5    1    3    3  502    0 -0.25867166542E+03 -0.48796523682E+03 -0.11336617445E+04  0.12610440689E+04  0.46999998093E+01 0.  1.
       -5    1    3    3    0  502  0.25867166542E+03  0.48796523682E+03  0.10000109769E+04  0.11423944795E+04  0.46999998093E+01 0. -1.
</event>
<event>
 5   0  0.1168435E-05  0.2406846E+04  0.7818609E-02  0.8436945E-01
        2   -1    0    0  501    0  0.00000000000E+00  0.00000000000E+00  0.13259277475E+04  0.13259277475E+04  0.25500000920E-02 0. -1.
       -2   -1    0    0    0  501  0.00000000000E+00  0.00000000000E+00 -0.10922366574E+04  0.10922366574E+04  0.25500000920E-02 0.  1.
    10030    2    1    2    0    0  0.00000000000E+00  0.00000000000E+00  0.23369109009E+03  0.24181644049E+04  0.24068459783E+04 0.  0.
        1    1    3    3  502    0 -0.90025263222E+03 -0.79165804858E+03  0.22245705636E+03  0.12192884850E+04  0.50400001928E-02 0.  1.
       -1    1    3    3    0  502  0.90025263222E+03  0.79165804858E+03  0.11234033727E+02  0.11988759199E+04  0.50400001928E-02 0. -1.
</event>
<event>
 5   0  0.1174210E-05  0.2239447E+04  0.7818609E-02  0.8502187E-01
       -2   -1    0    0    0  501  0.00000000000E+00  0.00000000000E+00  0.63376564165E+03  0.63376564165E+03  0.25500000920E-02 0. -1.
        2   -1    0    0  501    0  0.00000000000E+00  0.00000000000E+00 -0.19783031952E+04  0.19783031952E+04  0.25500000920E-02 0.  1.
    10030    2    1    2    0    0  0.00000000000E+00  0.00000000000E+00 -0.13445375536E+04  0.26120688369E+04  0.22394468906E+04 0.  0.
        3    1    3    3  502    0 -0.97628812124E+03 -0.44664089054E+03 -0.30130168339E+03  0.11150826406E+04  0.10100000352E+00 0. -1.
       -3    1    3    3    0  502  0.97628812124E+03  0.44664089054E+03 -0.10432358702E+04  0.14969861963E+04  0.10100000352E+00 0.  1.
</event>
<event>
 5   0  0.5196696E-06  0.2409874E+04  0.7818609E-02  0.8435816E-01
       -1   -1    0    0    0  501  0.00000000000E+00  0.00000000000E+00  0.92878839615E+03  0.92878839617E+03  0.50400001928E-02 0. -1.
        1   -1    0    0  501    0  0.00000000000E+00  0.00000000000E+00 -0.15631901274E+04  0.15631901275E+04  0.50400001928E-02 0.  1.
    10030    2    1    2    0    0  0.00000000000E+00  0.00000000000E+00 -0.63440173129E+03  0.24919785236E+04  0.24098737323E+04 0.  0.
        1    1    3    3  502    0  0.74900350205E+03  0.86080599908E+03 -0.71753380371E+03  0.13479050314E+04  0.50400001928E-02 0.  1.
       -1    1    3    3    0  502 -0.74900350205E+03 -0.86080599908E+03  0.83132072419E+02  0.11440734922E+04  0.50400001928E-02 0. -1.
</event>
<event>
 5   0  0.5196696E-06  0.2371493E+04  0.7818609E-02  0.8450254E-01
        1   -1    0    0  501    0  0.00000000000E+00  0.00000000000E+00  0.10968346756E+04  0.10968346756E+04  0.50400001928E-02 0.  1.
       -1   -1    0    0    0  501  0.00000000000E+00  0.00000000000E+00 -0.12818654213E+04  0.12818654213E+04  0.50400001928E-02 0. -1.
    10030    2    1    2    0    0  0.00000000000E+00  0.00000000000E+00 -0.18503074564E+03  0.23787000969E+04  0.23714927312E+04 0.  0.
        1    1    3    3  502    0  0.10197026616E+04 -0.21387029608E+03  0.47529731488E+03  0.11451818891E+04  0.50400001928E-02 0.  1.
       -1    1    3    3    0  502 -0.10197026616E+04  0.21387029608E+03 -0.66032806051E+03  0.12335182078E+04  0.50400001928E-02 0. -1.
</event>
<event>
 5   0  0.5104174E-06  0.2396740E+04  0.7818609E-02  0.8440725E-01
        1   -1    0    0  501    0  0.00000000000E+00  0.00000000000E+00  0.21690153278E+04  0.21690153278E+04  0.50400001928E-02 0.  1.
       -1   -1    0    0    0  501  0.00000000000E+00  0.00000000000E+00 -0.66209320928E+03  0.66209320930E+03  0.50400001928E-02 0. -1.
    10030    2    1    2    0    0  0.00000000000E+00  0.00000000000E+00  0.15069221185E+04  0.28311085371E+04  0.23967397184E+04 0.  0.
        3    1    3    3  502    0  0.69771055721E+02 -0.94907977780E+03 -0.10687081450E+03  0.95762299787E+03  0.10100000352E+00 0.  1.
       -3    1    3    3    0  502 -0.69771055721E+02  0.94907977780E+03  0.16137929330E+04  0.18734855392E+04  0.10100000352E+00 0. -1.
</event>
<event>
 5   0  0.5042742E-06  0.2402011E+04  0.7818609E-02  0.8438751E-01
       -1   -1    0    0    0  501  0.00000000000E+00  0.00000000000E+00  0.81934631713E+03  0.81934631714E+03  0.50400001928E-02 0.  1.
        1   -1    0    0  501    0  0.00000000000E+00  0.00000000000E+00 -0.17604448326E+04  0.17604448326E+04  0.50400001928E-02 0. -1.
    10030    2    1    2    0    0  0.00000000000E+00  0.00000000000E+00 -0.94109851551E+03  0.25797911498E+04  0.24020108161E+04 0.  0.
        5    1    3    3  502    0  0.60914111210E+01  0.38063324513E+03  0.75282341668E+03  0.84361363152E+03  0.46999998093E+01 0.  1.
       -5    1    3    3    0  502 -0.60914111210E+01 -0.38063324513E+03 -0.16939219322E+04  0.17361775183E+04  0.46999998093E+01 0. -1.
</event>
<event>
 5   0  0.5042742E-06  0.2398391E+04  0.7818609E-02  0.8440106E-01
        1   -1    0    0  501    0  0.00000000000E+00  0.00000000000E+00  0.15167382753E+04  0.15167382753E+04  0.50400001928E-02 0.  1.
       -1   -1    0    0    0  501  0.00000000000E+00  0.00000000000E+00 -0.94813298368E+03  0.94813298369E+03  0.50400001928E-02 0. -1.
    10030    2    1    2    0    0  0.00000000000E+00  0.00000000000E+00  0.56860529163E+03  0.24648712590E+04  0.23983907826E+04 0.  0.
        5    1    3    3  502    0 -0.57519416487E+03 -0.99949083900E+03  0.62238500081E+03  0.13104256727E+04  0.46999998093E+01 0.  1.
       -5    1    3    3    0  502  0.57519416487E+03  0.99949083900E+03 -0.53779709181E+02  0.11544455863E+04  0.46999998093E+01 0. -1.
</event>
<event>
 5   0  0.1154897E-05  0.2399461E+04  0.7818609E-02  0.8439705E-01
        2   -1    0    0  501    0  0.00000000000E+00  0.00000000000E+00  0.14438191983E+04  0.14438191983E+04  0.25500000920E-02 0.  1.
       -2   -1    0    0    0  501  0.00000000000E+00  0.00000000000E+00 -0.99690725713E+03  0.99690725713E+03  0.25500000920E-02 0. -1.
    10030    2    1    2    0    0  0.00000000000E+00  0.00000000000E+00  0.44691194117E+03  0.24407264554E+04  0.23994614702E+04 0.  0.
        4    1    3    3  502    0 -0.10039355953E+04 -0.30411685080E+02  0.89089626329E+03  0.13425756273E+04  0.12699999809E+01 0.  1.
       -4    1    3    3    0  502  0.10039355953E+04  0.30411685080E+02 -0.44398432212E+03  0.10981508281E+04  0.12699999809E+01 0. -1.
</event>
<event>
 5   0  0.1168435E-05  0.2399564E+04  0.7818609E-02  0.8439667E-01
        2   -1    0    0  501    0  0.00000000000E+00  0.00000000000E+00  0.97197174897E+03  0.97197174898E+03  0.25500000920E-02 0. -1.
       -2   -1    0    0    0  501  0.00000000000E+00  0.00000000000E+00 -0.14809859671E+04  0.14809859671E+04  0.25500000920E-02 0.  1.
    10030    2    1    2    0    0  0.00000000000E+00  0.00000000000E+00 -0.50901421813E+03  0.24529577161E+04  0.23995637276E+04 0.  0.
        1    1    3    3  502    0  0.56721680500E+03 -0.19135672893E+03 -0.13174148544E+04  0.14470432613E+04  0.50400001928E-02 0.  1.
       -1    1    3    3    0  502 -0.56721680500E+03  0.19135672893E+03  0.80840063625E+03  0.10059144548E+04  0.50400001928E-02 0. -1.
</event>
<event>
 5   0  0.5064437E-06  0.2399969E+04  0.7818609E-02  0.8439515E-01
        1   -1    0    0  501    0  0.00000000000E+00  0.00000000000E+00  0.14093893372E+04  0.14093893372E+04  0.50400001928E-02 0.  1.
       -1   -1    0    0    0  501  0.00000000000E+00  0.00000000000E+00 -0.10216925931E+04  0.10216925931E+04  0.50400001928E-02 0. -1.
    10030    2    1    2    0    0  0.00000000000E+00  0.00000000000E+00  0.38769674406E+03  0.24310819303E+04  0.23999688720E+04 0.  0.
        2    1    3    3  502    0  0.11104569377E+04 -0.17865167979E+03 -0.22982204206E+03  0.11479761340E+04  0.25500000920E-02 0. -1.
       -2    1    3    3    0  502 -0.11104569377E+04  0.17865167979E+03  0.61751878612E+03  0.12831057963E+04  0.25500000920E-02 0.  1.
</event>
<event>
 5   0  0.1198313E-05  0.2411957E+04  0.7818609E-02  0.8435041E-01
       -2   -1    0    0    0  501  0.00000000000E+00  0.00000000000E+00  0.22372902334E+04  0.22372902334E+04  0.25500000920E-02 0. -1.
        2   -1    0    0  501    0  0.00000000000E+00  0.00000000000E+00 -0.65006483336E+03  0.65006483336E+03  0.25500000920E-02 0.  1.
    10030    2    1    2    0    0  0.00000000000E+00  0.00000000000E+00  0.15872254001E+04  0.28873550668E+04  0.24119566354E+04 0.  0.
        5    1    3    3  502    0 -0.34381922189E+03  0.35219125145E+03  0.21115718342E+04  0.21681808126E+04  0.46999998093E+01 0. -1.
       -5    1    3    3    0  502  0.34381922189E+03 -0.35219125145E+03 -0.52434643415E+03  0.71917425423E+03  0.46999998093E+01 0.  1.
</event>
<event>
 5   0  0.5064437E-06  0.2417903E+04  0.7818609E-02  0.8432831E-01
        1   -1    0    0  501    0  0.00000000000E+00  0.00000000000E+00  0.12485056583E+04  0.12485056583E+04  0.50400001928E-02 0. -1.
       -1   -1    0    0    0  501  0.00000000000E+00  0.00000000000E+00 -0.11706503817E+04  0.11706503817E+04  0.50400001928E-02 0.  1.
    10030    2    1    2    0    0  0.00000000000E+00  0.00000000000E+00  0.77855276638E+02  0.24191560400E+04  0.24179029141E+04 0.  0.
        2    1    3    3  502    0 -0.42740381070E+03  0.15772501066E+03  0.11593349747E+04  0.12456358938E+04  0.25500000920E-02 0. -1.
       -2    1    3    3    0  502  0.42740381070E+03 -0.15772501066E+03 -0.10814796980E+04  0.11735201463E+04  0.25500000920E-02 0.  1.
</event>
<event>
 5   0  0.1169371E-05  0.2413942E+04  0.7818609E-02  0.8434302E-01
       -2   -1    0    0    0  501  0.00000000000E+00  0.00000000000E+00  0.12406603544E+04  0.12406603544E+04  0.25500000920E-02 0. -1.
        2   -1    0    0  501    0  0.00000000000E+00  0.00000000000E+00 -0.11741965524E+04  0.11741965524E+04  0.25500000920E-02 0.  1.
    10030    2    1    2    0    0  0.00000000000E+00  0.00000000000E+00  0.66463802018E+02  0.24148569069E+04  0.24139420962E+04 0.  0.
        2    1    3    3  502    0  0.10011664995E+04  0.36854137293E+03  0.59791194262E+03  0.12229700710E+04  0.25500000920E-02 0. -1.
       -2    1    3    3    0  502 -0.10011664995E+04 -0.36854137293E+03 -0.53144814060E+03  0.11918868359E+04  0.25500000920E-02 0.  1.
</event>
<event>
 5   0  0.1174210E-05  0.2387964E+04  0.7818609E-02  0.8444023E-01
       -2   -1    0    0    0  501  0.00000000000E+00  0.00000000000E+00  0.45638007096E+03  0.45638007096E+03  0.25500000920E-02 0. -1.
        2   -1    0    0  501    0  0.00000000000E+00  0.00000000000E+00 -0.31236975156E+04  0.31236975156E+04  0.25500000920E-02 0.  1.
    10030    2    1    2    0    0  0.00000000000E+00  0.00000000000E+00 -0.26673174447E+04  0.35800775866E+04  0.23879642324E+04 0.  0.
        3    1    3    3  502    0 -0.10817054533E+04 -0.26886757504E+03 -0.69193618034E+03  0.13119268838E+04  0.10100000352E+00 0. -1.
       -3    1    3    3    0  502  0.10817054533E+04  0.26886757504E+03 -0.19753812643E+04  0.22681507027E+04  0.10100000352E+00 0.  1.
</event>
<event>
 5   0  0.1168435E-05  0.2380914E+04  0.7818609E-02  0.8446684E-01
        2   -1    0    0  501    0  0.00000000000E+00  0.00000000000E+00  0.85746026210E+03  0.85746026211E+03  0.25500000920E-02 0.  1.
       -2   -1    0    0    0  501  0.00000000000E+00  0.00000000000E+00 -0.16527735903E+04  0.16527735903E+04  0.25500000920E-02 0. -1.
    10030    2    1    2    0    0  0.00000000000E+00  0.00000000000E+00 -0.79531332821E+03  0.25102338524E+04  0.23809138380E+04 0.  0.
        1    1    3    3  502    0 -0.10551690250E+04 -0.35727187915E+03  0.44857948370E+02  0.11149157378E+04  0.50400001928E-02 0.  1.
       -1    1    3    3    0  502  0.10551690250E+04  0.35727187915E+03 -0.84017127658E+03  0.13953181146E+04  0.50400001928E-02 0. -1.
</event>
<event>
 5   0  0.1154897E-05  0.2396911E+04  0.7818609E-02  0.8440661E-01
        2   -1    0    0  501    0  0.00000000000E+00  0.00000000000E+00  0.21235166729E+04  0.21235166729E+04  0.25500000920E-02 0. -1.
       -2   -1    0    0    0  501  0.00000000000E+00  0.00000000000E+00 -0.67637589362E+03  0.67637589362E+03  0.25500000920E-02 0.  1.
    10030    2    1    2    0    0  0.00000000000E+00  0.00000000000E+00  0.14471407793E+04  0.27998925665E+04  0.23969109180E+04 0.  0.
        4    1    3    3  502    0  0.47449368721E+03 -0.57056077004E+03  0.18228564868E+04  0.19681187047E+04  0.12699999809E+01 0. -1.
       -4    1    3    3    0  502 -0.47449368721E+03  0.57056077004E+03 -0.37571570747E+03  0.83177386185E+03  0.12699999809E+01 0.  1.
</event>
<event>
 5   0  0.5042742E-06  0.2400098E+04  0.7818609E-02  0.8439467E-01
        1   -1    0    0  501    0  0.00000000000E+00  0.00000000000E+00  0.84308911274E+03  0.84308911276E+03  0.50400001928E-02 0.  1.
       -1   -1    0    0    0  501  0.00000000000E+00  0.00000000000E+00 -0.17081444784E+04  0.17081444784E+04  0.50400001928E-02 0. -1.
    10030    2    1    2    0    0  0.00000000000E+00  0.00000000000E+00 -0.86505536568E+03  0.25512335912E+04  0.24000983420E+04 0.  0.
        5    1    3    3  502    0 -0.18202988759E+03  0.18650201603E+03 -0.16776912932E+04  0.16978186144E+04  0.46999998093E+01 0. -1.
       -5    1    3    3    0  502  0.18202988759E+03 -0.18650201603E+03  0.81263592753E+03  0.85341497683E+03  0.46999998093E+01 0.  1.
</event>
<event>
 5   0  0.5034479E-06  0.2400614E+04  0.7818609E-02  0.8439274E-01
       -1   -1    0    0    0  501  0.00000000000E+00  0.00000000000E+00  0.13198455208E+04  0.13198455208E+04  0.50400001928E-02 0.  1.
        1   -1    0    0  501    0  0.00000000000E+00  0.00000000000E+00 -0.10915954125E+04  0.10915954125E+04  0.50400001928E-02 0. -1.
    10030    2    1    2    0    0  0.00000000000E+00  0.00000000000E+00  0.22825010824E+03  0.24114409333E+04  0.24006143511E+04 0.  0.
        4    1    3    3  502    0 -0.36043019806E+03  0.11104027900E+04  0.39436607437E+03  0.12322461187E+04  0.12699999809E+01 0.  1.
       -4    1    3    3    0  502  0.36043019806E+03 -0.11104027900E+04 -0.16611596612E+03  0.11791948146E+04  0.12699999809E+01 0. -1.
</event>
<event>
 5   0  0.5042742E-06  0.2380861E+04  0.7818609E-02  0.8446704E-01
       -1   -1    0    0    0  501  0.00000000000E+00  0.00000000000E+00  0.93169954976E+03  0.93169954978E+03  0.50400001928E-02 0. -1.
        1   -1    0    0  501    0  0.00000000000E+00  0.00000000000E+00 -0.15210105806E+04  0.15210105807E+04  0.50400001928E-02 0.  1.
    10030    2    1    2    0    0  0.00000000000E+00  0.00000000000E+00 -0.58931103088E+03  0.24527101304E+04  0.23808610822E+04 0.  0.
        5    1    3    3  502    0 -0.27837153125E+03  0.10656606530E+04 -0.75992586109E+03  0.13381452615E+04  0.46999998093E+01 0.  1.
       -5    1    3    3    0  502  0.27837153125E+03 -0.10656606530E+04  0.17061483021E+03  0.11145648689E+04  0.46999998093E+01 0. -1.
</event>
<event>
 5   0  0.1174210E-05  0.2517484E+04  0.7818609E-02  0.8396783E-01
       -2   -1    0    0    0  501  0.00000000000E+00  0.00000000000E+00  0.70861364901E+03  0.70861364901E+03  0.25500000920E-02 0. -1.
        2   -1    0    0  501    0  0.00000000000E+00  0.00000000000E+00 -0.22359586932E+04  0.22359586932E+04  0.25500000920E-02 0.  1.
    10030    2    1    2    0    0  0.00000000000E+00  0.00000000000E+00 -0.15273450442E+04  0.29445723423E+04  0.25174835441E+04 0.  0.
        3    1    3    3  502    0 -0.19995711758E+03  0.61619989585E+02 -0.22154756191E+04  0.22253341549E+04  0.10100000352E+00 0.  1.
       -3    1    3    3    0  502  0.19995711758E+03 -0.61619989585E+02  0.68813057482E+03  0.71923818739E+03  0.10100000352E+00 0. -1.
</event>
<event>
 5   0  0.1169371E-05  0.2374126E+04  0.7818609E-02  0.8449254E-01
        2   -1    0    0  501    0  0.00000000000E+00  0.00000000000E+00  0.14926317102E+04  0.14926317102E+04  0.25500000920E-02 0.  1.
       -2   -1    0    0    0  501  0.00000000000E+00  0.00000000000E+00 -0.94404989774E+03  0.94404989774E+03  0.25500000920E-02 0. -1.
    10030    2    1    2    0    0  0.00000000000E+00  0.00000000000E+00  0.54858181246E+03  0.24366816079E+04  0.23741262084E+04 0.  0.
        2    1    3    3  502    0  0.88033712797E+03  0.20849979370E+03 -0.51449884664E+03  0.10407567853E+04  0.25500000920E-02 0. -1.
       -2    1    3    3    0  502 -0.88033712797E+03 -0.20849979370E+03  0.10630806591E+04  0.13959248227E+04  0.25500000920E-02 0.  1.
</event>
<event>
 5   0  0.1198313E-05  0.2406547E+04  0.7818609E-02  0.8437056E-01
        2   -1    0    0  501    0  0.00000000000E+00  0.00000000000E+00  0.11142389203E+04  0.11142389203E+04  0.25500000920E-02 0. -1.
       -2   -1    0    0    0  501  0.00000000000E+00  0.00000000000E+00 -0.12994227329E+04  0.12994227329E+04  0.25500000920E-02 0.  1.
    10030    2    1    2    0    0  0.00000000000E+00  0.00000000000E+00 -0.18518381264E+03  0.24136616533E+04  0.24065472220E+04 0.  0.
        5    1    3    3  502    0 -0.19452886251E+03  0.78740381307E+03 -0.98403841248E+03  0.12752254430E+04  0.46999998093E+01 0.  1.
       -5    1    3    3    0  502  0.19452886251E+03 -0.78740381307E+03  0.79885459984E+03  0.11384362103E+04  0.46999998093E+01 0. -1.
</event>
<event>
 5   0  0.5034479E-06  0.2298210E+04  0.7818609E-02  0.8478627E-01
       -1   -1    0    0    0  501  0.00000000000E+00  0.00000000000E+00  0.11964992577E+04  0.11964992577E+04  0.50400001928E-02 0. -1.
        1   -1    0    0  501    0  0.00000000000E+00  0.00000000000E+00 -0.11035875956E+04  0.11035875956E+04  0.50400001928E-02 0.  1.
    10030    2    1    2    0    0  0.00000000000E+00  0.00000000000E+00  0.92911662069E+02  0.23000868534E+04  0.22982095109E+04 0.  0.
        4    1    3    3  502    0 -0.63415385693E+03 -0.88956410290E+03  0.40306798896E+03  0.11644487211E+04  0.12699999809E+01 0.  1.
       -4    1    3    3    0  502  0.63415385693E+03  0.88956410290E+03 -0.31015632689E+03  0.11356381323E+04  0.12699999809E+01 0. -1.
</event>
<event>
 5   0  0.5196696E-06  0.2390107E+04  0.7818609E-02  0.8443216E-01
       -1   -1    0    0    0  501  0.00000000000E+00  0.00000000000E+00  0.10868636879E+04  0.10868636879E+04  0.50400001928E-02 0.  1.
        1   -1    0    0  501    0  0.00000000000E+00  0.00000000000E+00 -0.13140133232E+04  0.13140133232E+04  0.50400001928E-02 0. -1.
    10030    2    1    2    0    0  0.00000000000E+00  0.00000000000E+00 -0.22714963534E+03  0.24008770111E+04  0.23901074172E+04 0.  0.
        1    1    3    3  502    0 -0.10685303675E+03  0.42616713984E+03 -0.12299408331E+04  0.13060591317E+04  0.50400001928E-02 0. -1.
       -1    1    3    3    0  502  0.10685303675E+03 -0.42616713984E+03  0.10027911978E+04  0.10948178794E+04  0.50400001928E-02 0.  1.
</event>
<event>
 5   0  0.1169371E-05  0.2405338E+04  0.7818609E-02  0.8437508E-01
       -2   -1    0    0    0  501  0.00000000000E+00  0.00000000000E+00  0.52413862919E+03  0.52413862920E+03  0.25500000920E-02 0.  1.
        2   -1    0    0  501    0  0.00000000000E+00  0.00000000000E+00 -0.27596003779E+04  0.27596003779E+04  0.25500000920E-02 0. -1.
    10030    2    1    2    0    0  0.00000000000E+00  0.00000000000E+00 -0.22354617487E+04  0.32837390071E+04  0.24053383622E+04 0.  0.
        2    1    3    3  502    0 -0.19697021662E+03 -0.74910287942E+03  0.13828714908E+03  0.78681365380E+03  0.25500000920E-02 0.  1.
       -2    1    3    3    0  502  0.19697021662E+03  0.74910287942E+03 -0.23737488978E+04  0.24969253533E+04  0.25500000920E-02 0. -1.
</event>
<event>
 5   0  0.5034479E-06  0.2438360E+04  0.7818609E-02  0.8425280E-01
        1   -1    0    0  501    0  0.00000000000E+00  0.00000000000E+00  0.72939515251E+03  0.72939515253E+03  0.50400001928E-02 0. -1.
       -1   -1    0    0    0  501  0.00000000000E+00  0.00000000000E+00 -0.20378526275E+04  0.20378526275E+04  0.50400001928E-02 0.  1.
    10030    2    1    2    0    0  0.00000000000E+00  0.00000000000E+00 -0.13084574750E+04  0.27672477801E+04  0.24383599637E+04 0.  0.
        4    1    3    3  502    0 -0.62996215774E+03 -0.93516650871E+03 -0.12799456183E+03  0.11348008371E+04  0.12699999809E+01 0. -1.
       -4    1    3    3    0  502  0.62996215774E+03  0.93516650871E+03 -0.11804629132E+04  0.16324469429E+04  0.12699999809E+01 0.  1.
</event>
<event>
 5   0  0.1154897E-05  0.2395711E+04  0.7818609E-02  0.8441111E-01
        2   -1    0    0  501    0  0.00000000000E+00  0.00000000000E+00  0.87542782136E+03  0.87542782137E+03  0.25500000920E-02 0. -1.
       -2   -1    0    0    0  501  0.00000000000E+00  0.00000000000E+00 -0.16390365495E+04  0.16390365495E+04  0.25500000920E-02 0.  1.
    10030    2    1    2    0    0  0.00000000000E+00  0.00000000000E+00 -0.76360872809E+03  0.25144643708E+04  0.23957113312E+04 0.  0.
        4    1    3    3  502    0  0.80519012208E+02  0.80190614158E+03 -0.13119142834E+04  0.15396939537E+04  0.12699999809E+01 0.  1.
       -4    1    3    3    0  502 -0.80519012208E+02 -0.80190614158E+03  0.54830555529E+03  0.97477041712E+03  0.12699999809E+01 0. -1.
</event>
<event>
 5   0  0.5042742E-06  0.2401768E+04  0.7818609E-02  0.8438842E-01
       -1   -1    0    0    0  501  0.00000000000E+00  0.00000000000E+00  0.93351512506E+03  0.93351512508E+03  0.50400001928E-02 0. -1.
        1   -1    0    0  501    0  0.00000000000E+00  0.00000000000E+00 -0.15448305560E+04  0.15448305560E+04  0.50400001928E-02 0.  1.
    10030    2    1    2    0    0  0.00000000000E+00  0.00000000000E+00 -0.61131543095E+03  0.24783456811E+04  0.24017682567E+04 0.  0.
        5    1    3    3  502    0  0.56921940395E+03  0.37933885439E+03  0.71282353699E+03  0.98795150750E+03  0.46999998093E+01 0. -1.
       -5    1    3    3    0  502 -0.56921940395E+03 -0.37933885439E+03 -0.13241389679E+04  0.14903941736E+04  0.46999998093E+01 0.  1.
</event>
<event>
 5   0  0.1174210E-05  0.2397212E+04  0.7818609E-02  0.8440548E-01
        2   -1    0    0  501    0  0.00000000000E+00  0.00000000000E+00  0.17306234803E+04  0.17306234803E+04  0.25500000920E-02 0. -1.
       -2   -1    0    0    0  501  0.00000000000E+00  0.00000000000E+00 -0.83013784556E+03  0.83013784556E+03  0.25500000920E-02 0.  1.
    10030    2    1    2    0    0  0.00000000000E+00  0.00000000000E+00  0.90048563479E+03  0.25607613259E+04  0.23972117532E+04 0.  0.
        3    1    3    3  502    0  0.85350904824E+03  0.52675238063E+03  0.11513030268E+04  0.15269068196E+04  0.10100000352E+00 0. -1.
       -3    1    3    3    0  502 -0.85350904824E+03 -0.52675238063E+03 -0.25081739202E+03  0.10338545063E+04  0.10100000352E+00 0.  1.
</event>
<event>
 5   0  0.1168435E-05  0.2381140E+04  0.7818609E-02  0.8446598E-01
       -2   -1    0    0    0  501  0.00000000000E+00  0.00000000000E+00  0.13922266827E+04  0.13922266827E+04  0.25500000920E-02 0. -1.
        2   -1    0    0  501    0  0.00000000000E+00  0.00000000000E+00 -0.10181224831E+04  0.10181224831E+04  0.25500000920E-02 0.  1.
    10030    2    1    2    0    0  0.00000000000E+00  0.00000000000E+00  0.37410419957E+03  0.24103491658E+04  0.23811403043E+04 0.  0.
        1    1    3    3  502    0  0.80475415619E+03 -0.45088447812E+03  0.94896775674E+03  0.13234295855E+04  0.50400001928E-02 0. -1.
       -1    1    3    3    0  502 -0.80475415619E+03  0.45088447812E+03 -0.57486355717E+03  0.10869195802E+04  0.50400001928E-02 0.  1.
</event>
<event>
 5   0  0.5104174E-06  0.2395216E+04  0.7818609E-02  0.8441297E-01
       -1   -1    0    0    0  501  0.00000000000E+00  0.00000000000E+00  0.56982414044E+03  0.56982414046E+03  0.50400001928E-02 0. -1.
        1   -1    0    0  501    0  0.00000000000E+00  0.00000000000E+00 -0.25170315210E+04  0.25170315210E+04  0.50400001928E-02 0.  1.
    10030    2    1    2    0    0  0.00000000000E+00  0.00000000000E+00 -0.19472073806E+04  0.30868556615E+04  0.23952163351E+04 0.  0.
        3    1    3    3  502    0  0.25465667293E+03  0.23527713557E+03 -0.24509393105E+04  0.24753401515E+04  0.10100000352E+00 0.  1.
       -3    1    3    3    0  502 -0.25465667293E+03 -0.23527713557E+03  0.50373192990E+03  0.61151551002E+03  0.10100000352E+00 0. -1.
</event>
<event>
 5   0  0.5034479E-06  0.2401513E+04  0.7818609E-02  0.8438937E-01
       -1   -1    0    0    0  501  0.00000000000E+00  0.00000000000E+00  0.60248363587E+03  0.60248363589E+03  0.50400001928E-02 0. -1.
        1   -1    0    0  501    0  0.00000000000E+00  0.00000000000E+00 -0.23931209721E+04  0.23931209721E+04  0.50400001928E-02 0.  1.
    10030    2    1    2    0    0  0.00000000000E+00  0.00000000000E+00 -0.17906373362E+04  0.29956046080E+04  0.24015130434E+04 0.  0.
        4    1    3    3  502    0 -0.34368822302E+03 -0.11357913570E+04 -0.11242090869E+04  0.16346226736E+04  0.12699999809E+01 0. -1.
       -4    1    3    3    0  502  0.34368822302E+03  0.11357913570E+04 -0.66642824929E+03  0.13609819343E+04  0.12699999809E+01 0.  1.
</event>
<event>
 5   0  0.5034479E-06  0.2399126E+04  0.7818609E-02  0.8439831E-01
       -1   -1    0    0    0  501  0.00000000000E+00  0.00000000000E+00  0.53847965193E+03  0.53847965195E+03  0.50400001928E-02 0.  1.
        1   -1    0    0  501    0  0.00000000000E+00  0.00000000000E+00 -0.26722483669E+04  0.26722483669E+04  0.50400001928E-02 0. -1.
    10030    2    1    2    0    0  0.00000000000E+00  0.00000000000E+00 -0.21337687149E+04  0.32107280188E+04  0.23991259829E+04 0.  0.
        4    1    3    3  502    0  0.11141664947E+04  0.17049384827E+03 -0.51750888492E+03  0.12402629516E+04  0.12699999809E+01 0.  1.
       -4    1    3    3    0  502 -0.11141664947E+04 -0.17049384827E+03 -0.16162598300E+04  0.19704650672E+04  0.12699999809E+01 0. -1.
</event>
<event>
 5   0  0.5034479E-06  0.2416343E+04  0.7818609E-02  0.8433410E-01
        1   -1    0    0  501    0  0.00000000000E+00  0.00000000000E+00  0.53235677806E+03  0.53235677808E+03  0.50400001928E-02 0. -1.
       -1   -1    0    0    0  501  0.00000000000E+00  0.00000000000E+00 -0.27419172978E+04  0.27419172978E+04  0.50400001928E-02 0.  1.
    10030    2    1    2    0    0  0.00000000000E+00  0.00000000000E+00 -0.22095605197E+04  0.32742740759E+04  0.24163429048E+04 0.  0.
        4    1    3    3  502    0 -0.92377917352E+03 -0.26890402837E+03 -0.11457139237E+03  0.96891978758E+03  0.12699999809E+01 0. -1.
       -4    1    3    3    0  502  0.92377917352E+03  0.26890402837E+03 -0.20949891274E+04  0.23053542883E+04  0.12699999809E+01 0.  1.
</event>
<event>
 5   0  0.5104174E-06  0.2400552E+04  0.7818609E-02  0.8439297E-01
        1   -1    0    0  501    0  0.00000000000E+00  0.00000000000E+00  0.15039474870E+04  0.15039474870E+04  0.50400001928E-02 0.  1.
       -1   -1    0    0    0  501  0.00000000000E+00  0.00000000000E+00 -0.95792093679E+03  0.95792093680E+03  0.50400001928E-02 0. -1.
    10030    2    1    2    0    0  0.00000000000E+00  0.00000000000E+00  0.54602655018E+03  0.24618684238E+04  0.24005522578E+04 0.  0.
        3    1    3    3  502    0  0.26912682724E+03  0.55373539360E+03  0.13296757990E+04  0.14652951497E+04  0.10100000352E+00 0.  1.
       -3    1    3    3    0  502 -0.26912682724E+03 -0.55373539360E+03 -0.78364924877E+03  0.99657327406E+03  0.10100000352E+00 0. -1.
</event>
<event>
 5   0  0.1198313E-05  0.2421840E+04  0.7818609E-02  0.8431372E-01
        2   -1    0    0  501    0  0.00000000000E+00  0.00000000000E+00  0.18119209751E+04  0.18119209751E+04  0.25500000920E-02 0. -1.
       -2   -1    0    0    0  501  0.00000000000E+00  0.00000000000E+00 -0.80926668693E+03  0.80926668694E+03  0.25500000920E-02 0.  1.
    10030    2    1    2    0    0  0.00000000000E+00  0.00000000000E+00  0.10026542882E+04  0.26211876621E+04  0.24218400315E+04 0.  0.
        5    1    3    3  502    0  0.58370212856E+03  0.95780659780E+03  0.74752575977E+01  0.11216860627E+04  0.46999998093E+01 0.  1.
       -5    1    3    3    0  502 -0.58370212856E+03 -0.95780659780E+03  0.99517903059E+03  0.14995015994E+04  0.46999998093E+01 0. -1.
</event>
<event>
 5   0  0.1169371E-05  0.2405968E+04  0.7818609E-02  0.8437273E-01
        2   -1    0    0  501    0  0.00000000000E+00  0.00000000000E+00  0.12729373043E+04  0.12729373043E+04  0.25500000920E-02 0. -1.
       -2   -1    0    0    0  501  0.00000000000E+00  0.00000000000E+00 -0.11368751565E+04  0.11368751565E+04  0.25500000920E-02 0.  1.
    10030    2    1    2    0    0  0.00000000000E+00  0.00000000000E+00  0.13606214784E+03  0.24098124609E+04  0.24059682434E+04 0.  0.
        2    1    3    3  502    0 -0.25060340818E+03 -0.37701075458E+03 -0.10483041923E+04  0.11418760252E+04  0.25500000920E-02 0.  1.
       -2    1    3    3    0  502  0.25060340818E+03  0.37701075458E+03  0.11843663401E+04  0.12679364357E+04  0.25500000920E-02 0. -1.
</event>
<event>
 5   0  0.5064437E-06  0.2408921E+04  0.7818609E-02  0.8436171E-01
       -1   -1    0    0    0  501  0.00000000000E+00  0.00000000000E+00  0.85883940858E+03  0.85883940860E+03  0.50400001928E-02 0.  1.
        1   -1    0    0  501    0  0.00000000000E+00  0.00000000000E+00 -0.16891694184E+04  0.16891694184E+04  0.50400001928E-02 0. -1.
    10030    2    1    2    0    0  0.00000000000E+00  0.00000000000E+00 -0.83033000985E+03  0.25480088270E+04  0.24089211397E+04 0.  0.
        2    1    3    3  502    0  0.83858920455E+03 -0.85431414981E+03 -0.27467779372E+03  0.12282232741E+04  0.25500000920E-02 0. -1.
       -2    1    3    3    0  502 -0.83858920455E+03  0.85431414981E+03 -0.55565221613E+03  0.13197855530E+04  0.25500000920E-02 0.  1.
</event>
<event>
 5   0  0.5196696E-06  0.2400111E+04  0.7818609E-02  0.8439462E-01
        1   -1    0    0  501    0  0.00000000000E+00  0.00000000000E+00  0.15491832386E+04  0.15491832386E+04  0.50400001928E-02 0. -1.
       -1   -1    0    0    0  501  0.00000000000E+00  0.00000000000E+00 -0.92960820964E+03  0.92960820965E+03  0.50400001928E-02 0.  1.
    10030    2    1    2    0    0  0.00000000000E+00  0.00000000000E+00  0.61957502893E+03  0.24787914482E+04  0.24001112114E+04 0.  0.
        1    1    3    3  502    0 -0.21061943166E+03 -0.86349521459E+03 -0.52296326591E+03  0.10312492948E+04  0.50400001928E-02 0.  1.
       -1    1    3    3    0  502  0.21061943166E+03  0.86349521459E+03  0.11425382948E+04  0.14475421534E+04  0.50400001928E-02 0. -1.
</event>
<event>
 5   0  0.5104174E-06  0.2439187E+04  0.7818609E-02  0.8424977E-01
        1   -1    0    0  501    0  0.00000000000E+00  0.00000000000E+00  0.10293326216E+04  0.10293326216E+04  0.50400001928E-02 0.  1.
       -1   -1    0    0    0  501  0.00000000000E+00  0.00000000000E+00 -0.14450220305E+04  0.14450220305E+04  0.50400001928E-02 0. -1.
    10030    2    1    2    0    0  0.00000000000E+00  0.00000000000E+00 -0.41568940888E+03  0.24743546521E+04  0.24391870079E+04 0.  0.
        3    1    3    3  502    0 -0.70463200604E+03 -0.16018761299E+03 -0.12044769813E+04  0.14046106734E+04  0.10100000352E+00 0. -1.
       -3    1    3    3    0  502  0.70463200604E+03  0.16018761299E+03  0.78878757239E+03  0.10697439786E+04  0.10100000352E+00 0.  1.
</event>
<event>
 5   0  0.5196696E-06  0.2391263E+04  0.7818609E-02  0.8442782E-01
       -1   -1    0    0    0  501  0.00000000000E+00  0.00000000000E+00  0.90353756415E+03  0.90353756416E+03  0.50400001928E-02 0. -1.
        1   -1    0    0  501    0  0.00000000000E+00  0.00000000000E+00 -0.15821528833E+04  0.15821528833E+04  0.50400001928E-02 0.  1.
    10030    2    1    2    0    0  0.00000000000E+00  0.00000000000E+00 -0.67861531914E+03  0.24856904475E+04  0.23912628984E+04 0.  0.
        1    1    3    3  502    0 -0.49588465017E+03 -0.10869258511E+04 -0.38834211219E+03  0.12562320599E+04  0.50400001928E-02 0.  1.
       -1    1    3    3    0  502  0.49588465017E+03  0.10869258511E+04 -0.29027320695E+03  0.12294583876E+04  0.50400001928E-02 0. -1.
</event>
<event>
 5   0  0.5034479E-06  0.2313618E+04  0.7818609E-02  0.8472571E-01
       -1   -1    0    0    0  501  0.00000000000E+00  0.00000000000E+00  0.15944222786E+04  0.15944222786E+04  0.50400001928E-02 0. -1.
        1   -1    0    0  501    0  0.00000000000E+00  0.00000000000E+00 -0.83930542233E+03  0.83930542235E+03  0.50400001928E-02 0.  1.
    10030    2    1    2    0    0  0.00000000000E+00  0.00000000000E+00  0.75511685630E+03  0.24337277010E+04  0.23136181742E+04 0.  0.
        4    1    3    3  502    0 -0.78878518197E+03  0.77560363913E+03  0.73344538271E+03  0.13272855046E+04  0.12699999809E+01 0. -1.
       -4    1    3    3    0  502  0.78878518197E+03 -0.77560363913E+03  0.21671473589E+02  0.11064421964E+04  0.12699999809E+01 0.  1.
</event>
<event>
 5   0  0.5034479E-06  0.2368903E+04  0.7818609E-02  0.8451238E-01
       -1   -1    0    0    0  501  0.00000000000E+00  0.00000000000E+00  0.11802244223E+04  0.11802244223E+04  0.50400001928E-02 0. -1.
        1   -1    0    0  501    0  0.00000000000E+00  0.00000000000E+00 -0.11886941248E+04  0.11886941249E+04  0.50400001928E-02 0.  1.
    10030    2    1    2    0    0  0.00000000000E+00  0.00000000000E+00 -0.84697025737E+01  0.23689185471E+04  0.23689034060E+04 0.  0.
        4    1    3    3  502    0 -0.81680051934E+03  0.76472241267E+03  0.38430433181E+03  0.11830701117E+04  0.12699999809E+01 0. -1.
       -4    1    3    3    0  502  0.81680051934E+03 -0.76472241267E+03 -0.39277403438E+03  0.11858484354E+04  0.12699999809E+01 0.  1.
</event>
<event>
 5   0  0.5104174E-06  0.2391863E+04  0.7818609E-02  0.8442556E-01
       -1   -1    0    0    0  501  0.00000000000E+00  0.00000000000E+00  0.11787696863E+04  0.11787696863E+04  0.50400001928E-02 0. -1.
        1   -1    0    0  501    0  0.00000000000E+00  0.00000000000E+00 -0.12133431393E+04  0.12133431393E+04  0.50400001928E-02 0.  1.
    10030    2    1    2    0    0  0.00000000000E+00  0.00000000000E+00 -0.34573452994E+02  0.23921128256E+04  0.23918629657E+04 0.  0.
        3    1    3    3  502    0 -0.32655737624E+03 -0.57007544215E+03 -0.10167040670E+04  0.12105010945E+04  0.10100000352E+00 0.  1.
       -3    1    3    3    0  502  0.32655737624E+03  0.57007544215E+03  0.98213061405E+03  0.11816117311E+04  0.10100000352E+00 0. -1.
</event>
<event>
 5   0  0.1169371E-05  0.2388156E+04  0.7818609E-02  0.8443951E-01
       -2   -1    0    0    0  501  0.00000000000E+00  0.00000000000E+00  0.74355302691E+03  0.74355302692E+03  0.25500000920E-02 0. -1.
        2   -1    0    0  501    0  0.00000000000E+00  0.00000000000E+00 -0.19175796189E+04  0.19175796189E+04  0.25500000920E-02 0.  1.
    10030    2    1    2    0    0  0.00000000000E+00  0.00000000000E+00 -0.11740265919E+04  0.26611326458E+04  0.23881558826E+04 0.  0.
        2    1    3    3  502    0 -0.47565840411E+03  0.41377377801E+03 -0.17170094403E+04  0.18290929650E+04  0.25500000920E-02 0.  1.
       -2    1    3    3    0  502  0.47565840411E+03 -0.41377377801E+03  0.54298284831E+03  0.83203968075E+03  0.25500000920E-02 0. -1.
</event>
<event>
 5   0  0.5042742E-06  0.2404306E+04  0.7818609E-02  0.8437893E-01
       -1   -1    0    0    0  501  0.00000000000E+00  0.00000000000E+00  0.14635022606E+04  0.14635022606E+04  0.50400001928E-02 0.  1.
        1   -1    0    0  501    0  0.00000000000E+00  0.00000000000E+00 -0.98747519069E+03  0.98747519070E+03  0.50400001928E-02 0. -1.
    10030    2    1    2    0    0  0.00000000000E+00  0.00000000000E+00  0.47602706993E+03  0.24509774513E+04  0.24043062816E+04 0.  0.
        5    1    3    3  502    0 -0.59725381680E+02 -0.11334249590E+04  0.64184825379E+03  0.13039212130E+04  0.46999998093E+01 0.  1.
       -5    1    3    3    0  502  0.59725381680E+02  0.11334249590E+04 -0.16582118386E+03  0.11470562383E+04  0.46999998093E+01 0. -1.
</event>
<event>
 5   0  0.1168435E-05  0.2404805E+04  0.7818609E-02  0.8437707E-01
       -2   -1    0    0    0  501  0.00000000000E+00  0.00000000000E+00  0.11768704501E+04  0.11768704501E+04  0.25500000920E-02 0. -1.
        2   -1    0    0  501    0  0.00000000000E+00  0.00000000000E+00 -0.12284886492E+04  0.12284886492E+04  0.25500000920E-02 0.  1.
    10030    2    1    2    0    0  0.00000000000E+00  0.00000000000E+00 -0.51618199073E+02  0.24053590992E+04  0.24048051809E+04 0.  0.
        1    1    3    3  502    0 -0.70486129555E+03 -0.79925234847E+03 -0.58283792889E+03  0.12146332014E+04  0.50400001928E-02 0.  1.
       -1    1    3    3    0  502  0.70486129555E+03  0.79925234847E+03  0.53121972981E+03  0.11907258979E+04  0.50400001928E-02 0. -1.
</event>
<event>
 5   0  0.5104174E-06  0.2320150E+04  0.7818609E-02  0.8470018E-01
       -1   -1    0    0    0  501  0.00000000000E+00  0.00000000000E+00  0.60105935450E+03  0.60105935452E+03  0.50400001928E-02 0. -1.
        1   -1    0    0  501    0  0.00000000000E+00  0.00000000000E+00 -0.22390030813E+04  0.22390030813E+04  0.50400001928E-02 0.  1.
    10030    2    1    2    0    0  0.00000000000E+00  0.00000000000E+00 -0.16379437268E+04  0.28400624358E+04  0.23201497769E+04 0.  0.
        3    1    3    3  502    0  0.41812468319E+03  0.27543271965E+03  0.46198718663E+03  0.68126617746E+03  0.10100000352E+00 0. -1.
       -3    1    3    3    0  502 -0.41812468319E+03 -0.27543271965E+03 -0.20999309134E+04  0.21587962583E+04  0.10100000352E+00 0.  1.
</event>
<event>
 5   0  0.1168435E-05  0.2402673E+04  0.7818609E-02  0.8438504E-01
       -2   -1    0    0    0  501  0.00000000000E+00  0.00000000000E+00  0.10665368681E+04  0.10665368681E+04  0.25500000920E-02 0. -1.
        2   -1    0    0  501    0  0.00000000000E+00  0.00000000000E+00 -0.13531731726E+04  0.13531731727E+04  0.25500000920E-02 0.  1.
    10030    2    1    2    0    0  0.00000000000E+00  0.00000000000E+00 -0.28663630452E+03  0.24197100408E+04  0.24026727431E+04 0.  0.
        1    1    3    3  502    0 -0.83270418774E+01 -0.95745557964E+03  0.58737375561E+03  0.11232980261E+04  0.50400001928E-02 0. -1.
       -1    1    3    3    0  502  0.83270418774E+01  0.95745557964E+03 -0.87401006013E+03  0.12964120147E+04  0.50400001928E-02 0.  1.
</event>
<event>
 5   0  0.5196696E-06  0.2293797E+04  0.7818609E-02  0.8480371E-01
        1   -1    0    0  501    0  0.00000000000E+00  0.00000000000E+00  0.13619988902E+04  0.13619988902E+04  0.50400001928E-02 0.  1.
       -1   -1    0    0    0  501  0.00000000000E+00  0.00000000000E+00 -0.96576870798E+03  0.96576870799E+03  0.50400001928E-02 0. -1.
    10030    2    1    2    0    0  0.00000000000E+00  0.00000000000E+00  0.39623018222E+03  0.23277675982E+04  0.22937967726E+04 0.  0.
        1    1    3    3  502    0 -0.11033956784E+03  0.94885659813E+03  0.84223742123E+03  0.12735256330E+04  0.50400001928E-02 0.  1.
       -1    1    3    3    0  502  0.11033956784E+03 -0.94885659813E+03 -0.44600723900E+03  0.10542419653E+04  0.50400001928E-02 0. -1.
</event>
<event>
 5   0  0.1198313E-05  0.2412126E+04  0.7818609E-02  0.8434978E-01
       -2   -1    0    0    0  501  0.00000000000E+00  0.00000000000E+00  0.57422732663E+03  0.57422732663E+03  0.25500000920E-02 0.  1.
        2   -1    0    0  501    0  0.00000000000E+00  0.00000000000E+00 -0.25331218954E+04  0.25331218954E+04  0.25500000920E-02 0. -1.
    10030    2    1    2    0    0  0.00000000000E+00  0.00000000000E+00 -0.19588945687E+04  0.31073492220E+04  0.24121258790E+04 0.  0.
        5    1    3    3  502    0  0.80036531534E+03 -0.80494281445E+03 -0.45451036405E+03  0.12227507242E+04  0.46999998093E+01 0.  1.
       -5    1    3    3    0  502 -0.80036531534E+03  0.80494281445E+03 -0.15043842047E+04  0.18845984978E+04  0.46999998093E+01 0. -1.
</event>
<event>
 5   0  0.5064437E-06  0.2405261E+04  0.7818609E-02  0.8437537E-01
        1   -1    0    0  501    0  0.00000000000E+00  0.00000000000E+00  0.10873162115E+04  0.10873162115E+04  0.50400001928E-02 0.  1.
       -1   -1    0    0    0  501  0.00000000000E+00  0.00000000000E+00 -0.13301744322E+04  0.13301744322E+04  0.50400001928E-02 0. -1.
    10030    2    1    2    0    0  0.00000000000E+00  0.00000000000E+00 -0.24285822072E+03  0.24174906438E+04  0.24052610871E+04 0.  0.
        2    1    3    3  502    0 -0.12902609979E+03 -0.79531683526E+03 -0.10187977009E+04  0.12988938980E+04  0.25500000920E-02 0. -1.
       -2    1    3    3    0  502  0.12902609979E+03  0.79531683526E+03  0.77593948013E+03  0.11185967458E+04  0.25500000920E-02 0.  1.
</event>
<event>
 5   0  0.1174210E-05  0.2396210E+04  0.7818609E-02  0.8440924E-01
        2   -1    0    0  501    0  0.00000000000E+00  0.00000000000E+00  0.10226646766E+04  0.10226646766E+04  0.25500000920E-02 0. -1.
       -2   -1    0    0    0  501  0.00000000000E+00  0.00000000000E+00 -0.14036422559E+04  0.14036422559E+04  0.25500000920E-02 0.  1.
    10030    2    1    2    0    0  0.00000000000E+00  0.00000000000E+00 -0.38097757930E+03  0.24263069325E+04  0.23962098019E+04 0.  0.
        3    1    3    3  502    0  0.47105778472E+01 -0.93427855144E+03 -0.94994732220E+03  0.13324032897E+04  0.10100000352E+00 0.  1.
       -3    1    3    3    0  502 -0.47105778472E+01  0.93427855144E+03  0.56896974290E+03  0.10939036428E+04  0.10100000352E+00 0. -1.
</event>
<event>
 5   0  0.1169371E-05  0.2403675E+04  0.7818609E-02  0.8438129E-01
       -2   -1    0    0    0  501  0.00000000000E+00  0.00000000000E+00  0.51970540495E+03  0.51970540496E+03  0.25500000920E-02 0.  1.
        2   -1    0    0  501    0  0.00000000000E+00  0.00000000000E+00 -0.27792916334E+04  0.27792916334E+04  0.25500000920E-02 0. -1.
    10030    2    1    2    0    0  0.00000000000E+00  0.00000000000E+00 -0.22595862285E+04  0.32989970384E+04  0.24036745902E+04 0.  0.
        2    1    3    3  502    0  0.58850190015E+03 -0.22096320412E+03 -0.25356674390E+04  0.26124258048E+04  0.25500000920E-02 0. -1.
       -2    1    3    3    0  502 -0.58850190015E+03  0.22096320412E+03  0.27608121053E+03  0.68657123365E+03  0.25500000920E-02 0.  1.
</event>
<event>
 5   0  0.5064437E-06  0.2405587E+04  0.7818609E-02  0.8437415E-01
       -1   -1    0    0    0  501  0.00000000000E+00  0.00000000000E+00  0.75802616641E+03  0.75802616642E+03  0.50400001928E-02 0. -1.
        1   -1    0    0  501    0  0.00000000000E+00  0.00000000000E+00 -0.19085255175E+04  0.19085255175E+04  0.50400001928E-02 0.  1.
    10030    2    1    2    0    0  0.00000000000E+00  0.00000000000E+00 -0.11504993510E+04  0.26665516839E+04  0.24055870647E+04 0.  0.
        2    1    3    3  502    0 -0.46481917936E+03  0.63020419452E+03 -0.15872513454E+04  0.17699098931E+04  0.25500000920E-02 0.  1.
       -2    1    3    3    0  502  0.46481917936E+03 -0.63020419452E+03  0.43675199438E+03  0.89664179074E+03  0.25500000920E-02 0. -1.
</event>
<event>
 5   0  0.1198313E-05  0.2398192E+04  0.7818609E-02  0.8440181E-01
       -2   -1    0    0    0  501  0.00000000000E+00  0.00000000000E+00  0.16625801379E+04  0.16625801379E+04  0.25500000920E-02 0. -1.
        2   -1    0    0  501    0  0.00000000000E+00  0.00000000000E+00 -0.86481886291E+03  0.86481886291E+03  0.25500000920E-02 0.  1.
    10030    2    1    2    0    0  0.00000000000E+00  0.00000000000E+00  0.79776127499E+03  0.25273990008E+04  0.23981915389E+04 0.  0.
        5    1    3    3  502    0  0.66329229559E+03  0.96325231964E+03  0.12005720798E+03  0.11756902330E+04  0.46999998093E+01 0.  1.
       -5    1    3    3    0  502 -0.66329229559E+03 -0.96325231964E+03  0.67770406701E+03  0.13517087679E+04  0.46999998093E+01 0. -1.
</event>
<event>
 5   0  0.1198313E-05  0.2406224E+04  0.7818609E-02  0.8437177E-01
        2   -1    0    0  501    0  0.00000000000E+00  0.00000000000E+00  0.17531973786E+04  0.17531973786E+04  0.25500000920E-02 0.  1.
       -2   -1    0    0    0  501  0.00000000000E+00  0.00000000000E+00 -0.82562222925E+03  0.82562222925E+03  0.25500000920E-02 0. -1.
    10030    2    1    2    0    0  0.00000000000E+00  0.00000000000E+00  0.92757514939E+03  0.25788196079E+04  0.24062242024E+04 0.  0.
        5    1    3    3  502    0 -0.43501995469E+03 -0.11129535629E+04  0.61363289729E+03  0.13433076404E+04  0.46999998093E+01 0.  1.
       -5    1    3    3    0  502  0.43501995469E+03  0.11129535629E+04  0.31394225210E+03  0.12355119675E+04  0.46999998093E+01 0. -1.
</event>
<event>
 5   0  0.1174210E-05  0.2398911E+04  0.7818609E-02  0.8439911E-01
       -2   -1    0    0    0  501  0.00000000000E+00  0.00000000000E+00  0.55316065710E+03  0.55316065711E+03  0.25500000920E-02 0.  1.
        2   -1    0    0  501    0  0.00000000000E+00  0.00000000000E+00 -0.26008611279E+04  0.26008611279E+04  0.25500000920E-02 0. -1.
    10030    2    1    2    0    0  0.00000000000E+00  0.00000000000E+00 -0.20477004708E+04  0.31540217850E+04  0.23989114620E+04 0.  0.
        3    1    3    3  502    0 -0.10090897081E+04 -0.64839648534E+03 -0.10189309680E+04  0.15738171333E+04  0.10100000352E+00 0. -1.
       -3    1    3    3    0  502  0.10090897081E+04  0.64839648534E+03 -0.10287695029E+04  0.15802046518E+04  0.10100000352E+00 0.  1.
</event>
<event>
 5   0  0.1168435E-05  0.2398767E+04  0.7818609E-02  0.8439965E-01
        2   -1    0    0  501    0  0.00000000000E+00  0.00000000000E+00  0.18849987798E+04  0.18849987798E+04  0.25500000920E-02 0.  1.
       -2   -1    0    0    0  501  0.00000000000E+00  0.00000000000E+00 -0.76314120980E+03  0.76314120981E+03  0.25500000920E-02 0. -1.
    10030    2    1    2    0    0  0.00000000000E+00  0.00000000000E+00  0.11218575700E+04  0.26481399896E+04  0.23987665575E+04 0.  0.
        1    1    3    3  502    0 -0.80402847521E+03 -0.88239454183E+03  0.68890393623E+03  0.13782853659E+04  0.50400001928E-02 0.  1.
       -1    1    3    3    0  502  0.80402847521E+03  0.88239454183E+03  0.43295363376E+03  0.12698546237E+04  0.50400001928E-02 0. -1.
</event>
<event>
 5   0  0.5042742E-06  0.2410805E+04  0.7818609E-02  0.8435469E-01
        1   -1    0    0  501    0  0.00000000000E+00  0.00000000000E+00  0.12066076326E+04  0.12066076326E+04  0.50400001928E-02 0.  1.
       -1   -1    0    0    0  501  0.00000000000E+00  0.00000000000E+00 -0.12041984150E+04  0.12041984150E+04  0.50400001928E-02 0. -1.
    10030    2    1    2    0    0  0.00000000000E+00  0.00000000000E+00  0.24092176090E+01  0.24108060476E+04  0.24108048438E+04 0.  0.
        5    1    3    3  502    0  0.31267827559E+03 -0.44369253259E+03 -0.10750589733E+04  0.12043274694E+04  0.46999998093E+01 0. -1.
       -5    1    3    3    0  502 -0.31267827559E+03  0.44369253259E+03  0.10774681909E+04  0.12064785783E+04  0.46999998093E+01 0.  1.
</event>
<event>
 5   0  0.5196696E-06  0.2395314E+04  0.7818609E-02  0.8441260E-01
        1   -1    0    0  501    0  0.00000000000E+00  0.00000000000E+00  0.13620213080E+04  0.13620213080E+04  0.50400001928E-02 0.  1.
       -1   -1    0    0    0  501  0.00000000000E+00  0.00000000000E+00 -0.10531272218E+04  0.10531272218E+04  0.50400001928E-02 0. -1.
    10030    2    1    2    0    0  0.00000000000E+00  0.00000000000E+00  0.30889408622E+03  0.24151485298E+04  0.23953135211E+04 0.  0.
        1    1    3    3  502    0 -0.56103915253E+02  0.48917779249E+03  0.12552472988E+04  0.13483650630E+04  0.50400001928E-02 0.  1.
       -1    1    3    3    0  502  0.56103915253E+02 -0.48917779249E+03 -0.94635321260E+03  0.10667834668E+04  0.50400001928E-02 0. -1.
</event>
<event>
 5   0  0.1169371E-05  0.2396535E+04  0.7818609E-02  0.8440802E-01
       -2   -1    0    0    0  501  0.00000000000E+00  0.00000000000E+00  0.11574643511E+04  0.11574643511E+04  0.25500000920E-02 0.  1.
        2   -1    0    0  501    0  0.00000000000E+00  0.00000000000E+00 -0.12405089035E+04  0.12405089035E+04  0.25500000920E-02 0. -1.
    10030    2    1    2    0    0  0.00000000000E+00  0.00000000000E+00 -0.83044552442E+02  0.23979732546E+04  0.23965348593E+04 0.  0.
        2    1    3    3  502    0  0.91578470713E+03  0.13832241172E+01 -0.81476115194E+03  0.12257647726E+04  0.25500000920E-02 0. -1.
       -2    1    3    3    0  502 -0.91578470713E+03 -0.13832241172E+01  0.73171659950E+03  0.11722084819E+04  0.25500000920E-02 0.  1.
</event>
<event>
 5   0  0.5064437E-06  0.2258924E+04  0.7818609E-02  0.8494295E-01
       -1   -1    0    0    0  501  0.00000000000E+00  0.00000000000E+00  0.97174794658E+03  0.97174794660E+03  0.50400001928E-02 0.  1.
        1   -1    0    0  501    0  0.00000000000E+00  0.00000000000E+00 -0.13127727659E+04  0.13127727659E+04  0.50400001928E-02 0. -1.
    10030    2    1    2    0    0  0.00000000000E+00  0.00000000000E+00 -0.34102481931E+03  0.22845207125E+04  0.22589238496E+04 0.  0.
        2    1    3    3  502    0 -0.36554478457E+03 -0.66558792527E+03 -0.10160810356E+04  0.12684837196E+04  0.25500000920E-02 0. -1.
       -2    1    3    3    0  502  0.36554478457E+03  0.66558792527E+03  0.67505621633E+03  0.10160369929E+04  0.25500000920E-02 0.  1.
</event>
<event>
 5   0  0.1168435E-05  0.2405785E+04  0.7818609E-02  0.8437341E-01
       -2   -1    0    0    0  501  0.00000000000E+00  0.00000000000E+00  0.65969952890E+03  0.65969952891E+03  0.25500000920E-02 0.  1.
        2   -1    0    0  501    0  0.00000000000E+00  0.00000000000E+00 -0.21933482341E+04  0.21933482341E+04  0.25500000920E-02 0. -1.
    10030    2    1    2    0    0  0.00000000000E+00  0.00000000000E+00 -0.15336487052E+04  0.28530477630E+04  0.24057853577E+04 0.  0.
        1    1    3    3  502    0 -0.87547954326E+03  0.79390614091E+03 -0.10325304080E+04  0.15693535085E+04  0.50400001928E-02 0.  1.
       -1    1    3    3    0  502  0.87547954326E+03 -0.79390614091E+03 -0.50111829723E+03  0.12836942545E+04  0.50400001928E-02 0. -1.
</event>
<event>
 5   0  0.1198313E-05  0.2401610E+04  0.7818609E-02  0.8438901E-01
        2   -1    0    0  501    0  0.00000000000E+00  0.00000000000E+00  0.18881367518E+04  0.18881367518E+04  0.25500000920E-02 0. -1.
       -2   -1    0    0    0  501  0.00000000000E+00  0.00000000000E+00 -0.76368021335E+03  0.76368021335E+03  0.25500000920E-02 0.  1.
    10030    2    1    2    0    0  0.00000000000E+00  0.00000000000E+00  0.11244565385E+04  0.26518169652E+04  0.24016100245E+04 0.  0.
        5    1    3    3  502    0 -0.76932529351E+03  0.80729182480E+03  0.70489707725E+02  0.11173953582E+04  0.46999998093E+01 0.  1.
       -5    1    3    3    0  502  0.76932529351E+03 -0.80729182480E+03  0.10539668307E+04  0.15344216070E+04  0.46999998093E+01 0. -1.
</event>
<event>
 5   0  0.5042742E-06  0.2420189E+04  0.7818609E-02  0.8431983E-01
       -1   -1    0    0    0  501  0.00000000000E+00  0.00000000000E+00  0.71725541680E+03  0.71725541681E+03  0.50400001928E-02 0. -1.
        1   -1    0    0  501    0  0.00000000000E+00  0.00000000000E+00 -0.20415725605E+04  0.20415725605E+04  0.50400001928E-02 0.  1.
    10030    2    1    2    0    0  0.00000000000E+00  0.00000000000E+00 -0.13243171437E+04  0.27588279773E+04  0.24201892305E+04 0.  0.
        5    1    3    3  502    0  0.51702012987E+03  0.64226784237E+03  0.34748655175E+03  0.89475515627E+03  0.46999998093E+01 0. -1.
       -5    1    3    3    0  502 -0.51702012987E+03 -0.64226784237E+03 -0.16718036954E+04  0.18640728210E+04  0.46999998093E+01 0.  1.
</event>
<event>
 5   0  0.5042742E-06  0.2372111E+04  0.7818609E-02  0.8450019E-01
        1   -1    0    0  501    0  0.00000000000E+00  0.00000000000E+00  0.12081778653E+04  0.12081778653E+04  0.50400001928E-02 0. -1.
       -1   -1    0    0    0  501  0.00000000000E+00  0.00000000000E+00 -0.11643382009E+04  0.11643382009E+04  0.50400001928E-02 0.  1.
    10030    2    1    2    0    0  0.00000000000E+00  0.00000000000E+00  0.43839664454E+02  0.23725160662E+04  0.23721109941E+04 0.  0.
        5    1    3    3  502    0  0.10175091512E+04  0.41607038250E+03 -0.42342703861E+03  0.11780288549E+04  0.46999998093E+01 0.  1.
       -5    1    3    3    0  502 -0.10175091512E+04 -0.41607038250E+03  0.46726670306E+03  0.11944872113E+04  0.46999998093E+01 0. -1.
</event>
<event>
 5   0  0.1168435E-05  0.2395399E+04  0.7818609E-02  0.8441228E-01
       -2   -1    0    0    0  501  0.00000000000E+00  0.00000000000E+00  0.96750609284E+03  0.96750609285E+03  0.25500000920E-02 0.  1.
        2   -1    0    0  501    0  0.00000000000E+00  0.00000000000E+00 -0.14826617558E+04  0.14826617558E+04  0.25500000920E-02 0. -1.
    10030    2    1    2    0    0  0.00000000000E+00  0.00000000000E+00 -0.51515566296E+03  0.24501678487E+04  0.23953991587E+04 0.  0.
        1    1    3    3  502    0  0.42178087128E+03 -0.86162350507E+03  0.47588786224E+03  0.10708704055E+04  0.50400001928E-02 0.  1.
       -1    1    3    3    0  502 -0.42178087128E+03  0.86162350507E+03 -0.99104352520E+03  0.13792974432E+04  0.50400001928E-02 0. -1.
</event>
<event>
 5   0  0.1154897E-05  0.2315411E+04  0.7818609E-02  0.8471869E-01
        2   -1    0    0  501    0  0.00000000000E+00  0.00000000000E+00  0.13482892520E+04  0.13482892520E+04  0.25500000920E-02 0. -1.
       -2   -1    0    0    0  501  0.00000000000E+00  0.00000000000E+00 -0.99406144548E+03  0.99406144548E+03  0.25500000920E-02 0.  1.
    10030    2    1    2    0    0  0.00000000000E+00  0.00000000000E+00  0.35422780648E+03  0.23423506974E+04  0.23154112920E+04 0.  0.
        4    1    3    3  502    0 -0.13660058741E+03 -0.66947137738E+03 -0.76833399557E+03  0.10281976402E+04  0.12699999809E+01 0.  1.
       -4    1    3    3    0  502  0.13660058741E+03  0.66947137738E+03  0.11225618020E+04  0.13141530573E+04  0.12699999809E+01 0. -1.
</event>
<event>
 5   0  0.4067750E-06  0.2379946E+04  0.7818609E-02  0.8447050E-01
       -4   -1    0    0    0  501  0.00000000000E+00  0.00000000000E+00  0.76451192249E+03  0.76451297735E+03  0.12699999809E+01 0.  1.
        4   -1    0    0  501    0  0.00000000000E+00  0.00000000000E+00 -0.18522066231E+04  0.18522070585E+04  0.12699999809E+01 0. -1.
    10030    2    1    2    0    0  0.00000000000E+00  0.00000000000E+00 -0.10876947006E+04  0.26167200359E+04  0.23799462146E+04 0.  0.
        5    1    3    3  502    0 -0.99388309670E+03  0.32762150482E+03 -0.11666603706E+04  0.15672453447E+04  0.46999998093E+01 0. -1.
       -5    1    3    3    0  502  0.99388309670E+03 -0.32762150482E+03  0.78965669931E+02  0.10494746911E+04  0.46999998093E+01 0.  1.
</event>
<event>
 5   0  0.5034479E-06  0.2400567E+04  0.7818609E-02  0.8439291E-01
        1   -1    0    0  501    0  0.00000000000E+00  0.00000000000E+00  0.97200753192E+03  0.97200753193E+03  0.50400001928E-02 0.  1.
       -1   -1    0    0    0  501  0.00000000000E+00  0.00000000000E+00 -0.14821704458E+04  0.14821704458E+04  0.50400001928E-02 0. -1.
    10030    2    1    2    0    0  0.00000000000E+00  0.00000000000E+00 -0.51016291387E+03  0.24541779777E+04  0.24005672971E+04 0.  0.
        4    1    3    3  502    0  0.23327091020E+03  0.25377957626E+03 -0.14304792537E+04  0.14714251252E+04  0.12699999809E+01 0. -1.
       -4    1    3    3    0  502 -0.23327091020E+03 -0.25377957626E+03  0.92031633984E+03  0.98275285253E+03  0.12699999809E+01 0.  1.
</event>
<event>
 5   0  0.1174210E-05  0.2429968E+04  0.7818609E-02  0.8428368E-01
       -2   -1    0    0    0  501  0.00000000000E+00  0.00000000000E+00  0.11389194379E+04  0.11389194379E+04  0.25500000920E-02 0. -1.
        2   -1    0    0  501    0  0.00000000000E+00  0.00000000000E+00 -0.12961286532E+04  0.12961286532E+04  0.25500000920E-02 0.  1.
    10030    2    1    2    0    0  0.00000000000E+00  0.00000000000E+00 -0.15720921527E+03  0.24350480911E+04  0.24299679974E+04 0.  0.
        3    1    3    3  502    0 -0.82575799050E+03  0.76676321417E+03 -0.53384943936E+03  0.12469151212E+04  0.10100000352E+00 0.  1.
       -3    1    3    3    0  502  0.82575799050E+03 -0.76676321417E+03  0.37664022409E+03  0.11881329699E+04  0.10100000352E+00 0. -1.
</event>
<event>
 5   0  0.5196696E-06  0.2394141E+04  0.7818609E-02  0.8441700E-01
       -1   -1    0    0    0  501  0.00000000000E+00  0.00000000000E+00  0.10427306822E+04  0.10427306822E+04  0.50400001928E-02 0.  1.
        1   -1    0    0  501    0  0.00000000000E+00  0.00000000000E+00 -0.13742547296E+04  0.13742547296E+04  0.50400001928E-02 0. -1.
    10030    2    1    2    0    0  0.00000000000E+00  0.00000000000E+00 -0.33152404742E+03  0.24169854118E+04  0.23941408244E+04 0.  0.
        1    1    3    3  502    0  0.40544771448E+03  0.79902857564E+03  0.63562796914E+03  0.10985706300E+04  0.50400001928E-02 0.  1.
       -1    1    3    3    0  502 -0.40544771448E+03 -0.79902857564E+03 -0.96715201656E+03  0.13184147819E+04  0.50400001928E-02 0. -1.
</event>
<event>
 5   0  0.1174210E-05  0.2389246E+04  0.7818609E-02  0.8443541E-01
       -2   -1    0    0    0  501  0.00000000000E+00  0.00000000000E+00  0.11264881058E+04  0.11264881058E+04  0.25500000920E-02 0.  1.
        2   -1    0    0  501    0  0.00000000000E+00  0.00000000000E+00 -0.12668784680E+04  0.12668784680E+04  0.25500000920E-02 0. -1.
    10030    2    1    2    0    0  0.00000000000E+00  0.00000000000E+00 -0.14039036220E+03  0.23933665739E+04  0.23892455092E+04 0.  0.
        3    1    3    3  502    0 -0.90602610818E+03  0.76281184145E+03  0.86145479596E+02  0.11875126391E+04  0.10100000352E+00 0.  1.
       -3    1    3    3    0  502  0.90602610818E+03 -0.76281184145E+03 -0.22653584179E+03  0.12058539348E+04  0.10100000352E+00 0. -1.
</event>
<event>
 5   0  0.5064437E-06  0.2416783E+04  0.7818609E-02  0.8433247E-01
       -1   -1    0    0    0  501  0.00000000000E+00  0.00000000000E+00  0.76061589099E+03  0.76061589100E+03  0.50400001928E-02 0.  1.
        1   -1    0    0  501    0  0.00000000000E+00  0.00000000000E+00 -0.19197731632E+04  0.19197731632E+04  0.50400001928E-02 0. -1.
    10030    2    1    2    0    0  0.00000000000E+00  0.00000000000E+00 -0.11591572722E+04  0.26803890542E+04  0.24167829651E+04 0.  0.
        2    1    3    3  502    0 -0.10654099514E+04 -0.56665376865E+03 -0.64985500127E+03  0.13705861449E+04  0.25500000920E-02 0. -1.
       -2    1    3    3    0  502  0.10654099514E+04  0.56665376865E+03 -0.50930227096E+03  0.13098029093E+04  0.25500000920E-02 0.  1.
</event>
<event>
 5   0  0.1168435E-05  0.2399865E+04  0.7818609E-02  0.8439554E-01
        2   -1    0    0  501    0  0.00000000000E+00  0.00000000000E+00  0.10039915722E+04  0.10039915722E+04  0.25500000920E-02 0. -1.
       -2   -1    0    0    0  501  0.00000000000E+00  0.00000000000E+00 -0.14341131243E+04  0.14341131243E+04  0.25500000920E-02 0.  1.
    10030    2    1    2    0    0  0.00000000000E+00  0.00000000000E+00 -0.43012155214E+03  0.24381046965E+04  0.23998645715E+04 0.  0.
        1    1    3    3  502    0 -0.88163161427E+03  0.81387884990E+03 -0.20203442507E+03  0.12167542868E+04  0.50400001928E-02 0.  1.
       -1    1    3    3    0  502  0.88163161427E+03 -0.81387884990E+03 -0.22808712707E+03  0.12213504096E+04  0.50400001928E-02 0. -1.
</event>
<event>
 5   0  0.1169371E-05  0.2403254E+04  0.7818609E-02  0.8438286E-01
       -2   -1    0    0    0  501  0.00000000000E+00  0.00000000000E+00  0.89568028468E+03  0.89568028469E+03  0.25500000920E-02 0.  1.
        2   -1    0    0  501    0  0.00000000000E+00  0.00000000000E+00 -0.16120795391E+04  0.16120795391E+04  0.25500000920E-02 0. -1.
    10030    2    1    2    0    0  0.00000000000E+00  0.00000000000E+00 -0.71639925444E+03  0.25077598238E+04  0.24032543440E+04 0.  0.
        2    1    3    3  502    0 -0.10827365228E+04 -0.13217727583E+03 -0.88422231318E+03  0.14041503870E+04  0.25500000920E-02 0.  1.
       -2    1    3    3    0  502  0.10827365228E+04  0.13217727583E+03  0.16782305874E+03  0.11036094369E+04  0.25500000920E-02 0. -1.
</event>
<event>
 5   0  0.4067750E-06  0.2404442E+04  0.7818609E-02  0.8437842E-01
       -3   -1    0    0    0  501  0.00000000000E+00  0.00000000000E+00  0.16326689177E+04  0.16326689208E+04  0.10100000352E+00 0. -1.
        3   -1    0    0  501    0  0.00000000000E+00  0.00000000000E+00 -0.88525953886E+03  0.88525954462E+03  0.10100000352E+00 0.  1.
    10030    2    1    2    0    0  0.00000000000E+00  0.00000000000E+00  0.74740937881E+03  0.25179284654E+04  0.24044423423E+04 0.  0.
        3    1    3    3  502    0 -0.63616121072E+03  0.73049145545E+03  0.11193636312E+04  0.14803019292E+04  0.10100000352E+00 0. -1.
       -3    1    3    3    0  502  0.63616121072E+03 -0.73049145545E+03 -0.37195425242E+03  0.10376265362E+04  0.10100000352E+00 0.  1.
</event>
<event>
 5   0  0.5034479E-06  0.2397424E+04  0.7818609E-02  0.8440469E-01
       -1   -1    0    0    0  501  0.00000000000E+00  0.00000000000E+00  0.68027750272E+03  0.68027750273E+03  0.50400001928E-02 0. -1.
        1   -1    0    0  501    0  0.00000000000E+00  0.00000000000E+00 -0.21122417876E+04  0.21122417876E+04  0.50400001928E-02 0.  1.
    10030    2    1    2    0    0  0.00000000000E+00  0.00000000000E+00 -0.14319642848E+04  0.27925192903E+04  0.23974240913E+04 0.  0.
        4    1    3    3  502    0 -0.11960249804E+03  0.64376965698E+03  0.45356326376E+03  0.79653334891E+03  0.12699999809E+01 0. -1.
       -4    1    3    3    0  502  0.11960249804E+03 -0.64376965698E+03 -0.18855275486E+04  0.19959859414E+04  0.12699999809E+01 0.  1.
</event>
<event>
 5   0  0.1154897E-05  0.2407602E+04  0.7818609E-02  0.8436663E-01
       -2   -1    0    0    0  501  0.00000000000E+00  0.00000000000E+00  0.10416589844E+04  0.10416589844E+04  0.25500000920E-02 0. -1.
        2   -1    0    0  501    0  0.00000000000E+00  0.00000000000E+00 -0.13911812237E+04  0.13911812237E+04  0.25500000920E-02 0.  1.
    10030    2    1    2    0    0  0.00000000000E+00  0.00000000000E+00 -0.34952223931E+03  0.24328402081E+04  0.24076016453E+04 0.  0.
        4    1    3    3  502    0  0.10987497863E+04  0.29417487266E+03  0.22350869897E+03  0.11592013199E+04  0.12699999809E+01 0. -1.
       -4    1    3    3    0  502 -0.10987497863E+04 -0.29417487266E+03 -0.57303093828E+03  0.12736388883E+04  0.12699999809E+01 0.  1.
</event>
<event>
 5   0  0.1198313E-05  0.2400503E+04  0.7818609E-02  0.8439315E-01
        2   -1    0    0  501    0  0.00000000000E+00  0.00000000000E+00  0.15685124001E+04  0.15685124001E+04  0.25500000920E-02 0. -1.
       -2   -1    0    0    0  501  0.00000000000E+00  0.00000000000E+00 -0.91845254913E+03  0.91845254913E+03  0.25500000920E-02 0.  1.
    10030    2    1    2    0    0  0.00000000000E+00  0.00000000000E+00  0.65005985100E+03  0.24869649493E+04  0.24005034574E+04 0.  0.
        5    1    3    3  502    0  0.10300720843E+04 -0.56062142788E+03  0.58964532284E+03  0.13126494510E+04  0.46999998093E+01 0.  1.
       -5    1    3    3    0  502 -0.10300720843E+04  0.56062142788E+03  0.60414528154E+02  0.11743154983E+04  0.46999998093E+01 0. -1.
</event>
<event>
 5   0  0.5196696E-06  0.2397944E+04  0.7818609E-02  0.8440274E-01
        1   -1    0    0  501    0  0.00000000000E+00  0.00000000000E+00  0.15997450659E+04  0.15997450659E+04  0.50400001928E-02 0. -1.
       -1   -1    0    0    0  501  0.00000000000E+00  0.00000000000E+00 -0.89860148184E+03  0.89860148186E+03  0.50400001928E-02 0.  1.
    10030    2    1    2    0    0  0.00000000000E+00  0.00000000000E+00  0.70114358403E+03  0.24983465477E+04  0.23979435246E+04 0.  0.
        1    1    3    3  502    0  0.72534855397E+03 -0.95465136247E+03  0.35744641292E+03  0.12511025884E+04  0.50400001928E-02 0.  1.
       -1    1    3    3    0  502 -0.72534855397E+03  0.95465136247E+03  0.34369717111E+03  0.12472439593E+04  0.50400001928E-02 0. -1.
</event>
<event>
 5   0  0.1154897E-05  0.2401145E+04  0.7818609E-02  0.8439075E-01
        2   -1    0    0  501    0  0.00000000000E+00  0.00000000000E+00  0.13806951409E+04  0.13806951409E+04  0.25500000920E-02 0. -1.
       -2   -1    0    0    0  501  0.00000000000E+00  0.00000000000E+00 -0.10439481732E+04  0.10439481732E+04  0.25500000920E-02 0.  1.
    10030    2    1    2    0    0  0.00000000000E+00  0.00000000000E+00  0.33674696768E+03  0.24246433141E+04  0.24011448687E+04 0.  0.
        4    1    3    3  502    0  0.17142599319E+03  0.11588008047E+04  0.43394226652E+03  0.12492052192E+04  0.12699999809E+01 0. -1.
       -4    1    3    3    0  502 -0.17142599319E+03 -0.11588008047E+04 -0.97195298847E+02  0.11754380949E+04  0.12699999809E+01 0.  1.
</event>
<event>
 5   0  0.5104174E-06  0.2397256E+04  0.7818609E-02  0.8440532E-01
       -1   -1    0    0    0  501  0.00000000000E+00  0.00000000000E+00  0.13893623803E+04  0.13893623803E+04  0.50400001928E-02 0.  1.
        1   -1    0    0  501    0  0.00000000000E+00  0.00000000000E+00 -0.10340781172E+04  0.10340781172E+04  0.50400001928E-02 0. -1.
    10030    2    1    2    0    0  0.00000000000E+00  0.00000000000E+00  0.35528426315E+03  0.24234404975E+04  0.23972561268E+04 0.  0.
        3    1    3    3  502    0 -0.46424810623E+03  0.67900303395E+03  0.10590239522E+04  0.13409336918E+04  0.10100000352E+00 0.  1.
       -3    1    3    3    0  502  0.46424810623E+03 -0.67900303395E+03 -0.70373968907E+03  0.10825068057E+04  0.10100000352E+00 0. -1.
</event>
<event>
 5   0  0.5064437E-06  0.2403967E+04  0.7818609E-02  0.8438020E-01
        1   -1    0    0  501    0  0.00000000000E+00  0.00000000000E+00  0.14741651347E+04  0.14741651347E+04  0.50400001928E-02 0. -1.
       -1   -1    0    0    0  501  0.00000000000E+00  0.00000000000E+00 -0.98005578860E+03  0.98005578862E+03  0.50400001928E-02 0.  1.
    10030    2    1    2    0    0  0.00000000000E+00  0.00000000000E+00  0.49410934613E+03  0.24542209234E+04  0.24039667832E+04 0.  0.
        2    1    3    3  502    0 -0.84446275336E+03 -0.84702091953E+03  0.36871933038E+03  0.12516052591E+04  0.25500000920E-02 0. -1.
       -2    1    3    3    0  502  0.84446275336E+03  0.84702091953E+03  0.12539001576E+03  0.12026156643E+04  0.25500000920E-02 0.  1.
</event>
<event>
 5   0  0.5064437E-06  0.2385373E+04  0.7818609E-02  0.8445000E-01
       -1   -1    0    0    0  501  0.00000000000E+00  0.00000000000E+00  0.10953853643E+04  0.10953853643E+04  0.50400001928E-02 0. -1.
        1   -1    0    0  501    0  0.00000000000E+00  0.00000000000E+00 -0.12986302621E+04  0.12986302621E+04  0.50400001928E-02 0.  1.
    10030    2    1    2    0    0  0.00000000000E+00  0.00000000000E+00 -0.20324489782E+03  0.23940156264E+04  0.23853725769E+04 0.  0.
        2    1    3    3  502    0 -0.75283799394E+03  0.56985721318E+03 -0.83295907120E+03  0.12590961452E+04  0.25500000920E-02 0.  1.
       -2    1    3    3    0  502  0.75283799394E+03 -0.56985721318E+03  0.62971417338E+03  0.11349194812E+04  0.25500000920E-02 0. -1.
</event>
<event>
 5   0  0.5196696E-06  0.2400744E+04  0.7818609E-02  0.8439225E-01
       -1   -1    0    0    0  501  0.00000000000E+00  0.00000000000E+00  0.10748324469E+04  0.10748324470E+04  0.50400001928E-02 0. -1.
        1   -1    0    0  501    0  0.00000000000E+00  0.00000000000E+00 -0.13405741792E+04  0.13405741792E+04  0.50400001928E-02 0.  1.
    10030    2    1    2    0    0  0.00000000000E+00  0.00000000000E+00 -0.26574173230E+03  0.24154066262E+04  0.24007437393E+04 0.  0.
        1    1    3    3  502    0 -0.37035585291E+03  0.90653835508E+03  0.56557176899E+03  0.11308610317E+04  0.50400001928E-02 0. -1.
       -1    1    3    3    0  502  0.37035585291E+03 -0.90653835508E+03 -0.83131350129E+03  0.12845455945E+04  0.50400001928E-02 0.  1.
</event>
<event>
 5   0  0.5042742E-06  0.2412612E+04  0.7818609E-02  0.8434797E-01
       -1   -1    0    0    0  501  0.00000000000E+00  0.00000000000E+00  0.87365657485E+03  0.87365657486E+03  0.50400001928E-02 0. -1.
        1   -1    0    0  501    0  0.00000000000E+00  0.00000000000E+00 -0.16656132912E+04  0.16656132912E+04  0.50400001928E-02 0.  1.
    10030    2    1    2    0    0  0.00000000000E+00  0.00000000000E+00 -0.79195671638E+03  0.25392698661E+04  0.24126118652E+04 0.  0.
        5    1    3    3  502    0 -0.64857721522E+03  0.48404902105E+03  0.54552007642E+03  0.97599697881E+03  0.46999998093E+01 0. -1.
       -5    1    3    3    0  502  0.64857721522E+03 -0.48404902105E+03 -0.13374767928E+04  0.15632728873E+04  0.46999998093E+01 0.  1.
</event>
<event>
 5   0  0.5064437E-06  0.2393797E+04  0.7818609E-02  0.8441829E-01
       -1   -1    0    0    0  501  0.00000000000E+00  0.00000000000E+00  0.79568991987E+03  0.79568991988E+03  0.50400001928E-02 0. -1.
        1   -1    0    0  501    0  0.00000000000E+00  0.00000000000E+00 -0.18004079537E+04  0.18004079537E+04  0.50400001928E-02 0.  1.
    10030    2    1    2    0    0  0.00000000000E+00  0.00000000000E+00 -0.10047180338E+04  0.25960978736E+04  0.23937973685E+04 0.  0.
        2    1    3    3  502    0 -0.20308056273E+03  0.10341312752E+04 -0.11176666605E+04  0.15361796684E+04  0.25500000920E-02 0.  1.
       -2    1    3    3    0  502  0.20308056273E+03 -0.10341312752E+04  0.11294862674E+03  0.10599182052E+04  0.25500000920E-02 0. -1.
</event>
<event>
 5   0  0.1154897E-05  0.2396592E+04  0.7818609E-02  0.8440781E-01
       -2   -1    0    0    0  501  0.00000000000E+00  0.00000000000E+00  0.50227217639E+03  0.50227217640E+03  0.25500000920E-02 0. -1.
        2   -1    0    0  501    0  0.00000000000E+00  0.00000000000E+00 -0.28588350530E+04  0.28588350530E+04  0.25500000920E-02 0.  1.
    10030    2    1    2    0    0  0.00000000000E+00  0.00000000000E+00 -0.23565628766E+04  0.33611072294E+04  0.23965920003E+04 0.  0.
        4    1    3    3  502    0  0.64682510690E+03  0.19639487615E+02 -0.25927044912E+04  0.26722437426E+04  0.12699999809E+01 0.  1.
       -4    1    3    3    0  502 -0.64682510690E+03 -0.19639487615E+02  0.23614161459E+03  0.68886348679E+03  0.12699999809E+01 0. -1.
</event>
<event>
 5   0  0.1154897E-05  0.2397577E+04  0.7818609E-02  0.8440411E-01
       -2   -1    0    0    0  501  0.00000000000E+00  0.00000000000E+00  0.22345072354E+04  0.22345072354E+04  0.25500000920E-02 0. -1.
        2   -1    0    0  501    0  0.00000000000E+00  0.00000000000E+00 -0.64313685194E+03  0.64313685194E+03  0.25500000920E-02 0.  1.
    10030    2    1    2    0    0  0.00000000000E+00  0.00000000000E+00  0.15913703834E+04  0.28776440873E+04  0.23975770678E+04 0.  0.
        4    1    3    3  502    0 -0.91369166598E+02 -0.10653924613E+04  0.14461201031E+04  0.17985200546E+04  0.12699999809E+01 0. -1.
       -4    1    3    3    0  502  0.91369166598E+02  0.10653924613E+04  0.14525028029E+03  0.10791240327E+04  0.12699999809E+01 0.  1.
</event>
<event>
 5   0  0.1168435E-05  0.2403017E+04  0.7818609E-02  0.8438375E-01
       -2   -1    0    0    0  501  0.00000000000E+00  0.00000000000E+00  0.11302180827E+04  0.11302180827E+04  0.25500000920E-02 0. -1.
        2   -1    0    0  501    0  0.00000000000E+00  0.00000000000E+00 -0.12772953453E+04  0.12772953453E+04  0.25500000920E-02 0.  1.
    10030    2    1    2    0    0  0.00000000000E+00  0.00000000000E+00 -0.14707726258E+03  0.24075134280E+04  0.24030166842E+04 0.  0.
        1    1    3    3  502    0  0.40319126040E+03 -0.11196217883E+04 -0.23969878029E+03  0.12139075940E+04  0.50400001928E-02 0.  1.
       -1    1    3    3    0  502 -0.40319126040E+03  0.11196217883E+04  0.92621517706E+02  0.11936058340E+04  0.50400001928E-02 0. -1.
</event>
<event>
 5   0  0.5034479E-06  0.2369846E+04  0.7818609E-02  0.8450880E-01
       -1   -1    0    0    0  501  0.00000000000E+00  0.00000000000E+00  0.63020369831E+03  0.63020369833E+03  0.50400001928E-02 0.  1.
        1   -1    0    0  501    0  0.00000000000E+00  0.00000000000E+00 -0.22279190891E+04  0.22279190891E+04  0.50400001928E-02 0. -1.
    10030    2    1    2    0    0  0.00000000000E+00  0.00000000000E+00 -0.15977153907E+04  0.28581227874E+04  0.23698462815E+04 0.  0.
        4    1    3    3  502    0  0.83344267426E+03 -0.19214149453E+03  0.19016354886E+03  0.87618995282E+03  0.12699999809E+01 0.  1.
       -4    1    3    3    0  502 -0.83344267426E+03  0.19214149453E+03 -0.17878789396E+04  0.19819328346E+04  0.12699999809E+01 0. -1.
</event>
<event>
 5   0  0.5034479E-06  0.2351806E+04  0.7818609E-02  0.8457770E-01
        1   -1    0    0  501    0  0.00000000000E+00  0.00000000000E+00  0.20890932021E+04  0.20890932021E+04  0.50400001928E-02 0.  1.
       -1   -1    0    0    0  501  0.00000000000E+00  0.00000000000E+00 -0.66188884130E+03  0.66188884132E+03  0.50400001928E-02 0. -1.
    10030    2    1    2    0    0  0.00000000000E+00  0.00000000000E+00  0.14272043607E+04  0.27509820434E+04  0.23518056713E+04 0.  0.
        4    1    3    3  502    0 -0.34406956101E+03  0.56700020211E+03  0.18494309635E+04  0.19647568791E+04  0.12699999809E+01 0.  1.
       -4    1    3    3    0  502  0.34406956101E+03 -0.56700020211E+03 -0.42222660279E+03  0.78622516432E+03  0.12699999809E+01 0. -1.
</event>
<event>
 5   0  0.1198313E-05  0.2402675E+04  0.7818609E-02  0.8438503E-01
       -2   -1    0    0    0  501  0.00000000000E+00  0.00000000000E+00  0.17078472638E+04  0.17078472638E+04  0.25500000920E-02 0. -1.
        2   -1    0    0  501    0  0.00000000000E+00  0.00000000000E+00 -0.84504727815E+03  0.84504727816E+03  0.25500000920E-02 0.  1.
    10030    2    1    2    0    0  0.00000000000E+00  0.00000000000E+00  0.86279998565E+03  0.25528945420E+04  0.24026749108E+04 0.  0.
        5    1    3    3  502    0  0.11423369313E+04 -0.29433695632E+03  0.18999072273E+03  0.11948583485E+04  0.46999998093E+01 0.  1.
       -5    1    3    3    0  502 -0.11423369313E+04  0.29433695632E+03  0.67280926292E+03  0.13580361934E+04  0.46999998093E+01 0. -1.
</event>
<event>
 5   0  0.5042742E-06  0.2362894E+04  0.7818609E-02  0.8453528E-01
        1   -1    0    0  501    0  0.00000000000E+00  0.00000000000E+00  0.96500325052E+03  0.96500325054E+03  0.50400001928E-02 0.  1.
       -1   -1    0    0    0  501  0.00000000000E+00  0.00000000000E+00 -0.14464373343E+04  0.14464373343E+04  0.50400001928E-02 0. -1.
    10030    2    1    2    0    0  0.00000000000E+00  0.00000000000E+00 -0.48143408378E+03  0.24114405848E+04  0.23628937592E+04 0.  0.
        5    1    3    3  502    0 -0.82113991353E+03  0.33747454164E+03 -0.10362417912E+04  0.13645435001E+04  0.46999998093E+01 0. -1.
       -5    1    3    3    0  502  0.82113991353E+03 -0.33747454164E+03  0.55480770742E+03  0.10468970847E+04  0.46999998093E+01 0.  1.
</event>
<event>
 5   0  0.5042742E-06  0.2389406E+04  0.7818609E-02  0.8443480E-01
        1   -1    0    0  501    0  0.00000000000E+00  0.00000000000E+00  0.11830322517E+04  0.11830322517E+04  0.50400001928E-02 0.  1.
       -1   -1    0    0    0  501  0.00000000000E+00  0.00000000000E+00 -0.12064891794E+04  0.12064891794E+04  0.50400001928E-02 0. -1.
    10030    2    1    2    0    0  0.00000000000E+00  0.00000000000E+00 -0.23456927663E+02  0.23895214311E+04  0.23894062949E+04 0.  0.
        5    1    3    3  502    0 -0.11192917701E+03  0.49352495605E+03  0.10705429307E+04  0.11841365121E+04  0.46999998093E+01 0.  1.
       -5    1    3    3    0  502  0.11192917701E+03 -0.49352495605E+03 -0.10939998583E+04  0.12053849190E+04  0.46999998093E+01 0. -1.
</event>
<event>
 5   0  0.1169371E-05  0.2399956E+04  0.7818609E-02  0.8439520E-01
       -2   -1    0    0    0  501  0.00000000000E+00  0.00000000000E+00  0.93721449562E+03  0.93721449562E+03  0.25500000920E-02 0.  1.
        2   -1    0    0  501    0  0.00000000000E+00  0.00000000000E+00 -0.15364111988E+04  0.15364111988E+04  0.25500000920E-02 0. -1.
    10030    2    1    2    0    0  0.00000000000E+00  0.00000000000E+00 -0.59919670318E+03  0.24736256944E+04  0.23999557052E+04 0.  0.
        2    1    3    3  502    0  0.23045694907E+03 -0.89565005884E+03 -0.10876919023E+04  0.14277160459E+04  0.25500000920E-02 0. -1.
       -2    1    3    3    0  502 -0.23045694907E+03  0.89565005884E+03  0.48849519916E+03  0.10459096485E+04  0.25500000920E-02 0.  1.
</event>
<event>
 5   0  0.5104174E-06  0.2395463E+04  0.7818609E-02  0.8441204E-01
       -1   -1    0    0    0  501  0.00000000000E+00  0.00000000000E+00  0.11580057152E+04  0.11580057152E+04  0.50400001928E-02 0. -1.
        1   -1    0    0  501    0  0.00000000000E+00  0.00000000000E+00 -0.12388203270E+04  0.12388203270E+04  0.50400001928E-02 0.  1.
    10030    2    1    2    0    0  0.00000000000E+00  0.00000000000E+00 -0.80814611815E+02  0.23968260422E+04  0.23954632277E+04 0.  0.
        3    1    3    3  502    0  0.60284466709E+03 -0.84385185536E+03  0.55914420978E+03  0.11781977355E+04  0.10100000352E+00 0. -1.
       -3    1    3    3    0  502 -0.60284466709E+03  0.84385185536E+03 -0.63995882159E+03  0.12186283067E+04  0.10100000352E+00 0.  1.
</event>
<event>
 5   0  0.1174210E-05  0.2352376E+04  0.7818609E-02  0.8457552E-01
        2   -1    0    0  501    0  0.00000000000E+00  0.00000000000E+00  0.11887161937E+04  0.11887161937E+04  0.25500000920E-02 0. -1.
       -2   -1    0    0    0  501  0.00000000000E+00  0.00000000000E+00 -0.11637913688E+04  0.11637913688E+04  0.25500000920E-02 0.  1.
    10030    2    1    2    0    0  0.00000000000E+00  0.00000000000E+00  0.24924824824E+02  0.23525075625E+04  0.23523755195E+04 0.  0.
        3    1    3    3  502    0 -0.20543905466E+03  0.11293002987E+04  0.26917365829E+03  0.11789736377E+04  0.10100000352E+00 0. -1.
       -3    1    3    3    0  502  0.20543905466E+03 -0.11293002987E+04 -0.24424883347E+03  0.11735339248E+04  0.10100000352E+00 0.  1.
</event>
<event>
 5   0  0.1154897E-05  0.2399587E+04  0.7818609E-02  0.8439658E-01
        2   -1    0    0  501    0  0.00000000000E+00  0.00000000000E+00  0.18881202242E+04  0.18881202242E+04  0.25500000920E-02 0.  1.
       -2   -1    0    0    0  501  0.00000000000E+00  0.00000000000E+00 -0.76240060707E+03  0.76240060707E+03  0.25500000920E-02 0. -1.
    10030    2    1    2    0    0  0.00000000000E+00  0.00000000000E+00  0.11257196171E+04  0.26505208312E+04  0.23995866354E+04 0.  0.
        4    1    3    3  502    0  0.37125887524E+03 -0.55652922656E+03  0.16629757690E+04  0.17924976858E+04  0.12699999809E+01 0.  1.
       -4    1    3    3    0  502 -0.37125887524E+03  0.55652922656E+03 -0.53725615189E+03  0.85802314544E+03  0.12699999809E+01 0. -1.
</event>
<event>
 5   0  0.1154897E-05  0.2394568E+04  0.7818609E-02  0.8441540E-01
        2   -1    0    0  501    0  0.00000000000E+00  0.00000000000E+00  0.14854847882E+04  0.14854847882E+04  0.25500000920E-02 0. -1.
       -2   -1    0    0    0  501  0.00000000000E+00  0.00000000000E+00 -0.96499737759E+03  0.96499737759E+03  0.25500000920E-02 0.  1.
    10030    2    1    2    0    0  0.00000000000E+00  0.00000000000E+00  0.52048741064E+03  0.24504821658E+04  0.23945679569E+04 0.  0.
        4    1    3    3  502    0 -0.92824331387E+03  0.40350201936E+03  0.91473834239E+03  0.13642570789E+04  0.12699999809E+01 0. -1.
       -4    1    3    3    0  502  0.92824331387E+03 -0.40350201936E+03 -0.39425093176E+03  0.10862250869E+04  0.12699999809E+01 0.  1.
</event>
<event>
 5   0  0.5064437E-06  0.2405704E+04  0.7818609E-02  0.8437371E-01
       -1   -1    0    0    0  501  0.00000000000E+00  0.00000000000E+00  0.67839136799E+03  0.67839136801E+03  0.50400001928E-02 0.  1.
        1   -1    0    0  501    0  0.00000000000E+00  0.00000000000E+00 -0.21327702482E+04  0.21327702482E+04  0.50400001928E-02 0. -1.
    10030    2    1    2    0    0  0.00000000000E+00  0.00000000000E+00 -0.14543788802E+04  0.28111616162E+04  0.24057039937E+04 0.  0.
        2    1    3    3  502    0  0.10539722215E+04 -0.14156344087E+03 -0.70354222665E+02  0.10657614030E+04  0.25500000920E-02 0.  1.
       -2    1    3    3    0  502 -0.10539722215E+04  0.14156344087E+03 -0.13840246576E+04  0.17454002132E+04  0.25500000920E-02 0. -1.
</event>
<event>
 5   0  0.1168435E-05  0.2406639E+04  0.7818609E-02  0.8437022E-01
        2   -1    0    0  501    0  0.00000000000E+00  0.00000000000E+00  0.13415720294E+04  0.13415720294E+04  0.25500000920E-02 0. -1.
       -2   -1    0    0    0  501  0.00000000000E+00  0.00000000000E+00 -0.10793141857E+04  0.10793141858E+04  0.25500000920E-02 0.  1.
    10030    2    1    2    0    0  0.00000000000E+00  0.00000000000E+00  0.26225784370E+03  0.24208862152E+04  0.24066389198E+04 0.  0.
        1    1    3    3  502    0  0.46795547285E+03 -0.35903761189E+03  0.11861886233E+04  0.13247391371E+04  0.50400001928E-02 0. -1.
       -1    1    3    3    0  502 -0.46795547285E+03  0.35903761189E+03 -0.92393077959E+03  0.10961470781E+04  0.50400001928E-02 0.  1.
</event>
<event>
 5   0  0.5196696E-06  0.2396274E+04  0.7818609E-02  0.8440900E-01
        1   -1    0    0  501    0  0.00000000000E+00  0.00000000000E+00  0.15173697521E+04  0.15173697521E+04  0.50400001928E-02 0.  1.
       -1   -1    0    0    0  501  0.00000000000E+00  0.00000000000E+00 -0.94606600363E+03  0.94606600365E+03  0.50400001928E-02 0. -1.
    10030    2    1    2    0    0  0.00000000000E+00  0.00000000000E+00  0.57130374844E+03  0.24634357557E+04  0.23962737218E+04 0.  0.
        1    1    3    3  502    0  0.97169523134E+02 -0.87702700293E+03 -0.54756673513E+03  0.10384833217E+04  0.50400001928E-02 0. -1.
       -1    1    3    3    0  502 -0.97169523134E+02  0.87702700293E+03  0.11188704836E+04  0.14249524340E+04  0.50400001928E-02 0.  1.
</event>
<event>
 5   0  0.5042742E-06  0.2395532E+04  0.7818609E-02  0.8441178E-01
       -1   -1    0    0    0  501  0.00000000000E+00  0.00000000000E+00  0.11178117732E+04  0.11178117732E+04  0.50400001928E-02 0.  1.
        1   -1    0    0  501    0  0.00000000000E+00  0.00000000000E+00 -0.12834389358E+04  0.12834389358E+04  0.50400001928E-02 0. -1.
    10030    2    1    2    0    0  0.00000000000E+00  0.00000000000E+00 -0.16562716267E+03  0.24012507090E+04  0.23955318012E+04 0.  0.
        5    1    3    3  502    0 -0.36578570183E+03 -0.52280468735E+03  0.93326167804E+03  0.11305411848E+04  0.46999998093E+01 0.  1.
       -5    1    3    3    0  502  0.36578570183E+03  0.52280468735E+03 -0.10988888407E+04  0.12707095243E+04  0.46999998093E+01 0. -1.
</event>
<event>
 5   0  0.1168435E-05  0.2403629E+04  0.7818609E-02  0.8438146E-01
        2   -1    0    0  501    0  0.00000000000E+00  0.00000000000E+00  0.17128860225E+04  0.17128860225E+04  0.25500000920E-02 0. -1.
       -2   -1    0    0    0  501  0.00000000000E+00  0.00000000000E+00 -0.84323069550E+03  0.84323069550E+03  0.25500000920E-02 0.  1.
    10030    2    1    2    0    0  0.00000000000E+00  0.00000000000E+00  0.86965532704E+03  0.25561167180E+04  0.24036289831E+04 0.  0.
        1    1    3    3  502    0  0.17943291766E+03  0.69274875224E+03  0.14616185902E+04  0.16273985096E+04  0.50400001928E-02 0. -1.
       -1    1    3    3    0  502 -0.17943291766E+03 -0.69274875224E+03 -0.59196326321E+03  0.92871820844E+03  0.50400001928E-02 0.  1.
</event>
<event>
 5   0  0.5042742E-06  0.2413944E+04  0.7818609E-02  0.8434301E-01
       -1   -1    0    0    0  501  0.00000000000E+00  0.00000000000E+00  0.12965055690E+04  0.12965055690E+04  0.50400001928E-02 0.  1.
        1   -1    0    0  501    0  0.00000000000E+00  0.00000000000E+00 -0.11236216818E+04  0.11236216818E+04  0.50400001928E-02 0. -1.
    10030    2    1    2    0    0  0.00000000000E+00  0.00000000000E+00  0.17288388722E+03  0.24201272508E+04  0.24139442975E+04 0.  0.
        5    1    3    3  502    0  0.44280783289E+03  0.38606847572E+03 -0.97059820730E+03  0.11345530463E+04  0.46999998093E+01 0. -1.
       -5    1    3    3    0  502 -0.44280783289E+03 -0.38606847572E+03  0.11434820945E+04  0.12855742045E+04  0.46999998093E+01 0.  1.
</event>
<event>
 5   0  0.5104174E-06  0.2416691E+04  0.7818609E-02  0.8433281E-01
       -1   -1    0    0    0  501  0.00000000000E+00  0.00000000000E+00  0.17942122299E+04  0.17942122299E+04  0.50400001928E-02 0. -1.
        1   -1    0    0  501    0  0.00000000000E+00  0.00000000000E+00 -0.81378246508E+03  0.81378246510E+03  0.50400001928E-02 0.  1.
    10030    2    1    2    0    0  0.00000000000E+00  0.00000000000E+00  0.98042976480E+03  0.26079946950E+04  0.24166906723E+04 0.  0.
        3    1    3    3  502    0 -0.63183441113E+02  0.38107682873E+03  0.17257873543E+04  0.17684891006E+04  0.10100000352E+00 0. -1.
       -3    1    3    3    0  502  0.63183441113E+02 -0.38107682873E+03 -0.74535758946E+03  0.83950559438E+03  0.10100000352E+00 0.  1.
</event>
<event>
 5   0  0.5034479E-06  0.2391689E+04  0.7818609E-02  0.8442622E-01
       -1   -1    0    0    0  501  0.00000000000E+00  0.00000000000E+00  0.59033508768E+03  0.59033508771E+03  0.50400001928E-02 0.  1.
        1   -1    0    0  501    0  0.00000000000E+00  0.00000000000E+00 -0.24224275963E+04  0.24224275963E+04  0.50400001928E-02 0. -1.
    10030    2    1    2    0    0  0.00000000000E+00  0.00000000000E+00 -0.18320925086E+04  0.30127626840E+04  0.23916889493E+04 0.  0.
        4    1    3    3  502    0 -0.17045490743E+03 -0.26174315107E+03 -0.23701328037E+04  0.23906265858E+04  0.12699999809E+01 0. -1.
       -4    1    3    3    0  502  0.17045490743E+03  0.26174315107E+03  0.53804029512E+03  0.62213609819E+03  0.12699999809E+01 0.  1.
</event>
<event>
 5   0  0.1198313E-05  0.2403175E+04  0.7818609E-02  0.8438316E-01
        2   -1    0    0  501    0  0.00000000000E+00  0.00000000000E+00  0.21501762566E+04  0.21501762566E+04  0.25500000920E-02 0.  1.
       -2   -1    0    0    0  501  0.00000000000E+00  0.00000000000E+00 -0.67148557117E+03  0.67148557118E+03  0.25500000920E-02 0. -1.
    10030    2    1    2    0    0  0.00000000000E+00  0.00000000000E+00  0.14786906854E+04  0.28216618278E+04  0.24031748432E+04 0.  0.
        5    1    3    3  502    0 -0.70817517964E+03  0.83741145746E+03  0.13157750064E+04  0.17129086349E+04  0.46999998093E+01 0.  1.
       -5    1    3    3    0  502  0.70817517964E+03 -0.83741145746E+03  0.16291567901E+03  0.11087531928E+04  0.46999998093E+01 0. -1.
</event>
<event>
 5   0  0.1168435E-05  0.2409874E+04  0.7818609E-02  0.8435816E-01
       -2   -1    0    0    0  501  0.00000000000E+00  0.00000000000E+00  0.18778233058E+04  0.18778233058E+04  0.25500000920E-02 0.  1.
        2   -1    0    0  501    0  0.00000000000E+00  0.00000000000E+00 -0.77316786794E+03  0.77316786794E+03  0.25500000920E-02 0. -1.
    10030    2    1    2    0    0  0.00000000000E+00  0.00000000000E+00  0.11046554378E+04  0.26509911737E+04  0.24098735583E+04 0.  0.
        1    1    3    3  502    0  0.72949245984E+03 -0.80525234159E+03  0.11252880595E+04  0.15642454409E+04  0.50400001928E-02 0.  1.
       -1    1    3    3    0  502 -0.72949245984E+03  0.80525234159E+03 -0.20632621686E+02  0.10867457328E+04  0.50400001928E-02 0. -1.
</event>
<event>
 5   0  0.5064437E-06  0.2391958E+04  0.7818609E-02  0.8442520E-01
       -1   -1    0    0    0  501  0.00000000000E+00  0.00000000000E+00  0.73298356393E+03  0.73298356394E+03  0.50400001928E-02 0. -1.
        1   -1    0    0  501    0  0.00000000000E+00  0.00000000000E+00 -0.19514303312E+04  0.19514303312E+04  0.50400001928E-02 0.  1.
    10030    2    1    2    0    0  0.00000000000E+00  0.00000000000E+00 -0.12184467672E+04  0.26844138951E+04  0.23919584937E+04 0.  0.
        2    1    3    3  502    0 -0.56918550164E+03 -0.10356598339E+04 -0.81555844185E+03  0.14358617618E+04  0.25500000920E-02 0.  1.
       -2    1    3    3    0  502  0.56918550164E+03  0.10356598339E+04 -0.40288832537E+03  0.12485521333E+04  0.25500000920E-02 0. -1.
</event>
<event>
 5   0  0.5042742E-06  0.2425464E+04  0.7818609E-02  0.8430031E-01
        1   -1    0    0  501    0  0.00000000000E+00  0.00000000000E+00  0.23479468915E+04  0.23479468915E+04  0.50400001928E-02 0.  1.
       -1   -1    0    0    0  501  0.00000000000E+00  0.00000000000E+00 -0.62638491915E+03  0.62638491917E+03  0.50400001928E-02 0. -1.
    10030    2    1    2    0    0  0.00000000000E+00  0.00000000000E+00  0.17215619724E+04  0.29743318107E+04  0.24254636867E+04 0.  0.
        5    1    3    3  502    0  0.42997598557E+03 -0.10910512239E+04  0.48196861037E+03  0.12679069180E+04  0.46999998093E+01 0. -1.
       -5    1    3    3    0  502 -0.42997598557E+03  0.10910512239E+04  0.12395933620E+04  0.17064248927E+04  0.46999998093E+01 0.  1.
</event>
<event>
 5   0  0.1174210E-05  0.2394993E+04  0.7818609E-02  0.8441381E-01
       -2   -1    0    0    0  501  0.00000000000E+00  0.00000000000E+00  0.12087102134E+04  0.12087102134E+04  0.25500000920E-02 0. -1.
        2   -1    0    0  501    0  0.00000000000E+00  0.00000000000E+00 -0.11863864062E+04  0.11863864062E+04  0.25500000920E-02 0.  1.
    10030    2    1    2    0    0  0.00000000000E+00  0.00000000000E+00  0.22323807222E+02  0.23950966195E+04  0.23949925813E+04 0.  0.
        3    1    3    3  502    0  0.64222863031E+03  0.19716122145E+02 -0.99940216471E+03  0.11881292169E+04  0.10100000352E+00 0.  1.
       -3    1    3    3    0  502 -0.64222863031E+03 -0.19716122145E+02  0.10217259719E+04  0.12069674026E+04  0.10100000352E+00 0. -1.
</event>
<event>
 5   0  0.1168435E-05  0.2381339E+04  0.7818609E-02  0.8446523E-01
       -2   -1    0    0    0  501  0.00000000000E+00  0.00000000000E+00  0.10431650550E+04  0.10431650550E+04  0.25500000920E-02 0.  1.
        2   -1    0    0  501    0  0.00000000000E+00  0.00000000000E+00 -0.13590309849E+04  0.13590309849E+04  0.25500000920E-02 0. -1.
    10030    2    1    2    0    0  0.00000000000E+00  0.00000000000E+00 -0.31586592994E+03  0.24021960400E+04  0.23813388101E+04 0.  0.
        1    1    3    3  502    0  0.78657785042E+03 -0.84474846539E+03 -0.45270622679E+03  0.12398579001E+04  0.50400001928E-02 0.  1.
       -1    1    3    3    0  502 -0.78657785042E+03  0.84474846539E+03  0.13684029685E+03  0.11623381399E+04  0.50400001928E-02 0. -1.
</event>
<event>
 5   0  0.4067750E-06  0.2410170E+04  0.7818609E-02  0.8435706E-01
       -3   -1    0    0    0  501  0.00000000000E+00  0.00000000000E+00  0.16167638227E+04  0.16167638259E+04  0.10100000352E+00 0.  1.
        3   -1    0    0  501    0  0.00000000000E+00  0.00000000000E+00 -0.89823265080E+03  0.89823265648E+03  0.10100000352E+00 0. -1.
    10030    2    1    2    0    0  0.00000000000E+00  0.00000000000E+00  0.71853117190E+03  0.25149964823E+04  0.24101701727E+04 0.  0.
        4    1    3    3  502    0  0.46232836648E+03  0.10839952791E+04  0.96447817080E+02  0.11824115519E+04  0.12699999809E+01 0. -1.
       -4    1    3    3    0  502 -0.46232836648E+03 -0.10839952791E+04  0.62208335482E+03  0.13325849305E+04  0.12699999809E+01 0.  1.
</event>
<event>
 5   0  0.5064437E-06  0.2403786E+04  0.7818609E-02  0.8438088E-01
       -1   -1    0    0    0  501  0.00000000000E+00  0.00000000000E+00  0.12491627589E+04  0.12491627589E+04  0.50400001928E-02 0. -1.
        1   -1    0    0  501    0  0.00000000000E+00  0.00000000000E+00 -0.11564119176E+04  0.11564119176E+04  0.50400001928E-02 0.  1.
    10030    2    1    2    0    0  0.00000000000E+00  0.00000000000E+00  0.92750841264E+02  0.24055746765E+04  0.24037859318E+04 0.  0.
        2    1    3    3  502    0  0.10320679351E+04 -0.36041131370E+03 -0.45348216443E+03  0.11835145167E+04  0.25500000920E-02 0.  1.
       -2    1    3    3    0  502 -0.10320679351E+04  0.36041131370E+03  0.54623300570E+03  0.12220601598E+04  0.25500000920E-02 0. -1.
</event>
<event>
 5   0  0.5042742E-06  0.2398654E+04  0.7818609E-02  0.8440008E-01
        1   -1    0    0  501    0  0.00000000000E+00  0.00000000000E+00  0.78058972742E+03  0.78058972744E+03  0.50400001928E-02 0.  1.
       -1   -1    0    0    0  501  0.00000000000E+00  0.00000000000E+00 -0.18426902061E+04  0.18426902061E+04  0.50400001928E-02 0. -1.
    10030    2    1    2    0    0  0.00000000000E+00  0.00000000000E+00 -0.10621004786E+04  0.26232799335E+04  0.23986538272E+04 0.  0.
        5    1    3    3  502    0 -0.82714273926E+03  0.70768505571E+03 -0.10815574049E+04  0.15345265587E+04  0.46999998093E+01 0. -1.
       -5    1    3    3    0  502  0.82714273926E+03 -0.70768505571E+03  0.19456926294E+02  0.10887533748E+04  0.46999998093E+01 0.  1.
</event>
<event>
 5   0  0.5064437E-06  0.2414292E+04  0.7818609E-02  0.8434172E-01
       -1   -1    0    0    0  501  0.00000000000E+00  0.00000000000E+00  0.10586586323E+04  0.10586586323E+04  0.50400001928E-02 0.  1.
        1   -1    0    0  501    0  0.00000000000E+00  0.00000000000E+00 -0.13764606900E+04  0.13764606900E+04  0.50400001928E-02 0. -1.
    10030    2    1    2    0    0  0.00000000000E+00  0.00000000000E+00 -0.31780205771E+03  0.24351193223E+04  0.24142924359E+04 0.  0.
        2    1    3    3  502    0  0.51470441277E+03 -0.29696525312E+03  0.90092163082E+03  0.10792445409E+04  0.25500000920E-02 0.  1.
       -2    1    3    3    0  502 -0.51470441277E+03  0.29696525312E+03 -0.12187236885E+04  0.13558747815E+04  0.25500000920E-02 0. -1.
</event>
<event>
 5   0  0.5042742E-06  0.2404129E+04  0.7818609E-02  0.8437959E-01
       -1   -1    0    0    0  501  0.00000000000E+00  0.00000000000E+00  0.10044821056E+04  0.10044821056E+04  0.50400001928E-02 0. -1.
        1   -1    0    0  501    0  0.00000000000E+00  0.00000000000E+00 -0.14385117639E+04  0.14385117639E+04  0.50400001928E-02 0.  1.
    10030    2    1    2    0    0  0.00000000000E+00  0.00000000000E+00 -0.43402965836E+03  0.24429938695E+04  0.24041292191E+04 0.  0.
        5    1    3    3  502    0  0.91507638301E+03  0.70580429161E+03  0.11910840888E+03  0.11617802666E+04  0.46999998093E+01 0. -1.
       -5    1    3    3    0  502 -0.91507638301E+03 -0.70580429161E+03 -0.55313806725E+03  0.12812136029E+04  0.46999998093E+01 0.  1.
</event>
<event>
 5   0  0.5064437E-06  0.2400113E+04  0.7818609E-02  0.8439461E-01
       -1   -1    0    0    0  501  0.00000000000E+00  0.00000000000E+00  0.15979748257E+04  0.15979748257E+04  0.50400001928E-02 0.  1.
        1   -1    0    0  501    0  0.00000000000E+00  0.00000000000E+00 -0.90122554257E+03  0.90122554258E+03  0.50400001928E-02 0. -1.
    10030    2    1    2    0    0  0.00000000000E+00  0.00000000000E+00  0.69674928315E+03  0.24992003683E+04  0.24001131051E+04 0.  0.
        2    1    3    3  502    0  0.11857434991E+04  0.40938089582E+02  0.53601442946E+03  0.13019120713E+04  0.25500000920E-02 0.  1.
       -2    1    3    3    0  502 -0.11857434991E+04 -0.40938089582E+02  0.16073485369E+03  0.11972882970E+04  0.25500000920E-02 0. -1.
</event>
<event>
 5   0  0.1174210E-05  0.2406348E+04  0.7818609E-02  0.8437131E-01
       -2   -1    0    0    0  501  0.00000000000E+00  0.00000000000E+00  0.10508766572E+04  0.10508766573E+04  0.25500000920E-02 0. -1.
        2   -1    0    0  501    0  0.00000000000E+00  0.00000000000E+00 -0.13775433320E+04  0.13775433320E+04  0.25500000920E-02 0.  1.
    10030    2    1    2    0    0  0.00000000000E+00  0.00000000000E+00 -0.32666667479E+03  0.24284199893E+04  0.24063483804E+04 0.  0.
        3    1    3    3  502    0  0.27010263992E+03  0.30909024944E+03  0.97802927123E+03  0.10606759562E+04  0.10100000352E+00 0. -1.
       -3    1    3    3    0  502 -0.27010263992E+03 -0.30909024944E+03 -0.13046959460E+04  0.13677440331E+04  0.10100000352E+00 0.  1.
</event>
<event>
 5   0  0.1169371E-05  0.2403016E+04  0.7818609E-02  0.8438375E-01
       -2   -1    0    0    0  501  0.00000000000E+00  0.00000000000E+00  0.98459183983E+03  0.98459183983E+03  0.25500000920E-02 0.  1.
        2   -1    0    0  501    0  0.00000000000E+00  0.00000000000E+00 -0.14662132087E+04  0.14662132087E+04  0.25500000920E-02 0. -1.
    10030    2    1    2    0    0  0.00000000000E+00  0.00000000000E+00 -0.48162136886E+03  0.24508050485E+04  0.24030160721E+04 0.  0.
        2    1    3    3  502    0  0.85441741278E+03 -0.82118399606E+03 -0.44286493620E+03  0.12651093322E+04  0.25500000920E-02 0.  1.
       -2    1    3    3    0  502 -0.85441741278E+03  0.82118399606E+03 -0.38756432662E+02  0.11856957163E+04  0.25500000920E-02 0. -1.
</event>
<event>
 5   0  0.1168435E-05  0.2431154E+04  0.7818609E-02  0.8427931E-01
       -2   -1    0    0    0  501  0.00000000000E+00  0.00000000000E+00  0.10017240937E+04  0.10017240937E+04  0.25500000920E-02 0. -1.
        2   -1    0    0  501    0  0.00000000000E+00  0.00000000000E+00 -0.14750837116E+04  0.14750837116E+04  0.25500000920E-02 0.  1.
    10030    2    1    2    0    0  0.00000000000E+00  0.00000000000E+00 -0.47335961793E+03  0.24768078053E+04  0.24311535485E+04 0.  0.
        1    1    3    3  502    0  0.17957156076E+03  0.11358913717E+04 -0.63794385781E+03  0.13150922095E+04  0.50400001928E-02 0.  1.
       -1    1    3    3    0  502 -0.17957156076E+03 -0.11358913717E+04  0.16458423988E+03  0.11617155959E+04  0.50400001928E-02 0. -1.
</event>
<event>
 5   0  0.5064437E-06  0.2397487E+04  0.7818609E-02  0.8440445E-01
        1   -1    0    0  501    0  0.00000000000E+00  0.00000000000E+00  0.15340922335E+04  0.15340922335E+04  0.50400001928E-02 0. -1.
       -1   -1    0    0    0  501  0.00000000000E+00  0.00000000000E+00 -0.93670152313E+03  0.93670152314E+03  0.50400001928E-02 0.  1.
    10030    2    1    2    0    0  0.00000000000E+00  0.00000000000E+00  0.59739071039E+03  0.24707937567E+04  0.23974874613E+04 0.  0.
        2    1    3    3  502    0 -0.14858266911E+03  0.89359693798E+03  0.11078088316E+04  0.14310250537E+04  0.25500000920E-02 0. -1.
       -2    1    3    3    0  502  0.14858266911E+03 -0.89359693798E+03 -0.51041812119E+03  0.10397687029E+04  0.25500000920E-02 0.  1.
</event>
<event>
 5   0  0.1154897E-05  0.2397461E+04  0.7818609E-02  0.8440455E-01
        2   -1    0    0  501    0  0.00000000000E+00  0.00000000000E+00  0.16248811595E+04  0.16248811595E+04  0.25500000920E-02 0. -1.
       -2   -1    0    0    0  501  0.00000000000E+00  0.00000000000E+00 -0.88434461460E+03  0.88434461461E+03  0.25500000920E-02 0.  1.
    10030    2    1    2    0    0  0.00000000000E+00  0.00000000000E+00  0.74053654486E+03  0.25092257741E+04  0.23974610760E+04 0.  0.
        4    1    3    3  502    0  0.38322645571E+03 -0.90567824430E+03  0.10876694774E+04  0.14663362860E+04  0.12699999809E+01 0. -1.
       -4    1    3    3    0  502 -0.38322645571E+03  0.90567824430E+03 -0.34713293258E+03  0.10428894881E+04  0.12699999809E+01 0.  1.
</event>
<event>
 5   0  0.5196696E-06  0.2397814E+04  0.7818609E-02  0.8440322E-01
       -1   -1    0    0    0  501  0.00000000000E+00  0.00000000000E+00  0.81365711974E+03  0.81365711976E+03  0.50400001928E-02 0.  1.
        1   -1    0    0  501    0  0.00000000000E+00  0.00000000000E+00 -0.17665646464E+04  0.17665646464E+04  0.50400001928E-02 0. -1.
    10030    2    1    2    0    0  0.00000000000E+00  0.00000000000E+00 -0.95290752667E+03  0.25802217662E+04  0.23978139228E+04 0.  0.
        1    1    3    3  502    0 -0.41835386600E+03 -0.45019813814E+03 -0.15841708122E+04  0.16992043677E+04  0.50400001928E-02 0. -1.
       -1    1    3    3    0  502  0.41835386600E+03  0.45019813814E+03  0.63126328554E+03  0.88101739851E+03  0.50400001928E-02 0.  1.
</event>
<event>
 5   0  0.5034479E-06  0.2265912E+04  0.7818609E-02  0.8491484E-01
       -1   -1    0    0    0  501  0.00000000000E+00  0.00000000000E+00  0.92693276351E+03  0.92693276352E+03  0.50400001928E-02 0. -1.
        1   -1    0    0  501    0  0.00000000000E+00  0.00000000000E+00 -0.13847708555E+04  0.13847708555E+04  0.50400001928E-02 0.  1.
    10030    2    1    2    0    0  0.00000000000E+00  0.00000000000E+00 -0.45783809200E+03  0.23117036190E+04  0.22659121571E+04 0.  0.
        4    1    3    3  502    0  0.31827613812E+03  0.34494151385E+03  0.82308572196E+03  0.94749990326E+03  0.12699999809E+01 0. -1.
       -4    1    3    3    0  502 -0.31827613812E+03 -0.34494151385E+03 -0.12809238140E+04  0.13642037158E+04  0.12699999809E+01 0.  1.
</event>
<event>
 5   0  0.1174210E-05  0.2408156E+04  0.7818609E-02  0.8436456E-01
       -2   -1    0    0    0  501  0.00000000000E+00  0.00000000000E+00  0.80721661786E+03  0.80721661786E+03  0.25500000920E-02 0. -1.
        2   -1    0    0  501    0  0.00000000000E+00  0.00000000000E+00 -0.17960525765E+04  0.17960525765E+04  0.25500000920E-02 0.  1.
    10030    2    1    2    0    0  0.00000000000E+00  0.00000000000E+00 -0.98883595863E+03  0.26032691944E+04  0.24081557145E+04 0.  0.
        3    1    3    3  502    0  0.10644973689E+04 -0.14984686619E+03  0.91925323061E+02  0.10789156626E+04  0.10100000352E+00 0. -1.
       -3    1    3    3    0  502 -0.10644973689E+04  0.14984686619E+03 -0.10807612817E+04  0.15243535318E+04  0.10100000352E+00 0.  1.
</event>
<event>
 5   0  0.5042742E-06  0.2404782E+04  0.7818609E-02  0.8437716E-01
       -1   -1    0    0    0  501  0.00000000000E+00  0.00000000000E+00  0.11952985735E+04  0.11952985735E+04  0.50400001928E-02 0.  1.
        1   -1    0    0  501    0  0.00000000000E+00  0.00000000000E+00 -0.12095253108E+04  0.12095253108E+04  0.50400001928E-02 0. -1.
    10030    2    1    2    0    0  0.00000000000E+00  0.00000000000E+00 -0.14226737346E+02  0.24048238844E+04  0.24047818019E+04 0.  0.
        5    1    3    3  502    0  0.92128548138E+02  0.33488121261E+03 -0.11582584811E+04  0.12092220206E+04  0.46999998093E+01 0. -1.
       -5    1    3    3    0  502 -0.92128548138E+02 -0.33488121261E+03  0.11440317438E+04  0.11956018638E+04  0.46999998093E+01 0.  1.
</event>
<event>
 5   0  0.1174210E-05  0.2401965E+04  0.7818609E-02  0.8438768E-01
        2   -1    0    0  501    0  0.00000000000E+00  0.00000000000E+00  0.11374323938E+04  0.11374323938E+04  0.25500000920E-02 0.  1.
       -2   -1    0    0    0  501  0.00000000000E+00  0.00000000000E+00 -0.12680836755E+04  0.12680836755E+04  0.25500000920E-02 0. -1.
    10030    2    1    2    0    0  0.00000000000E+00  0.00000000000E+00 -0.13065128163E+03  0.24055160693E+04  0.24019654040E+04 0.  0.
        3    1    3    3  502    0  0.10528344877E+04  0.50099344695E+03  0.22303148797E+03  0.11870964355E+04  0.10100000352E+00 0.  1.
       -3    1    3    3    0  502 -0.10528344877E+04 -0.50099344695E+03 -0.35368276960E+03  0.12184196338E+04  0.10100000352E+00 0. -1.
</event>
<event>
 5   0  0.5034479E-06  0.2390018E+04  0.7818609E-02  0.8443250E-01
       -1   -1    0    0    0  501  0.00000000000E+00  0.00000000000E+00  0.14077042249E+04  0.14077042249E+04  0.50400001928E-02 0.  1.
        1   -1    0    0  501    0  0.00000000000E+00  0.00000000000E+00 -0.10144504546E+04  0.10144504547E+04  0.50400001928E-02 0. -1.
    10030    2    1    2    0    0  0.00000000000E+00  0.00000000000E+00  0.39325377028E+03  0.24221546796E+04  0.23900177330E+04 0.  0.
        4    1    3    3  502    0 -0.72424862588E+03 -0.53849450896E+02 -0.76513780810E+03  0.10549281083E+04  0.12699999809E+01 0. -1.
       -4    1    3    3    0  502  0.72424862588E+03  0.53849450896E+02  0.11583915784E+04  0.13672265713E+04  0.12699999809E+01 0.  1.
</event>
<event>
 5   0  0.5042742E-06  0.2399341E+04  0.7818609E-02  0.8439750E-01
       -1   -1    0    0    0  501  0.00000000000E+00  0.00000000000E+00  0.10528058136E+04  0.10528058136E+04  0.50400001928E-02 0. -1.
        1   -1    0    0  501    0  0.00000000000E+00  0.00000000000E+00 -0.13670230741E+04  0.13670230741E+04  0.50400001928E-02 0.  1.
    10030    2    1    2    0    0  0.00000000000E+00  0.00000000000E+00 -0.31421726051E+03  0.24198288877E+04  0.23993414428E+04 0.  0.
        5    1    3    3  502    0 -0.41725054218E+03  0.43629584474E+02  0.97640379935E+03  0.10627266935E+04  0.46999998093E+01 0. -1.
       -5    1    3    3    0  502  0.41725054218E+03 -0.43629584474E+02 -0.12906210599E+04  0.13571021943E+04  0.46999998093E+01 0.  1.
</event>
<event>
 5   0  0.1198313E-05  0.2404634E+04  0.7818609E-02  0.8437771E-01
        2   -1    0    0  501    0  0.00000000000E+00  0.00000000000E+00  0.84336829844E+03  0.84336829845E+03  0.25500000920E-02 0.  1.
       -2   -1    0    0    0  501  0.00000000000E+00  0.00000000000E+00 -0.17140394463E+04  0.17140394463E+04  0.25500000920E-02 0. -1.
    10030    2    1    2    0    0  0.00000000000E+00  0.00000000000E+00 -0.87067114786E+03  0.25574077448E+04  0.24046343018E+04 0.  0.
        5    1    3    3  502    0 -0.27265637414E+02  0.10217730581E+04 -0.11086290647E+04  0.15079270839E+04  0.46999998093E+01 0. -1.
       -5    1    3    3    0  502  0.27265637414E+02 -0.10217730581E+04  0.23795791684E+03  0.10494806608E+04  0.46999998093E+01 0.  1.
</event>
<event>
 5   0  0.5196696E-06  0.2399170E+04  0.7818609E-02  0.8439814E-01
       -1   -1    0    0    0  501  0.00000000000E+00  0.00000000000E+00  0.10776946302E+04  0.10776946302E+04  0.50400001928E-02 0.  1.
        1   -1    0    0  501    0  0.00000000000E+00  0.00000000000E+00 -0.13352617784E+04  0.13352617785E+04  0.50400001928E-02 0. -1.
    10030    2    1    2    0    0  0.00000000000E+00  0.00000000000E+00 -0.25756714822E+03  0.24129564087E+04  0.23991702304E+04 0.  0.
        1    1    3    3  502    0 -0.81305812001E+03  0.62905700255E+03 -0.75058224836E+03  0.12728511031E+04  0.50400001928E-02 0. -1.
       -1    1    3    3    0  502  0.81305812001E+03 -0.62905700255E+03  0.49301510013E+03  0.11401053056E+04  0.50400001928E-02 0.  1.
</event>
<event>
 5   0  0.1198313E-05  0.2406901E+04  0.7818609E-02  0.8436924E-01
        2   -1    0    0  501    0  0.00000000000E+00  0.00000000000E+00  0.12601053566E+04  0.12601053566E+04  0.25500000920E-02 0. -1.
       -2   -1    0    0    0  501  0.00000000000E+00  0.00000000000E+00 -0.11493428178E+04  0.11493428178E+04  0.25500000920E-02 0.  1.
    10030    2    1    2    0    0  0.00000000000E+00  0.00000000000E+00  0.11076253881E+03  0.24094481744E+04  0.24069009463E+04 0.  0.
        5    1    3    3  502    0  0.81950939043E+03  0.10409274648E+03 -0.82066772935E+03  0.11644520397E+04  0.46999998093E+01 0.  1.
       -5    1    3    3    0  502 -0.81950939043E+03 -0.10409274648E+03  0.93143026816E+03  0.12449961347E+04  0.46999998093E+01 0. -1.
</event>
<event>
 5   0  0.5064437E-06  0.2432108E+04  0.7818609E-02  0.8427580E-01
        1   -1    0    0  501    0  0.00000000000E+00  0.00000000000E+00  0.12172681749E+04  0.12172681749E+04  0.50400001928E-02 0.  1.
       -1   -1    0    0    0  501  0.00000000000E+00  0.00000000000E+00 -0.12148406299E+04  0.12148406299E+04  0.50400001928E-02 0. -1.
    10030    2    1    2    0    0  0.00000000000E+00  0.00000000000E+00  0.24275450142E+01  0.24321088047E+04  0.24321075932E+04 0.  0.
        2    1    3    3  502    0 -0.26426860082E+03 -0.87010059813E+03 -0.80617370662E+03  0.12152485299E+04  0.25500000920E-02 0. -1.
       -2    1    3    3    0  502  0.26426860082E+03  0.87010059813E+03  0.80860125163E+03  0.12168602748E+04  0.25500000920E-02 0.  1.
</event>
<event>
 5   0  0.5104174E-06  0.2397476E+04  0.7818609E-02  0.8440449E-01
       -1   -1    0    0    0  501  0.00000000000E+00  0.00000000000E+00  0.11141320607E+04  0.11141320607E+04  0.50400001928E-02 0.  1.
        1   -1    0    0  501    0  0.00000000000E+00  0.00000000000E+00 -0.12897689960E+04  0.12897689960E+04  0.50400001928E-02 0. -1.
    10030    2    1    2    0    0  0.00000000000E+00  0.00000000000E+00 -0.17563693527E+03  0.24039010567E+04  0.23974761640E+04 0.  0.
        3    1    3    3  502    0  0.49651348978E+03 -0.10152819599E+04 -0.48845134142E+03  0.12312220867E+04  0.10100000352E+00 0. -1.
       -3    1    3    3    0  502 -0.49651348978E+03  0.10152819599E+04  0.31281440614E+03  0.11726789699E+04  0.10100000352E+00 0.  1.
</event>
<event>
 5   0  0.5042742E-06  0.2417887E+04  0.7818609E-02  0.8432837E-01
        1   -1    0    0  501    0  0.00000000000E+00  0.00000000000E+00  0.16998723782E+04  0.16998723782E+04  0.50400001928E-02 0. -1.
       -1   -1    0    0    0  501  0.00000000000E+00  0.00000000000E+00 -0.85979676744E+03  0.85979676745E+03  0.50400001928E-02 0.  1.
    10030    2    1    2    0    0  0.00000000000E+00  0.00000000000E+00  0.84007561079E+03  0.25596691457E+04  0.24178873223E+04 0.  0.
        5    1    3    3  502    0  0.66751898298E+03 -0.43433264029E+03 -0.54285580195E+03  0.96381582617E+03  0.46999998093E+01 0.  1.
       -5    1    3    3    0  502 -0.66751898298E+03  0.43433264029E+03  0.13829314127E+04  0.15958533195E+04  0.46999998093E+01 0. -1.
</event>
<event>
 5   0  0.1169371E-05  0.2265493E+04  0.7818609E-02  0.8491652E-01
       -2   -1    0    0    0  501  0.00000000000E+00  0.00000000000E+00  0.68041396785E+03  0.68041396785E+03  0.25500000920E-02 0.  1.
        2   -1    0    0  501    0  0.00000000000E+00  0.00000000000E+00 -0.18857854761E+04  0.18857854761E+04  0.25500000920E-02 0. -1.
    10030    2    1    2    0    0  0.00000000000E+00  0.00000000000E+00 -0.12053715083E+04  0.25661994440E+04  0.22654931281E+04 0.  0.
        2    1    3    3  502    0 -0.76774522036E+03  0.31268556479E+03  0.27172988901E+03  0.87237727985E+03  0.25500000920E-02 0.  1.
       -2    1    3    3    0  502  0.76774522036E+03 -0.31268556479E+03 -0.14771013973E+04  0.16938221641E+04  0.25500000920E-02 0. -1.
</event>
<event>
 5   0  0.1168435E-05  0.2402349E+04  0.7818609E-02  0.8438624E-01
       -2   -1    0    0    0  501  0.00000000000E+00  0.00000000000E+00  0.73686935865E+03  0.73686935866E+03  0.25500000920E-02 0.  1.
        2   -1    0    0  501    0  0.00000000000E+00  0.00000000000E+00 -0.19580414799E+04  0.19580414799E+04  0.25500000920E-02 0. -1.
    10030    2    1    2    0    0  0.00000000000E+00  0.00000000000E+00 -0.12211721212E+04  0.26949108385E+04  0.24023494912E+04 0.  0.
        1    1    3    3  502    0 -0.10686436169E+04 -0.29370482395E+03 -0.11302010225E+04  0.15829137862E+04  0.50400001928E-02 0. -1.
       -1    1    3    3    0  502  0.10686436169E+04  0.29370482395E+03 -0.90971098739E+02  0.11119970523E+04  0.50400001928E-02 0.  1.
</event>
<event>
 5   0  0.5196696E-06  0.2395112E+04  0.7818609E-02  0.8441336E-01
        1   -1    0    0  501    0  0.00000000000E+00  0.00000000000E+00  0.19496834863E+04  0.19496834863E+04  0.50400001928E-02 0. -1.
       -1   -1    0    0    0  501  0.00000000000E+00  0.00000000000E+00 -0.73557590468E+03  0.73557590470E+03  0.50400001928E-02 0.  1.
    10030    2    1    2    0    0  0.00000000000E+00  0.00000000000E+00  0.12141075816E+04  0.26852593910E+04  0.23951118507E+04 0.  0.
        1    1    3    3  502    0 -0.51866850935E+03  0.92783913879E+03 -0.11342622651E+02  0.10630292306E+04  0.50400001928E-02 0.  1.
       -1    1    3    3    0  502  0.51866850935E+03 -0.92783913879E+03  0.12254502043E+04  0.16222301604E+04  0.50400001928E-02 0. -1.
</event>
<event>
 5   0  0.5104174E-06  0.2398217E+04  0.7818609E-02  0.8440171E-01
       -1   -1    0    0    0  501  0.00000000000E+00  0.00000000000E+00  0.74197618549E+03  0.74197618551E+03  0.50400001928E-02 0.  1.
        1   -1    0    0  501    0  0.00000000000E+00  0.00000000000E+00 -0.19378805679E+04  0.19378805679E+04  0.50400001928E-02 0. -1.
    10030    2    1    2    0    0  0.00000000000E+00  0.00000000000E+00 -0.11959043824E+04  0.26798567535E+04  0.23982170309E+04 0.  0.
        3    1    3    3  502    0  0.80383454601E+03  0.17181423305E+03 -0.15735145565E+04  0.17752797463E+04  0.10100000352E+00 0. -1.
       -3    1    3    3    0  502 -0.80383454601E+03 -0.17181423305E+03  0.37761017406E+03  0.90457700711E+03  0.10100000352E+00 0.  1.
</event>
<event>
 5   0  0.5104174E-06  0.2400058E+04  0.7818609E-02  0.8439482E-01
        1   -1    0    0  501    0  0.00000000000E+00  0.00000000000E+00  0.17434783485E+04  0.17434783485E+04  0.50400001928E-02 0. -1.
       -1   -1    0    0    0  501  0.00000000000E+00  0.00000000000E+00 -0.82597511615E+03  0.82597511616E+03  0.50400001928E-02 0.  1.
    10030    2    1    2    0    0  0.00000000000E+00  0.00000000000E+00  0.91750323232E+03  0.25694534646E+04  0.24000581088E+04 0.  0.
        3    1    3    3  502    0  0.20439099009E+03 -0.96819127008E+03  0.11855638299E+04  0.15442576265E+04  0.10100000352E+00 0. -1.
       -3    1    3    3    0  502 -0.20439099009E+03  0.96819127008E+03 -0.26806059754E+03  0.10251958381E+04  0.10100000352E+00 0.  1.
</event>
<event>
 5   0  0.5064437E-06  0.2371865E+04  0.7818609E-02  0.8450113E-01
        1   -1    0    0  501    0  0.00000000000E+00  0.00000000000E+00  0.10175898153E+04  0.10175898153E+04  0.50400001928E-02 0.  1.
       -1   -1    0    0    0  501  0.00000000000E+00  0.00000000000E+00 -0.13821242982E+04  0.13821242982E+04  0.50400001928E-02 0. -1.
    10030    2    1    2    0    0  0.00000000000E+00  0.00000000000E+00 -0.36453448290E+03  0.23997141134E+04  0.23718647594E+04 0.  0.
        2    1    3    3  502    0 -0.10983249116E+04  0.14801644149E+03 -0.60937214673E+03  0.12647374793E+04  0.25500000920E-02 0.  1.
       -2    1    3    3    0  502  0.10983249116E+04 -0.14801644149E+03  0.24483766383E+03  0.11349766341E+04  0.25500000920E-02 0. -1.
</event>
<event>
 5   0  0.1168435E-05  0.2343013E+04  0.7818609E-02  0.8461152E-01
        2   -1    0    0  501    0  0.00000000000E+00  0.00000000000E+00  0.11485372744E+04  0.11485372744E+04  0.25500000920E-02 0. -1.
       -2   -1    0    0    0  501  0.00000000000E+00  0.00000000000E+00 -0.11949347181E+04  0.11949347181E+04  0.25500000920E-02 0.  1.
    10030    2    1    2    0    0  0.00000000000E+00  0.00000000000E+00 -0.46397443771E+02  0.23434719925E+04  0.23430126455E+04 0.  0.
        1    1    3    3  502    0 -0.10330900310E+04 -0.51823929085E+03  0.16809799495E+03  0.11679485908E+04  0.50400001928E-02 0.  1.
       -1    1    3    3    0  502  0.10330900310E+04  0.51823929085E+03 -0.21449543872E+03  0.11755234017E+04  0.50400001928E-02 0. -1.
</event>
<event>
 5   0  0.1174210E-05  0.2400809E+04  0.7818609E-02  0.8439201E-01
       -2   -1    0    0    0  501  0.00000000000E+00  0.00000000000E+00  0.73201574063E+03  0.73201574063E+03  0.25500000920E-02 0.  1.
        2   -1    0    0  501    0  0.00000000000E+00  0.00000000000E+00 -0.19684977891E+04  0.19684977891E+04  0.25500000920E-02 0. -1.
    10030    2    1    2    0    0  0.00000000000E+00  0.00000000000E+00 -0.12364820485E+04  0.27005135297E+04  0.24008093361E+04 0.  0.
        3    1    3    3  502    0 -0.15601448210E+03  0.62470370996E+03  0.52133145968E+03  0.82848158997E+03  0.10100000352E+00 0.  1.
       -3    1    3    3    0  502  0.15601448210E+03 -0.62470370996E+03 -0.17578135082E+04  0.18720319398E+04  0.10100000352E+00 0. -1.
</event>
<event>
 5   0  0.5104174E-06  0.2402886E+04  0.7818609E-02  0.8438424E-01
        1   -1    0    0  501    0  0.00000000000E+00  0.00000000000E+00  0.15186490262E+04  0.15186490262E+04  0.50400001928E-02 0. -1.
       -1   -1    0    0    0  501  0.00000000000E+00  0.00000000000E+00 -0.95049327305E+03  0.95049327307E+03  0.50400001928E-02 0.  1.
    10030    2    1    2    0    0  0.00000000000E+00  0.00000000000E+00  0.56815575315E+03  0.24691422993E+04  0.24028863340E+04 0.  0.
        3    1    3    3  502    0  0.11621717119E+02  0.11833131238E+04  0.49740931080E+03  0.12836592406E+04  0.10100000352E+00 0.  1.
       -3    1    3    3    0  502 -0.11621717119E+02 -0.11833131238E+04  0.70746442354E+02  0.11854830587E+04  0.10100000352E+00 0. -1.
</event>
<event>
 5   0  0.1154897E-05  0.2400551E+04  0.7818609E-02  0.8439297E-01
       -2   -1    0    0    0  501  0.00000000000E+00  0.00000000000E+00  0.80135846253E+03  0.80135846254E+03  0.25500000920E-02 0.  1.
        2   -1    0    0  501    0  0.00000000000E+00  0.00000000000E+00 -0.17977740319E+04  0.17977740319E+04  0.25500000920E-02 0. -1.
    10030    2    1    2    0    0  0.00000000000E+00  0.00000000000E+00 -0.99641556937E+03  0.25991324944E+04  0.24005511319E+04 0.  0.
        4    1    3    3  502    0 -0.96183990707E+03  0.57662958871E+03 -0.96140854422E+03  0.14771410533E+04  0.12699999809E+01 0. -1.
       -4    1    3    3    0  502  0.96183990707E+03 -0.57662958871E+03 -0.35007025154E+02  0.11219914412E+04  0.12699999809E+01 0.  1.
</event>
<event>
 5   0  0.5104174E-06  0.2400047E+04  0.7818609E-02  0.8439486E-01
        1   -1    0    0  501    0  0.00000000000E+00  0.00000000000E+00  0.13710741733E+04  0.13710741733E+04  0.50400001928E-02 0. -1.
       -1   -1    0    0    0  501  0.00000000000E+00  0.00000000000E+00 -0.10503123345E+04  0.10503123345E+04  0.50400001928E-02 0.  1.
    10030    2    1    2    0    0  0.00000000000E+00  0.00000000000E+00  0.32076183881E+03  0.24213865078E+04  0.24000467627E+04 0.  0.
        3    1    3    3  502    0 -0.87577931268E+03  0.23949960985E+03 -0.63126564692E+03  0.11058235821E+04  0.10100000352E+00 0.  1.
       -3    1    3    3    0  502  0.87577931268E+03 -0.23949960985E+03  0.95202748573E+03  0.13155629257E+04  0.10100000352E+00 0. -1.
</event>
<event>
 5   0  0.5104174E-06  0.2397094E+04  0.7818609E-02  0.8440592E-01
        1   -1    0    0  501    0  0.00000000000E+00  0.00000000000E+00  0.21829913513E+04  0.21829913513E+04  0.50400001928E-02 0. -1.
       -1   -1    0    0    0  501  0.00000000000E+00  0.00000000000E+00 -0.65804863851E+03  0.65804863853E+03  0.50400001928E-02 0.  1.
    10030    2    1    2    0    0  0.00000000000E+00  0.00000000000E+00  0.15249427128E+04  0.28410399899E+04  0.23970936458E+04 0.  0.
        3    1    3    3  502    0  0.16590962699E+03  0.49257819965E+03 -0.51752212846E+03  0.73347695993E+03  0.10100000352E+00 0.  1.
       -3    1    3    3    0  502 -0.16590962699E+03 -0.49257819965E+03  0.20424648413E+04  0.21075630299E+04  0.10100000352E+00 0. -1.
</event>
<event>
 5   0  0.1174210E-05  0.2408939E+04  0.7818609E-02  0.8436165E-01
       -2   -1    0    0    0  501  0.00000000000E+00  0.00000000000E+00  0.59113664214E+03  0.59113664214E+03  0.25500000920E-02 0.  1.
        2   -1    0    0  501    0  0.00000000000E+00  0.00000000000E+00 -0.24541639942E+04  0.24541639942E+04  0.25500000920E-02 0. -1.
    10030    2    1    2    0    0  0.00000000000E+00  0.00000000000E+00 -0.18630273520E+04  0.30453006363E+04  0.24089385735E+04 0.  0.
        3    1    3    3  502    0 -0.39827894641E+03  0.64417121724E+03  0.25246734864E+03  0.79832477640E+03  0.10100000352E+00 0.  1.
       -3    1    3    3    0  502  0.39827894641E+03 -0.64417121724E+03 -0.21154947007E+04  0.22469758599E+04  0.10100000352E+00 0. -1.
</event>
<event>
 5   0  0.5034479E-06  0.2403949E+04  0.7818609E-02  0.8438027E-01
       -1   -1    0    0    0  501  0.00000000000E+00  0.00000000000E+00  0.65867977920E+03  0.65867977922E+03  0.50400001928E-02 0. -1.
        1   -1    0    0  501    0  0.00000000000E+00  0.00000000000E+00 -0.21933911282E+04  0.21933911283E+04  0.50400001928E-02 0.  1.
    10030    2    1    2    0    0  0.00000000000E+00  0.00000000000E+00 -0.15347113490E+04  0.28520709075E+04  0.24039487383E+04 0.  0.
        4    1    3    3  502    0 -0.10094440477E+03 -0.95299374225E+03 -0.16280997640E+04  0.18892054680E+04  0.12699999809E+01 0. -1.
       -4    1    3    3    0  502  0.10094440477E+03  0.95299374225E+03  0.93388414999E+02  0.96286543950E+03  0.12699999809E+01 0.  1.
</event>
<event>
 5   0  0.5104174E-06  0.2374641E+04  0.7818609E-02  0.8449059E-01
        1   -1    0    0  501    0  0.00000000000E+00  0.00000000000E+00  0.24493231746E+04  0.24493231746E+04  0.50400001928E-02 0. -1.
       -1   -1    0    0    0  501  0.00000000000E+00  0.00000000000E+00 -0.57555875148E+03  0.57555875151E+03  0.50400001928E-02 0.  1.
    10030    2    1    2    0    0  0.00000000000E+00  0.00000000000E+00  0.18737644231E+04  0.30248819261E+04  0.23746405104E+04 0.  0.
        3    1    3    3  502    0 -0.10345256514E+04 -0.36502702540E+03  0.35838882259E+03  0.11540929820E+04  0.10100000352E+00 0.  1.
       -3    1    3    3    0  502  0.10345256514E+04  0.36502702540E+03  0.15153756005E+04  0.18707889441E+04  0.10100000352E+00 0. -1.
</event>
<event>
 5   0  0.1169371E-05  0.2400810E+04  0.7818609E-02  0.8439200E-01
        2   -1    0    0  501    0  0.00000000000E+00  0.00000000000E+00  0.17952265858E+04  0.17952265858E+04  0.25500000920E-02 0. -1.
       -2   -1    0    0    0  501  0.00000000000E+00  0.00000000000E+00 -0.80266861117E+03  0.80266861117E+03  0.25500000920E-02 0.  1.
    10030    2    1    2    0    0  0.00000000000E+00  0.00000000000E+00  0.99255797463E+03  0.25978951970E+04  0.24008098887E+04 0.  0.
        2    1    3    3  502    0 -0.40975768078E+03  0.11278404491E+04  0.46127213013E+03  0.12855727960E+04  0.25500000920E-02 0.  1.
       -2    1    3    3    0  502  0.40975768078E+03 -0.11278404491E+04  0.53128584450E+03  0.13123224010E+04  0.25500000920E-02 0. -1.
</event>
<event>
 5   0  0.5034479E-06  0.2405288E+04  0.7818609E-02  0.8437527E-01
        1   -1    0    0  501    0  0.00000000000E+00  0.00000000000E+00  0.94036891451E+03  0.94036891452E+03  0.50400001928E-02 0.  1.
       -1   -1    0    0    0  501  0.00000000000E+00  0.00000000000E+00 -0.15380689623E+04  0.15380689623E+04  0.50400001928E-02 0. -1.
    10030    2    1    2    0    0  0.00000000000E+00  0.00000000000E+00 -0.59770004777E+03  0.24784378768E+04  0.24052877088E+04 0.  0.
        4    1    3    3  502    0  0.72217108004E+03  0.66888567135E+03 -0.10108130685E+04  0.14109159375E+04  0.12699999809E+01 0. -1.
       -4    1    3    3    0  502 -0.72217108004E+03 -0.66888567135E+03  0.41311302075E+03  0.10675219394E+04  0.12699999809E+01 0.  1.
</event>
<event>
 5   0  0.1168435E-05  0.2397302E+04  0.7818609E-02  0.8440514E-01
        2   -1    0    0  501    0  0.00000000000E+00  0.00000000000E+00  0.17245086408E+04  0.17245086408E+04  0.25500000920E-02 0. -1.
       -2   -1    0    0    0  501  0.00000000000E+00  0.00000000000E+00 -0.83314403188E+03  0.83314403189E+03  0.25500000920E-02 0.  1.
    10030    2    1    2    0    0  0.00000000000E+00  0.00000000000E+00  0.89136460893E+03  0.25576526727E+04  0.23973018851E+04 0.  0.
        1    1    3    3  502    0  0.31302308426E+03 -0.42189814006E+03  0.15951434172E+04  0.16794237146E+04  0.50400001928E-02 0. -1.
       -1    1    3    3    0  502 -0.31302308426E+03  0.42189814006E+03 -0.70377880824E+03  0.87822895808E+03  0.50400001928E-02 0.  1.
</event>
<event>
 5   0  0.5064437E-06  0.2399599E+04  0.7818609E-02  0.8439654E-01
       -1   -1    0    0    0  501  0.00000000000E+00  0.00000000000E+00  0.98812296523E+03  0.98812296525E+03  0.50400001928E-02 0. -1.
        1   -1    0    0  501    0  0.00000000000E+00  0.00000000000E+00 -0.14568212007E+04  0.14568212007E+04  0.50400001928E-02 0.  1.
    10030    2    1    2    0    0  0.00000000000E+00  0.00000000000E+00 -0.46869823543E+03  0.24449441659E+04  0.23995987037E+04 0.  0.
        2    1    3    3  502    0 -0.34621271917E+03  0.63882134099E+03  0.73845087835E+03  0.10359853533E+04  0.25500000920E-02 0. -1.
       -2    1    3    3    0  502  0.34621271917E+03 -0.63882134099E+03 -0.12071491138E+04  0.14089588126E+04  0.25500000920E-02 0.  1.
</event>
<event>
 5   0  0.5034479E-06  0.2399487E+04  0.7818609E-02  0.8439696E-01
       -1   -1    0    0    0  501  0.00000000000E+00  0.00000000000E+00  0.13938640722E+04  0.13938640722E+04  0.50400001928E-02 0.  1.
        1   -1    0    0  501    0  0.00000000000E+00  0.00000000000E+00 -0.10326575148E+04  0.10326575148E+04  0.50400001928E-02 0. -1.
    10030    2    1    2    0    0  0.00000000000E+00  0.00000000000E+00  0.36120655743E+03  0.24265215870E+04  0.23994867857E+04 0.  0.
        4    1    3    3  502    0 -0.30525377674E+03 -0.11572659553E+04  0.26483784414E+03  0.12257997618E+04  0.12699999809E+01 0.  1.
       -4    1    3    3    0  502  0.30525377674E+03  0.11572659553E+04  0.96368713288E+02  0.12007218251E+04  0.12699999809E+01 0. -1.
</event>
<event>
 5   0  0.1174210E-05  0.2407870E+04  0.7818609E-02  0.8436563E-01
       -2   -1    0    0    0  501  0.00000000000E+00  0.00000000000E+00  0.11483521406E+04  0.11483521406E+04  0.25500000920E-02 0.  1.
        2   -1    0    0  501    0  0.00000000000E+00  0.00000000000E+00 -0.12622081581E+04  0.12622081581E+04  0.25500000920E-02 0. -1.
    10030    2    1    2    0    0  0.00000000000E+00  0.00000000000E+00 -0.11385601749E+03  0.24105602987E+04  0.24078699634E+04 0.  0.
        3    1    3    3  502    0  0.57145621493E+03 -0.91760282870E+02 -0.11137955963E+04  0.12551983093E+04  0.10100000352E+00 0. -1.
       -3    1    3    3    0  502 -0.57145621493E+03  0.91760282870E+02  0.99993957879E+03  0.11553619894E+04  0.10100000352E+00 0.  1.
</event>
<event>
 5   0  0.5104174E-06  0.2396323E+04  0.7818609E-02  0.8440882E-01
       -1   -1    0    0    0  501  0.00000000000E+00  0.00000000000E+00  0.22042339929E+04  0.22042339929E+04  0.50400001928E-02 0. -1.
        1   -1    0    0  501    0  0.00000000000E+00  0.00000000000E+00 -0.65128779917E+03  0.65128779919E+03  0.50400001928E-02 0.  1.
    10030    2    1    2    0    0  0.00000000000E+00  0.00000000000E+00  0.15529461937E+04  0.28555217921E+04  0.23963227714E+04 0.  0.
        3    1    3    3  502    0  0.37691347880E+03 -0.11333356950E+04  0.89000407728E+03  0.14895035535E+04  0.10100000352E+00 0.  1.
       -3    1    3    3    0  502 -0.37691347880E+03  0.11333356950E+04  0.66294211647E+03  0.13660182386E+04  0.10100000352E+00 0. -1.
</event>
<event>
 5   0  0.1169371E-05  0.2401180E+04  0.7818609E-02  0.8439062E-01
        2   -1    0    0  501    0  0.00000000000E+00  0.00000000000E+00  0.10725225803E+04  0.10725225803E+04  0.25500000920E-02 0. -1.
       -2   -1    0    0    0  501  0.00000000000E+00  0.00000000000E+00 -0.13439494187E+04  0.13439494187E+04  0.25500000920E-02 0.  1.
    10030    2    1    2    0    0  0.00000000000E+00  0.00000000000E+00 -0.27142683838E+03  0.24164719990E+04  0.24011797920E+04 0.  0.
        2    1    3    3  502    0  0.32017994351E+03 -0.35829491968E+03  0.97153249386E+03  0.10838661506E+04  0.25500000920E-02 0. -1.
       -2    1    3    3    0  502 -0.32017994351E+03  0.35829491968E+03 -0.12429593322E+04  0.13326058484E+04  0.25500000920E-02 0.  1.
</event>
<event>
 5   0  0.1174210E-05  0.2392986E+04  0.7818609E-02  0.8442134E-01
        2   -1    0    0  501    0  0.00000000000E+00  0.00000000000E+00  0.18856106904E+04  0.18856106904E+04  0.25500000920E-02 0. -1.
       -2   -1    0    0    0  501  0.00000000000E+00  0.00000000000E+00 -0.75922098298E+03  0.75922098299E+03  0.25500000920E-02 0.  1.
    10030    2    1    2    0    0  0.00000000000E+00  0.00000000000E+00  0.11263897074E+04  0.26448316734E+04  0.23929857517E+04 0.  0.
        3    1    3    3  502    0  0.58887052515E+03 -0.58513438212E+03 -0.38914050071E+03  0.91683208933E+03  0.10100000352E+00 0.  1.
       -3    1    3    3    0  502 -0.58887052515E+03  0.58513438212E+03  0.15155302081E+04  0.17279995841E+04  0.10100000352E+00 0. -1.
</event>
<event>
 5   0  0.1169371E-05  0.2392541E+04  0.7818609E-02  0.8442302E-01
       -2   -1    0    0    0  501  0.00000000000E+00  0.00000000000E+00  0.83211435603E+03  0.83211435604E+03  0.25500000920E-02 0. -1.
        2   -1    0    0  501    0  0.00000000000E+00  0.00000000000E+00 -0.17197908529E+04  0.17197908529E+04  0.25500000920E-02 0.  1.
    10030    2    1    2    0    0  0.00000000000E+00  0.00000000000E+00 -0.88767649691E+03  0.25519052090E+04  0.23925406229E+04 0.  0.
        2    1    3    3  502    0  0.65957878885E+03  0.37232650640E+03  0.54379293230E+03  0.93240654185E+03  0.25500000920E-02 0. -1.
       -2    1    3    3    0  502 -0.65957878885E+03 -0.37232650640E+03 -0.14314694292E+04  0.16194986671E+04  0.25500000920E-02 0.  1.
</event>
<event>
 5   0  0.1169371E-05  0.2425624E+04  0.7818609E-02  0.8429972E-01
       -2   -1    0    0    0  501  0.00000000000E+00  0.00000000000E+00  0.61962566505E+03  0.61962566505E+03  0.25500000920E-02 0.  1.
        2   -1    0    0  501    0  0.00000000000E+00  0.00000000000E+00 -0.23738740753E+04  0.23738740753E+04  0.25500000920E-02 0. -1.
    10030    2    1    2    0    0  0.00000000000E+00  0.00000000000E+00 -0.17542484103E+04  0.29934997404E+04  0.24256242930E+04 0.  0.
        2    1    3    3  502    0  0.11718825081E+04 -0.27590455844E+03 -0.69624583979E+03  0.13907516700E+04  0.25500000920E-02 0.  1.
       -2    1    3    3    0  502 -0.11718825081E+04  0.27590455844E+03 -0.10580025705E+04  0.16027480704E+04  0.25500000920E-02 0. -1.
</event>
<event>
 5   0  0.5042742E-06  0.2408909E+04  0.7818609E-02  0.8436176E-01
        1   -1    0    0  501    0  0.00000000000E+00  0.00000000000E+00  0.17680228554E+04  0.17680228554E+04  0.50400001928E-02 0. -1.
       -1   -1    0    0    0  501  0.00000000000E+00  0.00000000000E+00 -0.82052709531E+03  0.82052709532E+03  0.50400001928E-02 0.  1.
    10030    2    1    2    0    0  0.00000000000E+00  0.00000000000E+00  0.94749576006E+03  0.25885499507E+04  0.24089090128E+04 0.  0.
        5    1    3    3  502    0 -0.51354501225E+03  0.92698455842E+03  0.10888506449E+04  0.15194231366E+04  0.46999998093E+01 0. -1.
       -5    1    3    3    0  502  0.51354501225E+03 -0.92698455842E+03 -0.14135488483E+03  0.10691268141E+04  0.46999998093E+01 0.  1.
</event>
<event>
 5   0  0.5034479E-06  0.2410263E+04  0.7818609E-02  0.8435671E-01
       -1   -1    0    0    0  501  0.00000000000E+00  0.00000000000E+00  0.72595695591E+03  0.72595695593E+03  0.50400001928E-02 0. -1.
        1   -1    0    0  501    0  0.00000000000E+00  0.00000000000E+00 -0.20005901067E+04  0.20005901067E+04  0.50400001928E-02 0.  1.
    10030    2    1    2    0    0  0.00000000000E+00  0.00000000000E+00 -0.12746331508E+04  0.27265470626E+04  0.24102633084E+04 0.  0.
        4    1    3    3  502    0 -0.42462651976E+01  0.36413444664E+03  0.66222701112E+03  0.75575005998E+03  0.12699999809E+01 0. -1.
       -4    1    3    3    0  502  0.42462651976E+01 -0.36413444664E+03 -0.19368601619E+04  0.19707970027E+04  0.12699999809E+01 0.  1.
</event>
<event>
 5   0  0.1169371E-05  0.2420751E+04  0.7818609E-02  0.8431775E-01
       -2   -1    0    0    0  501  0.00000000000E+00  0.00000000000E+00  0.87371815244E+03  0.87371815244E+03  0.25500000920E-02 0.  1.
        2   -1    0    0  501    0  0.00000000000E+00  0.00000000000E+00 -0.16767516463E+04  0.16767516463E+04  0.25500000920E-02 0. -1.
    10030    2    1    2    0    0  0.00000000000E+00  0.00000000000E+00 -0.80303349386E+03  0.25504697987E+04  0.24207505865E+04 0.  0.
        2    1    3    3  502    0 -0.53083658157E+03  0.13583992240E+03  0.73556039032E+03  0.91721810311E+03  0.25500000920E-02 0.  1.
       -2    1    3    3    0  502  0.53083658157E+03 -0.13583992240E+03 -0.15385938842E+04  0.16332516956E+04  0.25500000920E-02 0. -1.
</event>
<event>
 5   0  0.1169371E-05  0.2403492E+04  0.7818609E-02  0.8438198E-01
       -2   -1    0    0    0  501  0.00000000000E+00  0.00000000000E+00  0.73423474667E+03  0.73423474667E+03  0.25500000920E-02 0.  1.
        2   -1    0    0  501    0  0.00000000000E+00  0.00000000000E+00 -0.19669361902E+04  0.19669361902E+04  0.25500000920E-02 0. -1.
    10030    2    1    2    0    0  0.00000000000E+00  0.00000000000E+00 -0.12327014435E+04  0.27011709369E+04  0.24034915397E+04 0.  0.
        2    1    3    3  502    0 -0.51448750864E+03 -0.97660833427E+03 -0.82394429842E+02  0.11069101487E+04  0.25500000920E-02 0.  1.
       -2    1    3    3    0  502  0.51448750864E+03  0.97660833427E+03 -0.11503070137E+04  0.15942607882E+04  0.25500000920E-02 0. -1.
</event>
<event>
 5   0  0.1174210E-05  0.2411194E+04  0.7818609E-02  0.8435325E-01
        2   -1    0    0  501    0  0.00000000000E+00  0.00000000000E+00  0.14724162524E+04  0.14724162524E+04  0.25500000920E-02 0. -1.
       -2   -1    0    0    0  501  0.00000000000E+00  0.00000000000E+00 -0.98712838388E+03  0.98712838388E+03  0.25500000920E-02 0.  1.
    10030    2    1    2    0    0  0.00000000000E+00  0.00000000000E+00  0.48528786852E+03  0.24595446363E+04  0.24111937920E+04 0.  0.
        3    1    3    3  502    0  0.76334458550E+03  0.60612606104E+03 -0.48107613543E+03  0.10869765482E+04  0.10100000352E+00 0.  1.
       -3    1    3    3    0  502 -0.76334458550E+03 -0.60612606104E+03  0.96636400395E+03  0.13725680881E+04  0.10100000352E+00 0. -1.
</event>
<event>
 5   0  0.5064437E-06  0.2400133E+04  0.7818609E-02  0.8439454E-01
        1   -1    0    0  501    0  0.00000000000E+00  0.00000000000E+00  0.18386887715E+04  0.18386887715E+04  0.50400001928E-02 0.  1.
       -1   -1    0    0    0  501  0.00000000000E+00  0.00000000000E+00 -0.78325363832E+03  0.78325363834E+03  0.50400001928E-02 0. -1.
    10030    2    1    2    0    0  0.00000000000E+00  0.00000000000E+00  0.10554351331E+04  0.26219424098E+04  0.24001330547E+04 0.  0.
        2    1    3    3  502    0  0.56216563725E+03 -0.10421549118E+04  0.31464724558E+03  0.12252020050E+04  0.25500000920E-02 0. -1.
       -2    1    3    3    0  502 -0.56216563725E+03  0.10421549118E+04  0.74078788755E+03  0.13967404048E+04  0.25500000920E-02 0.  1.
</event>
<event>
 5   0  0.5196696E-06  0.2383705E+04  0.7818609E-02  0.8445629E-01
        1   -1    0    0  501    0  0.00000000000E+00  0.00000000000E+00  0.67258649232E+03  0.67258649234E+03  0.50400001928E-02 0. -1.
       -1   -1    0    0    0  501  0.00000000000E+00  0.00000000000E+00 -0.21120142976E+04  0.21120142976E+04  0.50400001928E-02 0.  1.
    10030    2    1    2    0    0  0.00000000000E+00  0.00000000000E+00 -0.14394278053E+04  0.27846007900E+04  0.23837049215E+04 0.  0.
        1    1    3    3  502    0  0.56054044467E+03 -0.73344282402E+03 -0.16004085993E+04  0.18475528818E+04  0.50400001928E-02 0.  1.
       -1    1    3    3    0  502 -0.56054044467E+03  0.73344282402E+03  0.16098079399E+03  0.93704790820E+03  0.50400001928E-02 0. -1.
</event>
<event>
 5   0  0.1169371E-05  0.2408841E+04  0.7818609E-02  0.8436201E-01
       -2   -1    0    0    0  501  0.00000000000E+00  0.00000000000E+00  0.12587223067E+04  0.12587223067E+04  0.25500000920E-02 0.  1.
        2   -1    0    0  501    0  0.00000000000E+00  0.00000000000E+00 -0.11524616533E+04  0.11524616533E+04  0.25500000920E-02 0. -1.
    10030    2    1    2    0    0  0.00000000000E+00  0.00000000000E+00  0.10626065343E+03  0.24111839600E+04  0.24088413734E+04 0.  0.
        2    1    3    3  502    0  0.11431877105E+04 -0.24260377870E+03 -0.23851955750E+03  0.11927389966E+04  0.25500000920E-02 0. -1.
       -2    1    3    3    0  502 -0.11431877105E+04  0.24260377870E+03  0.34478021094E+03  0.12184449633E+04  0.25500000920E-02 0.  1.
</event>
<event>
 5   0  0.1198313E-05  0.2422953E+04  0.7818609E-02  0.8430960E-01
        2   -1    0    0  501    0  0.00000000000E+00  0.00000000000E+00  0.13990638769E+04  0.13990638769E+04  0.25500000920E-02 0.  1.
       -2   -1    0    0    0  501  0.00000000000E+00  0.00000000000E+00 -0.10490413256E+04  0.10490413256E+04  0.25500000920E-02 0. -1.
    10030    2    1    2    0    0  0.00000000000E+00  0.00000000000E+00  0.35002255134E+03  0.24481052025E+04  0.24229534242E+04 0.  0.
        5    1    3    3  502    0 -0.47628176788E+03 -0.30754446046E+03  0.12567443381E+04  0.13787154670E+04  0.46999998093E+01 0.  1.
       -5    1    3    3    0  502  0.47628176788E+03  0.30754446046E+03 -0.90672178680E+03  0.10693897354E+04  0.46999998093E+01 0. -1.
</event>
<event>
 5   0  0.4067750E-06  0.2422441E+04  0.7818609E-02  0.8431150E-01
        4   -1    0    0  501    0  0.00000000000E+00  0.00000000000E+00  0.15685018206E+04  0.15685023347E+04  0.12699999809E+01 0.  1.
       -4   -1    0    0    0  501  0.00000000000E+00  0.00000000000E+00 -0.93532111503E+03  0.93532197724E+03  0.12699999809E+01 0. -1.
    10030    2    1    2    0    0  0.00000000000E+00  0.00000000000E+00  0.63318070554E+03  0.25038243120E+04  0.24224405832E+04 0.  0.
        5    1    3    3  502    0 -0.11917526711E+04 -0.16763473592E+03  0.45776860346E+03  0.12876140796E+04  0.46999998093E+01 0.  1.
       -5    1    3    3    0  502  0.11917526711E+04  0.16763473592E+03  0.17541210208E+03  0.12162102323E+04  0.46999998093E+01 0. -1.
</event>
<event>
 5   0  0.5042742E-06  0.2408509E+04  0.7818609E-02  0.8436325E-01
       -1   -1    0    0    0  501  0.00000000000E+00  0.00000000000E+00  0.12407135132E+04  0.12407135132E+04  0.50400001928E-02 0.  1.
        1   -1    0    0  501    0  0.00000000000E+00  0.00000000000E+00 -0.11688667995E+04  0.11688667995E+04  0.50400001928E-02 0. -1.
    10030    2    1    2    0    0  0.00000000000E+00  0.00000000000E+00  0.71846713774E+02  0.24095803127E+04  0.24085089440E+04 0.  0.
        5    1    3    3  502    0  0.52301403252E+03 -0.40448429031E+03  0.10428776719E+04  0.12348146208E+04  0.46999998093E+01 0.  1.
       -5    1    3    3    0  502 -0.52301403252E+03  0.40448429031E+03 -0.97103095808E+03  0.11747656919E+04  0.46999998093E+01 0. -1.
</event>
<event>
 5   0  0.1154897E-05  0.2407016E+04  0.7818609E-02  0.8436882E-01
        2   -1    0    0  501    0  0.00000000000E+00  0.00000000000E+00  0.14374121582E+04  0.14374121582E+04  0.25500000920E-02 0. -1.
       -2   -1    0    0    0  501  0.00000000000E+00  0.00000000000E+00 -0.10076657182E+04  0.10076657182E+04  0.25500000920E-02 0.  1.
    10030    2    1    2    0    0  0.00000000000E+00  0.00000000000E+00  0.42974644003E+03  0.24450778763E+04  0.24070155418E+04 0.  0.
        4    1    3    3  502    0 -0.71484767696E+03 -0.36653186545E+03 -0.69544297485E+03  0.10625419304E+04  0.12699999809E+01 0.  1.
       -4    1    3    3    0  502  0.71484767696E+03  0.36653186545E+03  0.11251894149E+04  0.13825359460E+04  0.12699999809E+01 0. -1.
</event>
<event>
 5   0  0.5104174E-06  0.2433239E+04  0.7818609E-02  0.8427163E-01
       -1   -1    0    0    0  501  0.00000000000E+00  0.00000000000E+00  0.12274864290E+04  0.12274864291E+04  0.50400001928E-02 0.  1.
        1   -1    0    0  501    0  0.00000000000E+00  0.00000000000E+00 -0.12058485549E+04  0.12058485549E+04  0.50400001928E-02 0. -1.
    10030    2    1    2    0    0  0.00000000000E+00  0.00000000000E+00  0.21637874152E+02  0.24333349840E+04  0.24332387771E+04 0.  0.
        3    1    3    3  502    0 -0.34121208598E+03 -0.38686405781E+03  0.11127124197E+04  0.12264658275E+04  0.10100000352E+00 0.  1.
       -3    1    3    3    0  502  0.34121208598E+03  0.38686405781E+03 -0.10910745455E+04  0.12068691565E+04  0.10100000352E+00 0. -1.
</event>
<event>
 5   0  0.5064437E-06  0.2400262E+04  0.7818609E-02  0.8439406E-01
       -1   -1    0    0    0  501  0.00000000000E+00  0.00000000000E+00  0.87195346853E+03  0.87195346854E+03  0.50400001928E-02 0. -1.
        1   -1    0    0  501    0  0.00000000000E+00  0.00000000000E+00 -0.16518246765E+04  0.16518246765E+04  0.50400001928E-02 0.  1.
    10030    2    1    2    0    0  0.00000000000E+00  0.00000000000E+00 -0.77987120798E+03  0.25237781451E+04  0.24002618658E+04 0.  0.
        2    1    3    3  502    0 -0.92904344865E+03  0.30582679849E+01 -0.11887564336E+04  0.15087322297E+04  0.25500000920E-02 0.  1.
       -2    1    3    3    0  502  0.92904344865E+03 -0.30582679849E+01  0.40888522565E+03  0.10150459153E+04  0.25500000920E-02 0. -1.
</event>
<event>
 5   0  0.1169371E-05  0.2394212E+04  0.7818609E-02  0.8441674E-01
        2   -1    0    0  501    0  0.00000000000E+00  0.00000000000E+00  0.32710230659E+04  0.32710230659E+04  0.25500000920E-02 0. -1.
       -2   -1    0    0    0  501  0.00000000000E+00  0.00000000000E+00 -0.43810858598E+03  0.43810858599E+03  0.25500000920E-02 0.  1.
    10030    2    1    2    0    0  0.00000000000E+00  0.00000000000E+00  0.28329144799E+04  0.37091316519E+04  0.23942124301E+04 0.  0.
        2    1    3    3  502    0  0.52343990445E+02  0.68266578983E+03 -0.10483826674E+03  0.69264964889E+03  0.25500000920E-02 0.  1.
       -2    1    3    3    0  502 -0.52343990445E+02 -0.68266578983E+03  0.29377527466E+04  0.30164820030E+04  0.25500000920E-02 0. -1.
</event>
<event>
 5   0  0.1174210E-05  0.2393932E+04  0.7818609E-02  0.8441779E-01
       -2   -1    0    0    0  501  0.00000000000E+00  0.00000000000E+00  0.11388508384E+04  0.11388508384E+04  0.25500000920E-02 0.  1.
        2   -1    0    0  501    0  0.00000000000E+00  0.00000000000E+00 -0.12580470297E+04  0.12580470297E+04  0.25500000920E-02 0. -1.
    10030    2    1    2    0    0  0.00000000000E+00  0.00000000000E+00 -0.11919619130E+03  0.23968978681E+04  0.23939322585E+04 0.  0.
        3    1    3    3  502    0  0.24217102940E+03 -0.35918005894E+02  0.11135149998E+04  0.11401107734E+04  0.10100000352E+00 0.  1.
       -3    1    3    3    0  502 -0.24217102940E+03  0.35918005894E+02 -0.12327111911E+04  0.12567870947E+04  0.10100000352E+00 0. -1.
</event>
<event>
 5   0  0.5034479E-06  0.2402459E+04  0.7818609E-02  0.8438584E-01
       -1   -1    0    0    0  501  0.00000000000E+00  0.00000000000E+00  0.49206822293E+03  0.49206822295E+03  0.50400001928E-02 0. -1.
        1   -1    0    0  501    0  0.00000000000E+00  0.00000000000E+00 -0.29324220765E+04  0.29324220765E+04  0.50400001928E-02 0.  1.
    10030    2    1    2    0    0  0.00000000000E+00  0.00000000000E+00 -0.24403538536E+04  0.34244902994E+04  0.24024585075E+04 0.  0.
        4    1    3    3  502    0 -0.26109869455E+03 -0.11523516151E+04 -0.15287490126E+04  0.19321392107E+04  0.12699999809E+01 0.  1.
       -4    1    3    3    0  502  0.26109869455E+03  0.11523516151E+04 -0.91160484098E+03  0.14923510888E+04  0.12699999809E+01 0. -1.
</event>
<event>
 5   0  0.1174210E-05  0.2400075E+04  0.7818609E-02  0.8439475E-01
       -2   -1    0    0    0  501  0.00000000000E+00  0.00000000000E+00  0.13940000910E+04  0.13940000910E+04  0.25500000920E-02 0.  1.
        2   -1    0    0  501    0  0.00000000000E+00  0.00000000000E+00 -0.10330632970E+04  0.10330632970E+04  0.25500000920E-02 0. -1.
    10030    2    1    2    0    0  0.00000000000E+00  0.00000000000E+00  0.36093679401E+03  0.24270633880E+04  0.24000752738E+04 0.  0.
        3    1    3    3  502    0  0.67180827882E+03  0.55776016530E+03 -0.65199395681E+03  0.10897334057E+04  0.10100000352E+00 0. -1.
       -3    1    3    3    0  502 -0.67180827882E+03 -0.55776016530E+03  0.10129307508E+04  0.13373299823E+04  0.10100000352E+00 0.  1.
</event>
<event>
 5   0  0.5104174E-06  0.2400120E+04  0.7818609E-02  0.8439459E-01
        1   -1    0    0  501    0  0.00000000000E+00  0.00000000000E+00  0.12253585197E+04  0.12253585197E+04  0.50400001928E-02 0.  1.
       -1   -1    0    0    0  501  0.00000000000E+00  0.00000000000E+00 -0.11752836285E+04  0.11752836285E+04  0.50400001928E-02 0. -1.
    10030    2    1    2    0    0  0.00000000000E+00  0.00000000000E+00  0.50074891147E+02  0.24006421482E+04  0.24001198364E+04 0.  0.
        3    1    3    3  502    0 -0.17954197919E+02  0.19646762446E+03  0.12090272462E+04  0.12250178664E+04  0.10100000352E+00 0.  1.
       -3    1    3    3    0  502  0.17954197919E+02 -0.19646762446E+03 -0.11589523550E+04  0.11756242819E+04  0.10100000352E+00 0. -1.
</event>
<event>
 5   0  0.1169371E-05  0.2395339E+04  0.7818609E-02  0.8441251E-01
        2   -1    0    0  501    0  0.00000000000E+00  0.00000000000E+00  0.18284011157E+04  0.18284011157E+04  0.25500000920E-02 0.  1.
       -2   -1    0    0    0  501  0.00000000000E+00  0.00000000000E+00 -0.78451696333E+03  0.78451696333E+03  0.25500000920E-02 0. -1.
    10030    2    1    2    0    0  0.00000000000E+00  0.00000000000E+00  0.10438841524E+04  0.26129180790E+04  0.23953385490E+04 0.  0.
        2    1    3    3  502    0  0.85431953875E+03 -0.83882511875E+03  0.48881522660E+03  0.12932245667E+04  0.25500000920E-02 0. -1.
       -2    1    3    3    0  502 -0.85431953875E+03  0.83882511875E+03  0.55506892576E+03  0.13196935123E+04  0.25500000920E-02 0.  1.
</event>
<event>
 5   0  0.1174210E-05  0.2418027E+04  0.7818609E-02  0.8432785E-01
        2   -1    0    0  501    0  0.00000000000E+00  0.00000000000E+00  0.16831472001E+04  0.16831472001E+04  0.25500000920E-02 0. -1.
       -2   -1    0    0    0  501  0.00000000000E+00  0.00000000000E+00 -0.86844079675E+03  0.86844079675E+03  0.25500000920E-02 0.  1.
    10030    2    1    2    0    0  0.00000000000E+00  0.00000000000E+00  0.81470640334E+03  0.25515879968E+04  0.24180270433E+04 0.  0.
        3    1    3    3  502    0  0.47166068428E+03  0.75726793108E+03 -0.45367963698E+03  0.10008714921E+04  0.10100000352E+00 0.  1.
       -3    1    3    3    0  502 -0.47166068428E+03 -0.75726793108E+03  0.12683860403E+04  0.15507165047E+04  0.10100000352E+00 0. -1.
</event>
<event>
 5   0  0.1168435E-05  0.2401252E+04  0.7818609E-02  0.8439035E-01
        2   -1    0    0  501    0  0.00000000000E+00  0.00000000000E+00  0.12146049033E+04  0.12146049033E+04  0.25500000920E-02 0. -1.
       -2   -1    0    0    0  501  0.00000000000E+00  0.00000000000E+00 -0.11868084699E+04  0.11868084699E+04  0.25500000920E-02 0.  1.
    10030    2    1    2    0    0  0.00000000000E+00  0.00000000000E+00  0.27796433384E+02  0.24014133732E+04  0.24012524956E+04 0.  0.
        1    1    3    3  502    0 -0.31431246497E+03 -0.43341158249E+03 -0.10608204500E+04  0.11882667851E+04  0.50400001928E-02 0.  1.
       -1    1    3    3    0  502  0.31431246497E+03  0.43341158249E+03  0.10886168834E+04  0.12131465881E+04  0.50400001928E-02 0. -1.
</event>
<event>
 5   0  0.5196696E-06  0.2385927E+04  0.7818609E-02  0.8444791E-01
       -1   -1    0    0    0  501  0.00000000000E+00  0.00000000000E+00  0.93131549284E+03  0.93131549285E+03  0.50400001928E-02 0. -1.
        1   -1    0    0  501    0  0.00000000000E+00  0.00000000000E+00 -0.15281207237E+04  0.15281207237E+04  0.50400001928E-02 0.  1.
    10030    2    1    2    0    0  0.00000000000E+00  0.00000000000E+00 -0.59680523088E+03  0.24594362166E+04  0.23859274968E+04 0.  0.
        1    1    3    3  502    0 -0.94753872678E+03 -0.39194432324E+02  0.44763321338E+03  0.10486855277E+04  0.50400001928E-02 0. -1.
       -1    1    3    3    0  502  0.94753872678E+03  0.39194432324E+02 -0.10444384443E+04  0.14107506889E+04  0.50400001928E-02 0.  1.
</event>
<event>
 5   0  0.1174210E-05  0.2403458E+04  0.7818609E-02  0.8438210E-01
        2   -1    0    0  501    0  0.00000000000E+00  0.00000000000E+00  0.10800057540E+04  0.10800057540E+04  0.25500000920E-02 0.  1.
       -2   -1    0    0    0  501  0.00000000000E+00  0.00000000000E+00 -0.13371708367E+04  0.13371708367E+04  0.25500000920E-02 0. -1.
    10030    2    1    2    0    0  0.00000000000E+00  0.00000000000E+00 -0.25716508265E+03  0.24171765907E+04  0.24034576741E+04 0.  0.
        3    1    3    3  502    0  0.24277397993E+03 -0.80533072502E+03 -0.99176795168E+03  0.13004231858E+04  0.10100000352E+00 0. -1.
       -3    1    3    3    0  502 -0.24277397993E+03  0.80533072502E+03  0.73460286903E+03  0.11167534049E+04  0.10100000352E+00 0.  1.
</event>
<event>
 5   0  0.5034479E-06  0.2400591E+04  0.7818609E-02  0.8439282E-01
       -1   -1    0    0    0  501  0.00000000000E+00  0.00000000000E+00  0.89935276459E+03  0.89935276460E+03  0.50400001928E-02 0. -1.
        1   -1    0    0  501    0  0.00000000000E+00  0.00000000000E+00 -0.16019404162E+04  0.16019404162E+04  0.50400001928E-02 0.  1.
    10030    2    1    2    0    0  0.00000000000E+00  0.00000000000E+00 -0.70258765159E+03  0.25012931808E+04  0.24005912122E+04 0.  0.
        4    1    3    3  502    0  0.11872214105E+03 -0.22192134139E+03  0.87154926850E+03  0.90716248206E+03  0.12699999809E+01 0. -1.
       -4    1    3    3    0  502 -0.11872214105E+03  0.22192134139E+03 -0.15741369201E+04  0.15941306987E+04  0.12699999809E+01 0.  1.
</event>
<event>
 5   0  0.1198313E-05  0.2398612E+04  0.7818609E-02  0.8440023E-01
       -2   -1    0    0    0  501  0.00000000000E+00  0.00000000000E+00  0.60361375991E+03  0.60361375992E+03  0.25500000920E-02 0. -1.
        2   -1    0    0  501    0  0.00000000000E+00  0.00000000000E+00 -0.23828724356E+04  0.23828724356E+04  0.25500000920E-02 0.  1.
    10030    2    1    2    0    0  0.00000000000E+00  0.00000000000E+00 -0.17792586757E+04  0.29864861955E+04  0.23986117571E+04 0.  0.
        5    1    3    3  502    0 -0.35016017127E+02 -0.10554777312E+04 -0.15973103372E+04  0.19148581582E+04  0.46999998093E+01 0.  1.
       -5    1    3    3    0  502  0.35016017127E+02  0.10554777312E+04 -0.18194833851E+03  0.10716280374E+04  0.46999998093E+01 0. -1.
</event>
<event>
 5   0  0.5034479E-06  0.2390054E+04  0.7818609E-02  0.8443237E-01
       -1   -1    0    0    0  501  0.00000000000E+00  0.00000000000E+00  0.18913724986E+04  0.18913724986E+04  0.50400001928E-02 0.  1.
        1   -1    0    0  501    0  0.00000000000E+00  0.00000000000E+00 -0.75505459307E+03  0.75505459308E+03  0.50400001928E-02 0. -1.
    10030    2    1    2    0    0  0.00000000000E+00  0.00000000000E+00  0.11363179055E+04  0.26464270917E+04  0.23900539679E+04 0.  0.
        4    1    3    3  502    0  0.11244474423E+04 -0.25721088624E+03  0.22232926140E+03  0.11747218410E+04  0.12699999809E+01 0. -1.
       -4    1    3    3    0  502 -0.11244474423E+04  0.25721088624E+03  0.91398864414E+03  0.14717052507E+04  0.12699999809E+01 0.  1.
</event>
<event>
 5   0  0.5104174E-06  0.2406060E+04  0.7818609E-02  0.8437238E-01
       -1   -1    0    0    0  501  0.00000000000E+00  0.00000000000E+00  0.92079568312E+03  0.92079568313E+03  0.50400001928E-02 0.  1.
        1   -1    0    0  501    0  0.00000000000E+00  0.00000000000E+00 -0.15717725666E+04  0.15717725666E+04  0.50400001928E-02 0. -1.
    10030    2    1    2    0    0  0.00000000000E+00  0.00000000000E+00 -0.65097688344E+03  0.24925682497E+04  0.24060601773E+04 0.  0.
        3    1    3    3  502    0 -0.51617797493E+02 -0.11788739811E+04 -0.56816085810E+03  0.13096621821E+04  0.10100000352E+00 0. -1.
       -3    1    3    3    0  502  0.51617797493E+02  0.11788739811E+04 -0.82816025339E+02  0.11829060676E+04  0.10100000352E+00 0.  1.
</event>
<event>
 5   0  0.1168435E-05  0.2391480E+04  0.7818609E-02  0.8442700E-01
       -2   -1    0    0    0  501  0.00000000000E+00  0.00000000000E+00  0.18132226299E+04  0.18132226299E+04  0.25500000920E-02 0. -1.
        2   -1    0    0  501    0  0.00000000000E+00  0.00000000000E+00 -0.78853743530E+03  0.78853743531E+03  0.25500000920E-02 0.  1.
    10030    2    1    2    0    0  0.00000000000E+00  0.00000000000E+00  0.10246851946E+04  0.26017600653E+04  0.23914798115E+04 0.  0.
        1    1    3    3  502    0  0.72182235452E+03 -0.55005765734E+03  0.13593935971E+04  0.16344852064E+04  0.50400001928E-02 0. -1.
       -1    1    3    3    0  502 -0.72182235452E+03  0.55005765734E+03 -0.33470840250E+03  0.96727485888E+03  0.50400001928E-02 0.  1.
</event>
<event>
 5   0  0.1154897E-05  0.2408312E+04  0.7818609E-02  0.8436398E-01
        2   -1    0    0  501    0  0.00000000000E+00  0.00000000000E+00  0.14890733537E+04  0.14890733537E+04  0.25500000920E-02 0. -1.
       -2   -1    0    0    0  501  0.00000000000E+00  0.00000000000E+00 -0.97375418746E+03  0.97375418746E+03  0.25500000920E-02 0.  1.
    10030    2    1    2    0    0  0.00000000000E+00  0.00000000000E+00  0.51531916629E+03  0.24628275412E+04  0.24083117852E+04 0.  0.
        4    1    3    3  502    0  0.80676139199E+03  0.89075953666E+03  0.18063322650E+03  0.12152968654E+04  0.12699999809E+01 0. -1.
       -4    1    3    3    0  502 -0.80676139199E+03 -0.89075953666E+03  0.33468593979E+03  0.12475306758E+04  0.12699999809E+01 0.  1.
</event>
<event>
 5   0  0.1174210E-05  0.2384394E+04  0.7818609E-02  0.8445369E-01
       -2   -1    0    0    0  501  0.00000000000E+00  0.00000000000E+00  0.73112700540E+03  0.73112700540E+03  0.25500000920E-02 0.  1.
        2   -1    0    0  501    0  0.00000000000E+00  0.00000000000E+00 -0.19440318811E+04  0.19440318811E+04  0.25500000920E-02 0. -1.
    10030    2    1    2    0    0  0.00000000000E+00  0.00000000000E+00 -0.12129048757E+04  0.26751588865E+04  0.23843944369E+04 0.  0.
        3    1    3    3  502    0 -0.84512315164E+03  0.73746608948E+03 -0.15314672755E+03  0.11320526953E+04  0.10100000352E+00 0.  1.
       -3    1    3    3    0  502  0.84512315164E+03 -0.73746608948E+03 -0.10597581481E+04  0.15431061912E+04  0.10100000352E+00 0. -1.
</event>
<event>
 5   0  0.5034479E-06  0.2384219E+04  0.7818609E-02  0.8445435E-01
       -1   -1    0    0    0  501  0.00000000000E+00  0.00000000000E+00  0.91725386275E+03  0.91725386277E+03  0.50400001928E-02 0.  1.
        1   -1    0    0  501    0  0.00000000000E+00  0.00000000000E+00 -0.15493262487E+04  0.15493262487E+04  0.50400001928E-02 0. -1.
    10030    2    1    2    0    0  0.00000000000E+00  0.00000000000E+00 -0.63207238595E+03  0.24665801115E+04  0.23842193576E+04 0.  0.
        4    1    3    3  502    0 -0.11115773198E+04 -0.17600705733E+02  0.12919047926E+03  0.11191986935E+04  0.12699999809E+01 0.  1.
       -4    1    3    3    0  502  0.11115773198E+04  0.17600705733E+02 -0.76126286521E+03  0.13473814180E+04  0.12699999809E+01 0. -1.
</event>
<event>
 5   0  0.5064437E-06  0.2408200E+04  0.7818609E-02  0.8436440E-01
       -1   -1    0    0    0  501  0.00000000000E+00  0.00000000000E+00  0.69853811832E+03  0.69853811834E+03  0.50400001928E-02 0.  1.
        1   -1    0    0  501    0  0.00000000000E+00  0.00000000000E+00 -0.20755593035E+04  0.20755593035E+04  0.50400001928E-02 0. -1.
    10030    2    1    2    0    0  0.00000000000E+00  0.00000000000E+00 -0.13770211852E+04  0.27740974219E+04  0.24082003989E+04 0.  0.
        2    1    3    3  502    0 -0.26497440230E+03  0.11740155777E+04 -0.73057257431E+03  0.14079276604E+04  0.25500000920E-02 0.  1.
       -2    1    3    3    0  502  0.26497440230E+03 -0.11740155777E+04 -0.64644861089E+03  0.13661697615E+04  0.25500000920E-02 0. -1.
</event>
<event>
 5   0  0.1198313E-05  0.2402560E+04  0.7818609E-02  0.8438546E-01
        2   -1    0    0  501    0  0.00000000000E+00  0.00000000000E+00  0.14776579921E+04  0.14776579921E+04  0.25500000920E-02 0.  1.
       -2   -1    0    0    0  501  0.00000000000E+00  0.00000000000E+00 -0.97659478446E+03  0.97659478447E+03  0.25500000920E-02 0. -1.
    10030    2    1    2    0    0  0.00000000000E+00  0.00000000000E+00  0.50106320760E+03  0.24542527765E+04  0.24025595421E+04 0.  0.
        5    1    3    3  502    0 -0.51437656952E+03  0.22495782701E+03 -0.83432680537E+03  0.10056403867E+04  0.46999998093E+01 0. -1.
       -5    1    3    3    0  502  0.51437656952E+03 -0.22495782701E+03  0.13353900130E+04  0.14486123898E+04  0.46999998093E+01 0.  1.
</event>
<event>
 5   0  0.5196696E-06  0.2395841E+04  0.7818609E-02  0.8441062E-01
       -1   -1    0    0    0  501  0.00000000000E+00  0.00000000000E+00  0.11047147850E+04  0.11047147850E+04  0.50400001928E-02 0.  1.
        1   -1    0    0  501    0  0.00000000000E+00  0.00000000000E+00 -0.12989898474E+04  0.12989898474E+04  0.50400001928E-02 0. -1.
    10030    2    1    2    0    0  0.00000000000E+00  0.00000000000E+00 -0.19427506241E+03  0.24037046324E+04  0.23958408044E+04 0.  0.
        1    1    3    3  502    0 -0.94433576052E+03 -0.64952501413E+03  0.25237427692E+03  0.11736036589E+04  0.50400001928E-02 0.  1.
       -1    1    3    3    0  502  0.94433576052E+03  0.64952501413E+03 -0.44664933933E+03  0.12301009735E+04  0.50400001928E-02 0. -1.
</event>
<event>
 5   0  0.1174210E-05  0.2396819E+04  0.7818609E-02  0.8440695E-01
       -2   -1    0    0    0  501  0.00000000000E+00  0.00000000000E+00  0.55596220031E+03  0.55596220031E+03  0.25500000920E-02 0.  1.
        2   -1    0    0  501    0  0.00000000000E+00  0.00000000000E+00 -0.25832431278E+04  0.25832431278E+04  0.25500000920E-02 0. -1.
    10030    2    1    2    0    0  0.00000000000E+00  0.00000000000E+00 -0.20272809275E+04  0.31392053281E+04  0.23968191699E+04 0.  0.
        3    1    3    3  502    0 -0.74442232236E+03  0.88191113640E+03 -0.14365331196E+04  0.18427043334E+04  0.10100000352E+00 0. -1.
       -3    1    3    3    0  502  0.74442232236E+03 -0.88191113640E+03 -0.59074780792E+03  0.12965009947E+04  0.10100000352E+00 0.  1.
</event>
<event>
 5   0  0.5064437E-06  0.2375246E+04  0.7818609E-02  0.8448830E-01
       -1   -1    0    0    0  501  0.00000000000E+00  0.00000000000E+00  0.11291094639E+04  0.11291094640E+04  0.50400001928E-02 0.  1.
        1   -1    0    0  501    0  0.00000000000E+00  0.00000000000E+00 -0.12491689206E+04  0.12491689206E+04  0.50400001928E-02 0. -1.
    10030    2    1    2    0    0  0.00000000000E+00  0.00000000000E+00 -0.12005945662E+03  0.23782783845E+04  0.23752460507E+04 0.  0.
        2    1    3    3  502    0 -0.87303061267E+02  0.11159733328E+04 -0.45731094619E+03  0.12091946103E+04  0.25500000920E-02 0. -1.
       -2    1    3    3    0  502  0.87303061267E+02 -0.11159733328E+04  0.33725148957E+03  0.11690837743E+04  0.25500000920E-02 0.  1.
</event>
<event>
 5   0  0.5034479E-06  0.2401355E+04  0.7818609E-02  0.8438997E-01
       -1   -1    0    0    0  501  0.00000000000E+00  0.00000000000E+00  0.99057437886E+03  0.99057437887E+03  0.50400001928E-02 0.  1.
        1   -1    0    0  501    0  0.00000000000E+00  0.00000000000E+00 -0.14553434132E+04  0.14553434132E+04  0.50400001928E-02 0. -1.
    10030    2    1    2    0    0  0.00000000000E+00  0.00000000000E+00 -0.46476903436E+03  0.24459177921E+04  0.24013545324E+04 0.  0.
        4    1    3    3  502    0  0.77677776843E+03  0.25019452688E+03 -0.11294343931E+04  0.13934147495E+04  0.12699999809E+01 0. -1.
       -4    1    3    3    0  502 -0.77677776843E+03 -0.25019452688E+03  0.66466535872E+03  0.10525030427E+04  0.12699999809E+01 0.  1.
</event>
<event>
 5   0  0.4067750E-06  0.2439057E+04  0.7818609E-02  0.8425024E-01
       -3   -1    0    0    0  501  0.00000000000E+00  0.00000000000E+00  0.20660089754E+04  0.20660089779E+04  0.10100000352E+00 0.  1.
        3   -1    0    0  501    0  0.00000000000E+00  0.00000000000E+00 -0.71986581808E+03  0.71986582516E+03  0.10100000352E+00 0. -1.
    10030    2    1    2    0    0  0.00000000000E+00  0.00000000000E+00  0.13461431573E+04  0.27858748031E+04  0.24390565836E+04 0.  0.
        4    1    3    3  502    0 -0.11080003521E+04 -0.43099513165E+03  0.36272671696E+03  0.12429778227E+04  0.12699999809E+01 0. -1.
       -4    1    3    3    0  502  0.11080003521E+04  0.43099513165E+03  0.98341644038E+03  0.15428969803E+04  0.12699999809E+01 0.  1.
</event>
<event>
 5   0  0.1154897E-05  0.2341837E+04  0.7818609E-02  0.8461606E-01
       -2   -1    0    0    0  501  0.00000000000E+00  0.00000000000E+00  0.14020291947E+04  0.14020291947E+04  0.25500000920E-02 0.  1.
        2   -1    0    0  501    0  0.00000000000E+00  0.00000000000E+00 -0.97790370903E+03  0.97790370903E+03  0.25500000920E-02 0. -1.
    10030    2    1    2    0    0  0.00000000000E+00  0.00000000000E+00  0.42412548565E+03  0.23799329037E+04  0.23418365013E+04 0.  0.
        4    1    3    3  502    0 -0.60414887510E+03 -0.44150137499E+03 -0.70321521233E+03  0.10268556740E+04  0.12699999809E+01 0. -1.
       -4    1    3    3    0  502  0.60414887510E+03  0.44150137499E+03  0.11273406980E+04  0.13530772297E+04  0.12699999809E+01 0.  1.
</event>
<event>
 5   0  0.5042742E-06  0.2404781E+04  0.7818609E-02  0.8437716E-01
        1   -1    0    0  501    0  0.00000000000E+00  0.00000000000E+00  0.12333203120E+04  0.12333203120E+04  0.50400001928E-02 0. -1.
       -1   -1    0    0    0  501  0.00000000000E+00  0.00000000000E+00 -0.11722360415E+04  0.11722360415E+04  0.50400001928E-02 0.  1.
    10030    2    1    2    0    0  0.00000000000E+00  0.00000000000E+00  0.61084270494E+02  0.24055563534E+04  0.24047806722E+04 0.  0.
        5    1    3    3  502    0 -0.54295287645E+03 -0.38426815836E+02  0.11030101440E+04  0.12300113471E+04  0.46999998093E+01 0. -1.
       -5    1    3    3    0  502  0.54295287645E+03  0.38426815836E+02 -0.10419258735E+04  0.11755450064E+04  0.46999998093E+01 0.  1.
</event>
<event>
 5   0  0.1169371E-05  0.2506738E+04  0.7818609E-02  0.8400589E-01
       -2   -1    0    0    0  501  0.00000000000E+00  0.00000000000E+00  0.64447214639E+03  0.64447214640E+03  0.25500000920E-02 0. -1.
        2   -1    0    0  501    0  0.00000000000E+00  0.00000000000E+00 -0.24375520433E+04  0.24375520433E+04  0.25500000920E-02 0.  1.
    10030    2    1    2    0    0  0.00000000000E+00  0.00000000000E+00 -0.17930798969E+04  0.30820241897E+04  0.25067384365E+04 0.  0.
        2    1    3    3  502    0  0.80362623543E+03 -0.36922796046E+03  0.19542253231E+03  0.90572312502E+03  0.25500000920E-02 0. -1.
       -2    1    3    3    0  502 -0.80362623543E+03  0.36922796046E+03 -0.19885024292E+04  0.21763010646E+04  0.25500000920E-02 0.  1.
</event>
<event>
 5   0  0.5034479E-06  0.2339909E+04  0.7818609E-02  0.8462350E-01
        1   -1    0    0  501    0  0.00000000000E+00  0.00000000000E+00  0.11848075617E+04  0.11848075617E+04  0.50400001928E-02 0.  1.
       -1   -1    0    0    0  501  0.00000000000E+00  0.00000000000E+00 -0.11552878131E+04  0.11552878131E+04  0.50400001928E-02 0. -1.
    10030    2    1    2    0    0  0.00000000000E+00  0.00000000000E+00  0.29519748629E+02  0.23400953748E+04  0.23399091750E+04 0.  0.
        4    1    3    3  502    0 -0.24419479330E+03 -0.34188125990E+03 -0.10772419531E+04  0.11562723431E+04  0.12699999809E+01 0. -1.
       -4    1    3    3    0  502  0.24419479330E+03  0.34188125990E+03  0.11067617017E+04  0.11838230317E+04  0.12699999809E+01 0.  1.
</event>
<event>
 5   0  0.5196696E-06  0.2400205E+04  0.7818609E-02  0.8439427E-01
        1   -1    0    0  501    0  0.00000000000E+00  0.00000000000E+00  0.20777297554E+04  0.20777297554E+04  0.50400001928E-02 0. -1.
       -1   -1    0    0    0  501  0.00000000000E+00  0.00000000000E+00 -0.69318265613E+03  0.69318265615E+03  0.50400001928E-02 0.  1.
    10030    2    1    2    0    0  0.00000000000E+00  0.00000000000E+00  0.13845470993E+04  0.27709124116E+04  0.24002051834E+04 0.  0.
        1    1    3    3  502    0 -0.54968189616E+02 -0.86723119751E+03  0.16478433931E+04  0.18629276154E+04  0.50400001928E-02 0. -1.
       -1    1    3    3    0  502  0.54968189616E+02  0.86723119751E+03 -0.26329629382E+03  0.90798479623E+03  0.50400001928E-02 0.  1.
</event>
<event>
 5   0  0.1169371E-05  0.2401703E+04  0.7818609E-02  0.8438866E-01
        2   -1    0    0  501    0  0.00000000000E+00  0.00000000000E+00  0.14365982254E+04  0.14365982254E+04  0.25500000920E-02 0.  1.
       -2   -1    0    0    0  501  0.00000000000E+00  0.00000000000E+00 -0.10037905926E+04  0.10037905926E+04  0.25500000920E-02 0. -1.
    10030    2    1    2    0    0  0.00000000000E+00  0.00000000000E+00  0.43280763281E+03  0.24403888181E+04  0.24017025495E+04 0.  0.
        2    1    3    3  502    0 -0.91235775786E+03  0.45151513994E+03 -0.43086660283E+03  0.11053997600E+04  0.25500000920E-02 0. -1.
       -2    1    3    3    0  502  0.91235775786E+03 -0.45151513994E+03  0.86367423564E+03  0.13349890581E+04  0.25500000920E-02 0.  1.
</event>
<event>
 5   0  0.1154897E-05  0.2403685E+04  0.7818609E-02  0.8438125E-01
       -2   -1    0    0    0  501  0.00000000000E+00  0.00000000000E+00  0.11646304625E+04  0.11646304625E+04  0.25500000920E-02 0.  1.
        2   -1    0    0  501    0  0.00000000000E+00  0.00000000000E+00 -0.12402433596E+04  0.12402433596E+04  0.25500000920E-02 0. -1.
    10030    2    1    2    0    0  0.00000000000E+00  0.00000000000E+00 -0.75612897117E+02  0.24048738220E+04  0.24036848358E+04 0.  0.
        4    1    3    3  502    0  0.39632224695E+02 -0.69668776289E+03  0.94118614766E+03  0.11716558922E+04  0.12699999809E+01 0.  1.
       -4    1    3    3    0  502 -0.39632224695E+02  0.69668776289E+03 -0.10167990448E+04  0.12332179299E+04  0.12699999809E+01 0. -1.
</event>
<event>
 5   0  0.5064437E-06  0.2428999E+04  0.7818609E-02  0.8428726E-01
        1   -1    0    0  501    0  0.00000000000E+00  0.00000000000E+00  0.22580806777E+04  0.22580806777E+04  0.50400001928E-02 0.  1.
       -1   -1    0    0    0  501  0.00000000000E+00  0.00000000000E+00 -0.65321343872E+03  0.65321343874E+03  0.50400001928E-02 0. -1.
    10030    2    1    2    0    0  0.00000000000E+00  0.00000000000E+00  0.16048672389E+04  0.29112941164E+04  0.24289986780E+04 0.  0.
        2    1    3    3  502    0 -0.40154974272E+03 -0.10873608672E+04  0.12369214603E+04  0.16951609217E+04  0.25500000920E-02 0. -1.
       -2    1    3    3    0  502  0.40154974272E+03  0.10873608672E+04  0.36794577860E+03  0.12161331947E+04  0.25500000920E-02 0.  1.
</event>
<event>
 5   0  0.5196696E-06  0.2412991E+04  0.7818609E-02  0.8434656E-01
        1   -1    0    0  501    0  0.00000000000E+00  0.00000000000E+00  0.97423240241E+03  0.97423240243E+03  0.50400001928E-02 0.  1.
       -1   -1    0    0    0  501  0.00000000000E+00  0.00000000000E+00 -0.14941316192E+04  0.14941316192E+04  0.50400001928E-02 0. -1.
    10030    2    1    2    0    0  0.00000000000E+00  0.00000000000E+00 -0.51989921680E+03  0.24683640217E+04  0.24129910376E+04 0.  0.
        1    1    3    3  502    0  0.25263091461E+03  0.99055506415E+03  0.39554347447E+03  0.10961187684E+04  0.50400001928E-02 0.  1.
       -1    1    3    3    0  502 -0.25263091461E+03 -0.99055506415E+03 -0.91544269127E+03  0.13722452533E+04  0.50400001928E-02 0. -1.
</event>
<event>
 5   0  0.5034479E-06  0.2409452E+04  0.7818609E-02  0.8435973E-01
        1   -1    0    0  501    0  0.00000000000E+00  0.00000000000E+00  0.12614817270E+04  0.12614817270E+04  0.50400001928E-02 0. -1.
       -1   -1    0    0    0  501  0.00000000000E+00  0.00000000000E+00 -0.11505236421E+04  0.11505236421E+04  0.50400001928E-02 0.  1.
    10030    2    1    2    0    0  0.00000000000E+00  0.00000000000E+00  0.11095808492E+03  0.24120053691E+04  0.24094518472E+04 0.  0.
        4    1    3    3  502    0 -0.12011321533E+04  0.88677364839E+02  0.83451694068E+02  0.12072894942E+04  0.12699999809E+01 0.  1.
       -4    1    3    3    0  502  0.12011321533E+04 -0.88677364839E+02  0.27506390848E+02  0.12047158749E+04  0.12699999809E+01 0. -1.
</event>
<event>
 5   0  0.1154897E-05  0.2254909E+04  0.7818609E-02  0.8495915E-01
       -2   -1    0    0    0  501  0.00000000000E+00  0.00000000000E+00  0.79464892744E+03  0.79464892744E+03  0.25500000920E-02 0.  1.
        2   -1    0    0  501    0  0.00000000000E+00  0.00000000000E+00 -0.15996414121E+04  0.15996414121E+04  0.25500000920E-02 0. -1.
    10030    2    1    2    0    0  0.00000000000E+00  0.00000000000E+00 -0.80499248466E+03  0.23942903395E+04  0.22549087187E+04 0.  0.
        4    1    3    3  502    0  0.79947438586E+03  0.17432057070E+03  0.42107937590E+03  0.92024801479E+03  0.12699999809E+01 0.  1.
       -4    1    3    3    0  502 -0.79947438586E+03 -0.17432057070E+03 -0.12260718606E+04  0.14740423248E+04  0.12699999809E+01 0. -1.
</event>
<event>
 5   0  0.5104174E-06  0.2400234E+04  0.7818609E-02  0.8439416E-01
        1   -1    0    0  501    0  0.00000000000E+00  0.00000000000E+00  0.16533142888E+04  0.16533142889E+04  0.50400001928E-02 0. -1.
       -1   -1    0    0    0  501  0.00000000000E+00  0.00000000000E+00 -0.87114794362E+03  0.87114794363E+03  0.50400001928E-02 0.  1.
    10030    2    1    2    0    0  0.00000000000E+00  0.00000000000E+00  0.78216634523E+03  0.25244622325E+04  0.24002344410E+04 0.  0.
        3    1    3    3  502    0 -0.28994503675E+03 -0.10982818422E+04  0.79841342066E+03  0.13884362174E+04  0.10100000352E+00 0. -1.
       -3    1    3    3    0  502  0.28994503675E+03  0.10982818422E+04 -0.16247075433E+02  0.11360260151E+04  0.10100000352E+00 0.  1.
</event>
<event>
 5   0  0.5196696E-06  0.2402019E+04  0.7818609E-02  0.8438748E-01
       -1   -1    0    0    0  501  0.00000000000E+00  0.00000000000E+00  0.10765681265E+04  0.10765681265E+04  0.50400001928E-02 0.  1.
        1   -1    0    0  501    0  0.00000000000E+00  0.00000000000E+00 -0.13398354123E+04  0.13398354123E+04  0.50400001928E-02 0. -1.
    10030    2    1    2    0    0  0.00000000000E+00  0.00000000000E+00 -0.26326728584E+03  0.24164035389E+04  0.24020192336E+04 0.  0.
        1    1    3    3  502    0 -0.22928315400E+03  0.10748102895E+04 -0.61892697544E+03  0.12612924023E+04  0.50400001928E-02 0. -1.
       -1    1    3    3    0  502  0.22928315400E+03 -0.10748102895E+04  0.35565968960E+03  0.11551111366E+04  0.50400001928E-02 0.  1.
</event>
<event>
 5   0  0.5196696E-06  0.2393685E+04  0.7818609E-02  0.8441872E-01
        1   -1    0    0  501    0  0.00000000000E+00  0.00000000000E+00  0.16152093931E+04  0.16152093931E+04  0.50400001928E-02 0.  1.
       -1   -1    0    0    0  501  0.00000000000E+00  0.00000000000E+00 -0.88683966396E+03  0.88683966398E+03  0.50400001928E-02 0. -1.
    10030    2    1    2    0    0  0.00000000000E+00  0.00000000000E+00  0.72836972912E+03  0.25020490571E+04  0.23936848209E+04 0.  0.
        1    1    3    3  502    0 -0.70391669242E+03 -0.26239593413E+03 -0.60970329333E+03  0.96751663657E+03  0.50400001928E-02 0. -1.
       -1    1    3    3    0  502  0.70391669242E+03  0.26239593413E+03  0.13380730224E+04  0.15345324205E+04  0.50400001928E-02 0.  1.
</event>
<event>
 5   0  0.1154897E-05  0.2408600E+04  0.7818609E-02  0.8436291E-01
       -2   -1    0    0    0  501  0.00000000000E+00  0.00000000000E+00  0.18178930854E+04  0.18178930854E+04  0.25500000920E-02 0. -1.
        2   -1    0    0  501    0  0.00000000000E+00  0.00000000000E+00 -0.79781319237E+03  0.79781319237E+03  0.25500000920E-02 0.  1.
    10030    2    1    2    0    0  0.00000000000E+00  0.00000000000E+00  0.10200798930E+04  0.26157062778E+04  0.24086004948E+04 0.  0.
        4    1    3    3  502    0 -0.41147786882E+03 -0.10015346863E+04  0.10825839593E+04  0.15311353324E+04  0.12699999809E+01 0. -1.
       -4    1    3    3    0  502  0.41147786882E+03  0.10015346863E+04 -0.62504066284E+02  0.10845709454E+04  0.12699999809E+01 0.  1.
</event>
<event>
 5   0  0.1174210E-05  0.2390123E+04  0.7818609E-02  0.8443211E-01
        2   -1    0    0  501    0  0.00000000000E+00  0.00000000000E+00  0.23164618631E+04  0.23164618631E+04  0.25500000920E-02 0.  1.
       -2   -1    0    0    0  501  0.00000000000E+00  0.00000000000E+00 -0.61653155307E+03  0.61653155308E+03  0.25500000920E-02 0. -1.
    10030    2    1    2    0    0  0.00000000000E+00  0.00000000000E+00  0.16999303100E+04  0.29329934162E+04  0.23901228672E+04 0.  0.
        3    1    3    3  502    0 -0.36744114779E+03 -0.81082861666E+03  0.18283784741E+04  0.20335741682E+04  0.10100000352E+00 0.  1.
       -3    1    3    3    0  502  0.36744114779E+03  0.81082861666E+03 -0.12844816406E+03  0.89941924803E+03  0.10100000352E+00 0. -1.
</event>
<event>
 5   0  0.1198313E-05  0.2403666E+04  0.7818609E-02  0.8438132E-01
        2   -1    0    0  501    0  0.00000000000E+00  0.00000000000E+00  0.14645274813E+04  0.14645274813E+04  0.25500000920E-02 0. -1.
       -2   -1    0    0    0  501  0.00000000000E+00  0.00000000000E+00 -0.98625813927E+03  0.98625813928E+03  0.25500000920E-02 0.  1.
    10030    2    1    2    0    0  0.00000000000E+00  0.00000000000E+00  0.47826934206E+03  0.24507856206E+04  0.24036656578E+04 0.  0.
        5    1    3    3  502    0  0.43820139454E+03 -0.32339947123E+03  0.13314779718E+04  0.14385629494E+04  0.46999998093E+01 0. -1.
       -5    1    3    3    0  502 -0.43820139454E+03  0.32339947123E+03 -0.85320862973E+03  0.10122226712E+04  0.46999998093E+01 0.  1.
</event>
<event>
 5   0  0.1174210E-05  0.2409022E+04  0.7818609E-02  0.8436134E-01
        2   -1    0    0  501    0  0.00000000000E+00  0.00000000000E+00  0.16181746954E+04  0.16181746954E+04  0.25500000920E-02 0. -1.
       -2   -1    0    0    0  501  0.00000000000E+00  0.00000000000E+00 -0.89659446869E+03  0.89659446870E+03  0.25500000920E-02 0.  1.
    10030    2    1    2    0    0  0.00000000000E+00  0.00000000000E+00  0.72158022672E+03  0.25147691641E+04  0.24090217776E+04 0.  0.
        3    1    3    3  502    0 -0.10056817784E+04 -0.53092948716E+03  0.77515848998E+03  0.13762821856E+04  0.10100000352E+00 0. -1.
       -3    1    3    3    0  502  0.10056817784E+04  0.53092948716E+03 -0.53578263265E+02  0.11384869785E+04  0.10100000352E+00 0.  1.
</event>
<event>
 5   0  0.5042742E-06  0.2399142E+04  0.7818609E-02  0.8439825E-01
        1   -1    0    0  501    0  0.00000000000E+00  0.00000000000E+00  0.14440981904E+04  0.14440981904E+04  0.50400001928E-02 0. -1.
       -1   -1    0    0    0  501  0.00000000000E+00  0.00000000000E+00 -0.99644957659E+03  0.99644957660E+03  0.50400001928E-02 0.  1.
    10030    2    1    2    0    0  0.00000000000E+00  0.00000000000E+00  0.44764861385E+03  0.24405477670E+04  0.23991423721E+04 0.  0.
        5    1    3    3  502    0 -0.19640979508E+03  0.11769464785E+04  0.34911288489E+03  0.12432544861E+04  0.46999998093E+01 0.  1.
       -5    1    3    3    0  502  0.19640979508E+03 -0.11769464785E+04  0.98535728958E+02  0.11972932810E+04  0.46999998093E+01 0. -1.
</event>
<event>
 5   0  0.1198313E-05  0.2406311E+04  0.7818609E-02  0.8437145E-01
       -2   -1    0    0    0  501  0.00000000000E+00  0.00000000000E+00  0.95191537596E+03  0.95191537596E+03  0.25500000920E-02 0. -1.
        2   -1    0    0  501    0  0.00000000000E+00  0.00000000000E+00 -0.15207058644E+04  0.15207058644E+04  0.25500000920E-02 0.  1.
    10030    2    1    2    0    0  0.00000000000E+00  0.00000000000E+00 -0.56879048848E+03  0.24726212404E+04  0.24063111143E+04 0.  0.
        5    1    3    3  502    0  0.61366105508E+03 -0.83664994080E+03  0.34148567891E+03  0.10923358334E+04  0.46999998093E+01 0. -1.
       -5    1    3    3    0  502 -0.61366105508E+03  0.83664994080E+03 -0.91027616739E+03  0.13802854070E+04  0.46999998093E+01 0.  1.
</event>
<event>
 5   0  0.1169371E-05  0.2402180E+04  0.7818609E-02  0.8438688E-01
        2   -1    0    0  501    0  0.00000000000E+00  0.00000000000E+00  0.15201922219E+04  0.15201922220E+04  0.25500000920E-02 0.  1.
       -2   -1    0    0    0  501  0.00000000000E+00  0.00000000000E+00 -0.94897000343E+03  0.94897000343E+03  0.25500000920E-02 0. -1.
    10030    2    1    2    0    0  0.00000000000E+00  0.00000000000E+00  0.57122221852E+03  0.24691622254E+04  0.24021796919E+04 0.  0.
        2    1    3    3  502    0  0.28616965868E+03  0.49975313022E+03  0.13690275137E+04  0.14852213970E+04  0.25500000920E-02 0.  1.
       -2    1    3    3    0  502 -0.28616965868E+03 -0.49975313022E+03 -0.79780529521E+03  0.98394082839E+03  0.25500000920E-02 0. -1.
</event>
<event>
 5   0  0.1198313E-05  0.2411823E+04  0.7818609E-02  0.8435090E-01
       -2   -1    0    0    0  501  0.00000000000E+00  0.00000000000E+00  0.12196919476E+04  0.12196919476E+04  0.25500000920E-02 0.  1.
        2   -1    0    0  501    0  0.00000000000E+00  0.00000000000E+00 -0.11922870770E+04  0.11922870770E+04  0.25500000920E-02 0. -1.
    10030    2    1    2    0    0  0.00000000000E+00  0.00000000000E+00  0.27404870636E+02  0.24119790246E+04  0.24118233327E+04 0.  0.
        5    1    3    3  502    0 -0.43553734224E+03 -0.10871527068E+04 -0.27373057965E+03  0.12027237026E+04  0.46999998093E+01 0. -1.
       -5    1    3    3    0  502  0.43553734224E+03  0.10871527068E+04  0.30113545029E+03  0.12092553220E+04  0.46999998093E+01 0.  1.
</event>
<event>
 5   0  0.5196696E-06  0.2400021E+04  0.7818609E-02  0.8439496E-01
        1   -1    0    0  501    0  0.00000000000E+00  0.00000000000E+00  0.23970075797E+04  0.23970075797E+04  0.50400001928E-02 0. -1.
       -1   -1    0    0    0  501  0.00000000000E+00  0.00000000000E+00 -0.60075941424E+03  0.60075941426E+03  0.50400001928E-02 0.  1.
    10030    2    1    2    0    0  0.00000000000E+00  0.00000000000E+00  0.17962481655E+04  0.29977669940E+04  0.24000207245E+04 0.  0.
        1    1    3    3  502    0  0.59847006913E+03 -0.70033431828E+03 -0.62425916410E+02  0.92332636487E+03  0.50400001928E-02 0.  1.
       -1    1    3    3    0  502 -0.59847006913E+03  0.70033431828E+03  0.18586740819E+04  0.20744406291E+04  0.50400001928E-02 0. -1.
</event>
<event>
 5   0  0.1169371E-05  0.2345694E+04  0.7818609E-02  0.8460119E-01
        2   -1    0    0  501    0  0.00000000000E+00  0.00000000000E+00  0.16588516869E+04  0.16588516870E+04  0.25500000920E-02 0. -1.
       -2   -1    0    0    0  501  0.00000000000E+00  0.00000000000E+00 -0.82923052419E+03  0.82923052419E+03  0.25500000920E-02 0.  1.
    10030    2    1    2    0    0  0.00000000000E+00  0.00000000000E+00  0.82962116276E+03  0.24880822111E+04  0.23456943142E+04 0.  0.
        2    1    3    3  502    0 -0.30133138265E+03  0.75923853134E+03 -0.47789884094E+03  0.94637785890E+03  0.25500000920E-02 0.  1.
       -2    1    3    3    0  502  0.30133138265E+03 -0.75923853134E+03  0.13075200037E+04  0.15417043522E+04  0.25500000920E-02 0. -1.
</event>
<event>
 5   0  0.5042742E-06  0.2398207E+04  0.7818609E-02  0.8440175E-01
       -1   -1    0    0    0  501  0.00000000000E+00  0.00000000000E+00  0.11421732544E+04  0.11421732544E+04  0.50400001928E-02 0.  1.
        1   -1    0    0  501    0  0.00000000000E+00  0.00000000000E+00 -0.12588709274E+04  0.12588709274E+04  0.50400001928E-02 0. -1.
    10030    2    1    2    0    0  0.00000000000E+00  0.00000000000E+00 -0.11669767304E+03  0.24010441818E+04  0.23982065832E+04 0.  0.
        5    1    3    3  502    0 -0.81034108701E+03  0.70592580968E+03 -0.59080767284E+03  0.12264011262E+04  0.46999998093E+01 0. -1.
       -5    1    3    3    0  502  0.81034108701E+03 -0.70592580968E+03  0.47410999980E+03  0.11746430556E+04  0.46999998093E+01 0.  1.
</event>
<event>
 5   0  0.5104174E-06  0.2407299E+04  0.7818609E-02  0.8436776E-01
       -1   -1    0    0    0  501  0.00000000000E+00  0.00000000000E+00  0.89129343627E+03  0.89129343629E+03  0.50400001928E-02 0.  1.
        1   -1    0    0  501    0  0.00000000000E+00  0.00000000000E+00 -0.16254717087E+04  0.16254717087E+04  0.50400001928E-02 0. -1.
    10030    2    1    2    0    0  0.00000000000E+00  0.00000000000E+00 -0.73417827241E+03  0.25167651450E+04  0.24072991213E+04 0.  0.
        3    1    3    3  502    0  0.64535696362E+03 -0.96200469302E+03 -0.70880614405E+03  0.13580665668E+04  0.10100000352E+00 0. -1.
       -3    1    3    3    0  502 -0.64535696362E+03  0.96200469302E+03 -0.25372128357E+02  0.11586985781E+04  0.10100000352E+00 0.  1.
</event>
<event>
 5   0  0.1154897E-05  0.2406462E+04  0.7818609E-02  0.8437088E-01
        2   -1    0    0  501    0  0.00000000000E+00  0.00000000000E+00  0.14040484831E+04  0.14040484831E+04  0.25500000920E-02 0. -1.
       -2   -1    0    0    0  501  0.00000000000E+00  0.00000000000E+00 -0.10311359901E+04  0.10311359901E+04  0.25500000920E-02 0.  1.
    10030    2    1    2    0    0  0.00000000000E+00  0.00000000000E+00  0.37291249298E+03  0.24351844732E+04  0.24064620693E+04 0.  0.
        4    1    3    3  502    0 -0.85549656615E+03  0.55147596938E+03 -0.46289040510E+03  0.11181543988E+04  0.12699999809E+01 0.  1.
       -4    1    3    3    0  502  0.85549656615E+03 -0.55147596938E+03  0.83580289808E+03  0.13170300744E+04  0.12699999809E+01 0. -1.
</event>
<event>
 5   0  0.5042742E-06  0.2388886E+04  0.7818609E-02  0.8443676E-01
        1   -1    0    0  501    0  0.00000000000E+00  0.00000000000E+00  0.85484828995E+03  0.85484828997E+03  0.50400001928E-02 0.  1.
       -1   -1    0    0    0  501  0.00000000000E+00  0.00000000000E+00 -0.16689436693E+04  0.16689436693E+04  0.50400001928E-02 0. -1.
    10030    2    1    2    0    0  0.00000000000E+00  0.00000000000E+00 -0.81409537936E+03  0.25237919593E+04  0.23888856329E+04 0.  0.
        5    1    3    3  502    0 -0.18046097778E+03 -0.10541836069E+04 -0.96887089122E+03  0.14431223564E+04  0.46999998093E+01 0.  1.
       -5    1    3    3    0  502  0.18046097778E+03  0.10541836069E+04  0.15477551186E+03  0.10806696029E+04  0.46999998093E+01 0. -1.
</event>
<event>
 5   0  0.5196696E-06  0.2401573E+04  0.7818609E-02  0.8438915E-01
       -1   -1    0    0    0  501  0.00000000000E+00  0.00000000000E+00  0.86323083925E+03  0.86323083926E+03  0.50400001928E-02 0. -1.
        1   -1    0    0  501    0  0.00000000000E+00  0.00000000000E+00 -0.16703395181E+04  0.16703395181E+04  0.50400001928E-02 0.  1.
    10030    2    1    2    0    0  0.00000000000E+00  0.00000000000E+00 -0.80710867888E+03  0.25335703574E+04  0.24015733044E+04 0.  0.
        1    1    3    3  502    0  0.45571714833E+03 -0.62660703997E+03 -0.13713491697E+04  0.15750914409E+04  0.50400001928E-02 0.  1.
       -1    1    3    3    0  502 -0.45571714833E+03  0.62660703997E+03  0.56424049086E+03  0.95847891650E+03  0.50400001928E-02 0. -1.
</event>
<event>
 5   0  0.5042742E-06  0.2406841E+04  0.7818609E-02  0.8436947E-01
        1   -1    0    0  501    0  0.00000000000E+00  0.00000000000E+00  0.26316314488E+04  0.26316314488E+04  0.50400001928E-02 0. -1.
       -1   -1    0    0    0  501  0.00000000000E+00  0.00000000000E+00 -0.55031295997E+03  0.55031295999E+03  0.50400001928E-02 0.  1.
    10030    2    1    2    0    0  0.00000000000E+00  0.00000000000E+00  0.20813184888E+04  0.31819444088E+04  0.24068409936E+04 0.  0.
        5    1    3    3  502    0 -0.49377910669E+03  0.35503426627E+03 -0.33218531638E+03  0.69299084471E+03  0.46999998093E+01 0.  1.
       -5    1    3    3    0  502  0.49377910669E+03 -0.35503426627E+03  0.24135038052E+04  0.24889535641E+04  0.46999998093E+01 0. -1.
</event>
<event>
 5   0  0.1174210E-05  0.2397133E+04  0.7818609E-02  0.8440578E-01
        2   -1    0    0  501    0  0.00000000000E+00  0.00000000000E+00  0.89748672874E+03  0.89748672875E+03  0.25500000920E-02 0.  1.
       -2   -1    0    0    0  501  0.00000000000E+00  0.00000000000E+00 -0.16006490827E+04  0.16006490827E+04  0.25500000920E-02 0. -1.
    10030    2    1    2    0    0  0.00000000000E+00  0.00000000000E+00 -0.70316235399E+03  0.24981358115E+04  0.23971327115E+04 0.  0.
        3    1    3    3  502    0  0.82952086806E+03  0.15526993540E+03 -0.12385278361E+04  0.14987210662E+04  0.10100000352E+00 0. -1.
       -3    1    3    3    0  502 -0.82952086806E+03 -0.15526993540E+03  0.53536548211E+03  0.99941474525E+03  0.10100000352E+00 0.  1.
</event>
<event>
 5   0  0.5034479E-06  0.2390547E+04  0.7818609E-02  0.8443051E-01
        1   -1    0    0  501    0  0.00000000000E+00  0.00000000000E+00  0.13137545217E+04  0.13137545217E+04  0.50400001928E-02 0.  1.
       -1   -1    0    0    0  501  0.00000000000E+00  0.00000000000E+00 -0.10874776518E+04  0.10874776518E+04  0.50400001928E-02 0. -1.
    10030    2    1    2    0    0  0.00000000000E+00  0.00000000000E+00  0.22627686988E+03  0.24012321735E+04  0.23905469519E+04 0.  0.
        4    1    3    3  502    0 -0.28813343667E+03 -0.10919185296E+04 -0.28023701263E+03  0.11635468829E+04  0.12699999809E+01 0. -1.
       -4    1    3    3    0  502  0.28813343667E+03  0.10919185296E+04  0.50651388251E+03  0.12376852906E+04  0.12699999809E+01 0.  1.
</event>
<event>
 5   0  0.4067750E-06  0.2403618E+04  0.7818609E-02  0.8438150E-01
        3   -1    0    0  501    0  0.00000000000E+00  0.00000000000E+00  0.82388520385E+03  0.82388521004E+03  0.10100000352E+00 0.  1.
       -3   -1    0    0    0  501  0.00000000000E+00  0.00000000000E+00 -0.17530900150E+04  0.17530900179E+04  0.10100000352E+00 0. -1.
    10030    2    1    2    0    0  0.00000000000E+00  0.00000000000E+00 -0.92920481111E+03  0.25769752279E+04  0.24036180529E+04 0.  0.
        2    1    3    3  502    0 -0.28468021011E+03  0.38197170729E+03 -0.16475387818E+04  0.17150303918E+04  0.25500000920E-02 0. -1.
       -2    1    3    3    0  502  0.28468021011E+03 -0.38197170729E+03  0.71833397065E+03  0.86194483617E+03  0.25500000920E-02 0.  1.
</event>
<event>
 5   0  0.1198313E-05  0.2399628E+04  0.7818609E-02  0.8439643E-01
        2   -1    0    0  501    0  0.00000000000E+00  0.00000000000E+00  0.18819017561E+04  0.18819017561E+04  0.25500000920E-02 0.  1.
       -2   -1    0    0    0  501  0.00000000000E+00  0.00000000000E+00 -0.76494605628E+03  0.76494605629E+03  0.25500000920E-02 0. -1.
    10030    2    1    2    0    0  0.00000000000E+00  0.00000000000E+00  0.11169556998E+04  0.26468478124E+04  0.23996277433E+04 0.  0.
        5    1    3    3  502    0  0.73999367066E+03 -0.94179330101E+03  0.63620767222E+03  0.13562254778E+04  0.46999998093E+01 0. -1.
       -5    1    3    3    0  502 -0.73999367066E+03  0.94179330101E+03  0.48074802757E+03  0.12906223346E+04  0.46999998093E+01 0.  1.
</event>
<event>
 5   0  0.5042742E-06  0.2328145E+04  0.7818609E-02  0.8466906E-01
        1   -1    0    0  501    0  0.00000000000E+00  0.00000000000E+00  0.18202152826E+04  0.18202152826E+04  0.50400001928E-02 0.  1.
       -1   -1    0    0    0  501  0.00000000000E+00  0.00000000000E+00 -0.74445310212E+03  0.74445310214E+03  0.50400001928E-02 0. -1.
    10030    2    1    2    0    0  0.00000000000E+00  0.00000000000E+00  0.10757621805E+04  0.25646683847E+04  0.23281451103E+04 0.  0.
        5    1    3    3  502    0  0.18815542009E+03 -0.28387530872E+03 -0.68833354295E+03  0.76799271439E+03  0.46999998093E+01 0. -1.
       -5    1    3    3    0  502 -0.18815542009E+03  0.28387530872E+03  0.17640957234E+04  0.17966756703E+04  0.46999998093E+01 0.  1.
</event>
<event>
 5   0  0.1154897E-05  0.2404419E+04  0.7818609E-02  0.8437851E-01
       -2   -1    0    0    0  501  0.00000000000E+00  0.00000000000E+00  0.11231998709E+04  0.11231998709E+04  0.25500000920E-02 0.  1.
        2   -1    0    0  501    0  0.00000000000E+00  0.00000000000E+00 -0.12867770681E+04  0.12867770681E+04  0.25500000920E-02 0. -1.
    10030    2    1    2    0    0  0.00000000000E+00  0.00000000000E+00 -0.16357719721E+03  0.24099769390E+04  0.24044191288E+04 0.  0.
        4    1    3    3  502    0 -0.98085791514E+03 -0.43527925814E+03 -0.62503397939E+03  0.12418612525E+04  0.12699999809E+01 0.  1.
       -4    1    3    3    0  502  0.98085791514E+03  0.43527925814E+03  0.46145678218E+03  0.11681156865E+04  0.12699999809E+01 0. -1.
</event>
<event>
 5   0  0.5034479E-06  0.2401135E+04  0.7818609E-02  0.8439079E-01
       -1   -1    0    0    0  501  0.00000000000E+00  0.00000000000E+00  0.90722795203E+03  0.90722795204E+03  0.50400001928E-02 0. -1.
        1   -1    0    0  501    0  0.00000000000E+00  0.00000000000E+00 -0.15887546633E+04  0.15887546633E+04  0.50400001928E-02 0.  1.
    10030    2    1    2    0    0  0.00000000000E+00  0.00000000000E+00 -0.68152671125E+03  0.24959826153E+04  0.24011352644E+04 0.  0.
        4    1    3    3  502    0  0.28955237260E+03  0.11282704623E+04 -0.38545138880E+02  0.11654707861E+04  0.12699999809E+01 0. -1.
       -4    1    3    3    0  502 -0.28955237260E+03 -0.11282704623E+04 -0.64298157237E+03  0.13305118293E+04  0.12699999809E+01 0.  1.
</event>
<event>
 5   0  0.5064437E-06  0.2398313E+04  0.7818609E-02  0.8440135E-01
       -1   -1    0    0    0  501  0.00000000000E+00  0.00000000000E+00  0.10116079208E+04  0.10116079208E+04  0.50400001928E-02 0.  1.
        1   -1    0    0  501    0  0.00000000000E+00  0.00000000000E+00 -0.14214757789E+04  0.14214757789E+04  0.50400001928E-02 0. -1.
    10030    2    1    2    0    0  0.00000000000E+00  0.00000000000E+00 -0.40986785817E+03  0.24330836997E+04  0.23983128713E+04 0.  0.
        2    1    3    3  502    0 -0.85254232511E+03 -0.28668350026E+03  0.59963421247E+03  0.10810074163E+04  0.25500000920E-02 0.  1.
       -2    1    3    3    0  502  0.85254232511E+03  0.28668350026E+03 -0.10095020706E+04  0.13520762834E+04  0.25500000920E-02 0. -1.
</event>
<event>
 5   0  0.5104174E-06  0.2402261E+04  0.7818609E-02  0.8438658E-01
       -1   -1    0    0    0  501  0.00000000000E+00  0.00000000000E+00  0.68291618591E+03  0.68291618593E+03  0.50400001928E-02 0. -1.
        1   -1    0    0  501    0  0.00000000000E+00  0.00000000000E+00 -0.21125794129E+04  0.21125794129E+04  0.50400001928E-02 0.  1.
    10030    2    1    2    0    0  0.00000000000E+00  0.00000000000E+00 -0.14296632270E+04  0.27954955989E+04  0.24022611641E+04 0.  0.
        3    1    3    3  502    0 -0.69013353375E+03 -0.87964618800E+03 -0.20406038077E+03  0.11365308441E+04  0.10100000352E+00 0.  1.
       -3    1    3    3    0  502  0.69013353375E+03  0.87964618800E+03 -0.12256028462E+04  0.16589647547E+04  0.10100000352E+00 0. -1.
</event>
<event>
 5   0  0.1174210E-05  0.2410255E+04  0.7818609E-02  0.8435674E-01
        2   -1    0    0  501    0  0.00000000000E+00  0.00000000000E+00  0.11117944474E+04  0.11117944474E+04  0.25500000920E-02 0.  1.
       -2   -1    0    0    0  501  0.00000000000E+00  0.00000000000E+00 -0.13062954635E+04  0.13062954635E+04  0.25500000920E-02 0. -1.
    10030    2    1    2    0    0  0.00000000000E+00  0.00000000000E+00 -0.19450101612E+03  0.24180899109E+04  0.24102547940E+04 0.  0.
        3    1    3    3  502    0  0.62343605243E+03 -0.15561091701E+03 -0.11200963820E+04  0.12913183899E+04  0.10100000352E+00 0. -1.
       -3    1    3    3    0  502 -0.62343605243E+03  0.15561091701E+03  0.92559536587E+03  0.11267715210E+04  0.10100000352E+00 0.  1.
</event>
<event>
 5   0  0.5064437E-06  0.2403593E+04  0.7818609E-02  0.8438160E-01
       -1   -1    0    0    0  501  0.00000000000E+00  0.00000000000E+00  0.11466733455E+04  0.11466733455E+04  0.50400001928E-02 0. -1.
        1   -1    0    0  501    0  0.00000000000E+00  0.00000000000E+00 -0.12595693912E+04  0.12595693912E+04  0.50400001928E-02 0.  1.
    10030    2    1    2    0    0  0.00000000000E+00  0.00000000000E+00 -0.11289604564E+03  0.24062427367E+04  0.24035928505E+04 0.  0.
        2    1    3    3  502    0 -0.17884314962E+03 -0.49698938270E+03 -0.11371432751E+04  0.12538254052E+04  0.25500000920E-02 0.  1.
       -2    1    3    3    0  502  0.17884314962E+03  0.49698938270E+03  0.10242472295E+04  0.11524173314E+04  0.25500000920E-02 0. -1.
</event>
<event>
 5   0  0.5064437E-06  0.2382729E+04  0.7818609E-02  0.8445998E-01
       -1   -1    0    0    0  501  0.00000000000E+00  0.00000000000E+00  0.14404628978E+04  0.14404628978E+04  0.50400001928E-02 0.  1.
        1   -1    0    0  501    0  0.00000000000E+00  0.00000000000E+00 -0.98534267825E+03  0.98534267826E+03  0.50400001928E-02 0. -1.
    10030    2    1    2    0    0  0.00000000000E+00  0.00000000000E+00  0.45512021957E+03  0.24258055761E+04  0.23827291660E+04 0.  0.
        2    1    3    3  502    0  0.37381662578E+03 -0.11298562255E+04  0.28365254114E+03  0.12234266321E+04  0.25500000920E-02 0.  1.
       -2    1    3    3    0  502 -0.37381662578E+03  0.11298562255E+04  0.17146767843E+03  0.12023789440E+04  0.25500000920E-02 0. -1.
</event>
<event>
 5   0  0.1198313E-05  0.2398649E+04  0.7818609E-02  0.8440010E-01
       -2   -1    0    0    0  501  0.00000000000E+00  0.00000000000E+00  0.90151267730E+03  0.90151267731E+03  0.25500000920E-02 0. -1.
        2   -1    0    0  501    0  0.00000000000E+00  0.00000000000E+00 -0.15955171934E+04  0.15955171934E+04  0.25500000920E-02 0.  1.
    10030    2    1    2    0    0  0.00000000000E+00  0.00000000000E+00 -0.69400451612E+03  0.24970298707E+04  0.23986487669E+04 0.  0.
        5    1    3    3  502    0  0.45758491702E+03  0.10346958765E+04  0.67286975203E+02  0.11333706985E+04  0.46999998093E+01 0. -1.
       -5    1    3    3    0  502 -0.45758491702E+03 -0.10346958765E+04 -0.76129149133E+03  0.13636591722E+04  0.46999998093E+01 0.  1.
</event>
<event>
 5   0  0.1154897E-05  0.2402778E+04  0.7818609E-02  0.8438464E-01
       -2   -1    0    0    0  501  0.00000000000E+00  0.00000000000E+00  0.99029934673E+03  0.99029934674E+03  0.25500000920E-02 0. -1.
        2   -1    0    0  501    0  0.00000000000E+00  0.00000000000E+00 -0.14574744995E+04  0.14574744995E+04  0.25500000920E-02 0.  1.
    10030    2    1    2    0    0  0.00000000000E+00  0.00000000000E+00 -0.46717515278E+03  0.24477738463E+04  0.24027784290E+04 0.  0.
        4    1    3    3  502    0 -0.99451060261E+02 -0.11606036087E+04  0.65930431350E+02  0.11667217682E+04  0.12699999809E+01 0. -1.
       -4    1    3    3    0  502  0.99451060261E+02  0.11606036087E+04 -0.53310558413E+03  0.12810520780E+04  0.12699999809E+01 0.  1.
</event>
<event>
 5   0  0.5064437E-06  0.2394402E+04  0.7818609E-02  0.8441602E-01
        1   -1    0    0  501    0  0.00000000000E+00  0.00000000000E+00  0.22940445083E+04  0.22940445084E+04  0.50400001928E-02 0.  1.
       -1   -1    0    0    0  501  0.00000000000E+00  0.00000000000E+00 -0.62478728851E+03  0.62478728853E+03  0.50400001928E-02 0. -1.
    10030    2    1    2    0    0  0.00000000000E+00  0.00000000000E+00  0.16692572198E+04  0.29188317969E+04  0.23944016774E+04 0.  0.
        2    1    3    3  502    0 -0.10295335652E+04 -0.60234114346E+03  0.95975311767E+03  0.15309736320E+04  0.25500000920E-02 0.  1.
       -2    1    3    3    0  502  0.10295335652E+04  0.60234114346E+03  0.70950410216E+03  0.13878581649E+04  0.25500000920E-02 0. -1.
</event>
<event>
 5   0  0.5104174E-06  0.2300543E+04  0.7818609E-02  0.8477707E-01
        1   -1    0    0  501    0  0.00000000000E+00  0.00000000000E+00  0.13028974312E+04  0.13028974312E+04  0.50400001928E-02 0. -1.
       -1   -1    0    0    0  501  0.00000000000E+00  0.00000000000E+00 -0.10155245212E+04  0.10155245212E+04  0.50400001928E-02 0.  1.
    10030    2    1    2    0    0  0.00000000000E+00  0.00000000000E+00  0.28737291004E+03  0.23184219524E+04  0.23005427968E+04 0.  0.
        3    1    3    3  502    0 -0.26606497667E+03  0.73871737796E+03 -0.70345962351E+03  0.10542055722E+04  0.10100000352E+00 0.  1.
       -3    1    3    3    0  502  0.26606497667E+03 -0.73871737796E+03  0.99083253355E+03  0.12642163802E+04  0.10100000352E+00 0. -1.
</event>
<event>
 5   0  0.5104174E-06  0.2396664E+04  0.7818609E-02  0.8440753E-01
        1   -1    0    0  501    0  0.00000000000E+00  0.00000000000E+00  0.11120511334E+04  0.11120511334E+04  0.50400001928E-02 0.  1.
       -1   -1    0    0    0  501  0.00000000000E+00  0.00000000000E+00 -0.12913074610E+04  0.12913074611E+04  0.50400001928E-02 0. -1.
    10030    2    1    2    0    0  0.00000000000E+00  0.00000000000E+00 -0.17925632765E+03  0.24033585945E+04  0.23966642866E+04 0.  0.
        3    1    3    3  502    0 -0.13127802157E+03 -0.97815608661E+03 -0.77121530887E+03  0.12525159925E+04  0.10100000352E+00 0. -1.
       -3    1    3    3    0  502  0.13127802157E+03  0.97815608661E+03  0.59195898123E+03  0.11508426019E+04  0.10100000352E+00 0.  1.
</event>
<event>
 5   0  0.1169371E-05  0.2391010E+04  0.7818609E-02  0.8442877E-01
       -2   -1    0    0    0  501  0.00000000000E+00  0.00000000000E+00  0.12642903485E+04  0.12642903485E+04  0.25500000920E-02 0. -1.
        2   -1    0    0  501    0  0.00000000000E+00  0.00000000000E+00 -0.11304624274E+04  0.11304624274E+04  0.25500000920E-02 0.  1.
    10030    2    1    2    0    0  0.00000000000E+00  0.00000000000E+00  0.13382792106E+03  0.23947527759E+04  0.23910104444E+04 0.  0.
        2    1    3    3  502    0 -0.52197444639E+03  0.67816554507E+03  0.90300608521E+03  0.12441004056E+04  0.25500000920E-02 0. -1.
       -2    1    3    3    0  502  0.52197444639E+03 -0.67816554507E+03 -0.76917816415E+03  0.11506523704E+04  0.25500000920E-02 0.  1.
</event>
<event>
 5   0  0.5196696E-06  0.2413040E+04  0.7818609E-02  0.8434638E-01
        1   -1    0    0  501    0  0.00000000000E+00  0.00000000000E+00  0.15013702793E+04  0.15013702793E+04  0.50400001928E-02 0. -1.
       -1   -1    0    0    0  501  0.00000000000E+00  0.00000000000E+00 -0.96957474156E+03  0.96957474157E+03  0.50400001928E-02 0.  1.
    10030    2    1    2    0    0  0.00000000000E+00  0.00000000000E+00  0.53179553771E+03  0.24709450208E+04  0.24130401576E+04 0.  0.
        1    1    3    3  502    0  0.85631145011E+03 -0.40030815153E+03  0.10336732061E+04  0.14007127517E+04  0.50400001928E-02 0. -1.
       -1    1    3    3    0  502 -0.85631145011E+03  0.40030815153E+03 -0.50187766843E+03  0.10702322691E+04  0.50400001928E-02 0.  1.
</event>
<event>
 5   0  0.1198313E-05  0.2275968E+04  0.7818609E-02  0.8487457E-01
        2   -1    0    0  501    0  0.00000000000E+00  0.00000000000E+00  0.19041629516E+04  0.19041629516E+04  0.25500000920E-02 0. -1.
       -2   -1    0    0    0  501  0.00000000000E+00  0.00000000000E+00 -0.68009256283E+03  0.68009256283E+03  0.25500000920E-02 0.  1.
    10030    2    1    2    0    0  0.00000000000E+00  0.00000000000E+00  0.12240703888E+04  0.25842555145E+04  0.22759675409E+04 0.  0.
        5    1    3    3  502    0  0.91168743183E+03  0.23525144996E+03  0.13377204116E+04  0.16358591650E+04  0.46999998093E+01 0. -1.
       -5    1    3    3    0  502 -0.91168743183E+03 -0.23525144996E+03 -0.11365002278E+03  0.94839634950E+03  0.46999998093E+01 0.  1.
</event>
<event>
 5   0  0.5104174E-06  0.2396242E+04  0.7818609E-02  0.8440912E-01
       -1   -1    0    0    0  501  0.00000000000E+00  0.00000000000E+00  0.11077670490E+04  0.11077670491E+04  0.50400001928E-02 0.  1.
        1   -1    0    0  501    0  0.00000000000E+00  0.00000000000E+00 -0.12958441746E+04  0.12958441746E+04  0.50400001928E-02 0. -1.
    10030    2    1    2    0    0  0.00000000000E+00  0.00000000000E+00 -0.18807712559E+03  0.24036112237E+04  0.23962416217E+04 0.  0.
        3    1    3    3  502    0  0.24731618413E+03  0.47094879157E+03 -0.11709023040E+04  0.12860677567E+04  0.10100000352E+00 0. -1.
       -3    1    3    3    0  502 -0.24731618413E+03 -0.47094879157E+03  0.98282517837E+03  0.11175434670E+04  0.10100000352E+00 0.  1.
</event>
<event>
 5   0  0.1169371E-05  0.2407869E+04  0.7818609E-02  0.8436564E-01
       -2   -1    0    0    0  501  0.00000000000E+00  0.00000000000E+00  0.71871833023E+03  0.71871833023E+03  0.25500000920E-02 0. -1.
        2   -1    0    0  501    0  0.00000000000E+00  0.00000000000E+00 -0.20167257396E+04  0.20167257396E+04  0.25500000920E-02 0.  1.
    10030    2    1    2    0    0  0.00000000000E+00  0.00000000000E+00 -0.12980074093E+04  0.27354440698E+04  0.24078685646E+04 0.  0.
        2    1    3    3  502    0  0.53190449143E+02  0.11535417695E+04 -0.26213131319E+03  0.11841455414E+04  0.25500000920E-02 0. -1.
       -2    1    3    3    0  502 -0.53190449143E+02 -0.11535417695E+04 -0.10358760961E+04  0.15512985284E+04  0.25500000920E-02 0.  1.
</event>
<event>
 5   0  0.1198313E-05  0.2385206E+04  0.7818609E-02  0.8445063E-01
       -2   -1    0    0    0  501  0.00000000000E+00  0.00000000000E+00  0.11715864649E+04  0.11715864650E+04  0.25500000920E-02 0.  1.
        2   -1    0    0  501    0  0.00000000000E+00  0.00000000000E+00 -0.12139968105E+04  0.12139968105E+04  0.25500000920E-02 0. -1.
    10030    2    1    2    0    0  0.00000000000E+00  0.00000000000E+00 -0.42410345505E+02  0.23855832754E+04  0.23852062650E+04 0.  0.
        5    1    3    3  502    0  0.26168315215E+03 -0.26466166498E+03 -0.11544139491E+04  0.12129375602E+04  0.46999998093E+01 0. -1.
       -5    1    3    3    0  502 -0.26168315215E+03  0.26466166498E+03  0.11120036036E+04  0.11726457152E+04  0.46999998093E+01 0.  1.
</event>
<event>
 5   0  0.5196696E-06  0.2414042E+04  0.7818609E-02  0.8434265E-01
       -1   -1    0    0    0  501  0.00000000000E+00  0.00000000000E+00  0.13873852567E+04  0.13873852567E+04  0.50400001928E-02 0.  1.
        1   -1    0    0  501    0  0.00000000000E+00  0.00000000000E+00 -0.10501045878E+04  0.10501045878E+04  0.50400001928E-02 0. -1.
    10030    2    1    2    0    0  0.00000000000E+00  0.00000000000E+00  0.33728066886E+03  0.24374898445E+04  0.24140419409E+04 0.  0.
        1    1    3    3  502    0 -0.32087955861E+03  0.10965812651E+04  0.56158023822E+03  0.12731168549E+04  0.50400001928E-02 0.  1.
       -1    1    3    3    0  502  0.32087955861E+03 -0.10965812651E+04 -0.22429956936E+03  0.11643729896E+04  0.50400001928E-02 0. -1.
</event>
<event>
 5   0  0.5034479E-06  0.2400743E+04  0.7818609E-02  0.8439225E-01
       -1   -1    0    0    0  501  0.00000000000E+00  0.00000000000E+00  0.68890506831E+03  0.68890506833E+03  0.50400001928E-02 0. -1.
        1   -1    0    0  501    0  0.00000000000E+00  0.00000000000E+00 -0.20915679022E+04  0.20915679023E+04  0.50400001928E-02 0.  1.
    10030    2    1    2    0    0  0.00000000000E+00  0.00000000000E+00 -0.14026628339E+04  0.27804729706E+04  0.24007429922E+04 0.  0.
        4    1    3    3  502    0  0.86130084709E+03 -0.83606689978E+03 -0.70893537935E+03  0.13940724497E+04  0.12699999809E+01 0.  1.
       -4    1    3    3    0  502 -0.86130084709E+03  0.83606689978E+03 -0.69372745458E+03  0.13864005209E+04  0.12699999809E+01 0. -1.
</event>
<event>
 5   0  0.1174210E-05  0.2396303E+04  0.7818609E-02  0.8440889E-01
       -2   -1    0    0    0  501  0.00000000000E+00  0.00000000000E+00  0.25062572713E+04  0.25062572713E+04  0.25500000920E-02 0. -1.
        2   -1    0    0  501    0  0.00000000000E+00  0.00000000000E+00 -0.57279310208E+03  0.57279310209E+03  0.25500000920E-02 0.  1.
    10030    2    1    2    0    0  0.00000000000E+00  0.00000000000E+00  0.19334641692E+04  0.30790503734E+04  0.23963028833E+04 0.  0.
        3    1    3    3  502    0 -0.88969679298E+02  0.90233726219E+03 -0.39644860785E+02  0.90757912259E+03  0.10100000352E+00 0.  1.
       -3    1    3    3    0  502  0.88969679298E+02 -0.90233726219E+03  0.19731090300E+04  0.21714712508E+04  0.10100000352E+00 0. -1.
</event>
<event>
 5   0  0.5042742E-06  0.2398961E+04  0.7818609E-02  0.8439893E-01
       -1   -1    0    0    0  501  0.00000000000E+00  0.00000000000E+00  0.63332493637E+03  0.63332493639E+03  0.50400001928E-02 0.  1.
        1   -1    0    0  501    0  0.00000000000E+00  0.00000000000E+00 -0.22717464060E+04  0.22717464060E+04  0.50400001928E-02 0. -1.
    10030    2    1    2    0    0  0.00000000000E+00  0.00000000000E+00 -0.16384214696E+04  0.29050713424E+04  0.23989611485E+04 0.  0.
        5    1    3    3  502    0 -0.46438509706E+03  0.82381559811E+03  0.74290175363E+02  0.94861308141E+03  0.46999998093E+01 0.  1.
       -5    1    3    3    0  502  0.46438509706E+03 -0.82381559811E+03 -0.17127116450E+04  0.19564582610E+04  0.46999998093E+01 0. -1.
</event>
<event>
 5   0  0.1168435E-05  0.2383430E+04  0.7818609E-02  0.8445733E-01
       -2   -1    0    0    0  501  0.00000000000E+00  0.00000000000E+00  0.89542734718E+03  0.89542734719E+03  0.25500000920E-02 0.  1.
        2   -1    0    0  501    0  0.00000000000E+00  0.00000000000E+00 -0.15860415777E+04  0.15860415777E+04  0.25500000920E-02 0. -1.
    10030    2    1    2    0    0  0.00000000000E+00  0.00000000000E+00 -0.69061423050E+03  0.24814689249E+04  0.23834303031E+04 0.  0.
        1    1    3    3  502    0  0.47596031549E+02  0.32962442626E+03 -0.15366055041E+04  0.15722830915E+04  0.50400001928E-02 0. -1.
       -1    1    3    3    0  502 -0.47596031549E+02 -0.32962442626E+03  0.84599127358E+03  0.90918583337E+03  0.50400001928E-02 0.  1.
</event>
<event>
 5   0  0.5196696E-06  0.2402214E+04  0.7818609E-02  0.8438675E-01
       -1   -1    0    0    0  501  0.00000000000E+00  0.00000000000E+00  0.97330305112E+03  0.97330305113E+03  0.50400001928E-02 0.  1.
        1   -1    0    0  501    0  0.00000000000E+00  0.00000000000E+00 -0.14822290689E+04  0.14822290689E+04  0.50400001928E-02 0. -1.
    10030    2    1    2    0    0  0.00000000000E+00  0.00000000000E+00 -0.50892601773E+03  0.24555321200E+04  0.24022140414E+04 0.  0.
        1    1    3    3  502    0 -0.10581751605E+04 -0.18976751908E+03 -0.80199316374E+03  0.13412454721E+04  0.50400001928E-02 0. -1.
       -1    1    3    3    0  502  0.10581751605E+04  0.18976751908E+03  0.29306714601E+03  0.11142866479E+04  0.50400001928E-02 0.  1.
</event>
<event>
 5   0  0.1169371E-05  0.2403985E+04  0.7818609E-02  0.8438013E-01
        2   -1    0    0  501    0  0.00000000000E+00  0.00000000000E+00  0.17557006834E+04  0.17557006834E+04  0.25500000920E-02 0.  1.
       -2   -1    0    0    0  501  0.00000000000E+00  0.00000000000E+00 -0.82291148401E+03  0.82291148402E+03  0.25500000920E-02 0. -1.
    10030    2    1    2    0    0  0.00000000000E+00  0.00000000000E+00  0.93278919939E+03  0.25786121674E+04  0.24039852370E+04 0.  0.
        2    1    3    3  502    0 -0.11793569782E+04 -0.43661559249E+01  0.21740260061E+03  0.11992355216E+04  0.25500000920E-02 0.  1.
       -2    1    3    3    0  502  0.11793569782E+04  0.43661559249E+01  0.71538659878E+03  0.13793766459E+04  0.25500000920E-02 0. -1.
</event>
<event>
 5   0  0.5104174E-06  0.2403370E+04  0.7818609E-02  0.8438243E-01
        1   -1    0    0  501    0  0.00000000000E+00  0.00000000000E+00  0.81145966419E+03  0.81145966420E+03  0.50400001928E-02 0. -1.
       -1   -1    0    0    0  501  0.00000000000E+00  0.00000000000E+00 -0.17795667339E+04  0.17795667339E+04  0.50400001928E-02 0.  1.
    10030    2    1    2    0    0  0.00000000000E+00  0.00000000000E+00 -0.96810706972E+03  0.25910263981E+04  0.24033698212E+04 0.  0.
        3    1    3    3  502    0  0.39019474911E+03 -0.11335182482E+04 -0.39430014924E+03  0.12619778838E+04  0.10100000352E+00 0. -1.
       -3    1    3    3    0  502 -0.39019474911E+03  0.11335182482E+04 -0.57380692048E+03  0.13290485143E+04  0.10100000352E+00 0.  1.
</event>
<event>
 5   0  0.1154897E-05  0.2398693E+04  0.7818609E-02  0.8439993E-01
        2   -1    0    0  501    0  0.00000000000E+00  0.00000000000E+00  0.85770586693E+03  0.85770586693E+03  0.25500000920E-02 0.  1.
       -2   -1    0    0    0  501  0.00000000000E+00  0.00000000000E+00 -0.16770690351E+04  0.16770690351E+04  0.25500000920E-02 0. -1.
    10030    2    1    2    0    0  0.00000000000E+00  0.00000000000E+00 -0.81936316820E+03  0.25347749021E+04  0.23986929363E+04 0.  0.
        4    1    3    3  502    0 -0.87979033640E+03 -0.52665759791E+03  0.24773046707E+03  0.10548797366E+04  0.12699999809E+01 0.  1.
       -4    1    3    3    0  502  0.87979033640E+03  0.52665759791E+03 -0.10670936353E+04  0.14798951655E+04  0.12699999809E+01 0. -1.
</event>
<event>
 5   0  0.1168435E-05  0.2401640E+04  0.7818609E-02  0.8438890E-01
        2   -1    0    0  501    0  0.00000000000E+00  0.00000000000E+00  0.19294355487E+04  0.19294355487E+04  0.25500000920E-02 0.  1.
       -2   -1    0    0    0  501  0.00000000000E+00  0.00000000000E+00 -0.74735271840E+03  0.74735271840E+03  0.25500000920E-02 0. -1.
    10030    2    1    2    0    0  0.00000000000E+00  0.00000000000E+00  0.11820828303E+04  0.26767882671E+04  0.24016401915E+04 0.  0.
        1    1    3    3  502    0 -0.81487290685E+03 -0.51666734202E+02 -0.39033544736E+03  0.90501329672E+03  0.50400001928E-02 0. -1.
       -1    1    3    3    0  502  0.81487290685E+03  0.51666734202E+02  0.15724182777E+04  0.17717749704E+04  0.50400001928E-02 0.  1.
</event>
<event>
 5   0  0.5104174E-06  0.2398819E+04  0.7818609E-02  0.8439946E-01
       -1   -1    0    0    0  501  0.00000000000E+00  0.00000000000E+00  0.17925028991E+04  0.17925028991E+04  0.50400001928E-02 0. -1.
        1   -1    0    0  501    0  0.00000000000E+00  0.00000000000E+00 -0.80255564294E+03  0.80255564295E+03  0.50400001928E-02 0.  1.
    10030    2    1    2    0    0  0.00000000000E+00  0.00000000000E+00  0.98994725615E+03  0.25950585420E+04  0.23988191401E+04 0.  0.
        3    1    3    3  502    0 -0.96371402534E+03 -0.48171975776E+03 -0.75195610529E+02  0.10800245542E+04  0.10100000352E+00 0.  1.
       -3    1    3    3    0  502  0.96371402534E+03  0.48171975776E+03  0.10651428667E+04  0.15150339878E+04  0.10100000352E+00 0. -1.
</event>
<event>
 5   0  0.5042742E-06  0.2411164E+04  0.7818609E-02  0.8435336E-01
       -1   -1    0    0    0  501  0.00000000000E+00  0.00000000000E+00  0.11999768796E+04  0.11999768796E+04  0.50400001928E-02 0. -1.
        1   -1    0    0  501    0  0.00000000000E+00  0.00000000000E+00 -0.12112133169E+04  0.12112133169E+04  0.50400001928E-02 0.  1.
    10030    2    1    2    0    0  0.00000000000E+00  0.00000000000E+00 -0.11236437301E+02  0.24111901966E+04  0.24111640148E+04 0.  0.
        5    1    3    3  502    0 -0.44153507987E+03 -0.37674312367E+03 -0.10622835045E+04  0.12105192860E+04  0.46999998093E+01 0.  1.
       -5    1    3    3    0  502  0.44153507987E+03  0.37674312367E+03  0.10510470672E+04  0.12006709105E+04  0.46999998093E+01 0. -1.
</event>
<event>
 5   0  0.5104174E-06  0.2395263E+04  0.7818609E-02  0.8441279E-01
        1   -1    0    0  501    0  0.00000000000E+00  0.00000000000E+00  0.19465198222E+04  0.19465198222E+04  0.50400001928E-02 0.  1.
       -1   -1    0    0    0  501  0.00000000000E+00  0.00000000000E+00 -0.73686429536E+03  0.73686429538E+03  0.50400001928E-02 0. -1.
    10030    2    1    2    0    0  0.00000000000E+00  0.00000000000E+00  0.12096555268E+04  0.26833841176E+04  0.23952627891E+04 0.  0.
        3    1    3    3  502    0 -0.75854032940E+03 -0.69686440556E+02 -0.43050340327E+03  0.87497018335E+03  0.10100000352E+00 0. -1.
       -3    1    3    3    0  502  0.75854032940E+03  0.69686440556E+02  0.16401589301E+04  0.18084139342E+04  0.10100000352E+00 0.  1.
</event>
<event>
 5   0  0.5042742E-06  0.2410691E+04  0.7818609E-02  0.8435512E-01
       -1   -1    0    0    0  501  0.00000000000E+00  0.00000000000E+00  0.11762934242E+04  0.11762934242E+04  0.50400001928E-02 0. -1.
        1   -1    0    0  501    0  0.00000000000E+00  0.00000000000E+00 -0.12351154345E+04  0.12351154345E+04  0.50400001928E-02 0.  1.
    10030    2    1    2    0    0  0.00000000000E+00  0.00000000000E+00 -0.58822010227E+02  0.24114088587E+04  0.24106913230E+04 0.  0.
        5    1    3    3  502    0  0.10647221943E+04  0.25107211616E+03  0.47686760576E+03  0.11933546673E+04  0.46999998093E+01 0. -1.
       -5    1    3    3    0  502 -0.10647221943E+04 -0.25107211616E+03 -0.53568961599E+03  0.12180541914E+04  0.46999998093E+01 0.  1.
</event>
<event>
 5   0  0.1169371E-05  0.2407599E+04  0.7818609E-02  0.8436664E-01
       -2   -1    0    0    0  501  0.00000000000E+00  0.00000000000E+00  0.79724332600E+03  0.79724332600E+03  0.25500000920E-02 0.  1.
        2   -1    0    0  501    0  0.00000000000E+00  0.00000000000E+00 -0.18176793989E+04  0.18176793989E+04  0.25500000920E-02 0. -1.
    10030    2    1    2    0    0  0.00000000000E+00  0.00000000000E+00 -0.10204360729E+04  0.26149227249E+04  0.24075986124E+04 0.  0.
        2    1    3    3  502    0 -0.10424850160E+04 -0.33599606342E+03 -0.10526922134E+04  0.15191541263E+04  0.25500000920E-02 0. -1.
       -2    1    3    3    0  502  0.10424850160E+04  0.33599606342E+03  0.32256140499E+02  0.10957685986E+04  0.25500000920E-02 0.  1.
</event>
<event>
 5   0  0.5104174E-06  0.2402183E+04  0.7818609E-02  0.8438687E-01
        1   -1    0    0  501    0  0.00000000000E+00  0.00000000000E+00  0.14906609228E+04  0.14906609228E+04  0.50400001928E-02 0.  1.
       -1   -1    0    0    0  501  0.00000000000E+00  0.00000000000E+00 -0.96777250076E+03  0.96777250077E+03  0.50400001928E-02 0. -1.
    10030    2    1    2    0    0  0.00000000000E+00  0.00000000000E+00  0.52288842206E+03  0.24584334236E+04  0.24021828815E+04 0.  0.
        3    1    3    3  502    0 -0.88372332432E+03 -0.80621776386E+02  0.10898135851E+04  0.14054040150E+04  0.10100000352E+00 0.  1.
       -3    1    3    3    0  502  0.88372332432E+03  0.80621776386E+02 -0.56692516305E+03  0.10530294086E+04  0.10100000352E+00 0. -1.
</event>
<event>
 5   0  0.1168435E-05  0.2393577E+04  0.7818609E-02  0.8441912E-01
       -2   -1    0    0    0  501  0.00000000000E+00  0.00000000000E+00  0.69623670214E+03  0.69623670214E+03  0.25500000920E-02 0. -1.
        2   -1    0    0  501    0  0.00000000000E+00  0.00000000000E+00 -0.20572057228E+04  0.20572057228E+04  0.25500000920E-02 0.  1.
    10030    2    1    2    0    0  0.00000000000E+00  0.00000000000E+00 -0.13609690207E+04  0.27534424250E+04  0.23935765107E+04 0.  0.
        1    1    3    3  502    0  0.33120619695E+03  0.28094018792E+03 -0.19633541307E+04  0.20108168431E+04  0.50400001928E-02 0.  1.
       -1    1    3    3    0  502 -0.33120619695E+03 -0.28094018792E+03  0.60238510998E+03  0.74262558186E+03  0.50400001928E-02 0. -1.
</event>
<event>
 5   0  0.1154897E-05  0.2410438E+04  0.7818609E-02  0.8435606E-01
       -2   -1    0    0    0  501  0.00000000000E+00  0.00000000000E+00  0.15701948778E+04  0.15701948778E+04  0.25500000920E-02 0.  1.
        2   -1    0    0  501    0  0.00000000000E+00  0.00000000000E+00 -0.92507779074E+03  0.92507779074E+03  0.25500000920E-02 0. -1.
    10030    2    1    2    0    0  0.00000000000E+00  0.00000000000E+00  0.64511708708E+03  0.24952726686E+04  0.24104376438E+04 0.  0.
        4    1    3    3  502    0  0.82386305496E+03  0.32239453326E+03 -0.52469784684E+03  0.10285903032E+04  0.12699999809E+01 0. -1.
       -4    1    3    3    0  502 -0.82386305496E+03 -0.32239453326E+03  0.11698149339E+04  0.14666823654E+04  0.12699999809E+01 0.  1.
</event>
<event>
 5   0  0.5042742E-06  0.2391997E+04  0.7818609E-02  0.8442506E-01
        1   -1    0    0  501    0  0.00000000000E+00  0.00000000000E+00  0.87031590497E+03  0.87031590498E+03  0.50400001928E-02 0.  1.
       -1   -1    0    0    0  501  0.00000000000E+00  0.00000000000E+00 -0.16435551888E+04  0.16435551888E+04  0.50400001928E-02 0. -1.
    10030    2    1    2    0    0  0.00000000000E+00  0.00000000000E+00 -0.77323928383E+03  0.25138710938E+04  0.23919968407E+04 0.  0.
        5    1    3    3  502    0 -0.76589026670E+03  0.31560817783E+03  0.52000057586E+03  0.97806907294E+03  0.46999998093E+01 0.  1.
       -5    1    3    3    0  502  0.76589026670E+03 -0.31560817783E+03 -0.12932398597E+04  0.15358020208E+04  0.46999998093E+01 0. -1.
</event>
<event>
 5   0  0.1174210E-05  0.2337515E+04  0.7818609E-02  0.8463275E-01
       -2   -1    0    0    0  501  0.00000000000E+00  0.00000000000E+00  0.96445325223E+03  0.96445325224E+03  0.25500000920E-02 0.  1.
        2   -1    0    0  501    0  0.00000000000E+00  0.00000000000E+00 -0.14163398550E+04  0.14163398550E+04  0.25500000920E-02 0. -1.
    10030    2    1    2    0    0  0.00000000000E+00  0.00000000000E+00 -0.45188660277E+03  0.23807931072E+04  0.23375145599E+04 0.  0.
        3    1    3    3  502    0  0.10783758303E+04  0.25041727652E+02 -0.68424331646E+03  0.12773842201E+04  0.10100000352E+00 0. -1.
       -3    1    3    3    0  502 -0.10783758303E+04 -0.25041727652E+02  0.23235671369E+03  0.11034088871E+04  0.10100000352E+00 0.  1.
</event>
<event>
 5   0  0.1168435E-05  0.2402992E+04  0.7818609E-02  0.8438384E-01
        2   -1    0    0  501    0  0.00000000000E+00  0.00000000000E+00  0.11006332401E+04  0.11006332401E+04  0.25500000920E-02 0.  1.
       -2   -1    0    0    0  501  0.00000000000E+00  0.00000000000E+00 -0.13116021111E+04  0.13116021111E+04  0.25500000920E-02 0. -1.
    10030    2    1    2    0    0  0.00000000000E+00  0.00000000000E+00 -0.21096887109E+03  0.24122353512E+04  0.24029922024E+04 0.  0.
        1    1    3    3  502    0  0.38058023501E+03  0.23801948334E+03  0.10132971213E+04  0.11082714675E+04  0.50400001928E-02 0.  1.
       -1    1    3    3    0  502 -0.38058023501E+03 -0.23801948334E+03 -0.12242659924E+04  0.13039638837E+04  0.50400001928E-02 0. -1.
</event>
<event>
 5   0  0.5064437E-06  0.2394253E+04  0.7818609E-02  0.8441658E-01
        1   -1    0    0  501    0  0.00000000000E+00  0.00000000000E+00  0.77355415040E+03  0.77355415041E+03  0.50400001928E-02 0. -1.
       -1   -1    0    0    0  501  0.00000000000E+00  0.00000000000E+00 -0.18526327444E+04  0.18526327444E+04  0.50400001928E-02 0.  1.
    10030    2    1    2    0    0  0.00000000000E+00  0.00000000000E+00 -0.10790785940E+04  0.26261868948E+04  0.23942529094E+04 0.  0.
        2    1    3    3  502    0 -0.49222581034E+03  0.18182376310E+03 -0.17197673421E+04  0.17980394434E+04  0.25500000920E-02 0.  1.
       -2    1    3    3    0  502  0.49222581034E+03 -0.18182376310E+03  0.64068874813E+03  0.82814745135E+03  0.25500000920E-02 0. -1.
</event>
<event>
 5   0  0.5042742E-06  0.2392106E+04  0.7818609E-02  0.8442465E-01
        1   -1    0    0  501    0  0.00000000000E+00  0.00000000000E+00  0.14363851238E+04  0.14363851238E+04  0.50400001928E-02 0. -1.
       -1   -1    0    0    0  501  0.00000000000E+00  0.00000000000E+00 -0.99593267388E+03  0.99593267389E+03  0.50400001928E-02 0.  1.
    10030    2    1    2    0    0  0.00000000000E+00  0.00000000000E+00  0.44045244987E+03  0.24323177977E+04  0.23921060821E+04 0.  0.
        5    1    3    3  502    0  0.11685213839E+03  0.11286088860E+04  0.60488209573E+03  0.12858137033E+04  0.46999998093E+01 0. -1.
       -5    1    3    3    0  502 -0.11685213839E+03 -0.11286088860E+04 -0.16442964585E+03  0.11465040943E+04  0.46999998093E+01 0.  1.
</event>
<event>
 5   0  0.5196696E-06  0.2445595E+04  0.7818609E-02  0.8422628E-01
       -1   -1    0    0    0  501  0.00000000000E+00  0.00000000000E+00  0.12633522338E+04  0.12633522339E+04  0.50400001928E-02 0.  1.
        1   -1    0    0  501    0  0.00000000000E+00  0.00000000000E+00 -0.11835447581E+04  0.11835447581E+04  0.50400001928E-02 0. -1.
    10030    2    1    2    0    0  0.00000000000E+00  0.00000000000E+00  0.79807475748E+02  0.24468969920E+04  0.24455951538E+04 0.  0.
        1    1    3    3  502    0  0.34712605523E+03  0.83483985816E+03  0.86361582957E+03  0.12503145157E+04  0.50400001928E-02 0.  1.
       -1    1    3    3    0  502 -0.34712605523E+03 -0.83483985816E+03 -0.78380835383E+03  0.11965824763E+04  0.50400001928E-02 0. -1.
</event>
<event>
 5   0  0.1198313E-05  0.2389500E+04  0.7818609E-02  0.8443445E-01
       -2   -1    0    0    0  501  0.00000000000E+00  0.00000000000E+00  0.89157303216E+03  0.89157303216E+03  0.25500000920E-02 0.  1.
        2   -1    0    0  501    0  0.00000000000E+00  0.00000000000E+00 -0.16010214121E+04  0.16010214121E+04  0.25500000920E-02 0. -1.
    10030    2    1    2    0    0  0.00000000000E+00  0.00000000000E+00 -0.70944837992E+03  0.24925944442E+04  0.23894999602E+04 0.  0.
        5    1    3    3  502    0  0.11052295466E+04 -0.28485265925E+02  0.11765073240E+03  0.11118487064E+04  0.46999998093E+01 0.  1.
       -5    1    3    3    0  502 -0.11052295466E+04  0.28485265925E+02 -0.82709911232E+03  0.13807457379E+04  0.46999998093E+01 0. -1.
</event>
<event>
 5   0  0.1174210E-05  0.2398313E+04  0.7818609E-02  0.8440135E-01
       -2   -1    0    0    0  501  0.00000000000E+00  0.00000000000E+00  0.80291232421E+03  0.80291232422E+03  0.25500000920E-02 0.  1.
        2   -1    0    0  501    0  0.00000000000E+00  0.00000000000E+00 -0.17909503905E+04  0.17909503905E+04  0.25500000920E-02 0. -1.
    10030    2    1    2    0    0  0.00000000000E+00  0.00000000000E+00 -0.98803806628E+03  0.25938627147E+04  0.23983128575E+04 0.  0.
        3    1    3    3  502    0 -0.10912831188E+04 -0.49678229310E+03 -0.47577218748E+03  0.12899808823E+04  0.10100000352E+00 0.  1.
       -3    1    3    3    0  502  0.10912831188E+04  0.49678229310E+03 -0.51226587880E+03  0.13038818324E+04  0.10100000352E+00 0. -1.
</event>
<event>
 5   0  0.1154897E-05  0.2396782E+04  0.7818609E-02  0.8440709E-01
        2   -1    0    0  501    0  0.00000000000E+00  0.00000000000E+00  0.13736924702E+04  0.13736924702E+04  0.25500000920E-02 0.  1.
       -2   -1    0    0    0  501  0.00000000000E+00  0.00000000000E+00 -0.10454600794E+04  0.10454600794E+04  0.25500000920E-02 0. -1.
    10030    2    1    2    0    0  0.00000000000E+00  0.00000000000E+00  0.32823239080E+03  0.24191525496E+04  0.23967817080E+04 0.  0.
        4    1    3    3  502    0  0.59627048715E+03  0.10334053130E+03 -0.87990828927E+03  0.10679222676E+04  0.12699999809E+01 0. -1.
       -4    1    3    3    0  502 -0.59627048715E+03 -0.10334053130E+03  0.12081406801E+04  0.13512302820E+04  0.12699999809E+01 0.  1.
</event>
<event>
 5   0  0.1174210E-05  0.2399019E+04  0.7818609E-02  0.8439871E-01
        2   -1    0    0  501    0  0.00000000000E+00  0.00000000000E+00  0.72945247080E+03  0.72945247081E+03  0.25500000920E-02 0.  1.
       -2   -1    0    0    0  501  0.00000000000E+00  0.00000000000E+00 -0.19724699031E+04  0.19724699031E+04  0.25500000920E-02 0. -1.
    10030    2    1    2    0    0  0.00000000000E+00  0.00000000000E+00 -0.12430174323E+04  0.27019223739E+04  0.23990190032E+04 0.  0.
        3    1    3    3  502    0  0.84504989497E+03  0.11325301207E+03  0.32875654328E+03  0.91379234221E+03  0.10100000352E+00 0.  1.
       -3    1    3    3    0  502 -0.84504989497E+03 -0.11325301207E+03 -0.15717739756E+04  0.17881300317E+04  0.10100000352E+00 0. -1.
</event>
<event>
 5   0  0.5042742E-06  0.2404405E+04  0.7818609E-02  0.8437856E-01
        1   -1    0    0  501    0  0.00000000000E+00  0.00000000000E+00  0.18363958593E+04  0.18363958593E+04  0.50400001928E-02 0. -1.
       -1   -1    0    0    0  501  0.00000000000E+00  0.00000000000E+00 -0.78702559810E+03  0.78702559812E+03  0.50400001928E-02 0.  1.
    10030    2    1    2    0    0  0.00000000000E+00  0.00000000000E+00  0.10493702612E+04  0.26234214574E+04  0.24044047492E+04 0.  0.
        5    1    3    3  502    0 -0.73981126349E+03 -0.94523148559E+03  0.45161312320E+03  0.12824818790E+04  0.46999998093E+01 0. -1.
       -5    1    3    3    0  502  0.73981126349E+03  0.94523148559E+03  0.59775713800E+03  0.13409395784E+04  0.46999998093E+01 0.  1.
</event>
<event>
 5   0  0.5034479E-06  0.2397803E+04  0.7818609E-02  0.8440327E-01
       -1   -1    0    0    0  501  0.00000000000E+00  0.00000000000E+00  0.99982840941E+03  0.99982840942E+03  0.50400001928E-02 0. -1.
        1   -1    0    0  501    0  0.00000000000E+00  0.00000000000E+00 -0.14376112914E+04  0.14376112915E+04  0.50400001928E-02 0.  1.
    10030    2    1    2    0    0  0.00000000000E+00  0.00000000000E+00 -0.43778288204E+03  0.24374397009E+04  0.23978028367E+04 0.  0.
        4    1    3    3  502    0  0.11447679327E+04 -0.26705616097E+03  0.20695944409E+02  0.11756881167E+04  0.12699999809E+01 0.  1.
       -4    1    3    3    0  502 -0.11447679327E+04  0.26705616097E+03 -0.45847882645E+03  0.12617515841E+04  0.12699999809E+01 0. -1.
</event>
<event>
 5   0  0.5042742E-06  0.2445710E+04  0.7818609E-02  0.8422586E-01
       -1   -1    0    0    0  501  0.00000000000E+00  0.00000000000E+00  0.70747098301E+03  0.70747098302E+03  0.50400001928E-02 0. -1.
        1   -1    0    0  501    0  0.00000000000E+00  0.00000000000E+00 -0.21136905464E+04  0.21136905465E+04  0.50400001928E-02 0.  1.
    10030    2    1    2    0    0  0.00000000000E+00  0.00000000000E+00 -0.14062195634E+04  0.28211615295E+04  0.24457103088E+04 0.  0.
        5    1    3    3  502    0  0.83860394068E+03  0.86259061099E+03 -0.45029929313E+03  0.12845663373E+04  0.46999998093E+01 0. -1.
       -5    1    3    3    0  502 -0.83860394068E+03 -0.86259061099E+03 -0.95592027031E+03  0.15365951922E+04  0.46999998093E+01 0.  1.
</event>
<event>
 5   0  0.5034479E-06  0.2400812E+04  0.7818609E-02  0.8439200E-01
       -1   -1    0    0    0  501  0.00000000000E+00  0.00000000000E+00  0.14844181119E+04  0.14844181119E+04  0.50400001928E-02 0.  1.
        1   -1    0    0  501    0  0.00000000000E+00  0.00000000000E+00 -0.97073361318E+03  0.97073361319E+03  0.50400001928E-02 0. -1.
    10030    2    1    2    0    0  0.00000000000E+00  0.00000000000E+00  0.51368449869E+03  0.24551517251E+04  0.24008119937E+04 0.  0.
        4    1    3    3  502    0 -0.62309969220E+03 -0.10138764623E+04  0.41780312611E+03  0.12612532546E+04  0.12699999809E+01 0.  1.
       -4    1    3    3    0  502  0.62309969220E+03  0.10138764623E+04  0.95881372573E+02  0.11938984704E+04  0.12699999809E+01 0. -1.
</event>
<event>
 5   0  0.1174210E-05  0.2399809E+04  0.7818609E-02  0.8439575E-01
        2   -1    0    0  501    0  0.00000000000E+00  0.00000000000E+00  0.10378268289E+04  0.10378268289E+04  0.25500000920E-02 0. -1.
       -2   -1    0    0    0  501  0.00000000000E+00  0.00000000000E+00 -0.13872943396E+04  0.13872943396E+04  0.25500000920E-02 0.  1.
    10030    2    1    2    0    0  0.00000000000E+00  0.00000000000E+00 -0.34946751068E+03  0.24251211685E+04  0.23998093968E+04 0.  0.
        3    1    3    3  502    0  0.61592126531E+03  0.33268632651E+03  0.81008712153E+03  0.10706448298E+04  0.10100000352E+00 0. -1.
       -3    1    3    3    0  502 -0.61592126531E+03 -0.33268632651E+03 -0.11595546322E+04  0.13544763387E+04  0.10100000352E+00 0.  1.
</event>
<event>
 5   0  0.5104174E-06  0.2394777E+04  0.7818609E-02  0.8441462E-01
        1   -1    0    0  501    0  0.00000000000E+00  0.00000000000E+00  0.12120391098E+04  0.12120391098E+04  0.50400001928E-02 0.  1.
       -1   -1    0    0    0  501  0.00000000000E+00  0.00000000000E+00 -0.11829149542E+04  0.11829149542E+04  0.50400001928E-02 0. -1.
    10030    2    1    2    0    0  0.00000000000E+00  0.00000000000E+00  0.29124155555E+02  0.23949540640E+04  0.23947769734E+04 0.  0.
        3    1    3    3  502    0  0.31225747229E+03 -0.79087492174E+03 -0.82856094359E+03  0.11872241230E+04  0.10100000352E+00 0. -1.
       -3    1    3    3    0  502 -0.31225747229E+03  0.79087492174E+03  0.85768509915E+03  0.12077299410E+04  0.10100000352E+00 0.  1.
</event>
<event>
 5   0  0.1198313E-05  0.2401926E+04  0.7818609E-02  0.8438783E-01
       -2   -1    0    0    0  501  0.00000000000E+00  0.00000000000E+00  0.59418712646E+03  0.59418712647E+03  0.25500000920E-02 0.  1.
        2   -1    0    0  501    0  0.00000000000E+00  0.00000000000E+00 -0.24273695664E+04  0.24273695664E+04  0.25500000920E-02 0. -1.
    10030    2    1    2    0    0  0.00000000000E+00  0.00000000000E+00 -0.18331824399E+04  0.30215566929E+04  0.24019256837E+04 0.  0.
        5    1    3    3  502    0 -0.51221594344E+03 -0.16270231805E+03 -0.22676399927E+04  0.23304614229E+04  0.46999998093E+01 0. -1.
       -5    1    3    3    0  502  0.51221594344E+03  0.16270231805E+03  0.43445755279E+03  0.69109526998E+03  0.46999998093E+01 0.  1.
</event>
<event>
 5   0  0.1174210E-05  0.2402260E+04  0.7818609E-02  0.8438658E-01
       -2   -1    0    0    0  501  0.00000000000E+00  0.00000000000E+00  0.45333301522E+03  0.45333301522E+03  0.25500000920E-02 0.  1.
        2   -1    0    0  501    0  0.00000000000E+00  0.00000000000E+00 -0.31824580407E+04  0.31824580407E+04  0.25500000920E-02 0. -1.
    10030    2    1    2    0    0  0.00000000000E+00  0.00000000000E+00 -0.27291250255E+04  0.36357910559E+04  0.24022600187E+04 0.  0.
        3    1    3    3  502    0  0.59010089193E+03  0.33714709177E+03  0.13434522968E+03  0.69277404331E+03  0.10100000352E+00 0.  1.
       -3    1    3    3    0  502 -0.59010089193E+03 -0.33714709177E+03 -0.28634702552E+04  0.29430170126E+04  0.10100000352E+00 0. -1.
</event>
<event>
 5   0  0.5104174E-06  0.2405034E+04  0.7818609E-02  0.8437621E-01
        1   -1    0    0  501    0  0.00000000000E+00  0.00000000000E+00  0.76253665753E+03  0.76253665755E+03  0.50400001928E-02 0.  1.
       -1   -1    0    0    0  501  0.00000000000E+00  0.00000000000E+00 -0.18963643566E+04  0.18963643566E+04  0.50400001928E-02 0. -1.
    10030    2    1    2    0    0  0.00000000000E+00  0.00000000000E+00 -0.11338276990E+04  0.26589010141E+04  0.24050341685E+04 0.  0.
        3    1    3    3  502    0 -0.45821630138E+03 -0.53894044245E+02  0.66079180882E+03  0.80592342791E+03  0.10100000352E+00 0.  1.
       -3    1    3    3    0  502  0.45821630138E+03  0.53894044245E+02 -0.17946195079E+04  0.18529775862E+04  0.10100000352E+00 0. -1.
</event>
<event>
 5   0  0.1154897E-05  0.2398076E+04  0.7818609E-02  0.8440224E-01
       -2   -1    0    0    0  501  0.00000000000E+00  0.00000000000E+00  0.92742404986E+03  0.92742404986E+03  0.25500000920E-02 0. -1.
        2   -1    0    0  501    0  0.00000000000E+00  0.00000000000E+00 -0.15501992302E+04  0.15501992302E+04  0.25500000920E-02 0.  1.
    10030    2    1    2    0    0  0.00000000000E+00  0.00000000000E+00 -0.62277518031E+03  0.24776232800E+04  0.23980759355E+04 0.  0.
        4    1    3    3  502    0  0.68424783541E+03 -0.85215036094E+02 -0.13248616351E+04  0.14935583911E+04  0.12699999809E+01 0.  1.
       -4    1    3    3    0  502 -0.68424783541E+03  0.85215036094E+02  0.70208645480E+03  0.98406488890E+03  0.12699999809E+01 0. -1.
</event>
<event>
 5   0  0.1198313E-05  0.2379531E+04  0.7818609E-02  0.8447207E-01
       -2   -1    0    0    0  501  0.00000000000E+00  0.00000000000E+00  0.85467438432E+03  0.85467438432E+03  0.25500000920E-02 0. -1.
        2   -1    0    0  501    0  0.00000000000E+00  0.00000000000E+00 -0.16562355713E+04  0.16562355713E+04  0.25500000920E-02 0.  1.
    10030    2    1    2    0    0  0.00000000000E+00  0.00000000000E+00 -0.80156118700E+03  0.25109099556E+04  0.23795311447E+04 0.  0.
        5    1    3    3  502    0  0.56419060717E+03 -0.10474675861E+04 -0.40557479371E+03  0.12569854368E+04  0.46999998093E+01 0. -1.
       -5    1    3    3    0  502 -0.56419060717E+03  0.10474675861E+04 -0.39598639329E+03  0.12539245188E+04  0.46999998093E+01 0.  1.
</event>
<event>
 5   0  0.5064437E-06  0.2392457E+04  0.7818609E-02  0.8442333E-01
        1   -1    0    0  501    0  0.00000000000E+00  0.00000000000E+00  0.10553737929E+04  0.10553737929E+04  0.50400001928E-02 0.  1.
       -1   -1    0    0    0  501  0.00000000000E+00  0.00000000000E+00 -0.13558818612E+04  0.13558818612E+04  0.50400001928E-02 0. -1.
    10030    2    1    2    0    0  0.00000000000E+00  0.00000000000E+00 -0.30050806827E+03  0.24112556542E+04  0.23924566309E+04 0.  0.
        2    1    3    3  502    0 -0.36338485719E+03  0.11848414343E+03  0.99217609371E+03  0.10632499460E+04  0.25500000920E-02 0.  1.
       -2    1    3    3    0  502  0.36338485719E+03 -0.11848414343E+03 -0.12926841620E+04  0.13480057082E+04  0.25500000920E-02 0. -1.
</event>
<event>
 5   0  0.5034479E-06  0.2385103E+04  0.7818609E-02  0.8445102E-01
        1   -1    0    0  501    0  0.00000000000E+00  0.00000000000E+00  0.13432164177E+04  0.13432164177E+04  0.50400001928E-02 0. -1.
       -1   -1    0    0    0  501  0.00000000000E+00  0.00000000000E+00 -0.10587864785E+04  0.10587864785E+04  0.50400001928E-02 0.  1.
    10030    2    1    2    0    0  0.00000000000E+00  0.00000000000E+00  0.28442993925E+03  0.24020028962E+04  0.23851032521E+04 0.  0.
        4    1    3    3  502    0  0.44103717256E+03 -0.68815450915E+03  0.10167615169E+04  0.13045597001E+04  0.12699999809E+01 0. -1.
       -4    1    3    3    0  502 -0.44103717256E+03  0.68815450915E+03 -0.73233157767E+03  0.10974431961E+04  0.12699999809E+01 0.  1.
</event>
<event>
 5   0  0.5104174E-06  0.2384505E+04  0.7818609E-02  0.8445327E-01
        1   -1    0    0  501    0  0.00000000000E+00  0.00000000000E+00  0.17247005418E+04  0.17247005418E+04  0.50400001928E-02 0.  1.
       -1   -1    0    0    0  501  0.00000000000E+00  0.00000000000E+00 -0.82418154729E+03  0.82418154730E+03  0.50400001928E-02 0. -1.
    10030    2    1    2    0    0  0.00000000000E+00  0.00000000000E+00  0.90051899452E+03  0.25488820891E+04  0.23845052830E+04 0.  0.
        3    1    3    3  502    0  0.88007041361E+03 -0.43547311607E+03 -0.27260135996E+03  0.10190546008E+04  0.10100000352E+00 0. -1.
       -3    1    3    3    0  502 -0.88007041361E+03  0.43547311607E+03  0.11731203545E+04  0.15298274883E+04  0.10100000352E+00 0.  1.
</event>
<event>
 5   0  0.5042742E-06  0.2396328E+04  0.7818609E-02  0.8440880E-01
        1   -1    0    0  501    0  0.00000000000E+00  0.00000000000E+00  0.12467580430E+04  0.12467580430E+04  0.50400001928E-02 0.  1.
       -1   -1    0    0    0  501  0.00000000000E+00  0.00000000000E+00 -0.11514636776E+04  0.11514636776E+04  0.50400001928E-02 0. -1.
    10030    2    1    2    0    0  0.00000000000E+00  0.00000000000E+00  0.95294365375E+02  0.23982217206E+04  0.23963276915E+04 0.  0.
        5    1    3    3  502    0 -0.77169672918E+03  0.53264206325E+03  0.79412619521E+03  0.12287725230E+04  0.46999998093E+01 0.  1.
       -5    1    3    3    0  502  0.77169672918E+03 -0.53264206325E+03 -0.69883182983E+03  0.11694491976E+04  0.46999998093E+01 0. -1.
</event>
<event>
 5   0  0.1168435E-05  0.2429749E+04  0.7818609E-02  0.8428449E-01
       -2   -1    0    0    0  501  0.00000000000E+00  0.00000000000E+00  0.59841611160E+03  0.59841611161E+03  0.25500000920E-02 0. -1.
        2   -1    0    0  501    0  0.00000000000E+00  0.00000000000E+00 -0.24663774949E+04  0.24663774949E+04  0.25500000920E-02 0.  1.
    10030    2    1    2    0    0  0.00000000000E+00  0.00000000000E+00 -0.18679613833E+04  0.30647936065E+04  0.24297489831E+04 0.  0.
        1    1    3    3  502    0 -0.26759374501E+02  0.11771383325E+04 -0.13114407054E+04  0.17624549474E+04  0.50400001928E-02 0.  1.
       -1    1    3    3    0  502  0.26759374501E+02 -0.11771383325E+04 -0.55652067790E+03  0.13023386591E+04  0.50400001928E-02 0. -1.
</event>
<event>
 5   0  0.5196696E-06  0.2391210E+04  0.7818609E-02  0.8442802E-01
        1   -1    0    0  501    0  0.00000000000E+00  0.00000000000E+00  0.12985198894E+04  0.12985198895E+04  0.50400001928E-02 0.  1.
       -1   -1    0    0    0  501  0.00000000000E+00  0.00000000000E+00 -0.11008462544E+04  0.11008462544E+04  0.50400001928E-02 0. -1.
    10030    2    1    2    0    0  0.00000000000E+00  0.00000000000E+00  0.19767363509E+03  0.23993661438E+04  0.23912095320E+04 0.  0.
        1    1    3    3  502    0 -0.36787764178E+03 -0.79120499762E+03  0.91901809340E+03  0.12672543405E+04  0.50400001928E-02 0.  1.
       -1    1    3    3    0  502  0.36787764178E+03  0.79120499762E+03 -0.72134445830E+03  0.11321118033E+04  0.50400001928E-02 0. -1.
</event>
<event>
 5   0  0.1168435E-05  0.2407484E+04  0.7818609E-02  0.8436707E-01
       -2   -1    0    0    0  501  0.00000000000E+00  0.00000000000E+00  0.96401320591E+03  0.96401320591E+03  0.25500000920E-02 0.  1.
        2   -1    0    0  501    0  0.00000000000E+00  0.00000000000E+00 -0.15030858260E+04  0.15030858260E+04  0.25500000920E-02 0. -1.
    10030    2    1    2    0    0  0.00000000000E+00  0.00000000000E+00 -0.53907262005E+03  0.24670990319E+04  0.24074838200E+04 0.  0.
        1    1    3    3  502    0  0.27259632394E+03  0.10634153983E+04  0.23648628618E+03  0.11229812237E+04  0.50400001928E-02 0. -1.
       -1    1    3    3    0  502 -0.27259632394E+03 -0.10634153983E+04 -0.77555890623E+03  0.13441178082E+04  0.50400001928E-02 0.  1.
</event>
<event>
 5   0  0.5104174E-06  0.2397229E+04  0.7818609E-02  0.8440542E-01
        1   -1    0    0  501    0  0.00000000000E+00  0.00000000000E+00  0.90704095862E+03  0.90704095864E+03  0.50400001928E-02 0.  1.
       -1   -1    0    0    0  501  0.00000000000E+00  0.00000000000E+00 -0.15839158468E+04  0.15839158468E+04  0.50400001928E-02 0. -1.
    10030    2    1    2    0    0  0.00000000000E+00  0.00000000000E+00 -0.67687488813E+03  0.24909568054E+04  0.23972288569E+04 0.  0.
        3    1    3    3  502    0  0.50038501144E+03  0.67399314554E+03 -0.12274738447E+04  0.14870588319E+04  0.10100000352E+00 0. -1.
       -3    1    3    3    0  502 -0.50038501144E+03 -0.67399314554E+03  0.55059895661E+03  0.10038979735E+04  0.10100000352E+00 0.  1.
</event>
<event>
 5   0  0.5064437E-06  0.2408556E+04  0.7818609E-02  0.8436307E-01
        1   -1    0    0  501    0  0.00000000000E+00  0.00000000000E+00  0.89110035909E+03  0.89110035910E+03  0.50400001928E-02 0. -1.
       -1   -1    0    0    0  501  0.00000000000E+00  0.00000000000E+00 -0.16275214799E+04  0.16275214799E+04  0.50400001928E-02 0.  1.
    10030    2    1    2    0    0  0.00000000000E+00  0.00000000000E+00 -0.73642112084E+03  0.25186218390E+04  0.24085555632E+04 0.  0.
        2    1    3    3  502    0 -0.17127987980E+03  0.86365511466E+03  0.49094860893E+03  0.10081009329E+04  0.25500000920E-02 0. -1.
       -2    1    3    3    0  502  0.17127987980E+03 -0.86365511466E+03 -0.12273697298E+04  0.15105209061E+04  0.25500000920E-02 0.  1.
</event>
<event>
 5   0  0.5042742E-06  0.2397541E+04  0.7818609E-02  0.8440425E-01
        1   -1    0    0  501    0  0.00000000000E+00  0.00000000000E+00  0.18908232765E+04  0.18908232765E+04  0.50400001928E-02 0. -1.
       -1   -1    0    0    0  501  0.00000000000E+00  0.00000000000E+00 -0.76001346753E+03  0.76001346755E+03  0.50400001928E-02 0.  1.
    10030    2    1    2    0    0  0.00000000000E+00  0.00000000000E+00  0.11308098090E+04  0.26508367441E+04  0.23975413697E+04 0.  0.
        5    1    3    3  502    0 -0.10671279826E+03 -0.59330777235E+03  0.17110329886E+04  0.18141272591E+04  0.46999998093E+01 0. -1.
       -5    1    3    3    0  502  0.10671279826E+03  0.59330777235E+03 -0.58022317964E+03  0.83670948497E+03  0.46999998093E+01 0.  1.
</event>
<event>
 5   0  0.1198313E-05  0.2396185E+04  0.7818609E-02  0.8440933E-01
       -2   -1    0    0    0  501  0.00000000000E+00  0.00000000000E+00  0.81761629310E+03  0.81761629310E+03  0.25500000920E-02 0. -1.
        2   -1    0    0  501    0  0.00000000000E+00  0.00000000000E+00 -0.17556222747E+04  0.17556222747E+04  0.25500000920E-02 0.  1.
    10030    2    1    2    0    0  0.00000000000E+00  0.00000000000E+00 -0.93800598161E+03  0.25732385678E+04  0.23961847811E+04 0.  0.
        5    1    3    3  502    0  0.26858429870E+03  0.11544431657E+04 -0.28137399853E+03  0.12182241031E+04  0.46999998093E+01 0. -1.
       -5    1    3    3    0  502 -0.26858429870E+03 -0.11544431657E+04 -0.65663198308E+03  0.13550144647E+04  0.46999998093E+01 0.  1.
</event>
<event>
 5   0  0.1198313E-05  0.2394009E+04  0.7818609E-02  0.8441750E-01
       -2   -1    0    0    0  501  0.00000000000E+00  0.00000000000E+00  0.14192394359E+04  0.14192394359E+04  0.25500000920E-02 0. -1.
        2   -1    0    0  501    0  0.00000000000E+00  0.00000000000E+00 -0.10095686352E+04  0.10095686352E+04  0.25500000920E-02 0.  1.
    10030    2    1    2    0    0  0.00000000000E+00  0.00000000000E+00  0.40967080068E+03  0.24288080712E+04  0.23940088725E+04 0.  0.
        5    1    3    3  502    0  0.95470313755E+03 -0.71555244654E+03  0.10687016854E+03  0.11978800890E+04  0.46999998093E+01 0.  1.
       -5    1    3    3    0  502 -0.95470313755E+03  0.71555244654E+03  0.30280063214E+03  0.12309279822E+04  0.46999998093E+01 0. -1.
</event>
<event>
 5   0  0.1198313E-05  0.2385584E+04  0.7818609E-02  0.8444920E-01
        2   -1    0    0  501    0  0.00000000000E+00  0.00000000000E+00  0.20044960818E+04  0.20044960818E+04  0.25500000920E-02 0. -1.
       -2   -1    0    0    0  501  0.00000000000E+00  0.00000000000E+00 -0.70978089192E+03  0.70978089192E+03  0.25500000920E-02 0.  1.
    10030    2    1    2    0    0  0.00000000000E+00  0.00000000000E+00  0.12947151899E+04  0.27142769737E+04  0.23855842193E+04 0.  0.
        5    1    3    3  502    0  0.14696480337E+02  0.10192853968E+04  0.13520230512E+04  0.16932652266E+04  0.46999998093E+01 0. -1.
       -5    1    3    3    0  502 -0.14696480337E+02 -0.10192853968E+04 -0.57307861293E+02  0.10210117471E+04  0.46999998093E+01 0.  1.
</event>
<event>
 5   0  0.5034479E-06  0.2422445E+04  0.7818609E-02  0.8431148E-01
        1   -1    0    0  501    0  0.00000000000E+00  0.00000000000E+00  0.76868319819E+03  0.76868319821E+03  0.50400001928E-02 0.  1.
       -1   -1    0    0    0  501  0.00000000000E+00  0.00000000000E+00 -0.19085364394E+04  0.19085364394E+04  0.50400001928E-02 0. -1.
    10030    2    1    2    0    0  0.00000000000E+00  0.00000000000E+00 -0.11398532412E+04  0.26772196376E+04  0.24224449584E+04 0.  0.
        4    1    3    3  502    0  0.76284527056E+03  0.16764105933E+03  0.45319209954E+03  0.90300671292E+03  0.12699999809E+01 0.  1.
       -4    1    3    3    0  502 -0.76284527056E+03 -0.16764105933E+03 -0.15930453408E+04  0.17742129247E+04  0.12699999809E+01 0. -1.
</event>
<event>
 5   0  0.1169371E-05  0.2398105E+04  0.7818609E-02  0.8440213E-01
        2   -1    0    0  501    0  0.00000000000E+00  0.00000000000E+00  0.19871017925E+04  0.19871017925E+04  0.25500000920E-02 0.  1.
       -2   -1    0    0    0  501  0.00000000000E+00  0.00000000000E+00 -0.72352969078E+03  0.72352969078E+03  0.25500000920E-02 0. -1.
    10030    2    1    2    0    0  0.00000000000E+00  0.00000000000E+00  0.12635721018E+04  0.27106314833E+04  0.23981052066E+04 0.  0.
        2    1    3    3  502    0  0.68959824128E+03 -0.40860168100E+03 -0.37618382463E+03  0.88544640607E+03  0.25500000920E-02 0. -1.
       -2    1    3    3    0  502 -0.68959824128E+03  0.40860168100E+03  0.16397559264E+04  0.18251850772E+04  0.25500000920E-02 0.  1.
</event>
<event>
 5   0  0.1174210E-05  0.2411915E+04  0.7818609E-02  0.8435056E-01
        2   -1    0    0  501    0  0.00000000000E+00  0.00000000000E+00  0.93464141660E+03  0.93464141660E+03  0.25500000920E-02 0. -1.
       -2   -1    0    0    0  501  0.00000000000E+00  0.00000000000E+00 -0.15560340080E+04  0.15560340080E+04  0.25500000920E-02 0.  1.
    10030    2    1    2    0    0  0.00000000000E+00  0.00000000000E+00 -0.62139259138E+03  0.24906754246E+04  0.24119152800E+04 0.  0.
        3    1    3    3  502    0 -0.71577589044E+02  0.39985848568E+03  0.86186637175E+03  0.95279788663E+03  0.10100000352E+00 0. -1.
       -3    1    3    3    0  502  0.71577589044E+02 -0.39985848568E+03 -0.14832589631E+04  0.15378775379E+04  0.10100000352E+00 0.  1.
</event>
<event>
 5   0  0.5196696E-06  0.2393503E+04  0.7818609E-02  0.8441940E-01
       -1   -1    0    0    0  501  0.00000000000E+00  0.00000000000E+00  0.14052586449E+04  0.14052586449E+04  0.50400001928E-02 0. -1.
        1   -1    0    0  501    0  0.00000000000E+00  0.00000000000E+00 -0.10191820193E+04  0.10191820193E+04  0.50400001928E-02 0.  1.
    10030    2    1    2    0    0  0.00000000000E+00  0.00000000000E+00  0.38607662555E+03  0.24244406642E+04  0.23935031593E+04 0.  0.
        1    1    3    3  502    0  0.85415184634E+03 -0.88582992725E+02 -0.65127758257E+03  0.10777684412E+04  0.50400001928E-02 0.  1.
       -1    1    3    3    0  502 -0.85415184634E+03  0.88582992725E+02  0.10373542081E+04  0.13466722230E+04  0.50400001928E-02 0. -1.
</event>
<event>
 5   0  0.1174210E-05  0.2399447E+04  0.7818609E-02  0.8439711E-01
        2   -1    0    0  501    0  0.00000000000E+00  0.00000000000E+00  0.21441638280E+04  0.21441638280E+04  0.25500000920E-02 0. -1.
       -2   -1    0    0    0  501  0.00000000000E+00  0.00000000000E+00 -0.67128099454E+03  0.67128099454E+03  0.25500000920E-02 0.  1.
    10030    2    1    2    0    0  0.00000000000E+00  0.00000000000E+00  0.14728828334E+04  0.28154448225E+04  0.23994469587E+04 0.  0.
        3    1    3    3  502    0  0.59958257760E+03 -0.12935591892E+03  0.19462698372E+04  0.20406367904E+04  0.10100000352E+00 0. -1.
       -3    1    3    3    0  502 -0.59958257760E+03  0.12935591892E+03 -0.47338700372E+03  0.77480803211E+03  0.10100000352E+00 0.  1.
</event>
<event>
 5   0  0.5034479E-06  0.2418276E+04  0.7818609E-02  0.8432693E-01
        1   -1    0    0  501    0  0.00000000000E+00  0.00000000000E+00  0.12642164935E+04  0.12642164936E+04  0.50400001928E-02 0. -1.
       -1   -1    0    0    0  501  0.00000000000E+00  0.00000000000E+00 -0.11564594584E+04  0.11564594584E+04  0.50400001928E-02 0.  1.
    10030    2    1    2    0    0  0.00000000000E+00  0.00000000000E+00  0.10775703518E+03  0.24206759519E+04  0.24182763460E+04 0.  0.
        4    1    3    3  502    0 -0.10120927045E+04 -0.50909304905E+03 -0.36904058248E+03  0.11915116195E+04  0.12699999809E+01 0.  1.
       -4    1    3    3    0  502  0.10120927045E+04  0.50909304905E+03  0.47679761766E+03  0.12291643324E+04  0.12699999809E+01 0. -1.
</event>
<event>
 5   0  0.1198313E-05  0.2397956E+04  0.7818609E-02  0.8440269E-01
       -2   -1    0    0    0  501  0.00000000000E+00  0.00000000000E+00  0.83009884244E+03  0.83009884244E+03  0.25500000920E-02 0.  1.
        2   -1    0    0  501    0  0.00000000000E+00  0.00000000000E+00 -0.17317801431E+04  0.17317801431E+04  0.25500000920E-02 0. -1.
    10030    2    1    2    0    0  0.00000000000E+00  0.00000000000E+00 -0.90168130063E+03  0.25618789855E+04  0.23979563734E+04 0.  0.
        5    1    3    3  502    0  0.91524934055E+03 -0.72835871871E+03 -0.73216386303E+03  0.13799542713E+04  0.46999998093E+01 0. -1.
       -5    1    3    3    0  502 -0.91524934055E+03  0.72835871871E+03 -0.16951743760E+03  0.11819247142E+04  0.46999998093E+01 0.  1.
</event>
<event>
 5   0  0.5104174E-06  0.2395179E+04  0.7818609E-02  0.8441311E-01
        1   -1    0    0  501    0  0.00000000000E+00  0.00000000000E+00  0.16478305416E+04  0.16478305416E+04  0.50400001928E-02 0. -1.
       -1   -1    0    0    0  501  0.00000000000E+00  0.00000000000E+00 -0.87036906832E+03  0.87036906833E+03  0.50400001928E-02 0.  1.
    10030    2    1    2    0    0  0.00000000000E+00  0.00000000000E+00  0.77746147326E+03  0.25181996099E+04  0.23951791025E+04 0.  0.
        3    1    3    3  502    0  0.59126976165E+03  0.85624029617E+03 -0.23457102901E+03  0.10666634679E+04  0.10100000352E+00 0.  1.
       -3    1    3    3    0  502 -0.59126976165E+03 -0.85624029617E+03  0.10120325023E+04  0.14515361420E+04  0.10100000352E+00 0. -1.
</event>
<event>
 5   0  0.1169371E-05  0.2393332E+04  0.7818609E-02  0.8442004E-01
       -2   -1    0    0    0  501  0.00000000000E+00  0.00000000000E+00  0.95404766999E+03  0.95404767000E+03  0.25500000920E-02 0. -1.
        2   -1    0    0  501    0  0.00000000000E+00  0.00000000000E+00 -0.15009837218E+04  0.15009837218E+04  0.25500000920E-02 0.  1.
    10030    2    1    2    0    0  0.00000000000E+00  0.00000000000E+00 -0.54693605181E+03  0.24550313918E+04  0.23933324236E+04 0.  0.
        2    1    3    3  502    0 -0.10977665379E+04 -0.20405498611E+03 -0.71500649380E+03  0.13258823837E+04  0.25500000920E-02 0.  1.
       -2    1    3    3    0  502  0.10977665379E+04  0.20405498611E+03  0.16807044199E+03  0.11291490081E+04  0.25500000920E-02 0. -1.
</event>
<event>
 5   0  0.5042742E-06  0.2353557E+04  0.7818609E-02  0.8457099E-01
       -1   -1    0    0    0  501  0.00000000000E+00  0.00000000000E+00  0.12535241213E+04  0.12535241213E+04  0.50400001928E-02 0. -1.
        1   -1    0    0  501    0  0.00000000000E+00  0.00000000000E+00 -0.11047311762E+04  0.11047311763E+04  0.50400001928E-02 0.  1.
    10030    2    1    2    0    0  0.00000000000E+00  0.00000000000E+00  0.14879294509E+03  0.23582552976E+04  0.23535566082E+04 0.  0.
        5    1    3    3  502    0 -0.82485314994E+03  0.14116143628E+03 -0.75458576406E+03  0.11268234269E+04  0.46999998093E+01 0.  1.
       -5    1    3    3    0  502  0.82485314994E+03 -0.14116143628E+03  0.90337870915E+03  0.12314318707E+04  0.46999998093E+01 0. -1.
</event>
<event>
 5   0  0.5064437E-06  0.2399901E+04  0.7818609E-02  0.8439541E-01
       -1   -1    0    0    0  501  0.00000000000E+00  0.00000000000E+00  0.95122014734E+03  0.95122014735E+03  0.50400001928E-02 0.  1.
        1   -1    0    0  501    0  0.00000000000E+00  0.00000000000E+00 -0.15137206020E+04  0.15137206020E+04  0.50400001928E-02 0. -1.
    10030    2    1    2    0    0  0.00000000000E+00  0.00000000000E+00 -0.56250045466E+03  0.24649407494E+04  0.23999012764E+04 0.  0.
        2    1    3    3  502    0  0.86168818261E+03 -0.36472988816E+03 -0.10528396470E+04  0.14085473856E+04  0.25500000920E-02 0. -1.
       -2    1    3    3    0  502 -0.86168818261E+03  0.36472988816E+03  0.49033919231E+03  0.10563933637E+04  0.25500000920E-02 0.  1.
</event>
<event>
 5   0  0.5042742E-06  0.2403786E+04  0.7818609E-02  0.8438087E-01
       -1   -1    0    0    0  501  0.00000000000E+00  0.00000000000E+00  0.16602529142E+04  0.16602529142E+04  0.50400001928E-02 0. -1.
        1   -1    0    0  501    0  0.00000000000E+00  0.00000000000E+00 -0.87007653138E+03  0.87007653140E+03  0.50400001928E-02 0.  1.
    10030    2    1    2    0    0  0.00000000000E+00  0.00000000000E+00  0.79017638282E+03  0.25303294456E+04  0.24037862607E+04 0.  0.
        5    1    3    3  502    0 -0.28414709587E+03 -0.86318498783E+03 -0.43289260674E+03  0.10066012092E+04  0.46999998093E+01 0.  1.
       -5    1    3    3    0  502  0.28414709587E+03  0.86318498783E+03  0.12230689896E+04  0.15237282364E+04  0.46999998093E+01 0. -1.
</event>
<event>
 5   0  0.1198313E-05  0.2410961E+04  0.7818609E-02  0.8435411E-01
       -2   -1    0    0    0  501  0.00000000000E+00  0.00000000000E+00  0.89888094158E+03  0.89888094158E+03  0.25500000920E-02 0. -1.
        2   -1    0    0  501    0  0.00000000000E+00  0.00000000000E+00 -0.16166581168E+04  0.16166581168E+04  0.25500000920E-02 0.  1.
    10030    2    1    2    0    0  0.00000000000E+00  0.00000000000E+00 -0.71777717524E+03  0.25155390584E+04  0.24109609456E+04 0.  0.
        5    1    3    3  502    0 -0.35890737053E+03 -0.19804500744E+03  0.82391745389E+03  0.92027082232E+03  0.46999998093E+01 0. -1.
       -5    1    3    3    0  502  0.35890737053E+03  0.19804500744E+03 -0.15416946291E+04  0.15952682361E+04  0.46999998093E+01 0.  1.
</event>
<event>
 5   0  0.5042742E-06  0.2393459E+04  0.7818609E-02  0.8441957E-01
        1   -1    0    0  501    0  0.00000000000E+00  0.00000000000E+00  0.72757876189E+03  0.72757876191E+03  0.50400001928E-02 0. -1.
       -1   -1    0    0    0  501  0.00000000000E+00  0.00000000000E+00 -0.19683933859E+04  0.19683933859E+04  0.50400001928E-02 0.  1.
    10030    2    1    2    0    0  0.00000000000E+00  0.00000000000E+00 -0.12408146240E+04  0.26959721478E+04  0.23934587715E+04 0.  0.
        5    1    3    3  502    0 -0.58190817834E+02 -0.10275855436E+04 -0.13081715383E+04  0.16645278863E+04  0.46999998093E+01 0.  1.
       -5    1    3    3    0  502  0.58190817834E+02  0.10275855436E+04  0.67356914273E+02  0.10314442615E+04  0.46999998093E+01 0. -1.
</event>
<event>
 5   0  0.1168435E-05  0.2404149E+04  0.7818609E-02  0.8437952E-01
        2   -1    0    0  501    0  0.00000000000E+00  0.00000000000E+00  0.12651631104E+04  0.12651631104E+04  0.25500000920E-02 0. -1.
       -2   -1    0    0    0  501  0.00000000000E+00  0.00000000000E+00 -0.11421319667E+04  0.11421319667E+04  0.25500000920E-02 0.  1.
    10030    2    1    2    0    0  0.00000000000E+00  0.00000000000E+00  0.12303114371E+03  0.24072950771E+04  0.24041491065E+04 0.  0.
        1    1    3    3  502    0 -0.42298265857E+03 -0.56298898256E+03 -0.91398320899E+03  0.11537921088E+04  0.50400001928E-02 0.  1.
       -1    1    3    3    0  502  0.42298265857E+03  0.56298898256E+03  0.10370143527E+04  0.12535029684E+04  0.50400001928E-02 0. -1.
</event>
<event>
 5   0  0.1198313E-05  0.2402371E+04  0.7818609E-02  0.8438616E-01
        2   -1    0    0  501    0  0.00000000000E+00  0.00000000000E+00  0.12795983780E+04  0.12795983780E+04  0.25500000920E-02 0. -1.
       -2   -1    0    0    0  501  0.00000000000E+00  0.00000000000E+00 -0.11275777878E+04  0.11275777878E+04  0.25500000920E-02 0.  1.
    10030    2    1    2    0    0  0.00000000000E+00  0.00000000000E+00  0.15202059021E+03  0.24071761659E+04  0.24023710858E+04 0.  0.
        5    1    3    3  502    0 -0.54993611035E+03  0.76883404221E+03  0.81863309097E+03  0.12504870002E+04  0.46999998093E+01 0. -1.
       -5    1    3    3    0  502  0.54993611035E+03 -0.76883404221E+03 -0.66661250075E+03  0.11566891657E+04  0.46999998093E+01 0.  1.
</event>
<event>
 5   0  0.1198313E-05  0.2384510E+04  0.7818609E-02  0.8445326E-01
        2   -1    0    0  501    0  0.00000000000E+00  0.00000000000E+00  0.61182335704E+03  0.61182335704E+03  0.25500000920E-02 0.  1.
       -2   -1    0    0    0  501  0.00000000000E+00  0.00000000000E+00 -0.23233366275E+04  0.23233366275E+04  0.25500000920E-02 0. -1.
    10030    2    1    2    0    0  0.00000000000E+00  0.00000000000E+00 -0.17115132704E+04  0.29351599845E+04  0.23845096896E+04 0.  0.
        5    1    3    3  502    0  0.50640329189E+03  0.25133981874E+03  0.43632715435E+03  0.71415647735E+03  0.46999998093E+01 0.  1.
       -5    1    3    3    0  502 -0.50640329189E+03 -0.25133981874E+03 -0.21478404248E+04  0.22210035072E+04  0.46999998093E+01 0. -1.
</event>
<event>
 5   0  0.5042742E-06  0.2407077E+04  0.7818609E-02  0.8436859E-01
       -1   -1    0    0    0  501  0.00000000000E+00  0.00000000000E+00  0.78446203333E+03  0.78446203335E+03  0.50400001928E-02 0. -1.
        1   -1    0    0  501    0  0.00000000000E+00  0.00000000000E+00 -0.18464953490E+04  0.18464953490E+04  0.50400001928E-02 0.  1.
    10030    2    1    2    0    0  0.00000000000E+00  0.00000000000E+00 -0.10620333157E+04  0.26309573824E+04  0.24070774778E+04 0.  0.
        5    1    3    3  502    0  0.18827328081E+03  0.10805743492E+03 -0.18249104478E+04  0.18377822150E+04  0.46999998093E+01 0.  1.
       -5    1    3    3    0  502 -0.18827328081E+03 -0.10805743492E+03  0.76287713206E+03  0.79317516737E+03  0.46999998093E+01 0. -1.
</event>
<event>
 5   0  0.5042742E-06  0.2407713E+04  0.7818609E-02  0.8436622E-01
        1   -1    0    0  501    0  0.00000000000E+00  0.00000000000E+00  0.11934518346E+04  0.11934518346E+04  0.50400001928E-02 0. -1.
       -1   -1    0    0    0  501  0.00000000000E+00  0.00000000000E+00 -0.12143518321E+04  0.12143518321E+04  0.50400001928E-02 0.  1.
    10030    2    1    2    0    0  0.00000000000E+00  0.00000000000E+00 -0.20899997432E+02  0.24078036667E+04  0.24077129579E+04 0.  0.
        5    1    3    3  502    0  0.30070746941E+03  0.15695478016E+03 -0.11655643124E+04  0.12139283511E+04  0.46999998093E+01 0.  1.
       -5    1    3    3    0  502 -0.30070746941E+03 -0.15695478016E+03  0.11446643150E+04  0.11938753156E+04  0.46999998093E+01 0. -1.
</event>
<event>
 5   0  0.1198313E-05  0.2399936E+04  0.7818609E-02  0.8439527E-01
       -2   -1    0    0    0  501  0.00000000000E+00  0.00000000000E+00  0.15154005258E+04  0.15154005258E+04  0.25500000920E-02 0. -1.
        2   -1    0    0  501    0  0.00000000000E+00  0.00000000000E+00 -0.95019341062E+03  0.95019341062E+03  0.25500000920E-02 0.  1.
    10030    2    1    2    0    0  0.00000000000E+00  0.00000000000E+00  0.56520711521E+03  0.24655939365E+04  0.23999363276E+04 0.  0.
        5    1    3    3  502    0  0.10749390743E+04  0.28096634973E+02  0.82973135749E+03  0.13582192938E+04  0.46999998093E+01 0. -1.
       -5    1    3    3    0  502 -0.10749390743E+04 -0.28096634973E+02 -0.26452424228E+03  0.11073746427E+04  0.46999998093E+01 0.  1.
</event>
<event>
 5   0  0.5034479E-06  0.2397887E+04  0.7818609E-02  0.8440295E-01
        1   -1    0    0  501    0  0.00000000000E+00  0.00000000000E+00  0.78058435099E+03  0.78058435101E+03  0.50400001928E-02 0.  1.
       -1   -1    0    0    0  501  0.00000000000E+00  0.00000000000E+00 -0.18415253242E+04  0.18415253242E+04  0.50400001928E-02 0. -1.
    10030    2    1    2    0    0  0.00000000000E+00  0.00000000000E+00 -0.10609409732E+04  0.26221096752E+04  0.23978872784E+04 0.  0.
        4    1    3    3  502    0  0.27581189685E+03  0.49935259424E+02 -0.18051928344E+04  0.18268247083E+04  0.12699999809E+01 0. -1.
       -4    1    3    3    0  502 -0.27581189685E+03 -0.49935259424E+02  0.74425186127E+03  0.79528496684E+03  0.12699999809E+01 0.  1.
</event>
<event>
 5   0  0.1168435E-05  0.2396663E+04  0.7818609E-02  0.8440754E-01
       -2   -1    0    0    0  501  0.00000000000E+00  0.00000000000E+00  0.58112370181E+03  0.58112370182E+03  0.25500000920E-02 0.  1.
        2   -1    0    0  501    0  0.00000000000E+00  0.00000000000E+00 -0.24710711151E+04  0.24710711151E+04  0.25500000920E-02 0. -1.
    10030    2    1    2    0    0  0.00000000000E+00  0.00000000000E+00 -0.18899474133E+04  0.30521948169E+04  0.23966626745E+04 0.  0.
        1    1    3    3  502    0 -0.33616656294E+03 -0.11079710792E+04 -0.13383036809E+04  0.17696509862E+04  0.50400001928E-02 0. -1.
       -1    1    3    3    0  502  0.33616656294E+03  0.11079710792E+04 -0.55164373236E+03  0.12825438308E+04  0.50400001928E-02 0.  1.
</event>
<event>
 5   0  0.5042742E-06  0.2399901E+04  0.7818609E-02  0.8439541E-01
        1   -1    0    0  501    0  0.00000000000E+00  0.00000000000E+00  0.19624841103E+04  0.19624841103E+04  0.50400001928E-02 0. -1.
       -1   -1    0    0    0  501  0.00000000000E+00  0.00000000000E+00 -0.73370340415E+03  0.73370340417E+03  0.50400001928E-02 0.  1.
    10030    2    1    2    0    0  0.00000000000E+00  0.00000000000E+00  0.12287807061E+04  0.26961875144E+04  0.23999010582E+04 0.  0.
        5    1    3    3  502    0 -0.50390104379E+03  0.10293679882E+04  0.10137230459E+04  0.15300886317E+04  0.46999998093E+01 0. -1.
       -5    1    3    3    0  502  0.50390104379E+03 -0.10293679882E+04  0.21505766024E+03  0.11660988827E+04  0.46999998093E+01 0.  1.
</event>
<event>
 5   0  0.5196696E-06  0.2401309E+04  0.7818609E-02  0.8439013E-01
       -1   -1    0    0    0  501  0.00000000000E+00  0.00000000000E+00  0.15627775592E+04  0.15627775592E+04  0.50400001928E-02 0.  1.
        1   -1    0    0  501    0  0.00000000000E+00  0.00000000000E+00 -0.92244208490E+03  0.92244208492E+03  0.50400001928E-02 0. -1.
    10030    2    1    2    0    0  0.00000000000E+00  0.00000000000E+00  0.64033547425E+03  0.24852196441E+04  0.24013094677E+04 0.  0.
        1    1    3    3  502    0  0.46557486051E+02 -0.54415025865E+02 -0.92022973579E+03  0.92301211325E+03  0.50400001928E-02 0. -1.
       -1    1    3    3    0  502 -0.46557486051E+02  0.54415025865E+02  0.15605652100E+04  0.15622075308E+04  0.50400001928E-02 0.  1.
</event>
<event>
 5   0  0.5196696E-06  0.2398201E+04  0.7818609E-02  0.8440177E-01
        1   -1    0    0  501    0  0.00000000000E+00  0.00000000000E+00  0.78531327032E+03  0.78531327034E+03  0.50400001928E-02 0.  1.
       -1   -1    0    0    0  501  0.00000000000E+00  0.00000000000E+00 -0.18309148232E+04  0.18309148232E+04  0.50400001928E-02 0. -1.
    10030    2    1    2    0    0  0.00000000000E+00  0.00000000000E+00 -0.10456015529E+04  0.26162280936E+04  0.23982007485E+04 0.  0.
        1    1    3    3  502    0 -0.41238609147E+03  0.30890622783E+03  0.65838958072E+03  0.83603958402E+03  0.50400001928E-02 0.  1.
       -1    1    3    3    0  502  0.41238609147E+03 -0.30890622783E+03 -0.17039911336E+04  0.17801885096E+04  0.50400001928E-02 0. -1.
</event>
<event>
 5   0  0.5034479E-06  0.2406264E+04  0.7818609E-02  0.8437162E-01
       -1   -1    0    0    0  501  0.00000000000E+00  0.00000000000E+00  0.71607227548E+03  0.71607227550E+03  0.50400001928E-02 0.  1.
        1   -1    0    0  501    0  0.00000000000E+00  0.00000000000E+00 -0.20214805475E+04  0.20214805475E+04  0.50400001928E-02 0. -1.
    10030    2    1    2    0    0  0.00000000000E+00  0.00000000000E+00 -0.13054082720E+04  0.27375528230E+04  0.24062636394E+04 0.  0.
        4    1    3    3  502    0 -0.10546227715E+04  0.56475848901E+03 -0.50726270682E+03  0.12994223362E+04  0.12699999809E+01 0. -1.
       -4    1    3    3    0  502  0.10546227715E+04 -0.56475848901E+03 -0.79814556519E+03  0.14381304869E+04  0.12699999809E+01 0.  1.
</event>
<event>
 5   0  0.1154897E-05  0.2400986E+04  0.7818609E-02  0.8439135E-01
        2   -1    0    0  501    0  0.00000000000E+00  0.00000000000E+00  0.49962608653E+03  0.49962608653E+03  0.25500000920E-02 0.  1.
       -2   -1    0    0    0  501  0.00000000000E+00  0.00000000000E+00 -0.28845239214E+04  0.28845239214E+04  0.25500000920E-02 0. -1.
    10030    2    1    2    0    0  0.00000000000E+00  0.00000000000E+00 -0.23848978349E+04  0.33841500079E+04  0.24009859628E+04 0.  0.
        4    1    3    3  502    0  0.10104465404E+04 -0.55415786849E+03 -0.16664392224E+04  0.20261082026E+04  0.12699999809E+01 0. -1.
       -4    1    3    3    0  502 -0.10104465404E+04  0.55415786849E+03 -0.71845861252E+03  0.13580418053E+04  0.12699999809E+01 0.  1.
</event>
<event>
 5   0  0.1168435E-05  0.2401995E+04  0.7818609E-02  0.8438757E-01
       -2   -1    0    0    0  501  0.00000000000E+00  0.00000000000E+00  0.52001518501E+03  0.52001518502E+03  0.25500000920E-02 0. -1.
        2   -1    0    0  501    0  0.00000000000E+00  0.00000000000E+00 -0.27737565791E+04  0.27737565791E+04  0.25500000920E-02 0.  1.
    10030    2    1    2    0    0  0.00000000000E+00  0.00000000000E+00 -0.22537413941E+04  0.32937717641E+04  0.24019954543E+04 0.  0.
        1    1    3    3  502    0  0.10102740033E+04 -0.64935513636E+03 -0.11146144951E+04  0.16384996575E+04  0.50400001928E-02 0. -1.
       -1    1    3    3    0  502 -0.10102740033E+04  0.64935513636E+03 -0.11391268990E+04  0.16552721066E+04  0.50400001928E-02 0.  1.
</event>
<event>
 5   0  0.5034479E-06  0.2398782E+04  0.7818609E-02  0.8439960E-01
        1   -1    0    0  501    0  0.00000000000E+00  0.00000000000E+00  0.17183500483E+04  0.17183500483E+04  0.50400001928E-02 0.  1.
       -1   -1    0    0    0  501  0.00000000000E+00  0.00000000000E+00 -0.83716249705E+03  0.83716249707E+03  0.50400001928E-02 0. -1.
    10030    2    1    2    0    0  0.00000000000E+00  0.00000000000E+00  0.88118755122E+03  0.25555125454E+04  0.23987815384E+04 0.  0.
        4    1    3    3  502    0 -0.63949970286E+03  0.79615499175E+03  0.11107530115E+04  0.15088394568E+04  0.12699999809E+01 0.  1.
       -4    1    3    3    0  502  0.63949970286E+03 -0.79615499175E+03 -0.22956546032E+03  0.10466730886E+04  0.12699999809E+01 0. -1.
</event>
<event>
 5   0  0.1198313E-05  0.2389175E+04  0.7818609E-02  0.8443567E-01
       -2   -1    0    0    0  501  0.00000000000E+00  0.00000000000E+00  0.60813327031E+03  0.60813327032E+03  0.25500000920E-02 0. -1.
        2   -1    0    0  501    0  0.00000000000E+00  0.00000000000E+00 -0.23465894988E+04  0.23465894988E+04  0.25500000920E-02 0.  1.
    10030    2    1    2    0    0  0.00000000000E+00  0.00000000000E+00 -0.17384562285E+04  0.29547227691E+04  0.23891748751E+04 0.  0.
        5    1    3    3  502    0  0.63146909461E+03  0.58481206420E+02 -0.21212088204E+04  0.22139833375E+04  0.46999998093E+01 0.  1.
       -5    1    3    3    0  502 -0.63146909461E+03 -0.58481206420E+02  0.38275259191E+03  0.74073943163E+03  0.46999998093E+01 0. -1.
</event>
<event>
 5   0  0.1174210E-05  0.2378712E+04  0.7818609E-02  0.8447517E-01
       -2   -1    0    0    0  501  0.00000000000E+00  0.00000000000E+00  0.12131892081E+04  0.12131892081E+04  0.25500000920E-02 0. -1.
        2   -1    0    0  501    0  0.00000000000E+00  0.00000000000E+00 -0.11659914133E+04  0.11659914133E+04  0.25500000920E-02 0.  1.
    10030    2    1    2    0    0  0.00000000000E+00  0.00000000000E+00  0.47197794834E+02  0.23791806214E+04  0.23787124243E+04 0.  0.
        3    1    3    3  502    0  0.71613530033E+02  0.70624392241E+03  0.97807138794E+03  0.12085249794E+04  0.10100000352E+00 0. -1.
       -3    1    3    3    0  502 -0.71613530033E+02 -0.70624392241E+03 -0.93087359311E+03  0.11706556420E+04  0.10100000352E+00 0.  1.
</event>
<event>
 5   0  0.1154897E-05  0.2408054E+04  0.7818609E-02  0.8436495E-01
       -2   -1    0    0    0  501  0.00000000000E+00  0.00000000000E+00  0.10724944947E+04  0.10724944947E+04  0.25500000920E-02 0.  1.
        2   -1    0    0  501    0  0.00000000000E+00  0.00000000000E+00 -0.13516904150E+04  0.13516904150E+04  0.25500000920E-02 0. -1.
    10030    2    1    2    0    0  0.00000000000E+00  0.00000000000E+00 -0.27919592032E+03  0.24241849097E+04  0.24080535946E+04 0.  0.
        4    1    3    3  502    0  0.90635131355E+03 -0.25349101277E+03 -0.89559365967E+03  0.12991612730E+04  0.12699999809E+01 0. -1.
       -4    1    3    3    0  502 -0.90635131355E+03  0.25349101277E+03  0.61639773935E+03  0.11250236367E+04  0.12699999809E+01 0.  1.
</event>
<event>
 5   0  0.1169371E-05  0.2397022E+04  0.7818609E-02  0.8440619E-01
       -2   -1    0    0    0  501  0.00000000000E+00  0.00000000000E+00  0.12159066918E+04  0.12159066918E+04  0.25500000920E-02 0.  1.
        2   -1    0    0  501    0  0.00000000000E+00  0.00000000000E+00 -0.11813638201E+04  0.11813638201E+04  0.25500000920E-02 0. -1.
    10030    2    1    2    0    0  0.00000000000E+00  0.00000000000E+00  0.34542871738E+02  0.23972705119E+04  0.23970216306E+04 0.  0.
        2    1    3    3  502    0  0.58632170202E+03 -0.88067394967E+03  0.58041819823E+03  0.12067497788E+04  0.25500000920E-02 0.  1.
       -2    1    3    3    0  502 -0.58632170202E+03  0.88067394967E+03 -0.54587532649E+03  0.11905207331E+04  0.25500000920E-02 0. -1.
</event>
<event>
 5   0  0.1169371E-05  0.2390371E+04  0.7818609E-02  0.8443117E-01
        2   -1    0    0  501    0  0.00000000000E+00  0.00000000000E+00  0.12863352275E+04  0.12863352275E+04  0.25500000920E-02 0.  1.
       -2   -1    0    0    0  501  0.00000000000E+00  0.00000000000E+00 -0.11104947559E+04  0.11104947559E+04  0.25500000920E-02 0. -1.
    10030    2    1    2    0    0  0.00000000000E+00  0.00000000000E+00  0.17584047165E+03  0.23968299834E+04  0.23903711214E+04 0.  0.
        2    1    3    3  502    0 -0.55280642258E+03 -0.60374598366E+03 -0.78527399172E+03  0.11343541756E+04  0.25500000920E-02 0. -1.
       -2    1    3    3    0  502  0.55280642258E+03  0.60374598366E+03  0.96111446337E+03  0.12624758078E+04  0.25500000920E-02 0.  1.
</event>
<event>
 5   0  0.1169371E-05  0.2404807E+04  0.7818609E-02  0.8437706E-01
        2   -1    0    0  501    0  0.00000000000E+00  0.00000000000E+00  0.12568987283E+04  0.12568987283E+04  0.25500000920E-02 0.  1.
       -2   -1    0    0    0  501  0.00000000000E+00  0.00000000000E+00 -0.11502713744E+04  0.11502713744E+04  0.25500000920E-02 0. -1.
    10030    2    1    2    0    0  0.00000000000E+00  0.00000000000E+00  0.10662735390E+03  0.24071701028E+04  0.24048073750E+04 0.  0.
        2    1    3    3  502    0  0.85518780839E+03  0.67612942614E+03 -0.45440990801E+03  0.11810950652E+04  0.25500000920E-02 0. -1.
       -2    1    3    3    0  502 -0.85518780839E+03 -0.67612942614E+03  0.56103726191E+03  0.12260750376E+04  0.25500000920E-02 0.  1.
</event>
<event>
 5   0  0.1174210E-05  0.2398897E+04  0.7818609E-02  0.8439917E-01
       -2   -1    0    0    0  501  0.00000000000E+00  0.00000000000E+00  0.78121420366E+03  0.78121420366E+03  0.25500000920E-02 0.  1.
        2   -1    0    0  501    0  0.00000000000E+00  0.00000000000E+00 -0.18415904577E+04  0.18415904577E+04  0.25500000920E-02 0. -1.
    10030    2    1    2    0    0  0.00000000000E+00  0.00000000000E+00 -0.10603762540E+04  0.26228046613E+04  0.23988969322E+04 0.  0.
        3    1    3    3  502    0 -0.69258549380E+03 -0.32081505803E+03  0.48141798177E+03  0.90241911054E+03  0.10100000352E+00 0.  1.
       -3    1    3    3    0  502  0.69258549380E+03  0.32081505803E+03 -0.15417942358E+04  0.17203855508E+04  0.10100000352E+00 0. -1.
</event>
<event>
 5   0  0.1154897E-05  0.2436568E+04  0.7818609E-02  0.8425938E-01
       -2   -1    0    0    0  501  0.00000000000E+00  0.00000000000E+00  0.10078826717E+04  0.10078826717E+04  0.25500000920E-02 0.  1.
        2   -1    0    0  501    0  0.00000000000E+00  0.00000000000E+00 -0.14726080657E+04  0.14726080657E+04  0.25500000920E-02 0. -1.
    10030    2    1    2    0    0  0.00000000000E+00  0.00000000000E+00 -0.46472539397E+03  0.24804907374E+04  0.24365682028E+04 0.  0.
        4    1    3    3  502    0 -0.11351293139E+04  0.30566265033E+03  0.93193044636E+02  0.11792517847E+04  0.12699999809E+01 0. -1.
       -4    1    3    3    0  502  0.11351293139E+04 -0.30566265033E+03 -0.55791843861E+03  0.13012389528E+04  0.12699999809E+01 0.  1.
</event>
<event>
 5   0  0.1168435E-05  0.2393254E+04  0.7818609E-02  0.8442034E-01
        2   -1    0    0  501    0  0.00000000000E+00  0.00000000000E+00  0.28298037701E+04  0.28298037701E+04  0.25500000920E-02 0.  1.
       -2   -1    0    0    0  501  0.00000000000E+00  0.00000000000E+00 -0.50601232604E+03  0.50601232605E+03  0.25500000920E-02 0. -1.
    10030    2    1    2    0    0  0.00000000000E+00  0.00000000000E+00  0.23237914440E+04  0.33358160961E+04  0.23932535076E+04 0.  0.
        1    1    3    3  502    0  0.65395824659E+03  0.94921188698E+03  0.71401691272E+03  0.13559073517E+04  0.50400001928E-02 0. -1.
       -1    1    3    3    0  502 -0.65395824659E+03 -0.94921188698E+03  0.16097745313E+04  0.19799087445E+04  0.50400001928E-02 0.  1.
</event>
<event>
 5   0  0.5196696E-06  0.2399961E+04  0.7818609E-02  0.8439518E-01
        1   -1    0    0  501    0  0.00000000000E+00  0.00000000000E+00  0.12139944485E+04  0.12139944486E+04  0.50400001928E-02 0.  1.
       -1   -1    0    0    0  501  0.00000000000E+00  0.00000000000E+00 -0.11861280570E+04  0.11861280570E+04  0.50400001928E-02 0. -1.
    10030    2    1    2    0    0  0.00000000000E+00  0.00000000000E+00  0.27866391516E+02  0.24001225056E+04  0.23999607301E+04 0.  0.
        1    1    3    3  502    0 -0.29370949288E+03  0.44036019449E+03 -0.10630658150E+04  0.11875568594E+04  0.50400001928E-02 0. -1.
       -1    1    3    3    0  502  0.29370949288E+03 -0.44036019449E+03  0.10909322066E+04  0.12125656462E+04  0.50400001928E-02 0.  1.
</event>
<event>
 5   0  0.5104174E-06  0.2409433E+04  0.7818609E-02  0.8435980E-01
        1   -1    0    0  501    0  0.00000000000E+00  0.00000000000E+00  0.11587828778E+04  0.11587828778E+04  0.50400001928E-02 0.  1.
       -1   -1    0    0    0  501  0.00000000000E+00  0.00000000000E+00 -0.12524713317E+04  0.12524713317E+04  0.50400001928E-02 0. -1.
    10030    2    1    2    0    0  0.00000000000E+00  0.00000000000E+00 -0.93688453874E+02  0.24112542095E+04  0.24094334057E+04 0.  0.
        3    1    3    3  502    0  0.10941306666E+04  0.51389182141E+02 -0.54880034090E+03  0.12251304371E+04  0.10100000352E+00 0. -1.
       -3    1    3    3    0  502 -0.10941306666E+04 -0.51389182141E+02  0.45511188703E+03  0.11861237724E+04  0.10100000352E+00 0.  1.
</event>
<event>
 5   0  0.5196696E-06  0.2391504E+04  0.7818609E-02  0.8442691E-01
       -1   -1    0    0    0  501  0.00000000000E+00  0.00000000000E+00  0.14509089782E+04  0.14509089783E+04  0.50400001928E-02 0. -1.
        1   -1    0    0  501    0  0.00000000000E+00  0.00000000000E+00 -0.98546718506E+03  0.98546718507E+03  0.50400001928E-02 0.  1.
    10030    2    1    2    0    0  0.00000000000E+00  0.00000000000E+00  0.46544179318E+03  0.24363761633E+04  0.23915042853E+04 0.  0.
        1    1    3    3  502    0 -0.35531859292E+03 -0.56278882911E+03  0.12447585867E+04  0.14115263044E+04  0.50400001928E-02 0. -1.
       -1    1    3    3    0  502  0.35531859292E+03  0.56278882911E+03 -0.77931679356E+03  0.10248498590E+04  0.50400001928E-02 0.  1.
</event>
<event>
 5   0  0.1154897E-05  0.2400767E+04  0.7818609E-02  0.8439217E-01
       -2   -1    0    0    0  501  0.00000000000E+00  0.00000000000E+00  0.88073689247E+03  0.88073689247E+03  0.25500000920E-02 0.  1.
        2   -1    0    0  501    0  0.00000000000E+00  0.00000000000E+00 -0.16360392154E+04  0.16360392154E+04  0.25500000920E-02 0. -1.
    10030    2    1    2    0    0  0.00000000000E+00  0.00000000000E+00 -0.75530232289E+03  0.25167761078E+04  0.24007666230E+04 0.  0.
        4    1    3    3  502    0 -0.69234994954E+03  0.68772534430E+03  0.35512797124E+03  0.10384758498E+04  0.12699999809E+01 0.  1.
       -4    1    3    3    0  502  0.69234994954E+03 -0.68772534430E+03 -0.11104302941E+04  0.14783002580E+04  0.12699999809E+01 0. -1.
</event>
<event>
 5   0  0.1169371E-05  0.2399849E+04  0.7818609E-02  0.8439560E-01
       -2   -1    0    0    0  501  0.00000000000E+00  0.00000000000E+00  0.77052108345E+03  0.77052108346E+03  0.25500000920E-02 0.  1.
        2   -1    0    0  501    0  0.00000000000E+00  0.00000000000E+00 -0.18686294487E+04  0.18686294487E+04  0.25500000920E-02 0. -1.
    10030    2    1    2    0    0  0.00000000000E+00  0.00000000000E+00 -0.10981083652E+04  0.26391505321E+04  0.23998486514E+04 0.  0.
        2    1    3    3  502    0  0.11781973673E+04  0.73925272397E+02 -0.78544031823E+03  0.14179317599E+04  0.25500000920E-02 0.  1.
       -2    1    3    3    0  502 -0.11781973673E+04 -0.73925272397E+02 -0.31266804700E+03  0.12212187723E+04  0.25500000920E-02 0. -1.
</event>
<event>
 5   0  0.1169371E-05  0.2397685E+04  0.7818609E-02  0.8440371E-01
       -2   -1    0    0    0  501  0.00000000000E+00  0.00000000000E+00  0.13465384375E+04  0.13465384375E+04  0.25500000920E-02 0. -1.
        2   -1    0    0  501    0  0.00000000000E+00  0.00000000000E+00 -0.10673471047E+04  0.10673471047E+04  0.25500000920E-02 0.  1.
    10030    2    1    2    0    0  0.00000000000E+00  0.00000000000E+00  0.27919133285E+03  0.24138855422E+04  0.23976854695E+04 0.  0.
        2    1    3    3  502    0  0.38989851729E+03 -0.37118056177E+03 -0.93882249076E+03  0.10822123324E+04  0.25500000920E-02 0.  1.
       -2    1    3    3    0  502 -0.38989851729E+03  0.37118056177E+03  0.12180138236E+04  0.13316732098E+04  0.25500000920E-02 0. -1.
</event>
<event>
 5   0  0.1168435E-05  0.2396845E+04  0.7818609E-02  0.8440686E-01
       -2   -1    0    0    0  501  0.00000000000E+00  0.00000000000E+00  0.88697594147E+03  0.88697594148E+03  0.25500000920E-02 0.  1.
        2   -1    0    0  501    0  0.00000000000E+00  0.00000000000E+00 -0.16192285333E+04  0.16192285333E+04  0.25500000920E-02 0. -1.
    10030    2    1    2    0    0  0.00000000000E+00  0.00000000000E+00 -0.73225259184E+03  0.25062044748E+04  0.23968452205E+04 0.  0.
        1    1    3    3  502    0 -0.12248849897E+03 -0.41232358213E+03  0.80348169719E+03  0.91137094891E+03  0.50400001928E-02 0.  1.
       -1    1    3    3    0  502  0.12248849897E+03  0.41232358213E+03 -0.15357342890E+04  0.15948335259E+04  0.50400001928E-02 0. -1.
</event>
<event>
 5   0  0.1198313E-05  0.2395275E+04  0.7818609E-02  0.8441275E-01
       -2   -1    0    0    0  501  0.00000000000E+00  0.00000000000E+00  0.88387022291E+03  0.88387022292E+03  0.25500000920E-02 0. -1.
        2   -1    0    0  501    0  0.00000000000E+00  0.00000000000E+00 -0.16227900352E+04  0.16227900352E+04  0.25500000920E-02 0.  1.
    10030    2    1    2    0    0  0.00000000000E+00  0.00000000000E+00 -0.73891981224E+03  0.25066602581E+04  0.23952751743E+04 0.  0.
        5    1    3    3  502    0 -0.10504768582E+04  0.45849914460E+03 -0.73286984381E+03  0.13604570530E+04  0.46999998093E+01 0.  1.
       -5    1    3    3    0  502  0.10504768582E+04 -0.45849914460E+03 -0.60499684381E+01  0.11462032051E+04  0.46999998093E+01 0. -1.
</event>
<event>
 5   0  0.5064437E-06  0.2404871E+04  0.7818609E-02  0.8437682E-01
        1   -1    0    0  501    0  0.00000000000E+00  0.00000000000E+00  0.12553271294E+04  0.12553271294E+04  0.50400001928E-02 0.  1.
       -1   -1    0    0    0  501  0.00000000000E+00  0.00000000000E+00 -0.11517726173E+04  0.11517726173E+04  0.50400001928E-02 0. -1.
    10030    2    1    2    0    0  0.00000000000E+00  0.00000000000E+00  0.10355451212E+03  0.24070997468E+04  0.24048712344E+04 0.  0.
        2    1    3    3  502    0 -0.46893835565E+03 -0.15870654037E+03  0.11485848531E+04  0.12507350288E+04  0.25500000920E-02 0.  1.
       -2    1    3    3    0  502  0.46893835565E+03  0.15870654037E+03 -0.10450303410E+04  0.11563647180E+04  0.25500000920E-02 0. -1.
</event>
<event>
 5   0  0.5104174E-06  0.2401234E+04  0.7818609E-02  0.8439042E-01
       -1   -1    0    0    0  501  0.00000000000E+00  0.00000000000E+00  0.95132716473E+03  0.95132716474E+03  0.50400001928E-02 0. -1.
        1   -1    0    0  501    0  0.00000000000E+00  0.00000000000E+00 -0.15152324098E+04  0.15152324098E+04  0.50400001928E-02 0.  1.
    10030    2    1    2    0    0  0.00000000000E+00  0.00000000000E+00 -0.56390524509E+03  0.24665595746E+04  0.24012344762E+04 0.  0.
        3    1    3    3  502    0 -0.11761623959E+04  0.92852220393E+02 -0.51049640055E+03  0.12855295024E+04  0.10100000352E+00 0.  1.
       -3    1    3    3    0  502  0.11761623959E+04 -0.92852220393E+02 -0.53408844547E+02  0.11810300721E+04  0.10100000352E+00 0. -1.
</event>
<event>
 5   0  0.5196696E-06  0.2396835E+04  0.7818609E-02  0.8440689E-01
        1   -1    0    0  501    0  0.00000000000E+00  0.00000000000E+00  0.11887407091E+04  0.11887407091E+04  0.50400001928E-02 0.  1.
       -1   -1    0    0    0  501  0.00000000000E+00  0.00000000000E+00 -0.12081729451E+04  0.12081729451E+04  0.50400001928E-02 0. -1.
    10030    2    1    2    0    0  0.00000000000E+00  0.00000000000E+00 -0.19432236018E+02  0.23969136542E+04  0.23968348825E+04 0.  0.
        1    1    3    3  502    0  0.29773697857E+03 -0.60310202975E+03 -0.10016282434E+04  0.12064984478E+04  0.50400001928E-02 0. -1.
       -1    1    3    3    0  502 -0.29773697857E+03  0.60310202975E+03  0.98219600734E+03  0.11904152064E+04  0.50400001928E-02 0.  1.
</event>
<event>
 5   0  0.5064437E-06  0.2392920E+04  0.7818609E-02  0.8442159E-01
       -1   -1    0    0    0  501  0.00000000000E+00  0.00000000000E+00  0.11636484897E+04  0.11636484897E+04  0.50400001928E-02 0.  1.
        1   -1    0    0  501    0  0.00000000000E+00  0.00000000000E+00 -0.12301968810E+04  0.12301968810E+04  0.50400001928E-02 0. -1.
    10030    2    1    2    0    0  0.00000000000E+00  0.00000000000E+00 -0.66548391303E+02  0.23938453708E+04  0.23929201764E+04 0.  0.
        2    1    3    3  502    0  0.16856262649E+03 -0.79618879817E+03  0.84409784076E+03  0.11725319297E+04  0.25500000920E-02 0.  1.
       -2    1    3    3    0  502 -0.16856262649E+03  0.79618879817E+03 -0.91064623206E+03  0.12213134411E+04  0.25500000920E-02 0. -1.
</event>
<event>
 5   0  0.1174210E-05  0.2389245E+04  0.7818609E-02  0.8443541E-01
       -2   -1    0    0    0  501  0.00000000000E+00  0.00000000000E+00  0.77436029031E+03  0.77436029032E+03  0.25500000920E-02 0.  1.
        2   -1    0    0  501    0  0.00000000000E+00  0.00000000000E+00 -0.18429704977E+04  0.18429704977E+04  0.25500000920E-02 0. -1.
    10030    2    1    2    0    0  0.00000000000E+00  0.00000000000E+00 -0.10686102074E+04  0.26173307880E+04  0.23892452111E+04 0.  0.
        3    1    3    3  502    0 -0.45947151825E+03 -0.52573208588E+03  0.52756850526E+03  0.87512104314E+03  0.10100000352E+00 0.  1.
       -3    1    3    3    0  502  0.45947151825E+03  0.52573208588E+03 -0.15961787127E+04  0.17422097449E+04  0.10100000352E+00 0. -1.
</event>
<event>
 5   0  0.5064437E-06  0.2391721E+04  0.7818609E-02  0.8442610E-01
       -1   -1    0    0    0  501  0.00000000000E+00  0.00000000000E+00  0.16889801556E+04  0.16889801556E+04  0.50400001928E-02 0.  1.
        1   -1    0    0  501    0  0.00000000000E+00  0.00000000000E+00 -0.84671359752E+03  0.84671359754E+03  0.50400001928E-02 0. -1.
    10030    2    1    2    0    0  0.00000000000E+00  0.00000000000E+00  0.84226655811E+03  0.25356937532E+04  0.23917211073E+04 0.  0.
        2    1    3    3  502    0  0.99274876096E+03 -0.18438006476E+02 -0.28546378228E+03  0.10331406649E+04  0.25500000920E-02 0. -1.
       -2    1    3    3    0  502 -0.99274876096E+03  0.18438006476E+02  0.11277303404E+04  0.15025530883E+04  0.25500000920E-02 0.  1.
</event>
<event>
 5   0  0.1198313E-05  0.2408602E+04  0.7818609E-02  0.8436290E-01
       -2   -1    0    0    0  501  0.00000000000E+00  0.00000000000E+00  0.79968400936E+03  0.79968400936E+03  0.25500000920E-02 0.  1.
        2   -1    0    0  501    0  0.00000000000E+00  0.00000000000E+00 -0.18136426368E+04  0.18136426368E+04  0.25500000920E-02 0. -1.
    10030    2    1    2    0    0  0.00000000000E+00  0.00000000000E+00 -0.10139586275E+04  0.26133266462E+04  0.24086020970E+04 0.  0.
        5    1    3    3  502    0  0.64102106174E+03 -0.20181465385E+02 -0.16129335830E+04  0.17357684541E+04  0.46999998093E+01 0. -1.
       -5    1    3    3    0  502 -0.64102106174E+03  0.20181465385E+02  0.59897495553E+03  0.87755819208E+03  0.46999998093E+01 0.  1.
</event>
<event>
 5   0  0.1154897E-05  0.2391237E+04  0.7818609E-02  0.8442791E-01
       -2   -1    0    0    0  501  0.00000000000E+00  0.00000000000E+00  0.18059751494E+04  0.18059751494E+04  0.25500000920E-02 0. -1.
        2   -1    0    0  501    0  0.00000000000E+00  0.00000000000E+00 -0.79154136823E+03  0.79154136824E+03  0.25500000920E-02 0.  1.
    10030    2    1    2    0    0  0.00000000000E+00  0.00000000000E+00  0.10144337812E+04  0.25975165176E+04  0.23912373707E+04 0.  0.
        4    1    3    3  502    0  0.23435043629E+03  0.56656560406E+03 -0.60777206583E+03  0.86331060899E+03  0.12699999809E+01 0.  1.
       -4    1    3    3    0  502 -0.23435043629E+03 -0.56656560406E+03  0.16222058470E+04  0.17342059087E+04  0.12699999809E+01 0. -1.
</event>
<event>
 5   0  0.5042742E-06  0.2422933E+04  0.7818609E-02  0.8430968E-01
        1   -1    0    0  501    0  0.00000000000E+00  0.00000000000E+00  0.22061391895E+04  0.22061391895E+04  0.50400001928E-02 0.  1.
       -1   -1    0    0    0  501  0.00000000000E+00  0.00000000000E+00 -0.66525743322E+03  0.66525743324E+03  0.50400001928E-02 0. -1.
    10030    2    1    2    0    0  0.00000000000E+00  0.00000000000E+00  0.15408817562E+04  0.28713966227E+04  0.24229325162E+04 0.  0.
        5    1    3    3  502    0 -0.36401613679E+03 -0.93119424443E+03  0.15811663828E+04  0.18707591210E+04  0.46999998093E+01 0.  1.
       -5    1    3    3    0  502  0.36401613679E+03  0.93119424443E+03 -0.40284626554E+02  0.10006375017E+04  0.46999998093E+01 0. -1.
</event>
<event>
 5   0  0.5104174E-06  0.2392807E+04  0.7818609E-02  0.8442201E-01
       -1   -1    0    0    0  501  0.00000000000E+00  0.00000000000E+00  0.13041923525E+04  0.13041923525E+04  0.50400001928E-02 0. -1.
        1   -1    0    0  501    0  0.00000000000E+00  0.00000000000E+00 -0.10975234730E+04  0.10975234730E+04  0.50400001928E-02 0.  1.
    10030    2    1    2    0    0  0.00000000000E+00  0.00000000000E+00  0.20666887951E+03  0.24017158255E+04  0.23928073221E+04 0.  0.
        3    1    3    3  502    0  0.63437220469E+03  0.70052318882E+03 -0.63303229464E+03  0.11374931773E+04  0.10100000352E+00 0.  1.
       -3    1    3    3    0  502 -0.63437220469E+03 -0.70052318882E+03  0.83970117415E+03  0.12642226482E+04  0.10100000352E+00 0. -1.
</event>
<event>
 5   0  0.5196696E-06  0.2385672E+04  0.7818609E-02  0.8444887E-01
        1   -1    0    0  501    0  0.00000000000E+00  0.00000000000E+00  0.19071521193E+04  0.19071521193E+04  0.50400001928E-02 0. -1.
       -1   -1    0    0    0  501  0.00000000000E+00  0.00000000000E+00 -0.74606378384E+03  0.74606378385E+03  0.50400001928E-02 0.  1.
    10030    2    1    2    0    0  0.00000000000E+00  0.00000000000E+00  0.11610883354E+04  0.26532159031E+04  0.23856715000E+04 0.  0.
        1    1    3    3  502    0 -0.29685617576E+03 -0.11050721273E+04  0.95530470796E+03  0.14906089631E+04  0.50400001928E-02 0. -1.
       -1    1    3    3    0  502  0.29685617576E+03  0.11050721273E+04  0.20578362748E+03  0.11626069401E+04  0.50400001928E-02 0.  1.
</event>
<event>
 5   0  0.5042742E-06  0.2393539E+04  0.7818609E-02  0.8441926E-01
       -1   -1    0    0    0  501  0.00000000000E+00  0.00000000000E+00  0.47120749577E+03  0.47120749580E+03  0.50400001928E-02 0. -1.
        1   -1    0    0  501    0  0.00000000000E+00  0.00000000000E+00 -0.30395477551E+04  0.30395477551E+04  0.50400001928E-02 0.  1.
    10030    2    1    2    0    0  0.00000000000E+00  0.00000000000E+00 -0.25683402593E+04  0.35107552509E+04  0.23935393759E+04 0.  0.
        5    1    3    3  502    0  0.87846250747E+03 -0.71707486464E+03 -0.72306305685E+03  0.13448921937E+04  0.46999998093E+01 0. -1.
       -5    1    3    3    0  502 -0.87846250747E+03  0.71707486464E+03 -0.18452772024E+04  0.21658630572E+04  0.46999998093E+01 0.  1.
</event>
<event>
 5   0  0.1169371E-05  0.2352581E+04  0.7818609E-02  0.8457473E-01
       -2   -1    0    0    0  501  0.00000000000E+00  0.00000000000E+00  0.72842243755E+03  0.72842243755E+03  0.25500000920E-02 0. -1.
        2   -1    0    0  501    0  0.00000000000E+00  0.00000000000E+00 -0.18995284113E+04  0.18995284113E+04  0.25500000920E-02 0.  1.
    10030    2    1    2    0    0  0.00000000000E+00  0.00000000000E+00 -0.11711059738E+04  0.26279508489E+04  0.23525808089E+04 0.  0.
        2    1    3    3  502    0  0.10781468408E+03  0.11707615207E+04 -0.54447087823E+03  0.12956678131E+04  0.25500000920E-02 0.  1.
       -2    1    3    3    0  502 -0.10781468408E+03 -0.11707615207E+04 -0.62663509557E+03  0.13322830358E+04  0.25500000920E-02 0. -1.
</event>
<event>
 5   0  0.5064437E-06  0.2467859E+04  0.7818609E-02  0.8414526E-01
       -1   -1    0    0    0  501  0.00000000000E+00  0.00000000000E+00  0.71272421000E+03  0.71272421002E+03  0.50400001928E-02 0.  1.
        1   -1    0    0  501    0  0.00000000000E+00  0.00000000000E+00 -0.21362853821E+04  0.21362853821E+04  0.50400001928E-02 0. -1.
    10030    2    1    2    0    0  0.00000000000E+00  0.00000000000E+00 -0.14235611721E+04  0.28490095922E+04  0.24678592434E+04 0.  0.
        2    1    3    3  502    0  0.59535668319E+03 -0.58877960251E+03  0.33455194040E+03  0.90168508992E+03  0.25500000920E-02 0.  1.
       -2    1    3    3    0  502 -0.59535668319E+03  0.58877960251E+03 -0.17581131125E+04  0.19473245022E+04  0.25500000920E-02 0. -1.
</event>
<event>
 5   0  0.1198313E-05  0.2394227E+04  0.7818609E-02  0.8441668E-01
        2   -1    0    0  501    0  0.00000000000E+00  0.00000000000E+00  0.19297172304E+04  0.19297172304E+04  0.25500000920E-02 0.  1.
       -2   -1    0    0    0  501  0.00000000000E+00  0.00000000000E+00 -0.74263777886E+03  0.74263777886E+03  0.25500000920E-02 0. -1.
    10030    2    1    2    0    0  0.00000000000E+00  0.00000000000E+00  0.11870794516E+04  0.26723550093E+04  0.23942271553E+04 0.  0.
        5    1    3    3  502    0 -0.38268317157E+03 -0.69368398089E+03 -0.40816251048E+03  0.89121411575E+03  0.46999998093E+01 0. -1.
       -5    1    3    3    0  502  0.38268317157E+03  0.69368398089E+03  0.15952419621E+04  0.17811408935E+04  0.46999998093E+01 0.  1.
</event>
<event>
 5   0  0.5196696E-06  0.2404460E+04  0.7818609E-02  0.8437836E-01
        1   -1    0    0  501    0  0.00000000000E+00  0.00000000000E+00  0.10344047522E+04  0.10344047523E+04  0.50400001928E-02 0.  1.
       -1   -1    0    0    0  501  0.00000000000E+00  0.00000000000E+00 -0.13972843232E+04  0.13972843232E+04  0.50400001928E-02 0. -1.
    10030    2    1    2    0    0  0.00000000000E+00  0.00000000000E+00 -0.36287957092E+03  0.24316890754E+04  0.24044604752E+04 0.  0.
        1    1    3    3  502    0 -0.48247397681E+03  0.39377441890E+03  0.85856253546E+03  0.10606455858E+04  0.50400001928E-02 0.  1.
       -1    1    3    3    0  502  0.48247397681E+03 -0.39377441890E+03 -0.12214421064E+04  0.13710434897E+04  0.50400001928E-02 0. -1.
</event>
<event>
 5   0  0.1174210E-05  0.2394435E+04  0.7818609E-02  0.8441590E-01
       -2   -1    0    0    0  501  0.00000000000E+00  0.00000000000E+00  0.98474859515E+03  0.98474859516E+03  0.25500000920E-02 0.  1.
        2   -1    0    0  501    0  0.00000000000E+00  0.00000000000E+00 -0.14555290090E+04  0.14555290090E+04  0.25500000920E-02 0. -1.
    10030    2    1    2    0    0  0.00000000000E+00  0.00000000000E+00 -0.47078041388E+03  0.24402776042E+04  0.23944353379E+04 0.  0.
        3    1    3    3  502    0  0.94864594272E+03  0.63779793566E+03 -0.59803242847E+03  0.12901000454E+04  0.10100000352E+00 0. -1.
       -3    1    3    3    0  502 -0.94864594272E+03 -0.63779793566E+03  0.12725201459E+03  0.11501775588E+04  0.10100000352E+00 0.  1.
</event>
<event>
 5   0  0.1198313E-05  0.2379946E+04  0.7818609E-02  0.8447050E-01
       -2   -1    0    0    0  501  0.00000000000E+00  0.00000000000E+00  0.51648263691E+03  0.51648263691E+03  0.25500000920E-02 0. -1.
        2   -1    0    0  501    0  0.00000000000E+00  0.00000000000E+00 -0.27416901412E+04  0.27416901413E+04  0.25500000920E-02 0.  1.
    10030    2    1    2    0    0  0.00000000000E+00  0.00000000000E+00 -0.22252075043E+04  0.32581727782E+04  0.23799456748E+04 0.  0.
        5    1    3    3  502    0 -0.11894586722E+04  0.18476580474E+02 -0.11527498069E+04  0.16565046104E+04  0.46999998093E+01 0.  1.
       -5    1    3    3    0  502  0.11894586722E+04 -0.18476580474E+02 -0.10724576975E+04  0.16016681678E+04  0.46999998093E+01 0. -1.
</event>
<event>
 5   0  0.1198313E-05  0.2398117E+04  0.7818609E-02  0.8440209E-01
        2   -1    0    0  501    0  0.00000000000E+00  0.00000000000E+00  0.11292732516E+04  0.11292732516E+04  0.25500000920E-02 0. -1.
       -2   -1    0    0    0  501  0.00000000000E+00  0.00000000000E+00 -0.12731564583E+04  0.12731564583E+04  0.25500000920E-02 0.  1.
    10030    2    1    2    0    0  0.00000000000E+00  0.00000000000E+00 -0.14388320668E+03  0.24024297098E+04  0.23981172060E+04 0.  0.
        5    1    3    3  502    0 -0.48955196881E+03  0.83317689236E+03  0.63917613043E+03  0.11586255132E+04  0.46999998093E+01 0. -1.
       -5    1    3    3    0  502  0.48955196881E+03 -0.83317689236E+03 -0.78305933712E+03  0.12438041966E+04  0.46999998093E+01 0.  1.
</event>
<event>
 5   0  0.1174210E-05  0.2396428E+04  0.7818609E-02  0.8440842E-01
       -2   -1    0    0    0  501  0.00000000000E+00  0.00000000000E+00  0.96543627368E+03  0.96543627368E+03  0.25500000920E-02 0. -1.
        2   -1    0    0  501    0  0.00000000000E+00  0.00000000000E+00 -0.14871168445E+04  0.14871168445E+04  0.25500000920E-02 0.  1.
    10030    2    1    2    0    0  0.00000000000E+00  0.00000000000E+00 -0.52168057080E+03  0.24525531182E+04  0.23964277956E+04 0.  0.
        3    1    3    3  502    0 -0.10202922827E+04  0.62418221380E+03 -0.18763348063E+03  0.12107047994E+04  0.10100000352E+00 0.  1.
       -3    1    3    3    0  502  0.10202922827E+04 -0.62418221380E+03 -0.33404709018E+03  0.12418483187E+04  0.10100000352E+00 0. -1.
</event>
<event>
 5   0  0.5196696E-06  0.2392445E+04  0.7818609E-02  0.8442337E-01
        1   -1    0    0  501    0  0.00000000000E+00  0.00000000000E+00  0.16603814768E+04  0.16603814768E+04  0.50400001928E-02 0. -1.
       -1   -1    0    0    0  501  0.00000000000E+00  0.00000000000E+00 -0.86181889204E+03  0.86181889205E+03  0.50400001928E-02 0.  1.
    10030    2    1    2    0    0  0.00000000000E+00  0.00000000000E+00  0.79856258477E+03  0.25222003689E+04  0.23924448790E+04 0.  0.
        1    1    3    3  502    0  0.18875551678E+02 -0.38944958968E+03 -0.79294715181E+03  0.88362461200E+03  0.50400001928E-02 0.  1.
       -1    1    3    3    0  502 -0.18875551678E+02  0.38944958968E+03  0.15915097366E+04  0.16385757569E+04  0.50400001928E-02 0. -1.
</event>
<event>
 5   0  0.5034479E-06  0.2393225E+04  0.7818609E-02  0.8442044E-01
        1   -1    0    0  501    0  0.00000000000E+00  0.00000000000E+00  0.20321170812E+04  0.20321170812E+04  0.50400001928E-02 0.  1.
       -1   -1    0    0    0  501  0.00000000000E+00  0.00000000000E+00 -0.70462528716E+03  0.70462528718E+03  0.50400001928E-02 0. -1.
    10030    2    1    2    0    0  0.00000000000E+00  0.00000000000E+00  0.13274917941E+04  0.27367423684E+04  0.23932246714E+04 0.  0.
        4    1    3    3  502    0  0.10438246933E+04 -0.50328568500E+03  0.10049208644E+04  0.15338624540E+04  0.12699999809E+01 0. -1.
       -4    1    3    3    0  502 -0.10438246933E+04  0.50328568500E+03  0.32257092963E+03  0.12028799144E+04  0.12699999809E+01 0.  1.
</event>
<event>
 5   0  0.5042742E-06  0.2414390E+04  0.7818609E-02  0.8434136E-01
        1   -1    0    0  501    0  0.00000000000E+00  0.00000000000E+00  0.11640558973E+04  0.11640558973E+04  0.50400001928E-02 0.  1.
       -1   -1    0    0    0  501  0.00000000000E+00  0.00000000000E+00 -0.12519327263E+04  0.12519327263E+04  0.50400001928E-02 0. -1.
    10030    2    1    2    0    0  0.00000000000E+00  0.00000000000E+00 -0.87876829060E+02  0.24159886236E+04  0.24143899214E+04 0.  0.
        5    1    3    3  502    0 -0.48657264128E+03  0.25294250980E+03 -0.11200875184E+04  0.12471371165E+04  0.46999998093E+01 0. -1.
       -5    1    3    3    0  502  0.48657264128E+03 -0.25294250980E+03  0.10322106893E+04  0.11688515071E+04  0.46999998093E+01 0.  1.
</event>
<event>
 5   0  0.1169371E-05  0.2399401E+04  0.7818609E-02  0.8439728E-01
       -2   -1    0    0    0  501  0.00000000000E+00  0.00000000000E+00  0.10908286623E+04  0.10908286623E+04  0.25500000920E-02 0.  1.
        2   -1    0    0  501    0  0.00000000000E+00  0.00000000000E+00 -0.13194385747E+04  0.13194385747E+04  0.25500000920E-02 0. -1.
    10030    2    1    2    0    0  0.00000000000E+00  0.00000000000E+00 -0.22860991242E+03  0.24102672370E+04  0.23994011048E+04 0.  0.
        2    1    3    3  502    0  0.12481377371E+03 -0.27319856733E+03  0.10524478598E+04  0.10944690187E+04  0.25500000920E-02 0.  1.
       -2    1    3    3    0  502 -0.12481377371E+03  0.27319856733E+03 -0.12810577722E+04  0.13157982182E+04  0.25500000920E-02 0. -1.
</event>
<event>
 5   0  0.5104174E-06  0.2404932E+04  0.7818609E-02  0.8437660E-01
       -1   -1    0    0    0  501  0.00000000000E+00  0.00000000000E+00  0.10013966438E+04  0.10013966438E+04  0.50400001928E-02 0. -1.
        1   -1    0    0  501    0  0.00000000000E+00  0.00000000000E+00 -0.14439074442E+04  0.14439074442E+04  0.50400001928E-02 0.  1.
    10030    2    1    2    0    0  0.00000000000E+00  0.00000000000E+00 -0.44251080044E+03  0.24453040880E+04  0.24049316569E+04 0.  0.
        3    1    3    3  502    0  0.49825849159E+03 -0.66855760823E+03  0.65971515383E+03  0.10632285241E+04  0.10100000352E+00 0. -1.
       -3    1    3    3    0  502 -0.49825849159E+03  0.66855760823E+03 -0.11022259543E+04  0.13820755639E+04  0.10100000352E+00 0.  1.
</event>
<event>
 5   0  0.5034479E-06  0.2400513E+04  0.7818609E-02  0.8439311E-01
       -1   -1    0    0    0  501  0.00000000000E+00  0.00000000000E+00  0.74441766594E+03  0.74441766595E+03  0.50400001928E-02 0.  1.
        1   -1    0    0  501    0  0.00000000000E+00  0.00000000000E+00 -0.19352251424E+04  0.19352251424E+04  0.50400001928E-02 0. -1.
    10030    2    1    2    0    0  0.00000000000E+00  0.00000000000E+00 -0.11908074765E+04  0.26796428084E+04  0.24005130982E+04 0.  0.
        4    1    3    3  502    0  0.27068117787E+03 -0.80375384351E+02 -0.18976215983E+04  0.19185144893E+04  0.12699999809E+01 0. -1.
       -4    1    3    3    0  502 -0.27068117787E+03  0.80375384351E+02  0.70681412179E+03  0.76112831909E+03  0.12699999809E+01 0.  1.
</event>
<event>
 5   0  0.1154897E-05  0.2395419E+04  0.7818609E-02  0.8441221E-01
        2   -1    0    0  501    0  0.00000000000E+00  0.00000000000E+00  0.15856885765E+04  0.15856885765E+04  0.25500000920E-02 0.  1.
       -2   -1    0    0    0  501  0.00000000000E+00  0.00000000000E+00 -0.90465917071E+03  0.90465917071E+03  0.25500000920E-02 0. -1.
    10030    2    1    2    0    0  0.00000000000E+00  0.00000000000E+00  0.68102940575E+03  0.24903477472E+04  0.23954187213E+04 0.  0.
        4    1    3    3  502    0  0.57347365863E+02 -0.11780247320E+04  0.12374484094E+03  0.11858943411E+04  0.12699999809E+01 0.  1.
       -4    1    3    3    0  502 -0.57347365863E+02  0.11780247320E+04  0.55728456481E+03  0.13044534061E+04  0.12699999809E+01 0. -1.
</event>
<event>
 5   0  0.5034479E-06  0.2423488E+04  0.7818609E-02  0.8430762E-01
       -1   -1    0    0    0  501  0.00000000000E+00  0.00000000000E+00  0.82914112342E+03  0.82914112343E+03  0.50400001928E-02 0.  1.
        1   -1    0    0  501    0  0.00000000000E+00  0.00000000000E+00 -0.17708971435E+04  0.17708971435E+04  0.50400001928E-02 0. -1.
    10030    2    1    2    0    0  0.00000000000E+00  0.00000000000E+00 -0.94175602006E+03  0.26000382669E+04  0.24234881036E+04 0.  0.
        4    1    3    3  502    0  0.17138231119E+03 -0.97452795706E+03 -0.12212942471E+04  0.15718262902E+04  0.12699999809E+01 0. -1.
       -4    1    3    3    0  502 -0.17138231119E+03  0.97452795706E+03  0.27953822708E+03  0.10282119767E+04  0.12699999809E+01 0.  1.
</event>
<event>
 5   0  0.5034479E-06  0.2412690E+04  0.7818609E-02  0.8434768E-01
       -1   -1    0    0    0  501  0.00000000000E+00  0.00000000000E+00  0.91597400473E+03  0.91597400475E+03  0.50400001928E-02 0. -1.
        1   -1    0    0  501    0  0.00000000000E+00  0.00000000000E+00 -0.15887658784E+04  0.15887658784E+04  0.50400001928E-02 0.  1.
    10030    2    1    2    0    0  0.00000000000E+00  0.00000000000E+00 -0.67279187364E+03  0.25047398831E+04  0.24126899877E+04 0.  0.
        4    1    3    3  502    0 -0.38112676525E+03 -0.46122704881E+03  0.75107978421E+03  0.96026582616E+03  0.12699999809E+01 0. -1.
       -4    1    3    3    0  502  0.38112676525E+03  0.46122704881E+03 -0.14238716578E+04  0.15444740570E+04  0.12699999809E+01 0.  1.
</event>
<event>
 5   0  0.5196696E-06  0.2402827E+04  0.7818609E-02  0.8438446E-01
       -1   -1    0    0    0  501  0.00000000000E+00  0.00000000000E+00  0.10814768047E+04  0.10814768047E+04  0.50400001928E-02 0.  1.
        1   -1    0    0  501    0  0.00000000000E+00  0.00000000000E+00 -0.13346515818E+04  0.13346515818E+04  0.50400001928E-02 0. -1.
    10030    2    1    2    0    0  0.00000000000E+00  0.00000000000E+00 -0.25317477715E+03  0.24161283865E+04  0.24028272747E+04 0.  0.
        1    1    3    3  502    0 -0.61285389015E+03  0.70325294829E+03 -0.88790477313E+03  0.12878390762E+04  0.50400001928E-02 0. -1.
       -1    1    3    3    0  502  0.61285389015E+03 -0.70325294829E+03  0.63472999598E+03  0.11282893103E+04  0.50400001928E-02 0.  1.
</event>
<event>
 5   0  0.1168435E-05  0.2392575E+04  0.7818609E-02  0.8442289E-01
        2   -1    0    0  501    0  0.00000000000E+00  0.00000000000E+00  0.15148614128E+04  0.15148614128E+04  0.25500000920E-02 0.  1.
       -2   -1    0    0    0  501  0.00000000000E+00  0.00000000000E+00 -0.94470919141E+03  0.94470919141E+03  0.25500000920E-02 0. -1.
    10030    2    1    2    0    0  0.00000000000E+00  0.00000000000E+00  0.57015222141E+03  0.24595706042E+04  0.23925747641E+04 0.  0.
        1    1    3    3  502    0  0.53757537642E+03 -0.71887257857E+03  0.10980027136E+04  0.14182295402E+04  0.50400001928E-02 0. -1.
       -1    1    3    3    0  502 -0.53757537642E+03  0.71887257857E+03 -0.52785049219E+03  0.10413410641E+04  0.50400001928E-02 0.  1.
</event>
<event>
 5   0  0.5104174E-06  0.2399306E+04  0.7818609E-02  0.8439763E-01
        1   -1    0    0  501    0  0.00000000000E+00  0.00000000000E+00  0.16829647338E+04  0.16829647338E+04  0.50400001928E-02 0.  1.
       -1   -1    0    0    0  501  0.00000000000E+00  0.00000000000E+00 -0.85513814672E+03  0.85513814673E+03  0.50400001928E-02 0. -1.
    10030    2    1    2    0    0  0.00000000000E+00  0.00000000000E+00  0.82782658705E+03  0.25381028805E+04  0.23993060192E+04 0.  0.
        3    1    3    3  502    0 -0.52353929227E+02 -0.18145254620E+03 -0.83931444641E+03  0.86029919829E+03  0.10100000352E+00 0. -1.
       -3    1    3    3    0  502  0.52353929227E+02  0.18145254620E+03  0.16671410335E+04  0.16778036822E+04  0.10100000352E+00 0.  1.
</event>
<event>
 5   0  0.1169371E-05  0.2393721E+04  0.7818609E-02  0.8441858E-01
        2   -1    0    0  501    0  0.00000000000E+00  0.00000000000E+00  0.16302819314E+04  0.16302819314E+04  0.25500000920E-02 0. -1.
       -2   -1    0    0    0  501  0.00000000000E+00  0.00000000000E+00 -0.87866724862E+03  0.87866724863E+03  0.25500000920E-02 0.  1.
    10030    2    1    2    0    0  0.00000000000E+00  0.00000000000E+00  0.75161468279E+03  0.25089491800E+04  0.23937212362E+04 0.  0.
        2    1    3    3  502    0 -0.94174054080E+02 -0.67472909824E+03  0.14072233060E+04  0.15634594787E+04  0.25500000920E-02 0. -1.
       -2    1    3    3    0  502  0.94174054080E+02  0.67472909824E+03 -0.65560862324E+03  0.94548970135E+03  0.25500000920E-02 0.  1.
</event>
<event>
 5   0  0.1174210E-05  0.2396713E+04  0.7818609E-02  0.8440735E-01
        2   -1    0    0  501    0  0.00000000000E+00  0.00000000000E+00  0.16416492400E+04  0.16416492400E+04  0.25500000920E-02 0. -1.
       -2   -1    0    0    0  501  0.00000000000E+00  0.00000000000E+00 -0.87476588959E+03  0.87476588959E+03  0.25500000920E-02 0.  1.
    10030    2    1    2    0    0  0.00000000000E+00  0.00000000000E+00  0.76688335037E+03  0.25164151296E+04  0.23967133811E+04 0.  0.
        3    1    3    3  502    0  0.10164719003E+04 -0.24861230875E+03  0.99659065398E+03  0.14450661389E+04  0.10100000352E+00 0. -1.
       -3    1    3    3    0  502 -0.10164719003E+04  0.24861230875E+03 -0.22970730361E+03  0.10713489906E+04  0.10100000352E+00 0.  1.
</event>
<event>
 5   0  0.5042742E-06  0.2399697E+04  0.7818609E-02  0.8439617E-01
       -1   -1    0    0    0  501  0.00000000000E+00  0.00000000000E+00  0.13974996632E+04  0.13974996632E+04  0.50400001928E-02 0.  1.
        1   -1    0    0  501    0  0.00000000000E+00  0.00000000000E+00 -0.10301511738E+04  0.10301511738E+04  0.50400001928E-02 0. -1.
    10030    2    1    2    0    0  0.00000000000E+00  0.00000000000E+00  0.36734848942E+03  0.24276508370E+04  0.23996965795E+04 0.  0.
        5    1    3    3  502    0  0.17324243589E+03  0.48698797303E+03  0.12790821512E+04  0.13795809026E+04  0.46999998093E+01 0.  1.
       -5    1    3    3    0  502 -0.17324243589E+03 -0.48698797303E+03 -0.91173366173E+03  0.10480699344E+04  0.46999998093E+01 0. -1.
</event>
<event>
 5   0  0.1154897E-05  0.2401871E+04  0.7818609E-02  0.8438803E-01
        2   -1    0    0  501    0  0.00000000000E+00  0.00000000000E+00  0.18818653073E+04  0.18818653073E+04  0.25500000920E-02 0.  1.
       -2   -1    0    0    0  501  0.00000000000E+00  0.00000000000E+00 -0.76639182417E+03  0.76639182417E+03  0.25500000920E-02 0. -1.
    10030    2    1    2    0    0  0.00000000000E+00  0.00000000000E+00  0.11154734831E+04  0.26482571314E+04  0.24018710920E+04 0.  0.
        4    1    3    3  502    0  0.14973798105E+02 -0.10634521310E+04  0.11727060292E+04  0.15831600340E+04  0.12699999809E+01 0.  1.
       -4    1    3    3    0  502 -0.14973798105E+02  0.10634521310E+04 -0.57232546083E+02  0.10650970974E+04  0.12699999809E+01 0. -1.
</event>
<event>
 5   0  0.1154897E-05  0.2400794E+04  0.7818609E-02  0.8439206E-01
       -2   -1    0    0    0  501  0.00000000000E+00  0.00000000000E+00  0.77873429688E+03  0.77873429689E+03  0.25500000920E-02 0.  1.
        2   -1    0    0  501    0  0.00000000000E+00  0.00000000000E+00 -0.18503783898E+04  0.18503783898E+04  0.25500000920E-02 0. -1.
    10030    2    1    2    0    0  0.00000000000E+00  0.00000000000E+00 -0.10716440929E+04  0.26291126867E+04  0.24007941306E+04 0.  0.
        4    1    3    3  502    0  0.62767092136E+03  0.10230616149E+04 -0.51606015508E+03  0.13065012629E+04  0.12699999809E+01 0. -1.
       -4    1    3    3    0  502 -0.62767092136E+03 -0.10230616149E+04 -0.55558393785E+03  0.13226114238E+04  0.12699999809E+01 0.  1.
</event>
<event>
 5   0  0.1169371E-05  0.2402725E+04  0.7818609E-02  0.8438484E-01
        2   -1    0    0  501    0  0.00000000000E+00  0.00000000000E+00  0.84968303761E+03  0.84968303761E+03  0.25500000920E-02 0. -1.
       -2   -1    0    0    0  501  0.00000000000E+00  0.00000000000E+00 -0.16986005176E+04  0.16986005176E+04  0.25500000920E-02 0.  1.
    10030    2    1    2    0    0  0.00000000000E+00  0.00000000000E+00 -0.84891747997E+03  0.25482835552E+04  0.24027251590E+04 0.  0.
        2    1    3    3  502    0 -0.99248192677E+03  0.67181823605E+03 -0.51263330540E+03  0.13035156397E+04  0.25500000920E-02 0. -1.
       -2    1    3    3    0  502  0.99248192677E+03 -0.67181823605E+03 -0.33628417457E+03  0.12447679154E+04  0.25500000920E-02 0.  1.
</event>
<event>
 5   0  0.5042742E-06  0.2417523E+04  0.7818609E-02  0.8432972E-01
        1   -1    0    0  501    0  0.00000000000E+00  0.00000000000E+00  0.91098574824E+03  0.91098574826E+03  0.50400001928E-02 0.  1.
       -1   -1    0    0    0  501  0.00000000000E+00  0.00000000000E+00 -0.16038718870E+04  0.16038718870E+04  0.50400001928E-02 0. -1.
    10030    2    1    2    0    0  0.00000000000E+00  0.00000000000E+00 -0.69288613877E+03  0.25148576353E+04  0.24175230556E+04 0.  0.
        5    1    3    3  502    0  0.33028328764E+03  0.10368583615E+04  0.20097605369E+03  0.11066055197E+04  0.46999998093E+01 0.  1.
       -5    1    3    3    0  502 -0.33028328764E+03 -0.10368583615E+04 -0.89386219246E+03  0.14082521156E+04  0.46999998093E+01 0. -1.
</event>
<event>
 5   0  0.1174210E-05  0.2415291E+04  0.7818609E-02  0.8433801E-01
       -2   -1    0    0    0  501  0.00000000000E+00  0.00000000000E+00  0.78100990908E+03  0.78100990908E+03  0.25500000920E-02 0.  1.
        2   -1    0    0  501    0  0.00000000000E+00  0.00000000000E+00 -0.18673358606E+04  0.18673358606E+04  0.25500000920E-02 0. -1.
    10030    2    1    2    0    0  0.00000000000E+00  0.00000000000E+00 -0.10863259516E+04  0.26483457697E+04  0.24152911301E+04 0.  0.
        3    1    3    3  502    0  0.82103136491E+02 -0.43891122333E+03  0.68716860561E+03  0.81950270880E+03  0.10100000352E+00 0.  1.
       -3    1    3    3    0  502 -0.82103136491E+02  0.43891122333E+03 -0.17734945572E+04  0.18288430609E+04  0.10100000352E+00 0. -1.
</event>
<event>
 5   0  0.4067750E-06  0.2393490E+04  0.7818609E-02  0.8441945E-01
       -3   -1    0    0    0  501  0.00000000000E+00  0.00000000000E+00  0.12442034166E+04  0.12442034207E+04  0.10100000352E+00 0. -1.
        3   -1    0    0  501    0  0.00000000000E+00  0.00000000000E+00 -0.11510969797E+04  0.11510969841E+04  0.10100000352E+00 0.  1.
    10030    2    1    2    0    0  0.00000000000E+00  0.00000000000E+00  0.93106436963E+02  0.23953004048E+04  0.23934901756E+04 0.  0.
        1    1    3    3  502    0  0.52448411749E+03 -0.69137926703E+03  0.87125774339E+03  0.12297068495E+04  0.50400001928E-02 0. -1.
       -1    1    3    3    0  502 -0.52448411749E+03  0.69137926703E+03 -0.77815130642E+03  0.11655935553E+04  0.50400001928E-02 0.  1.
</event>
<event>
 5   0  0.5104174E-06  0.2396965E+04  0.7818609E-02  0.8440641E-01
       -1   -1    0    0    0  501  0.00000000000E+00  0.00000000000E+00  0.45708201300E+03  0.45708201303E+03  0.50400001928E-02 0. -1.
        1   -1    0    0  501    0  0.00000000000E+00  0.00000000000E+00 -0.31424558644E+04  0.31424558644E+04  0.50400001928E-02 0.  1.
    10030    2    1    2    0    0  0.00000000000E+00  0.00000000000E+00 -0.26853738514E+04  0.35995378774E+04  0.23969647910E+04 0.  0.
        3    1    3    3  502    0 -0.10976126948E+04  0.45252811934E+03 -0.10967336247E+04  0.16162796727E+04  0.10100000352E+00 0. -1.
       -3    1    3    3    0  502  0.10976126948E+04 -0.45252811934E+03 -0.15886402266E+04  0.19832582047E+04  0.10100000352E+00 0.  1.
</event>
<event>
 5   0  0.4067750E-06  0.2395700E+04  0.7818609E-02  0.8441115E-01
       -3   -1    0    0    0  501  0.00000000000E+00  0.00000000000E+00  0.25948908293E+04  0.25948908313E+04  0.10100000352E+00 0. -1.
        3   -1    0    0  501    0  0.00000000000E+00  0.00000000000E+00 -0.55294996257E+03  0.55294997179E+03  0.10100000352E+00 0.  1.
    10030    2    1    2    0    0  0.00000000000E+00  0.00000000000E+00  0.20419408668E+04  0.31478408031E+04  0.23957001520E+04 0.  0.
        3    1    3    3  502    0 -0.11874585486E+04  0.57293714531E+02  0.12136537739E+04  0.16989101999E+04  0.10100000352E+00 0.  1.
       -3    1    3    3    0  502  0.11874585486E+04 -0.57293714531E+02  0.82828709289E+03  0.14489306032E+04  0.10100000352E+00 0. -1.
</event>
<event>
 5   0  0.1154897E-05  0.2407800E+04  0.7818609E-02  0.8436589E-01
        2   -1    0    0  501    0  0.00000000000E+00  0.00000000000E+00  0.20118280293E+04  0.20118280293E+04  0.25500000920E-02 0. -1.
       -2   -1    0    0    0  501  0.00000000000E+00  0.00000000000E+00 -0.72042684713E+03  0.72042684713E+03  0.25500000920E-02 0.  1.
    10030    2    1    2    0    0  0.00000000000E+00  0.00000000000E+00  0.12914011822E+04  0.27322548765E+04  0.24077997626E+04 0.  0.
        4    1    3    3  502    0 -0.63662426167E+03  0.87199514672E+03  0.12501168198E+04  0.16518049711E+04  0.12699999809E+01 0. -1.
       -4    1    3    3    0  502  0.63662426167E+03 -0.87199514672E+03  0.41284362345E+02  0.10804499053E+04  0.12699999809E+01 0.  1.
</event>
<event>
 5   0  0.5034479E-06  0.2401766E+04  0.7818609E-02  0.8438843E-01
       -1   -1    0    0    0  501  0.00000000000E+00  0.00000000000E+00  0.92523066242E+03  0.92523066243E+03  0.50400001928E-02 0.  1.
        1   -1    0    0  501    0  0.00000000000E+00  0.00000000000E+00 -0.15586605467E+04  0.15586605467E+04  0.50400001928E-02 0. -1.
    10030    2    1    2    0    0  0.00000000000E+00  0.00000000000E+00 -0.63342988431E+03  0.24838912092E+04  0.24017664584E+04 0.  0.
        4    1    3    3  502    0  0.11974927404E+04 -0.71842734384E+02 -0.26036633776E+03  0.12275758569E+04  0.12699999809E+01 0.  1.
       -4    1    3    3    0  502 -0.11974927404E+04  0.71842734384E+02 -0.37306354655E+03  0.12563153523E+04  0.12699999809E+01 0. -1.
</event>
<event>
 5   0  0.5104174E-06  0.2391645E+04  0.7818609E-02  0.8442638E-01
       -1   -1    0    0    0  501  0.00000000000E+00  0.00000000000E+00  0.79316984813E+03  0.79316984815E+03  0.50400001928E-02 0. -1.
        1   -1    0    0  501    0  0.00000000000E+00  0.00000000000E+00 -0.18028820091E+04  0.18028820091E+04  0.50400001928E-02 0.  1.
    10030    2    1    2    0    0  0.00000000000E+00  0.00000000000E+00 -0.10097121609E+04  0.25960518572E+04  0.23916451655E+04 0.  0.
        3    1    3    3  502    0 -0.36273522333E+03  0.11383546460E+04 -0.55981434482E+03  0.13194014754E+04  0.10100000352E+00 0.  1.
       -3    1    3    3    0  502  0.36273522333E+03 -0.11383546460E+04 -0.44989781612E+03  0.12766503819E+04  0.10100000352E+00 0. -1.
</event>
<event>
 5   0  0.1169371E-05  0.2409788E+04  0.7818609E-02  0.8435848E-01
       -2   -1    0    0    0  501  0.00000000000E+00  0.00000000000E+00  0.13330619503E+04  0.13330619503E+04  0.25500000920E-02 0. -1.
        2   -1    0    0  501    0  0.00000000000E+00  0.00000000000E+00 -0.10890485852E+04  0.10890485852E+04  0.25500000920E-02 0.  1.
    10030    2    1    2    0    0  0.00000000000E+00  0.00000000000E+00  0.24401336511E+03  0.24221105355E+04  0.24097877341E+04 0.  0.
        2    1    3    3  502    0 -0.40419918585E+03  0.41075758567E+03  0.11855624781E+04  0.13182022475E+04  0.25500000920E-02 0. -1.
       -2    1    3    3    0  502  0.40419918585E+03 -0.41075758567E+03 -0.94154911295E+03  0.11039082879E+04  0.25500000920E-02 0.  1.
</event>
<event>
 5   0  0.5104174E-06  0.2384106E+04  0.7818609E-02  0.8445478E-01
        1   -1    0    0  501    0  0.00000000000E+00  0.00000000000E+00  0.15507636395E+04  0.15507636395E+04  0.50400001928E-02 0. -1.
       -1   -1    0    0    0  501  0.00000000000E+00  0.00000000000E+00 -0.91631691272E+03  0.91631691274E+03  0.50400001928E-02 0.  1.
    10030    2    1    2    0    0  0.00000000000E+00  0.00000000000E+00  0.63444672681E+03  0.24670805523E+04  0.23841064998E+04 0.  0.
        3    1    3    3  502    0 -0.37438377754E+03  0.72230602835E+03 -0.58436369337E+03  0.10016836566E+04  0.10100000352E+00 0. -1.
       -3    1    3    3    0  502  0.37438377754E+03 -0.72230602835E+03  0.12188104202E+04  0.14653968957E+04  0.10100000352E+00 0.  1.
</event>
<event>
 5   0  0.1154897E-05  0.2392657E+04  0.7818609E-02  0.8442258E-01
       -2   -1    0    0    0  501  0.00000000000E+00  0.00000000000E+00  0.96767376125E+03  0.96767376125E+03  0.25500000920E-02 0.  1.
        2   -1    0    0  501    0  0.00000000000E+00  0.00000000000E+00 -0.14790131363E+04  0.14790131363E+04  0.25500000920E-02 0. -1.
    10030    2    1    2    0    0  0.00000000000E+00  0.00000000000E+00 -0.51133937503E+03  0.24466868975E+04  0.23926572713E+04 0.  0.
        4    1    3    3  502    0 -0.45003382451E+03  0.57177976846E+03  0.71537250092E+03  0.10204028493E+04  0.12699999809E+01 0.  1.
       -4    1    3    3    0  502  0.45003382451E+03 -0.57177976846E+03 -0.12267118760E+04  0.14262840483E+04  0.12699999809E+01 0. -1.
</event>
<event>
 5   0  0.1168435E-05  0.2398412E+04  0.7818609E-02  0.8440098E-01
       -2   -1    0    0    0  501  0.00000000000E+00  0.00000000000E+00  0.13689342675E+04  0.13689342675E+04  0.25500000920E-02 0.  1.
        2   -1    0    0  501    0  0.00000000000E+00  0.00000000000E+00 -0.10505220074E+04  0.10505220074E+04  0.25500000920E-02 0. -1.
    10030    2    1    2    0    0  0.00000000000E+00  0.00000000000E+00  0.31841226014E+03  0.24194562749E+04  0.23984124539E+04 0.  0.
        1    1    3    3  502    0 -0.30635395116E+03 -0.77080415300E+03  0.10328905413E+04  0.13247092722E+04  0.50400001928E-02 0.  1.
       -1    1    3    3    0  502  0.30635395116E+03  0.77080415300E+03 -0.71447828114E+03  0.10947470027E+04  0.50400001928E-02 0. -1.
</event>
<event>
 5   0  0.1168435E-05  0.2417660E+04  0.7818609E-02  0.8432921E-01
        2   -1    0    0  501    0  0.00000000000E+00  0.00000000000E+00  0.18440567306E+04  0.18440567306E+04  0.25500000920E-02 0. -1.
       -2   -1    0    0    0  501  0.00000000000E+00  0.00000000000E+00 -0.79242140823E+03  0.79242140823E+03  0.25500000920E-02 0.  1.
    10030    2    1    2    0    0  0.00000000000E+00  0.00000000000E+00  0.10516353223E+04  0.26364781388E+04  0.24176600516E+04 0.  0.
        1    1    3    3  502    0 -0.99004433240E+02  0.11264833723E+04  0.59948053778E+02  0.11324135442E+04  0.50400001928E-02 0.  1.
       -1    1    3    3    0  502  0.99004433240E+02 -0.11264833723E+04  0.99168726856E+03  0.15040645946E+04  0.50400001928E-02 0. -1.
</event>
<event>
 5   0  0.1174210E-05  0.2392571E+04  0.7818609E-02  0.8442290E-01
       -2   -1    0    0    0  501  0.00000000000E+00  0.00000000000E+00  0.13914565565E+04  0.13914565565E+04  0.25500000920E-02 0.  1.
        2   -1    0    0  501    0  0.00000000000E+00  0.00000000000E+00 -0.10284903093E+04  0.10284903093E+04  0.25500000920E-02 0. -1.
    10030    2    1    2    0    0  0.00000000000E+00  0.00000000000E+00  0.36296624718E+03  0.24199468658E+04  0.23925714904E+04 0.  0.
        3    1    3    3  502    0 -0.23785700602E+03 -0.45412393932E+03 -0.91176106724E+03  0.10459984520E+04  0.10100000352E+00 0. -1.
       -3    1    3    3    0  502  0.23785700602E+03  0.45412393932E+03  0.12747273144E+04  0.13739484138E+04  0.10100000352E+00 0.  1.
</event>
<event>
 5   0  0.1198313E-05  0.2391472E+04  0.7818609E-02  0.8442703E-01
        2   -1    0    0  501    0  0.00000000000E+00  0.00000000000E+00  0.12992633483E+04  0.12992633483E+04  0.25500000920E-02 0. -1.
       -2   -1    0    0    0  501  0.00000000000E+00  0.00000000000E+00 -0.11004575336E+04  0.11004575336E+04  0.25500000920E-02 0.  1.
    10030    2    1    2    0    0  0.00000000000E+00  0.00000000000E+00  0.19880581471E+03  0.23997208819E+04  0.23914716304E+04 0.  0.
        5    1    3    3  502    0 -0.29298092244E+02 -0.90676207354E+03  0.88099032700E+03  0.12646113563E+04  0.46999998093E+01 0. -1.
       -5    1    3    3    0  502  0.29298092244E+02  0.90676207354E+03 -0.68218451229E+03  0.11351095256E+04  0.46999998093E+01 0.  1.
</event>
<event>
 5   0  0.5104174E-06  0.2343363E+04  0.7818609E-02  0.8461017E-01
        1   -1    0    0  501    0  0.00000000000E+00  0.00000000000E+00  0.19577936329E+04  0.19577936329E+04  0.50400001928E-02 0.  1.
       -1   -1    0    0    0  501  0.00000000000E+00  0.00000000000E+00 -0.70121661969E+03  0.70121661970E+03  0.50400001928E-02 0. -1.
    10030    2    1    2    0    0  0.00000000000E+00  0.00000000000E+00  0.12565770132E+04  0.26590102526E+04  0.23433629112E+04 0.  0.
        3    1    3    3  502    0  0.69797664921E+03  0.13065408867E+03  0.16858101264E+04  0.18292615139E+04  0.10100000352E+00 0.  1.
       -3    1    3    3    0  502 -0.69797664921E+03 -0.13065408867E+03 -0.42923311320E+03  0.82974873871E+03  0.10100000352E+00 0. -1.
</event>
<event>
 5   0  0.5034479E-06  0.2400843E+04  0.7818609E-02  0.8439188E-01
        1   -1    0    0  501    0  0.00000000000E+00  0.00000000000E+00  0.20794896485E+04  0.20794896485E+04  0.50400001928E-02 0.  1.
       -1   -1    0    0    0  501  0.00000000000E+00  0.00000000000E+00 -0.69296427981E+03  0.69296427983E+03  0.50400001928E-02 0. -1.
    10030    2    1    2    0    0  0.00000000000E+00  0.00000000000E+00  0.13865253687E+04  0.27724539284E+04  0.24008432241E+04 0.  0.
        4    1    3    3  502    0  0.10722080281E+04 -0.51955736162E+03  0.86235281361E+03  0.14707902283E+04  0.12699999809E+01 0.  1.
       -4    1    3    3    0  502 -0.10722080281E+04  0.51955736162E+03  0.52417255511E+03  0.13016637001E+04  0.12699999809E+01 0. -1.
</event>
<event>
 5   0  0.1154897E-05  0.2377449E+04  0.7818609E-02  0.8447995E-01
        2   -1    0    0  501    0  0.00000000000E+00  0.00000000000E+00  0.11706742816E+04  0.11706742816E+04  0.25500000920E-02 0. -1.
       -2   -1    0    0    0  501  0.00000000000E+00  0.00000000000E+00 -0.12070528716E+04  0.12070528716E+04  0.25500000920E-02 0.  1.
    10030    2    1    2    0    0  0.00000000000E+00  0.00000000000E+00 -0.36378590015E+02  0.23777271532E+04  0.23774488456E+04 0.  0.
        4    1    3    3  502    0 -0.31176157086E+03  0.19648229360E+02  0.11288899582E+04  0.11713135706E+04  0.12699999809E+01 0. -1.
       -4    1    3    3    0  502  0.31176157086E+03 -0.19648229360E+02 -0.11652685482E+04  0.12064135826E+04  0.12699999809E+01 0.  1.
</event>
<event>
 5   0  0.5104174E-06  0.2404074E+04  0.7818609E-02  0.8437980E-01
       -1   -1    0    0    0  501  0.00000000000E+00  0.00000000000E+00  0.14684816228E+04  0.14684816228E+04  0.50400001928E-02 0.  1.
        1   -1    0    0  501    0  0.00000000000E+00  0.00000000000E+00 -0.98393679732E+03  0.98393679734E+03  0.50400001928E-02 0. -1.
    10030    2    1    2    0    0  0.00000000000E+00  0.00000000000E+00  0.48454482544E+03  0.24524184201E+04  0.24040741294E+04 0.  0.
        3    1    3    3  502    0 -0.74427578251E+03  0.64293199552E+03 -0.46269996455E+03  0.10869219193E+04  0.10100000352E+00 0. -1.
       -3    1    3    3    0  502  0.74427578251E+03 -0.64293199552E+03  0.94724478999E+03  0.13654965008E+04  0.10100000352E+00 0.  1.
</event>
<event>
 5   0  0.5064437E-06  0.2409436E+04  0.7818609E-02  0.8435979E-01
       -1   -1    0    0    0  501  0.00000000000E+00  0.00000000000E+00  0.23691531923E+04  0.23691531923E+04  0.50400001928E-02 0. -1.
        1   -1    0    0  501    0  0.00000000000E+00  0.00000000000E+00 -0.61260106984E+03  0.61260106987E+03  0.50400001928E-02 0.  1.
    10030    2    1    2    0    0  0.00000000000E+00  0.00000000000E+00  0.17565521224E+04  0.29817542621E+04  0.24094362662E+04 0.  0.
        2    1    3    3  502    0 -0.35423137686E+03 -0.10691967726E+04  0.14072166178E+04  0.18024761347E+04  0.25500000920E-02 0.  1.
       -2    1    3    3    0  502  0.35423137686E+03  0.10691967726E+04  0.34933550466E+03  0.11792781274E+04  0.25500000920E-02 0. -1.
</event>
<event>
 5   0  0.5104174E-06  0.2392236E+04  0.7818609E-02  0.8442416E-01
       -1   -1    0    0    0  501  0.00000000000E+00  0.00000000000E+00  0.17188225614E+04  0.17188225614E+04  0.50400001928E-02 0.  1.
        1   -1    0    0  501    0  0.00000000000E+00  0.00000000000E+00 -0.83237129217E+03  0.83237129219E+03  0.50400001928E-02 0. -1.
    10030    2    1    2    0    0  0.00000000000E+00  0.00000000000E+00  0.88645126922E+03  0.25511938536E+04  0.23922362396E+04 0.  0.
        3    1    3    3  502    0 -0.42724615911E+03 -0.10342756868E+04 -0.72559769984E+01  0.11190702106E+04  0.10100000352E+00 0.  1.
       -3    1    3    3    0  502  0.42724615911E+03  0.10342756868E+04  0.89370724622E+03  0.14321236430E+04  0.10100000352E+00 0. -1.
</event>
<event>
 5   0  0.5104174E-06  0.2244919E+04  0.7818609E-02  0.8499961E-01
        1   -1    0    0  501    0  0.00000000000E+00  0.00000000000E+00  0.83745118149E+03  0.83745118151E+03  0.50400001928E-02 0.  1.
       -1   -1    0    0    0  501  0.00000000000E+00  0.00000000000E+00 -0.15044646279E+04  0.15044646279E+04  0.50400001928E-02 0. -1.
    10030    2    1    2    0    0  0.00000000000E+00  0.00000000000E+00 -0.66701344636E+03  0.23419158094E+04  0.22449193127E+04 0.  0.
        3    1    3    3  502    0 -0.38485961654E+03  0.21571153494E+03  0.74320597752E+03  0.86429365725E+03  0.10100000352E+00 0.  1.
       -3    1    3    3    0  502  0.38485961654E+03 -0.21571153494E+03 -0.14102194239E+04  0.14776221521E+04  0.10100000352E+00 0. -1.
</event>
<event>
 5   0  0.5042742E-06  0.2400077E+04  0.7818609E-02  0.8439475E-01
        1   -1    0    0  501    0  0.00000000000E+00  0.00000000000E+00  0.85564527785E+03  0.85564527787E+03  0.50400001928E-02 0.  1.
       -1   -1    0    0    0  501  0.00000000000E+00  0.00000000000E+00 -0.16830479563E+04  0.16830479563E+04  0.50400001928E-02 0. -1.
    10030    2    1    2    0    0  0.00000000000E+00  0.00000000000E+00 -0.82740267840E+03  0.25386932341E+04  0.24000766956E+04 0.  0.
        5    1    3    3  502    0  0.12746799632E+03 -0.97237242007E+02  0.84425662326E+03  0.85935703130E+03  0.46999998093E+01 0.  1.
       -5    1    3    3    0  502 -0.12746799632E+03  0.97237242007E+02 -0.16716593017E+04  0.16793362028E+04  0.46999998093E+01 0. -1.
</event>
<event>
 5   0  0.5064437E-06  0.2398264E+04  0.7818609E-02  0.8440154E-01
       -1   -1    0    0    0  501  0.00000000000E+00  0.00000000000E+00  0.14003757433E+04  0.14003757433E+04  0.50400001928E-02 0. -1.
        1   -1    0    0  501    0  0.00000000000E+00  0.00000000000E+00 -0.10268081341E+04  0.10268081341E+04  0.50400001928E-02 0.  1.
    10030    2    1    2    0    0  0.00000000000E+00  0.00000000000E+00  0.37356760920E+03  0.24271838774E+04  0.23982637086E+04 0.  0.
        2    1    3    3  502    0 -0.83120212093E+03  0.38714665774E+02  0.10606316181E+04  0.13480857616E+04  0.25500000920E-02 0. -1.
       -2    1    3    3    0  502  0.83120212093E+03 -0.38714665774E+02 -0.68706400891E+03  0.10790981158E+04  0.25500000920E-02 0.  1.
</event>
<event>
 5   0  0.5064437E-06  0.2460809E+04  0.7818609E-02  0.8417082E-01
        1   -1    0    0  501    0  0.00000000000E+00  0.00000000000E+00  0.76973670566E+03  0.76973670568E+03  0.50400001928E-02 0.  1.
       -1   -1    0    0    0  501  0.00000000000E+00  0.00000000000E+00 -0.19667701022E+04  0.19667701022E+04  0.50400001928E-02 0. -1.
    10030    2    1    2    0    0  0.00000000000E+00  0.00000000000E+00 -0.11970333966E+04  0.27365068079E+04  0.24608089233E+04 0.  0.
        2    1    3    3  502    0  0.65690782653E+03  0.99137207013E+03 -0.24765467714E+03  0.12147754167E+04  0.25500000920E-02 0.  1.
       -2    1    3    3    0  502 -0.65690782653E+03 -0.99137207013E+03 -0.94937871941E+03  0.15217313912E+04  0.25500000920E-02 0. -1.
</event>
<event>
 5   0  0.1198313E-05  0.2405087E+04  0.7818609E-02  0.8437602E-01
       -2   -1    0    0    0  501  0.00000000000E+00  0.00000000000E+00  0.94229638106E+03  0.94229638107E+03  0.25500000920E-02 0. -1.
        2   -1    0    0  501    0  0.00000000000E+00  0.00000000000E+00 -0.15346666979E+04  0.15346666979E+04  0.25500000920E-02 0.  1.
    10030    2    1    2    0    0  0.00000000000E+00  0.00000000000E+00 -0.59237031682E+03  0.24769630790E+04  0.24050870051E+04 0.  0.
        5    1    3    3  502    0  0.87417421161E+03 -0.29468938400E+02 -0.11460991769E+04  0.14417400542E+04  0.46999998093E+01 0.  1.
       -5    1    3    3    0  502 -0.87417421161E+03  0.29468938400E+02  0.55372886005E+03  0.10352230248E+04  0.46999998093E+01 0. -1.
</event>
<event>
 5   0  0.5104174E-06  0.2405483E+04  0.7818609E-02  0.8437454E-01
        1   -1    0    0  501    0  0.00000000000E+00  0.00000000000E+00  0.15770928971E+04  0.15770928971E+04  0.50400001928E-02 0.  1.
       -1   -1    0    0    0  501  0.00000000000E+00  0.00000000000E+00 -0.91724928448E+03  0.91724928449E+03  0.50400001928E-02 0. -1.
    10030    2    1    2    0    0  0.00000000000E+00  0.00000000000E+00  0.65984361265E+03  0.24943421816E+04  0.24054831793E+04 0.  0.
        3    1    3    3  502    0  0.49291929562E+03  0.57166743966E+03 -0.64105197015E+03  0.99031345148E+03  0.10100000352E+00 0. -1.
       -3    1    3    3    0  502 -0.49291929562E+03 -0.57166743966E+03  0.13008955828E+04  0.15040287301E+04  0.10100000352E+00 0.  1.
</event>
<event>
 5   0  0.1198313E-05  0.2352683E+04  0.7818609E-02  0.8457434E-01
       -2   -1    0    0    0  501  0.00000000000E+00  0.00000000000E+00  0.10554707039E+04  0.10554707039E+04  0.25500000920E-02 0. -1.
        2   -1    0    0  501    0  0.00000000000E+00  0.00000000000E+00 -0.13110537256E+04  0.13110537256E+04  0.25500000920E-02 0.  1.
    10030    2    1    2    0    0  0.00000000000E+00  0.00000000000E+00 -0.25558302176E+03  0.23665244295E+04  0.23526825528E+04 0.  0.
        5    1    3    3  502    0  0.13139878594E+02 -0.11263033212E+04 -0.46894008183E+03  0.12201060274E+04  0.46999998093E+01 0. -1.
       -5    1    3    3    0  502 -0.13139878594E+02  0.11263033212E+04  0.21335706007E+03  0.11464184021E+04  0.46999998093E+01 0.  1.
</event>
<event>
 5   0  0.5104174E-06  0.2397893E+04  0.7818609E-02  0.8440293E-01
        1   -1    0    0  501    0  0.00000000000E+00  0.00000000000E+00  0.18457561529E+04  0.18457561530E+04  0.50400001928E-02 0.  1.
       -1   -1    0    0    0  501  0.00000000000E+00  0.00000000000E+00 -0.77879852816E+03  0.77879852818E+03  0.50400001928E-02 0. -1.
    10030    2    1    2    0    0  0.00000000000E+00  0.00000000000E+00  0.10669576248E+04  0.26245546811E+04  0.23978925541E+04 0.  0.
        3    1    3    3  502    0 -0.90198824591E+03 -0.68192354323E+02  0.13947801408E+04  0.16624213197E+04  0.10100000352E+00 0.  1.
       -3    1    3    3    0  502  0.90198824591E+03  0.68192354323E+02 -0.32782251600E+03  0.96213336141E+03  0.10100000352E+00 0. -1.
</event>
<event>
 5   0  0.1154897E-05  0.2400348E+04  0.7818609E-02  0.8439373E-01
        2   -1    0    0  501    0  0.00000000000E+00  0.00000000000E+00  0.13997930241E+04  0.13997930241E+04  0.25500000920E-02 0. -1.
       -2   -1    0    0    0  501  0.00000000000E+00  0.00000000000E+00 -0.10290216757E+04  0.10290216757E+04  0.25500000920E-02 0.  1.
    10030    2    1    2    0    0  0.00000000000E+00  0.00000000000E+00  0.37077134839E+03  0.24288146998E+04  0.24003477776E+04 0.  0.
        4    1    3    3  502    0 -0.16575424161E+03  0.16388468980E+03 -0.10058970554E+04  0.10325517707E+04  0.12699999809E+01 0.  1.
       -4    1    3    3    0  502  0.16575424161E+03 -0.16388468980E+03  0.13766684038E+04  0.13962629291E+04  0.12699999809E+01 0. -1.
</event>
<event>
 5   0  0.5034479E-06  0.2396364E+04  0.7818609E-02  0.8440866E-01
       -1   -1    0    0    0  501  0.00000000000E+00  0.00000000000E+00  0.58389713614E+03  0.58389713616E+03  0.50400001928E-02 0. -1.
        1   -1    0    0  501    0  0.00000000000E+00  0.00000000000E+00 -0.24587206795E+04  0.24587206795E+04  0.50400001928E-02 0.  1.
    10030    2    1    2    0    0  0.00000000000E+00  0.00000000000E+00 -0.18748235434E+04  0.30426178157E+04  0.23963638817E+04 0.  0.
        4    1    3    3  502    0 -0.19932014644E+03 -0.85190497063E+03 -0.19768206002E+04  0.21617797986E+04  0.12699999809E+01 0.  1.
       -4    1    3    3    0  502  0.19932014644E+03  0.85190497063E+03  0.10199705678E+03  0.88083801703E+03  0.12699999809E+01 0. -1.
</event>
<event>
 5   0  0.1154897E-05  0.2395889E+04  0.7818609E-02  0.8441044E-01
       -2   -1    0    0    0  501  0.00000000000E+00  0.00000000000E+00  0.80700589828E+03  0.80700589828E+03  0.25500000920E-02 0.  1.
        2   -1    0    0  501    0  0.00000000000E+00  0.00000000000E+00 -0.17782664576E+04  0.17782664576E+04  0.25500000920E-02 0. -1.
    10030    2    1    2    0    0  0.00000000000E+00  0.00000000000E+00 -0.97126055936E+03  0.25852723559E+04  0.23958894132E+04 0.  0.
        4    1    3    3  502    0  0.19944046084E+03  0.42589607932E+03  0.70323337986E+03  0.84599217919E+03  0.12699999809E+01 0.  1.
       -4    1    3    3    0  502 -0.19944046084E+03 -0.42589607932E+03 -0.16744939392E+04  0.17392801767E+04  0.12699999809E+01 0. -1.
</event>
<event>
 5   0  0.1169371E-05  0.2392887E+04  0.7818609E-02  0.8442171E-01
        2   -1    0    0  501    0  0.00000000000E+00  0.00000000000E+00  0.16128097684E+04  0.16128097684E+04  0.25500000920E-02 0. -1.
       -2   -1    0    0    0  501  0.00000000000E+00  0.00000000000E+00 -0.88756714735E+03  0.88756714736E+03  0.25500000920E-02 0.  1.
    10030    2    1    2    0    0  0.00000000000E+00  0.00000000000E+00  0.72524262100E+03  0.25003769157E+04  0.23928869303E+04 0.  0.
        2    1    3    3  502    0  0.17320328882E+03  0.90600475991E+03  0.11588432608E+04  0.14811352765E+04  0.25500000920E-02 0. -1.
       -2    1    3    3    0  502 -0.17320328882E+03 -0.90600475991E+03 -0.43360063979E+03  0.10192416392E+04  0.25500000920E-02 0.  1.
</event>
<event>
 5   0  0.5196696E-06  0.2400480E+04  0.7818609E-02  0.8439324E-01
       -1   -1    0    0    0  501  0.00000000000E+00  0.00000000000E+00  0.12169159130E+04  0.12169159131E+04  0.50400001928E-02 0. -1.
        1   -1    0    0  501    0  0.00000000000E+00  0.00000000000E+00 -0.11837928679E+04  0.11837928679E+04  0.50400001928E-02 0.  1.
    10030    2    1    2    0    0  0.00000000000E+00  0.00000000000E+00  0.33123045191E+02  0.24007087809E+04  0.24004802675E+04 0.  0.
        1    1    3    3  502    0 -0.10092357683E+03 -0.62767573444E+03  0.10347026300E+04  0.12144018810E+04  0.50400001928E-02 0. -1.
       -1    1    3    3    0  502  0.10092357683E+03  0.62767573444E+03 -0.10015795849E+04  0.11863068999E+04  0.50400001928E-02 0.  1.
</event>
<event>
 5   0  0.4067750E-06  0.2404573E+04  0.7818609E-02  0.8437794E-01
       -3   -1    0    0    0  501  0.00000000000E+00  0.00000000000E+00  0.14816730083E+04  0.14816730117E+04  0.10100000352E+00 0. -1.
        3   -1    0    0  501    0  0.00000000000E+00  0.00000000000E+00 -0.97558126920E+03  0.97558127443E+03  0.10100000352E+00 0.  1.
    10030    2    1    2    0    0  0.00000000000E+00  0.00000000000E+00  0.50609173906E+03  0.24572542861E+04  0.24045726810E+04 0.  0.
        5    1    3    3  502    0  0.94909556483E+03 -0.45408658496E+03  0.84759432416E+03  0.13510792894E+04  0.46999998093E+01 0.  1.
       -5    1    3    3    0  502 -0.94909556483E+03  0.45408658496E+03 -0.34150258510E+03  0.11061749968E+04  0.46999998093E+01 0. -1.
</event>
<event>
 5   0  0.5196696E-06  0.2407853E+04  0.7818609E-02  0.8436569E-01
       -1   -1    0    0    0  501  0.00000000000E+00  0.00000000000E+00  0.14021140441E+04  0.14021140441E+04  0.50400001928E-02 0. -1.
        1   -1    0    0  501    0  0.00000000000E+00  0.00000000000E+00 -0.10337523321E+04  0.10337523321E+04  0.50400001928E-02 0.  1.
    10030    2    1    2    0    0  0.00000000000E+00  0.00000000000E+00  0.36836171202E+03  0.24358663762E+04  0.24078527056E+04 0.  0.
        1    1    3    3  502    0  0.19214292036E+03 -0.10029513113E+04  0.82925811571E+03  0.13154844192E+04  0.50400001928E-02 0. -1.
       -1    1    3    3    0  502 -0.19214292036E+03  0.10029513113E+04 -0.46089640369E+03  0.11203819570E+04  0.50400001928E-02 0.  1.
</event>
<event>
 5   0  0.1198313E-05  0.2402174E+04  0.7818609E-02  0.8438690E-01
       -2   -1    0    0    0  501  0.00000000000E+00  0.00000000000E+00  0.86827325106E+03  0.86827325107E+03  0.25500000920E-02 0. -1.
        2   -1    0    0  501    0  0.00000000000E+00  0.00000000000E+00 -0.16614700235E+04  0.16614700235E+04  0.25500000920E-02 0.  1.
    10030    2    1    2    0    0  0.00000000000E+00  0.00000000000E+00 -0.79319677239E+03  0.25297432745E+04  0.24021739977E+04 0.  0.
        5    1    3    3  502    0 -0.25146861206E+02  0.43641093445E+03  0.78151636104E+03  0.89547572882E+03  0.46999998093E+01 0. -1.
       -5    1    3    3    0  502  0.25146861206E+02 -0.43641093445E+03 -0.15747131334E+04  0.16342675457E+04  0.46999998093E+01 0.  1.
</event>
<event>
 5   0  0.1174210E-05  0.2427815E+04  0.7818609E-02  0.8429163E-01
       -2   -1    0    0    0  501  0.00000000000E+00  0.00000000000E+00  0.94598158158E+03  0.94598158158E+03  0.25500000920E-02 0.  1.
        2   -1    0    0  501    0  0.00000000000E+00  0.00000000000E+00 -0.15577170463E+04  0.15577170463E+04  0.25500000920E-02 0. -1.
    10030    2    1    2    0    0  0.00000000000E+00  0.00000000000E+00 -0.61173546472E+03  0.25036986279E+04  0.24278151784E+04 0.  0.
        3    1    3    3  502    0 -0.13788148388E+02  0.60039249040E+03 -0.13937866370E+04  0.15176634856E+04  0.10100000352E+00 0. -1.
       -3    1    3    3    0  502  0.13788148388E+02 -0.60039249040E+03  0.78205117232E+03  0.98603514233E+03  0.10100000352E+00 0.  1.
</event>
<event>
 5   0  0.1174210E-05  0.2403858E+04  0.7818609E-02  0.8438061E-01
        2   -1    0    0  501    0  0.00000000000E+00  0.00000000000E+00  0.12900170742E+04  0.12900170742E+04  0.25500000920E-02 0. -1.
       -2   -1    0    0    0  501  0.00000000000E+00  0.00000000000E+00 -0.11198556212E+04  0.11198556212E+04  0.25500000920E-02 0.  1.
    10030    2    1    2    0    0  0.00000000000E+00  0.00000000000E+00  0.17016145307E+03  0.24098726954E+04  0.24038576264E+04 0.  0.
        3    1    3    3  502    0  0.42349319601E+03 -0.46579932983E+03 -0.94135497105E+03  0.11324595774E+04  0.10100000352E+00 0.  1.
       -3    1    3    3    0  502 -0.42349319601E+03  0.46579932983E+03  0.11115164241E+04  0.12774131180E+04  0.10100000352E+00 0. -1.
</event>
<event>
 5   0  0.5064437E-06  0.2385568E+04  0.7818609E-02  0.8444927E-01
        1   -1    0    0  501    0  0.00000000000E+00  0.00000000000E+00  0.17848754948E+04  0.17848754948E+04  0.50400001928E-02 0. -1.
       -1   -1    0    0    0  501  0.00000000000E+00  0.00000000000E+00 -0.79710516451E+03  0.79710516452E+03  0.50400001928E-02 0.  1.
    10030    2    1    2    0    0  0.00000000000E+00  0.00000000000E+00  0.98777033025E+03  0.25819806593E+04  0.23855678359E+04 0.  0.
        2    1    3    3  502    0 -0.41569163057E+03  0.11125536986E+04  0.37454241242E+03  0.12453342052E+04  0.25500000920E-02 0.  1.
       -2    1    3    3    0  502  0.41569163057E+03 -0.11125536986E+04  0.61322791783E+03  0.13366464541E+04  0.25500000920E-02 0. -1.
</event>
<event>
 5   0  0.1154897E-05  0.2395087E+04  0.7818609E-02  0.8441345E-01
       -2   -1    0    0    0  501  0.00000000000E+00  0.00000000000E+00  0.64057995616E+03  0.64057995617E+03  0.25500000920E-02 0.  1.
        2   -1    0    0  501    0  0.00000000000E+00  0.00000000000E+00 -0.22387692709E+04  0.22387692709E+04  0.25500000920E-02 0. -1.
    10030    2    1    2    0    0  0.00000000000E+00  0.00000000000E+00 -0.15981893147E+04  0.28793492270E+04  0.23950872397E+04 0.  0.
        4    1    3    3  502    0 -0.13299424174E+03  0.28283414640E+03  0.59068369386E+03  0.66827498965E+03  0.12699999809E+01 0.  1.
       -4    1    3    3    0  502  0.13299424174E+03 -0.28283414640E+03 -0.21888730086E+04  0.22110742374E+04  0.12699999809E+01 0. -1.
</event>
<event>
 5   0  0.5196696E-06  0.2396712E+04  0.7818609E-02  0.8440735E-01
       -1   -1    0    0    0  501  0.00000000000E+00  0.00000000000E+00  0.46545299150E+03  0.46545299153E+03  0.50400001928E-02 0. -1.
        1   -1    0    0  501    0  0.00000000000E+00  0.00000000000E+00 -0.30852898800E+04  0.30852898800E+04  0.50400001928E-02 0.  1.
    10030    2    1    2    0    0  0.00000000000E+00  0.00000000000E+00 -0.26198368885E+04  0.35507428715E+04  0.23967122517E+04 0.  0.
        1    1    3    3  502    0  0.67916172410E+03  0.98616216909E+03 -0.12391630425E+04  0.17231661317E+04  0.50400001928E-02 0. -1.
       -1    1    3    3    0  502 -0.67916172410E+03 -0.98616216909E+03 -0.13806738460E+04  0.18275767399E+04  0.50400001928E-02 0.  1.
</event>
<event>
 5   0  0.1174210E-05  0.2409543E+04  0.7818609E-02  0.8435939E-01
       -2   -1    0    0    0  501  0.00000000000E+00  0.00000000000E+00  0.91706707193E+03  0.91706707193E+03  0.25500000920E-02 0. -1.
        2   -1    0    0  501    0  0.00000000000E+00  0.00000000000E+00 -0.15827356182E+04  0.15827356182E+04  0.25500000920E-02 0.  1.
    10030    2    1    2    0    0  0.00000000000E+00  0.00000000000E+00 -0.66566854623E+03  0.24998026901E+04  0.24095432920E+04 0.  0.
        3    1    3    3  502    0  0.70118228974E+03  0.97924813253E+03 -0.36380551730E+03  0.12581486292E+04  0.10100000352E+00 0.  1.
       -3    1    3    3    0  502 -0.70118228974E+03 -0.97924813253E+03 -0.30186302893E+03  0.12416540609E+04  0.10100000352E+00 0. -1.
</event>
<event>
 5   0  0.5196696E-06  0.2396009E+04  0.7818609E-02  0.8440999E-01
       -1   -1    0    0    0  501  0.00000000000E+00  0.00000000000E+00  0.12591591218E+04  0.12591591218E+04  0.50400001928E-02 0.  1.
        1   -1    0    0  501    0  0.00000000000E+00  0.00000000000E+00 -0.11398199038E+04  0.11398199038E+04  0.50400001928E-02 0. -1.
    10030    2    1    2    0    0  0.00000000000E+00  0.00000000000E+00  0.11933921801E+03  0.23989790256E+04  0.23960088724E+04 0.  0.
        1    1    3    3  502    0 -0.23764180509E+03  0.49658217034E+03 -0.10056734184E+04  0.11464931329E+04  0.50400001928E-02 0. -1.
       -1    1    3    3    0  502  0.23764180509E+03 -0.49658217034E+03  0.11250126364E+04  0.12524858927E+04  0.50400001928E-02 0.  1.
</event>
<event>
 5   0  0.1198313E-05  0.2387037E+04  0.7818609E-02  0.8444373E-01
       -2   -1    0    0    0  501  0.00000000000E+00  0.00000000000E+00  0.13151779537E+04  0.13151779537E+04  0.25500000920E-02 0.  1.
        2   -1    0    0  501    0  0.00000000000E+00  0.00000000000E+00 -0.10831126536E+04  0.10831126536E+04  0.25500000920E-02 0. -1.
    10030    2    1    2    0    0  0.00000000000E+00  0.00000000000E+00  0.23206530010E+03  0.23982906074E+04  0.23870365590E+04 0.  0.
        5    1    3    3  502    0 -0.41502505899E+03  0.37666866605E+02  0.12396968221E+04  0.13078741885E+04  0.46999998093E+01 0.  1.
       -5    1    3    3    0  502  0.41502505899E+03 -0.37666866605E+02 -0.10076315220E+04  0.10904164188E+04  0.46999998093E+01 0. -1.
</event>
<event>
 5   0  0.5034479E-06  0.2400311E+04  0.7818609E-02  0.8439387E-01
       -1   -1    0    0    0  501  0.00000000000E+00  0.00000000000E+00  0.70291944698E+03  0.70291944700E+03  0.50400001928E-02 0.  1.
        1   -1    0    0  501    0  0.00000000000E+00  0.00000000000E+00 -0.20491291436E+04  0.20491291436E+04  0.50400001928E-02 0. -1.
    10030    2    1    2    0    0  0.00000000000E+00  0.00000000000E+00 -0.13462096966E+04  0.27520485906E+04  0.24003105836E+04 0.  0.
        4    1    3    3  502    0  0.39571272374E+03  0.32652987748E+03 -0.19170652377E+04  0.19845279184E+04  0.12699999809E+01 0. -1.
       -4    1    3    3    0  502 -0.39571272374E+03 -0.32652987748E+03  0.57085554103E+03  0.76752067219E+03  0.12699999809E+01 0.  1.
</event>
<event>
 5   0  0.1169371E-05  0.2385935E+04  0.7818609E-02  0.8444788E-01
        2   -1    0    0  501    0  0.00000000000E+00  0.00000000000E+00  0.11993500161E+04  0.11993500161E+04  0.25500000920E-02 0.  1.
       -2   -1    0    0    0  501  0.00000000000E+00  0.00000000000E+00 -0.11866189960E+04  0.11866189960E+04  0.25500000920E-02 0. -1.
    10030    2    1    2    0    0  0.00000000000E+00  0.00000000000E+00  0.12731020155E+02  0.23859690121E+04  0.23859350468E+04 0.  0.
        2    1    3    3  502    0 -0.80672871479E+03 -0.82377311123E+03 -0.29983838164E+03  0.11913506676E+04  0.25500000920E-02 0.  1.
       -2    1    3    3    0  502  0.80672871479E+03  0.82377311123E+03  0.31256940179E+03  0.11946183445E+04  0.25500000920E-02 0. -1.
</event>
<event>
 5   0  0.1174210E-05  0.2407454E+04  0.7818609E-02  0.8436718E-01
        2   -1    0    0  501    0  0.00000000000E+00  0.00000000000E+00  0.20389935468E+04  0.20389935468E+04  0.25500000920E-02 0. -1.
       -2   -1    0    0    0  501  0.00000000000E+00  0.00000000000E+00 -0.71062433043E+03  0.71062433043E+03  0.25500000920E-02 0.  1.
    10030    2    1    2    0    0  0.00000000000E+00  0.00000000000E+00  0.13283692164E+04  0.27496178772E+04  0.24074537785E+04 0.  0.
        3    1    3    3  502    0  0.59382899003E+03  0.88961398293E+03  0.12948543625E+04  0.16794921072E+04  0.10100000352E+00 0. -1.
       -3    1    3    3    0  502 -0.59382899003E+03 -0.88961398293E+03  0.33514853913E+02  0.10701257700E+04  0.10100000352E+00 0.  1.
</event>
<event>
 5   0  0.5042742E-06  0.2400227E+04  0.7818609E-02  0.8439419E-01
        1   -1    0    0  501    0  0.00000000000E+00  0.00000000000E+00  0.15499436029E+04  0.15499436030E+04  0.50400001928E-02 0. -1.
       -1   -1    0    0    0  501  0.00000000000E+00  0.00000000000E+00 -0.92924187199E+03  0.92924187201E+03  0.50400001928E-02 0.  1.
    10030    2    1    2    0    0  0.00000000000E+00  0.00000000000E+00  0.62070173095E+03  0.24791854750E+04  0.24002270685E+04 0.  0.
        5    1    3    3  502    0 -0.24251788412E+03 -0.17351301996E+03  0.15110582786E+04  0.15402080715E+04  0.46999998093E+01 0. -1.
       -5    1    3    3    0  502  0.24251788412E+03  0.17351301996E+03 -0.89035654766E+03  0.93897740344E+03  0.46999998093E+01 0.  1.
</event>
<event>
 5   0  0.4067750E-06  0.2281492E+04  0.7818609E-02  0.8485255E-01
        4   -1    0    0  501    0  0.00000000000E+00  0.00000000000E+00  0.95419007684E+03  0.95419092201E+03  0.12699999809E+01 0. -1.
       -4   -1    0    0    0  501  0.00000000000E+00  0.00000000000E+00 -0.13637736213E+04  0.13637742126E+04  0.12699999809E+01 0.  1.
    10030    2    1    2    0    0  0.00000000000E+00  0.00000000000E+00 -0.40958354442E+03  0.23179651346E+04  0.22814915484E+04 0.  0.
        2    1    3    3  502    0  0.16560432447E+03 -0.89302533142E+03 -0.90603011536E+03  0.12828911118E+04  0.25500000920E-02 0.  1.
       -2    1    3    3    0  502 -0.16560432447E+03  0.89302533142E+03  0.49644657093E+03  0.10350740228E+04  0.25500000920E-02 0. -1.
</event>
<event>
 5   0  0.1154897E-05  0.2343772E+04  0.7818609E-02  0.8460860E-01
       -2   -1    0    0    0  501  0.00000000000E+00  0.00000000000E+00  0.83256521588E+03  0.83256521588E+03  0.25500000920E-02 0. -1.
        2   -1    0    0  501    0  0.00000000000E+00  0.00000000000E+00 -0.16495000985E+04  0.16495000985E+04  0.25500000920E-02 0.  1.
    10030    2    1    2    0    0  0.00000000000E+00  0.00000000000E+00 -0.81693488265E+03  0.24820653144E+04  0.23437716660E+04 0.  0.
        4    1    3    3  502    0 -0.58230086949E+03  0.76926708890E+03  0.29596468086E+03  0.10091793012E+04  0.12699999809E+01 0. -1.
       -4    1    3    3    0  502  0.58230086949E+03 -0.76926708890E+03 -0.11128995635E+04  0.14728860133E+04  0.12699999809E+01 0.  1.
</event>
<event>
 5   0  0.1169371E-05  0.2404893E+04  0.7818609E-02  0.8437674E-01
       -2   -1    0    0    0  501  0.00000000000E+00  0.00000000000E+00  0.84936397236E+03  0.84936397237E+03  0.25500000920E-02 0. -1.
        2   -1    0    0  501    0  0.00000000000E+00  0.00000000000E+00 -0.17023061715E+04  0.17023061715E+04  0.25500000920E-02 0.  1.
    10030    2    1    2    0    0  0.00000000000E+00  0.00000000000E+00 -0.85294219917E+03  0.25516701439E+04  0.24048929557E+04 0.  0.
        2    1    3    3  502    0 -0.95841997857E+03  0.70960943421E+03 -0.59003241020E+03  0.13305084177E+04  0.25500000920E-02 0. -1.
       -2    1    3    3    0  502  0.95841997857E+03 -0.70960943421E+03 -0.26290978897E+03  0.12211617262E+04  0.25500000920E-02 0.  1.
</event>
<event>
 5   0  0.5064437E-06  0.2396892E+04  0.7818609E-02  0.8440668E-01
        1   -1    0    0  501    0  0.00000000000E+00  0.00000000000E+00  0.14858103256E+04  0.14858103256E+04  0.50400001928E-02 0. -1.
       -1   -1    0    0    0  501  0.00000000000E+00  0.00000000000E+00 -0.96665961883E+03  0.96665961885E+03  0.50400001928E-02 0.  1.
    10030    2    1    2    0    0  0.00000000000E+00  0.00000000000E+00  0.51915070678E+03  0.24524699445E+04  0.23968920235E+04 0.  0.
        2    1    3    3  502    0 -0.44950991368E+03  0.10211449238E+04  0.70730228522E+03  0.13210119760E+04  0.25500000920E-02 0.  1.
       -2    1    3    3    0  502  0.44950991368E+03 -0.10211449238E+04 -0.18815157844E+03  0.11314579685E+04  0.25500000920E-02 0. -1.
</event>
<event>
 5   0  0.1169371E-05  0.2402371E+04  0.7818609E-02  0.8438616E-01
       -2   -1    0    0    0  501  0.00000000000E+00  0.00000000000E+00  0.11091023516E+04  0.11091023516E+04  0.25500000920E-02 0.  1.
        2   -1    0    0  501    0  0.00000000000E+00  0.00000000000E+00 -0.13009139152E+04  0.13009139153E+04  0.25500000920E-02 0. -1.
    10030    2    1    2    0    0  0.00000000000E+00  0.00000000000E+00 -0.19181156363E+03  0.24100162669E+04  0.24023710643E+04 0.  0.
        2    1    3    3  502    0 -0.86339326102E+03 -0.83051665675E+03 -0.18359586965E+03  0.12119873282E+04  0.25500000920E-02 0.  1.
       -2    1    3    3    0  502  0.86339326102E+03  0.83051665675E+03 -0.82156939772E+01  0.11980289387E+04  0.25500000920E-02 0. -1.
</event>
<event>
 5   0  0.1198313E-05  0.2422955E+04  0.7818609E-02  0.8430959E-01
       -2   -1    0    0    0  501  0.00000000000E+00  0.00000000000E+00  0.79474618256E+03  0.79474618257E+03  0.25500000920E-02 0.  1.
        2   -1    0    0  501    0  0.00000000000E+00  0.00000000000E+00 -0.18467248796E+04  0.18467248796E+04  0.25500000920E-02 0. -1.
    10030    2    1    2    0    0  0.00000000000E+00  0.00000000000E+00 -0.10519786970E+04  0.26414710622E+04  0.24229548475E+04 0.  0.
        5    1    3    3  502    0  0.94186472213E+03  0.32848028828E+03 -0.12754847814E+04  0.16192257323E+04  0.46999998093E+01 0. -1.
       -5    1    3    3    0  502 -0.94186472213E+03 -0.32848028828E+03  0.22350608440E+03  0.10222453298E+04  0.46999998093E+01 0.  1.
</event>
<event>
 5   0  0.1154897E-05  0.2382747E+04  0.7818609E-02  0.8445991E-01
        2   -1    0    0  501    0  0.00000000000E+00  0.00000000000E+00  0.20749051959E+04  0.20749051959E+04  0.25500000920E-02 0. -1.
       -2   -1    0    0    0  501  0.00000000000E+00  0.00000000000E+00 -0.68406554041E+03  0.68406554042E+03  0.25500000920E-02 0.  1.
    10030    2    1    2    0    0  0.00000000000E+00  0.00000000000E+00  0.13908396555E+04  0.27589707363E+04  0.23827472750E+04 0.  0.
        4    1    3    3  502    0 -0.83425293125E+03  0.73939256478E+03  0.11821355325E+04  0.16248462537E+04  0.12699999809E+01 0. -1.
       -4    1    3    3    0  502  0.83425293125E+03 -0.73939256478E+03  0.20870412299E+03  0.11341244826E+04  0.12699999809E+01 0.  1.
</event>
<event>
 5   0  0.1169371E-05  0.2409679E+04  0.7818609E-02  0.8435889E-01
       -2   -1    0    0    0  501  0.00000000000E+00  0.00000000000E+00  0.10730367199E+04  0.10730367199E+04  0.25500000920E-02 0. -1.
        2   -1    0    0  501    0  0.00000000000E+00  0.00000000000E+00 -0.13528319842E+04  0.13528319842E+04  0.25500000920E-02 0.  1.
    10030    2    1    2    0    0  0.00000000000E+00  0.00000000000E+00 -0.27979526430E+03  0.24258687041E+04  0.24096791445E+04 0.  0.
        2    1    3    3  502    0 -0.29986438424E+03  0.21395721904E+03 -0.12947499648E+04  0.13461329102E+04  0.25500000920E-02 0.  1.
       -2    1    3    3    0  502  0.29986438424E+03 -0.21395721904E+03  0.10149547005E+04  0.10797357939E+04  0.25500000920E-02 0. -1.
</event>
<event>
 5   0  0.1198313E-05  0.2372308E+04  0.7818609E-02  0.8449944E-01
       -2   -1    0    0    0  501  0.00000000000E+00  0.00000000000E+00  0.84749013404E+03  0.84749013404E+03  0.25500000920E-02 0.  1.
        2   -1    0    0  501    0  0.00000000000E+00  0.00000000000E+00 -0.16601511645E+04  0.16601511645E+04  0.25500000920E-02 0. -1.
    10030    2    1    2    0    0  0.00000000000E+00  0.00000000000E+00 -0.81266103044E+03  0.25076412985E+04  0.23723083551E+04 0.  0.
        5    1    3    3  502    0  0.37811430648E+03 -0.50178069005E+03  0.65713717410E+03  0.90917855521E+03  0.46999998093E+01 0.  1.
       -5    1    3    3    0  502 -0.37811430648E+03  0.50178069005E+03 -0.14697982045E+04  0.15984627433E+04  0.46999998093E+01 0. -1.
</event>
<event>
 5   0  0.5196696E-06  0.2399046E+04  0.7818609E-02  0.8439861E-01
        1   -1    0    0  501    0  0.00000000000E+00  0.00000000000E+00  0.13689949819E+04  0.13689949819E+04  0.50400001928E-02 0. -1.
       -1   -1    0    0    0  501  0.00000000000E+00  0.00000000000E+00 -0.10510304463E+04  0.10510304463E+04  0.50400001928E-02 0.  1.
    10030    2    1    2    0    0  0.00000000000E+00  0.00000000000E+00  0.31796453553E+03  0.24200254282E+04  0.23990459828E+04 0.  0.
        1    1    3    3  502    0  0.99543574769E+02  0.13503908299E+03 -0.10391378835E+04  0.10525929974E+04  0.50400001928E-02 0.  1.
       -1    1    3    3    0  502 -0.99543574769E+02 -0.13503908299E+03  0.13571024190E+04  0.13674324308E+04  0.50400001928E-02 0. -1.
</event>
<event>
 5   0  0.1174210E-05  0.2406573E+04  0.7818609E-02  0.8437047E-01
        2   -1    0    0  501    0  0.00000000000E+00  0.00000000000E+00  0.14229852906E+04  0.14229852906E+04  0.25500000920E-02 0.  1.
       -2   -1    0    0    0  501  0.00000000000E+00  0.00000000000E+00 -0.10175075061E+04  0.10175075061E+04  0.25500000920E-02 0. -1.
    10030    2    1    2    0    0  0.00000000000E+00  0.00000000000E+00  0.40547778449E+03  0.24404927966E+04  0.24065728446E+04 0.  0.
        3    1    3    3  502    0 -0.10606572622E+04  0.40780257535E+03 -0.19856778684E+03  0.11535709533E+04  0.10100000352E+00 0.  1.
       -3    1    3    3    0  502  0.10606572622E+04 -0.40780257535E+03  0.60404557134E+03  0.12869218433E+04  0.10100000352E+00 0. -1.
</event>
<event>
 5   0  0.5196696E-06  0.2415046E+04  0.7818609E-02  0.8433892E-01
        1   -1    0    0  501    0  0.00000000000E+00  0.00000000000E+00  0.18424783795E+04  0.18424783795E+04  0.50400001928E-02 0.  1.
       -1   -1    0    0    0  501  0.00000000000E+00  0.00000000000E+00 -0.79138591739E+03  0.79138591741E+03  0.50400001928E-02 0. -1.
    10030    2    1    2    0    0  0.00000000000E+00  0.00000000000E+00  0.10510924621E+04  0.26338642969E+04  0.24150457078E+04 0.  0.
        1    1    3    3  502    0  0.46697993543E+03  0.11128343768E+04  0.48136883040E+03  0.12993023363E+04  0.50400001928E-02 0. -1.
       -1    1    3    3    0  502 -0.46697993543E+03 -0.11128343768E+04  0.56972363170E+03  0.13345619606E+04  0.50400001928E-02 0.  1.
</event>
<event>
 5   0  0.1169371E-05  0.2391983E+04  0.7818609E-02  0.8442511E-01
        2   -1    0    0  501    0  0.00000000000E+00  0.00000000000E+00  0.16604817366E+04  0.16604817366E+04  0.25500000920E-02 0.  1.
       -2   -1    0    0    0  501  0.00000000000E+00  0.00000000000E+00 -0.86143438528E+03  0.86143438529E+03  0.25500000920E-02 0. -1.
    10030    2    1    2    0    0  0.00000000000E+00  0.00000000000E+00  0.79904735135E+03  0.25219161219E+04  0.23919833311E+04 0.  0.
        2    1    3    3  502    0 -0.32736939346E+03 -0.97726326654E+03 -0.24021657795E+03  0.10582618845E+04  0.25500000920E-02 0. -1.
       -2    1    3    3    0  502  0.32736939346E+03  0.97726326654E+03  0.10392639293E+04  0.14636542374E+04  0.25500000920E-02 0.  1.
</event>
<event>
 5   0  0.1198313E-05  0.2402057E+04  0.7818609E-02  0.8438734E-01
       -2   -1    0    0    0  501  0.00000000000E+00  0.00000000000E+00  0.77294692387E+03  0.77294692388E+03  0.25500000920E-02 0.  1.
        2   -1    0    0  501    0  0.00000000000E+00  0.00000000000E+00 -0.18661947519E+04  0.18661947519E+04  0.25500000920E-02 0. -1.
    10030    2    1    2    0    0  0.00000000000E+00  0.00000000000E+00 -0.10932478280E+04  0.26391416758E+04  0.24020570292E+04 0.  0.
        5    1    3    3  502    0 -0.29207259007E+03 -0.95948070710E+03  0.17929866916E+03  0.10188619769E+04  0.46999998093E+01 0.  1.
       -5    1    3    3    0  502  0.29207259007E+03  0.95948070710E+03 -0.12725464972E+04  0.16202796989E+04  0.46999998093E+01 0. -1.
</event>
<event>
 5   0  0.5104174E-06  0.2399021E+04  0.7818609E-02  0.8439870E-01
        1   -1    0    0  501    0  0.00000000000E+00  0.00000000000E+00  0.10587296841E+04  0.10587296841E+04  0.50400001928E-02 0. -1.
       -1   -1    0    0    0  501  0.00000000000E+00  0.00000000000E+00 -0.13590106712E+04  0.13590106712E+04  0.50400001928E-02 0.  1.
    10030    2    1    2    0    0  0.00000000000E+00  0.00000000000E+00 -0.30028098708E+03  0.24177403553E+04  0.23990205823E+04 0.  0.
        3    1    3    3  502    0 -0.92200949209E+03  0.63079433941E+03  0.29009983438E+03  0.11541927596E+04  0.10100000352E+00 0. -1.
       -3    1    3    3    0  502  0.92200949209E+03 -0.63079433941E+03 -0.59038082146E+03  0.12635475957E+04  0.10100000352E+00 0.  1.
</event>
<event>
 5   0  0.5034479E-06  0.2400469E+04  0.7818609E-02  0.8439328E-01
        1   -1    0    0  501    0  0.00000000000E+00  0.00000000000E+00  0.14344353095E+04  0.14344353095E+04  0.50400001928E-02 0. -1.
       -1   -1    0    0    0  501  0.00000000000E+00  0.00000000000E+00 -0.10042721168E+04  0.10042721168E+04  0.50400001928E-02 0.  1.
    10030    2    1    2    0    0  0.00000000000E+00  0.00000000000E+00  0.43016319267E+03  0.24387074264E+04  0.24004694414E+04 0.  0.
        4    1    3    3  502    0  0.52499356908E+03  0.72309456524E+03  0.10291433244E+04  0.13629459244E+04  0.12699999809E+01 0. -1.
       -4    1    3    3    0  502 -0.52499356908E+03 -0.72309456524E+03 -0.59898013176E+03  0.10757615019E+04  0.12699999809E+01 0.  1.
</event>
<event>
 5   0  0.5042742E-06  0.2484027E+04  0.7818609E-02  0.8408698E-01
        1   -1    0    0  501    0  0.00000000000E+00  0.00000000000E+00  0.14653162063E+04  0.14653162063E+04  0.50400001928E-02 0. -1.
       -1   -1    0    0    0  501  0.00000000000E+00  0.00000000000E+00 -0.10527406980E+04  0.10527406980E+04  0.50400001928E-02 0.  1.
    10030    2    1    2    0    0  0.00000000000E+00  0.00000000000E+00  0.41257550830E+03  0.25180569042E+04  0.24840273797E+04 0.  0.
        5    1    3    3  502    0  0.41438845122E+03  0.64221401748E+03 -0.78611265191E+03  0.10964268440E+04  0.46999998093E+01 0.  1.
       -5    1    3    3    0  502 -0.41438845122E+03 -0.64221401748E+03  0.11986881602E+04  0.14216300602E+04  0.46999998093E+01 0. -1.
</event>
<event>
 5   0  0.4067750E-06  0.2402034E+04  0.7818609E-02  0.8438742E-01
       -3   -1    0    0    0  501  0.00000000000E+00  0.00000000000E+00  0.11046461769E+04  0.11046461815E+04  0.10100000352E+00 0.  1.
        3   -1    0    0  501    0  0.00000000000E+00  0.00000000000E+00 -0.13057957579E+04  0.13057957618E+04  0.10100000352E+00 0. -1.
    10030    2    1    2    0    0  0.00000000000E+00  0.00000000000E+00 -0.20114958100E+03  0.24104419433E+04  0.24020343894E+04 0.  0.
        1    1    3    3  502    0 -0.58458425468E+03  0.27947391879E+03 -0.11153501165E+04  0.12899032152E+04  0.50400001928E-02 0. -1.
       -1    1    3    3    0  502  0.58458425468E+03 -0.27947391879E+03  0.91420053548E+03  0.11205387281E+04  0.50400001928E-02 0.  1.
</event>
<event>
 5   0  0.5104174E-06  0.2361464E+04  0.7818609E-02  0.8454073E-01
        1   -1    0    0  501    0  0.00000000000E+00  0.00000000000E+00  0.15144799132E+04  0.15144799132E+04  0.50400001928E-02 0. -1.
       -1   -1    0    0    0  501  0.00000000000E+00  0.00000000000E+00 -0.92053268165E+03  0.92053268167E+03  0.50400001928E-02 0.  1.
    10030    2    1    2    0    0  0.00000000000E+00  0.00000000000E+00  0.59394723157E+03  0.24350125949E+04  0.23614641694E+04 0.  0.
        3    1    3    3  502    0  0.10193601878E+04 -0.22848598678E+03  0.86441015361E+03  0.13559151753E+04  0.10100000352E+00 0. -1.
       -3    1    3    3    0  502 -0.10193601878E+04  0.22848598678E+03 -0.27046292205E+03  0.10790974196E+04  0.10100000352E+00 0.  1.
</event>
<event>
 5   0  0.1198313E-05  0.2402225E+04  0.7818609E-02  0.8438671E-01
       -2   -1    0    0    0  501  0.00000000000E+00  0.00000000000E+00  0.10470645139E+04  0.10470645139E+04  0.25500000920E-02 0.  1.
        2   -1    0    0  501    0  0.00000000000E+00  0.00000000000E+00 -0.13778241684E+04  0.13778241684E+04  0.25500000920E-02 0. -1.
    10030    2    1    2    0    0  0.00000000000E+00  0.00000000000E+00 -0.33075965450E+03  0.24248886824E+04  0.24022246300E+04 0.  0.
        5    1    3    3  502    0 -0.10645603147E+04  0.50049621331E+03  0.79527358069E+02  0.11790385125E+04  0.46999998093E+01 0.  1.
       -5    1    3    3    0  502  0.10645603147E+04 -0.50049621331E+03 -0.41028701257E+03  0.12458501699E+04  0.46999998093E+01 0. -1.
</event>
<event>
 5   0  0.4067750E-06  0.2402189E+04  0.7818609E-02  0.8438685E-01
        3   -1    0    0  501    0  0.00000000000E+00  0.00000000000E+00  0.17574705521E+04  0.17574705550E+04  0.10100000352E+00 0. -1.
       -3   -1    0    0    0  501  0.00000000000E+00  0.00000000000E+00 -0.82085453440E+03  0.82085454062E+03  0.10100000352E+00 0.  1.
    10030    2    1    2    0    0  0.00000000000E+00  0.00000000000E+00  0.93661601770E+03  0.25783250956E+04  0.24021887382E+04 0.  0.
        1    1    3    3  502    0 -0.49808744375E+03 -0.10601580044E+04  0.75350030031E+03  0.13927630087E+04  0.50400001928E-02 0. -1.
       -1    1    3    3    0  502  0.49808744375E+03  0.10601580044E+04  0.18311571740E+03  0.11855620869E+04  0.50400001928E-02 0.  1.
</event>
<event>
 5   0  0.1198313E-05  0.2389724E+04  0.7818609E-02  0.8443361E-01
        2   -1    0    0  501    0  0.00000000000E+00  0.00000000000E+00  0.12309607880E+04  0.12309607880E+04  0.25500000920E-02 0. -1.
       -2   -1    0    0    0  501  0.00000000000E+00  0.00000000000E+00 -0.11598215225E+04  0.11598215225E+04  0.25500000920E-02 0.  1.
    10030    2    1    2    0    0  0.00000000000E+00  0.00000000000E+00  0.71139265479E+02  0.23907823105E+04  0.23897236788E+04 0.  0.
        5    1    3    3  502    0 -0.18619822430E+03  0.11711422870E+04 -0.11088063162E+03  0.11910334334E+04  0.46999998093E+01 0.  1.
       -5    1    3    3    0  502  0.18619822430E+03 -0.11711422870E+04  0.18201989710E+03  0.11997488771E+04  0.46999998093E+01 0. -1.
</event>
<event>
 5   0  0.5196696E-06  0.2395886E+04  0.7818609E-02  0.8441045E-01
       -1   -1    0    0    0  501  0.00000000000E+00  0.00000000000E+00  0.67050513860E+03  0.67050513862E+03  0.50400001928E-02 0.  1.
        1   -1    0    0  501    0  0.00000000000E+00  0.00000000000E+00 -0.21402788166E+04  0.21402788166E+04  0.50400001928E-02 0. -1.
    10030    2    1    2    0    0  0.00000000000E+00  0.00000000000E+00 -0.14697736780E+04  0.28107839553E+04  0.23958864285E+04 0.  0.
        1    1    3    3  502    0  0.99386032674E+03 -0.59761824939E+03 -0.38261894472E+03  0.12211892474E+04  0.50400001928E-02 0.  1.
       -1    1    3    3    0  502 -0.99386032674E+03  0.59761824939E+03 -0.10871547333E+04  0.15895947079E+04  0.50400001928E-02 0. -1.
</event>
<event>
 5   0  0.5042742E-06  0.2391259E+04  0.7818609E-02  0.8442783E-01
       -1   -1    0    0    0  501  0.00000000000E+00  0.00000000000E+00  0.74923547662E+03  0.74923547664E+03  0.50400001928E-02 0. -1.
        1   -1    0    0  501    0  0.00000000000E+00  0.00000000000E+00 -0.19079843457E+04  0.19079843457E+04  0.50400001928E-02 0.  1.
    10030    2    1    2    0    0  0.00000000000E+00  0.00000000000E+00 -0.11587488691E+04  0.26572198224E+04  0.23912587151E+04 0.  0.
        5    1    3    3  502    0  0.85843696579E+03 -0.37269763235E+03  0.24748983724E+03  0.96803453395E+03  0.46999998093E+01 0. -1.
       -5    1    3    3    0  502 -0.85843696579E+03  0.37269763235E+03 -0.14062387063E+04  0.16891852884E+04  0.46999998093E+01 0.  1.
</event>
<event>
 5   0  0.1174210E-05  0.2403744E+04  0.7818609E-02  0.8438103E-01
        2   -1    0    0  501    0  0.00000000000E+00  0.00000000000E+00  0.13098301072E+04  0.13098301072E+04  0.25500000920E-02 0.  1.
       -2   -1    0    0    0  501  0.00000000000E+00  0.00000000000E+00 -0.11028122804E+04  0.11028122805E+04  0.25500000920E-02 0. -1.
    10030    2    1    2    0    0  0.00000000000E+00  0.00000000000E+00  0.20701782671E+03  0.24126423876E+04  0.24037443520E+04 0.  0.
        3    1    3    3  502    0 -0.23695778949E+03 -0.11869890913E+03 -0.10731182222E+04  0.11053601920E+04  0.10100000352E+00 0. -1.
       -3    1    3    3    0  502  0.23695778949E+03  0.11869890913E+03  0.12801360489E+04  0.13072821956E+04  0.10100000352E+00 0.  1.
</event>
<event>
 5   0  0.1198313E-05  0.2401597E+04  0.7818609E-02  0.8438906E-01
       -2   -1    0    0    0  501  0.00000000000E+00  0.00000000000E+00  0.14518516498E+04  0.14518516498E+04  0.25500000920E-02 0.  1.
        2   -1    0    0  501    0  0.00000000000E+00  0.00000000000E+00 -0.99315707780E+03  0.99315707780E+03  0.25500000920E-02 0. -1.
    10030    2    1    2    0    0  0.00000000000E+00  0.00000000000E+00  0.45869457200E+03  0.24450087276E+04  0.24015967538E+04 0.  0.
        5    1    3    3  502    0  0.79387081966E+03 -0.67063989926E+03 -0.38311331609E+03  0.11076040158E+04  0.46999998093E+01 0. -1.
       -5    1    3    3    0  502 -0.79387081966E+03  0.67063989926E+03  0.84180788809E+03  0.13374047118E+04  0.46999998093E+01 0.  1.
</event>
<event>
 5   0  0.4067750E-06  0.2397966E+04  0.7818609E-02  0.8440265E-01
       -3   -1    0    0    0  501  0.00000000000E+00  0.00000000000E+00  0.10778208845E+04  0.10778208893E+04  0.10100000352E+00 0. -1.
        3   -1    0    0  501    0  0.00000000000E+00  0.00000000000E+00 -0.13337654423E+04  0.13337654462E+04  0.10100000352E+00 0.  1.
    10030    2    1    2    0    0  0.00000000000E+00  0.00000000000E+00 -0.25594455781E+03  0.24115863354E+04  0.23979660207E+04 0.  0.
        5    1    3    3  502    0  0.37450870812E+03  0.35296929384E+02 -0.12728740897E+04  0.13273029737E+04  0.46999998093E+01 0.  1.
       -5    1    3    3    0  502 -0.37450870812E+03 -0.35296929384E+02  0.10169295319E+04  0.10842833617E+04  0.46999998093E+01 0. -1.
</event>
<event>
 5   0  0.1154897E-05  0.2407030E+04  0.7818609E-02  0.8436876E-01
        2   -1    0    0  501    0  0.00000000000E+00  0.00000000000E+00  0.12368984144E+04  0.12368984144E+04  0.25500000920E-02 0. -1.
       -2   -1    0    0    0  501  0.00000000000E+00  0.00000000000E+00 -0.11710323409E+04  0.11710323409E+04  0.25500000920E-02 0.  1.
    10030    2    1    2    0    0  0.00000000000E+00  0.00000000000E+00  0.65866073461E+02  0.24079307553E+04  0.24070297428E+04 0.  0.
        4    1    3    3  502    0  0.21792342574E+03 -0.11659999305E+04 -0.17061296625E+03  0.11983976195E+04  0.12699999809E+01 0. -1.
       -4    1    3    3    0  502 -0.21792342574E+03  0.11659999305E+04  0.23647903971E+03  0.12095331357E+04  0.12699999809E+01 0.  1.
</event>
<event>
 5   0  0.5104174E-06  0.2546962E+04  0.7818609E-02  0.8386444E-01
       -1   -1    0    0    0  501  0.00000000000E+00  0.00000000000E+00  0.11353368639E+04  0.11353368639E+04  0.50400001928E-02 0.  1.
        1   -1    0    0  501    0  0.00000000000E+00  0.00000000000E+00 -0.14284340544E+04  0.14284340544E+04  0.50400001928E-02 0. -1.
    10030    2    1    2    0    0  0.00000000000E+00  0.00000000000E+00 -0.29309719045E+03  0.25637709183E+04  0.25469619861E+04 0.  0.
        3    1    3    3  502    0 -0.27452958510E+03  0.11896322905E+04 -0.51110215888E+03  0.13235622036E+04  0.10100000352E+00 0. -1.
       -3    1    3    3    0  502  0.27452958510E+03 -0.11896322905E+04  0.21800496843E+03  0.12402087148E+04  0.10100000352E+00 0.  1.
</event>
<event>
 5   0  0.5034479E-06  0.2400951E+04  0.7818609E-02  0.8439148E-01
       -1   -1    0    0    0  501  0.00000000000E+00  0.00000000000E+00  0.10778967649E+04  0.10778967649E+04  0.50400001928E-02 0.  1.
        1   -1    0    0  501    0  0.00000000000E+00  0.00000000000E+00 -0.13369940904E+04  0.13369940904E+04  0.50400001928E-02 0. -1.
    10030    2    1    2    0    0  0.00000000000E+00  0.00000000000E+00 -0.25909732552E+03  0.24148908553E+04  0.24009511488E+04 0.  0.
        4    1    3    3  502    0 -0.50483542574E+03  0.68780081618E+03  0.71987287204E+03  0.11163096948E+04  0.12699999809E+01 0.  1.
       -4    1    3    3    0  502  0.50483542574E+03 -0.68780081618E+03 -0.97897019756E+03  0.12985811605E+04  0.12699999809E+01 0. -1.
</event>
<event>
 5   0  0.5034479E-06  0.2399401E+04  0.7818609E-02  0.8439728E-01
       -1   -1    0    0    0  501  0.00000000000E+00  0.00000000000E+00  0.12151898607E+04  0.12151898607E+04  0.50400001928E-02 0. -1.
        1   -1    0    0  501    0  0.00000000000E+00  0.00000000000E+00 -0.11844086804E+04  0.11844086804E+04  0.50400001928E-02 0.  1.
    10030    2    1    2    0    0  0.00000000000E+00  0.00000000000E+00  0.30781180317E+02  0.23995985411E+04  0.23994011081E+04 0.  0.
        4    1    3    3  502    0 -0.90512891102E+03  0.57096097517E+03 -0.52689477295E+03  0.11928430305E+04  0.12699999809E+01 0.  1.
       -4    1    3    3    0  502  0.90512891102E+03 -0.57096097517E+03  0.55767595326E+03  0.12067555106E+04  0.12699999809E+01 0. -1.
</event>
<event>
 5   0  0.5034479E-06  0.2391545E+04  0.7818609E-02  0.8442676E-01
       -1   -1    0    0    0  501  0.00000000000E+00  0.00000000000E+00  0.14792439987E+04  0.14792439988E+04  0.50400001928E-02 0.  1.
        1   -1    0    0  501    0  0.00000000000E+00  0.00000000000E+00 -0.96662378443E+03  0.96662378444E+03  0.50400001928E-02 0. -1.
    10030    2    1    2    0    0  0.00000000000E+00  0.00000000000E+00  0.51262021432E+03  0.24458677832E+04  0.23915454687E+04 0.  0.
        4    1    3    3  502    0 -0.11804746810E+04  0.67549017967E+02  0.43865028039E+03  0.12611498816E+04  0.12699999809E+01 0.  1.
       -4    1    3    3    0  502  0.11804746810E+04 -0.67549017967E+02  0.73969933931E+02  0.11847179016E+04  0.12699999809E+01 0. -1.
</event>
<event>
 5   0  0.5196696E-06  0.2400623E+04  0.7818609E-02  0.8439270E-01
        1   -1    0    0  501    0  0.00000000000E+00  0.00000000000E+00  0.24334248576E+04  0.24334248576E+04  0.50400001928E-02 0. -1.
       -1   -1    0    0    0  501  0.00000000000E+00  0.00000000000E+00 -0.59206590760E+03  0.59206590762E+03  0.50400001928E-02 0.  1.
    10030    2    1    2    0    0  0.00000000000E+00  0.00000000000E+00  0.18413589500E+04  0.30254907652E+04  0.24006231665E+04 0.  0.
        1    1    3    3  502    0  0.19102990187E+03  0.11460056939E+04  0.13007086093E+04  0.17440368001E+04  0.50400001928E-02 0. -1.
       -1    1    3    3    0  502 -0.19102990187E+03 -0.11460056939E+04  0.54065034075E+03  0.12814539651E+04  0.50400001928E-02 0.  1.
</event>
<event>
 5   0  0.5042742E-06  0.2397996E+04  0.7818609E-02  0.8440254E-01
        1   -1    0    0  501    0  0.00000000000E+00  0.00000000000E+00  0.11752542125E+04  0.11752542125E+04  0.50400001928E-02 0.  1.
       -1   -1    0    0    0  501  0.00000000000E+00  0.00000000000E+00 -0.12232210759E+04  0.12232210759E+04  0.50400001928E-02 0. -1.
    10030    2    1    2    0    0  0.00000000000E+00  0.00000000000E+00 -0.47966863346E+02  0.23984752884E+04  0.23979955982E+04 0.  0.
        5    1    3    3  502    0 -0.70636911303E+03  0.50855049814E+03  0.80079822137E+03  0.11827429198E+04  0.46999998093E+01 0.  1.
       -5    1    3    3    0  502  0.70636911303E+03 -0.50855049814E+03 -0.84876508472E+03  0.12157323686E+04  0.46999998093E+01 0. -1.
</event>
<event>
 5   0  0.1154897E-05  0.2400875E+04  0.7818609E-02  0.8439176E-01
        2   -1    0    0  501    0  0.00000000000E+00  0.00000000000E+00  0.21141799281E+04  0.21141799281E+04  0.25500000920E-02 0.  1.
       -2   -1    0    0    0  501  0.00000000000E+00  0.00000000000E+00 -0.68161176264E+03  0.68161176265E+03  0.25500000920E-02 0. -1.
    10030    2    1    2    0    0  0.00000000000E+00  0.00000000000E+00  0.14325681655E+04  0.27957916908E+04  0.24008747634E+04 0.  0.
        4    1    3    3  502    0 -0.10046377003E+04 -0.17534485940E+03  0.14536965969E+04  0.17757472054E+04  0.12699999809E+01 0.  1.
       -4    1    3    3    0  502  0.10046377003E+04  0.17534485940E+03 -0.21128431464E+02  0.10200444854E+04  0.12699999809E+01 0. -1.
</event>
<event>
 5   0  0.5042742E-06  0.2392522E+04  0.7818609E-02  0.8442309E-01
       -1   -1    0    0    0  501  0.00000000000E+00  0.00000000000E+00  0.71841741343E+03  0.71841741345E+03  0.50400001928E-02 0. -1.
        1   -1    0    0  501    0  0.00000000000E+00  0.00000000000E+00 -0.19919341550E+04  0.19919341550E+04  0.50400001928E-02 0.  1.
    10030    2    1    2    0    0  0.00000000000E+00  0.00000000000E+00 -0.12735167415E+04  0.27103515684E+04  0.23925218355E+04 0.  0.
        5    1    3    3  502    0 -0.57172930815E+03 -0.72929290887E+03  0.22022483636E+03  0.95250386733E+03  0.46999998093E+01 0. -1.
       -5    1    3    3    0  502  0.57172930815E+03  0.72929290887E+03 -0.14937415779E+04  0.17578477011E+04  0.46999998093E+01 0.  1.
</event>
<event>
 5   0  0.1154897E-05  0.2396895E+04  0.7818609E-02  0.8440667E-01
        2   -1    0    0  501    0  0.00000000000E+00  0.00000000000E+00  0.11220655502E+04  0.11220655502E+04  0.25500000920E-02 0. -1.
       -2   -1    0    0    0  501  0.00000000000E+00  0.00000000000E+00 -0.12800286449E+04  0.12800286449E+04  0.25500000920E-02 0.  1.
    10030    2    1    2    0    0  0.00000000000E+00  0.00000000000E+00 -0.15796309471E+03  0.24020941950E+04  0.23968946958E+04 0.  0.
        4    1    3    3  502    0  0.60025472117E+03 -0.52612959553E+02  0.95921965741E+03  0.11327743897E+04  0.12699999809E+01 0. -1.
       -4    1    3    3    0  502 -0.60025472117E+03  0.52612959553E+02 -0.11171827521E+04  0.12693198054E+04  0.12699999809E+01 0.  1.
</event>
<event>
 5   0  0.5196696E-06  0.2406039E+04  0.7818609E-02  0.8437246E-01
        1   -1    0    0  501    0  0.00000000000E+00  0.00000000000E+00  0.13943206127E+04  0.13943206128E+04  0.50400001928E-02 0.  1.
       -1   -1    0    0    0  501  0.00000000000E+00  0.00000000000E+00 -0.10379650750E+04  0.10379650750E+04  0.50400001928E-02 0. -1.
    10030    2    1    2    0    0  0.00000000000E+00  0.00000000000E+00  0.35635553772E+03  0.24322856878E+04  0.24060391513E+04 0.  0.
        1    1    3    3  502    0  0.15481606315E+03  0.89244939803E+03  0.97853535269E+03  0.13334036815E+04  0.50400001928E-02 0.  1.
       -1    1    3    3    0  502 -0.15481606315E+03 -0.89244939803E+03 -0.62217981497E+03  0.10988820062E+04  0.50400001928E-02 0. -1.
</event>
<event>
 5   0  0.1168435E-05  0.2397742E+04  0.7818609E-02  0.8440349E-01
       -2   -1    0    0    0  501  0.00000000000E+00  0.00000000000E+00  0.65197375494E+03  0.65197375495E+03  0.25500000920E-02 0.  1.
        2   -1    0    0  501    0  0.00000000000E+00  0.00000000000E+00 -0.22045236268E+04  0.22045236268E+04  0.25500000920E-02 0. -1.
    10030    2    1    2    0    0  0.00000000000E+00  0.00000000000E+00 -0.15525498719E+04  0.28564973818E+04  0.23977418934E+04 0.  0.
        1    1    3    3  502    0 -0.11965092605E+04 -0.19581099467E+02 -0.86278961587E+03  0.14752707383E+04  0.50400001928E-02 0. -1.
       -1    1    3    3    0  502  0.11965092605E+04  0.19581099467E+02 -0.68976025601E+03  0.13812266435E+04  0.50400001928E-02 0.  1.
</event>
<event>
 5   0  0.5104174E-06  0.2400525E+04  0.7818609E-02  0.8439307E-01
        1   -1    0    0  501    0  0.00000000000E+00  0.00000000000E+00  0.13904242723E+04  0.13904242723E+04  0.50400001928E-02 0. -1.
       -1   -1    0    0    0  501  0.00000000000E+00  0.00000000000E+00 -0.10361080558E+04  0.10361080558E+04  0.50400001928E-02 0.  1.
    10030    2    1    2    0    0  0.00000000000E+00  0.00000000000E+00  0.35431621650E+03  0.24265323281E+04  0.24005247672E+04 0.  0.
        3    1    3    3  502    0  0.40910826697E+03  0.32684188448E+03  0.12688751384E+04  0.13726759700E+04  0.10100000352E+00 0. -1.
       -3    1    3    3    0  502 -0.40910826697E+03 -0.32684188448E+03 -0.91455892193E+03  0.10538563581E+04  0.10100000352E+00 0.  1.
</event>
<event>
 5   0  0.1169371E-05  0.2417006E+04  0.7818609E-02  0.8433164E-01
        2   -1    0    0  501    0  0.00000000000E+00  0.00000000000E+00  0.12780585610E+04  0.12780585610E+04  0.25500000920E-02 0.  1.
       -2   -1    0    0    0  501  0.00000000000E+00  0.00000000000E+00 -0.11427324476E+04  0.11427324476E+04  0.25500000920E-02 0. -1.
    10030    2    1    2    0    0  0.00000000000E+00  0.00000000000E+00  0.13532611333E+03  0.24207910086E+04  0.24170055752E+04 0.  0.
        2    1    3    3  502    0 -0.89663318696E+03 -0.21483443603E+03 -0.71482494510E+03  0.11666531657E+04  0.25500000920E-02 0. -1.
       -2    1    3    3    0  502  0.89663318696E+03  0.21483443603E+03  0.85015105843E+03  0.12541378429E+04  0.25500000920E-02 0.  1.
</event>
<event>
 5   0  0.5196696E-06  0.2390966E+04  0.7818609E-02  0.8442894E-01
       -1   -1    0    0    0  501  0.00000000000E+00  0.00000000000E+00  0.12574272237E+04  0.12574272237E+04  0.50400001928E-02 0. -1.
        1   -1    0    0  501    0  0.00000000000E+00  0.00000000000E+00 -0.11365899414E+04  0.11365899414E+04  0.50400001928E-02 0.  1.
    10030    2    1    2    0    0  0.00000000000E+00  0.00000000000E+00  0.12083728236E+03  0.23940171651E+04  0.23909656079E+04 0.  0.
        1    1    3    3  502    0  0.71931907632E+03 -0.92143377089E+03 -0.19033861954E+03  0.11843516867E+04  0.50400001928E-02 0. -1.
       -1    1    3    3    0  502 -0.71931907632E+03  0.92143377089E+03  0.31117590191E+03  0.12096654784E+04  0.50400001928E-02 0.  1.
</event>
<event>
 5   0  0.5104174E-06  0.2396734E+04  0.7818609E-02  0.8440727E-01
       -1   -1    0    0    0  501  0.00000000000E+00  0.00000000000E+00  0.10069310912E+04  0.10069310913E+04  0.50400001928E-02 0. -1.
        1   -1    0    0  501    0  0.00000000000E+00  0.00000000000E+00 -0.14261987110E+04  0.14261987110E+04  0.50400001928E-02 0.  1.
    10030    2    1    2    0    0  0.00000000000E+00  0.00000000000E+00 -0.41926761974E+03  0.24331298023E+04  0.23967342985E+04 0.  0.
        3    1    3    3  502    0  0.51222952007E+03 -0.49040312880E+03 -0.11903310744E+04  0.13855549022E+04  0.10100000352E+00 0.  1.
       -3    1    3    3    0  502 -0.51222952007E+03  0.49040312880E+03  0.77106345468E+03  0.10475749001E+04  0.10100000352E+00 0. -1.
</event>
<event>
 5   0  0.5196696E-06  0.2395983E+04  0.7818609E-02  0.8441009E-01
       -1   -1    0    0    0  501  0.00000000000E+00  0.00000000000E+00  0.10715295139E+04  0.10715295140E+04  0.50400001928E-02 0. -1.
        1   -1    0    0  501    0  0.00000000000E+00  0.00000000000E+00 -0.13393781297E+04  0.13393781297E+04  0.50400001928E-02 0.  1.
    10030    2    1    2    0    0  0.00000000000E+00  0.00000000000E+00 -0.26784861574E+03  0.24109076437E+04  0.23959826346E+04 0.  0.
        1    1    3    3  502    0 -0.11262471883E+04 -0.31948616430E+03 -0.38982929561E+03  0.12338845238E+04  0.50400001928E-02 0. -1.
       -1    1    3    3    0  502  0.11262471883E+04  0.31948616430E+03  0.12198067987E+03  0.11770231198E+04  0.50400001928E-02 0.  1.
</event>
<event>
 5   0  0.1198313E-05  0.2397662E+04  0.7818609E-02  0.8440379E-01
        2   -1    0    0  501    0  0.00000000000E+00  0.00000000000E+00  0.18092234110E+04  0.18092234110E+04  0.25500000920E-02 0. -1.
       -2   -1    0    0    0  501  0.00000000000E+00  0.00000000000E+00 -0.79437194754E+03  0.79437194754E+03  0.25500000920E-02 0.  1.
    10030    2    1    2    0    0  0.00000000000E+00  0.00000000000E+00  0.10148514635E+04  0.26035953585E+04  0.23976624654E+04 0.  0.
        5    1    3    3  502    0 -0.98092552288E+03  0.21791942762E+03  0.12173932938E+04  0.15785348523E+04  0.46999998093E+01 0. -1.
       -5    1    3    3    0  502  0.98092552288E+03 -0.21791942762E+03 -0.20254183030E+03  0.10250605062E+04  0.46999998093E+01 0.  1.
</event>
<event>
 5   0  0.1174210E-05  0.2332623E+04  0.7818609E-02  0.8465168E-01
        2   -1    0    0  501    0  0.00000000000E+00  0.00000000000E+00  0.90928789870E+03  0.90928789871E+03  0.25500000920E-02 0. -1.
       -2   -1    0    0    0  501  0.00000000000E+00  0.00000000000E+00 -0.14959859819E+04  0.14959859819E+04  0.25500000920E-02 0.  1.
    10030    2    1    2    0    0  0.00000000000E+00  0.00000000000E+00 -0.58669808315E+03  0.24052738806E+04  0.23326225155E+04 0.  0.
        3    1    3    3  502    0 -0.47801068481E+02 -0.95057737124E+03 -0.98843588812E+03  0.13721835868E+04  0.10100000352E+00 0.  1.
       -3    1    3    3    0  502  0.47801068481E+02  0.95057737124E+03  0.40173780497E+03  0.10330902937E+04  0.10100000352E+00 0. -1.
</event>
<event>
 5   0  0.1168435E-05  0.2391557E+04  0.7818609E-02  0.8442671E-01
        2   -1    0    0  501    0  0.00000000000E+00  0.00000000000E+00  0.21196088163E+04  0.21196088163E+04  0.25500000920E-02 0.  1.
       -2   -1    0    0    0  501  0.00000000000E+00  0.00000000000E+00 -0.67459914443E+03  0.67459914443E+03  0.25500000920E-02 0. -1.
    10030    2    1    2    0    0  0.00000000000E+00  0.00000000000E+00  0.14450096718E+04  0.27942079607E+04  0.23915570610E+04 0.  0.
        1    1    3    3  502    0 -0.20062139540E+03  0.83944712876E+03 -0.24446392461E+03  0.89704126813E+03  0.50400001928E-02 0. -1.
       -1    1    3    3    0  502  0.20062139540E+03 -0.83944712876E+03  0.16894735964E+04  0.18971666926E+04  0.50400001928E-02 0.  1.
</event>
<event>
 5   0  0.5064437E-06  0.2392279E+04  0.7818609E-02  0.8442400E-01
        1   -1    0    0  501    0  0.00000000000E+00  0.00000000000E+00  0.16829761691E+04  0.16829761691E+04  0.50400001928E-02 0. -1.
       -1   -1    0    0    0  501  0.00000000000E+00  0.00000000000E+00 -0.85013098964E+03  0.85013098966E+03  0.50400001928E-02 0.  1.
    10030    2    1    2    0    0  0.00000000000E+00  0.00000000000E+00  0.83284517949E+03  0.25331071588E+04  0.23922794120E+04 0.  0.
        2    1    3    3  502    0 -0.70562112299E+03  0.96572133240E+03  0.40031752424E+03  0.12612584911E+04  0.25500000920E-02 0.  1.
       -2    1    3    3    0  502  0.70562112299E+03 -0.96572133240E+03  0.43252765526E+03  0.12718486677E+04  0.25500000920E-02 0. -1.
</event>
<event>
 5   0  0.5196696E-06  0.2380335E+04  0.7818609E-02  0.8446903E-01
        1   -1    0    0  501    0  0.00000000000E+00  0.00000000000E+00  0.15592509189E+04  0.15592509190E+04  0.50400001928E-02 0.  1.
       -1   -1    0    0    0  501  0.00000000000E+00  0.00000000000E+00 -0.90844841625E+03  0.90844841627E+03  0.50400001928E-02 0. -1.
    10030    2    1    2    0    0  0.00000000000E+00  0.00000000000E+00  0.65080250269E+03  0.24676993352E+04  0.23803352939E+04 0.  0.
        1    1    3    3  502    0  0.58594291740E+03  0.91008426247E+03 -0.18765287399E+03  0.10985427021E+04  0.50400001928E-02 0. -1.
       -1    1    3    3    0  502 -0.58594291740E+03 -0.91008426247E+03  0.83845537668E+03  0.13691566331E+04  0.50400001928E-02 0.  1.
</event>
<event>
 5   0  0.1198313E-05  0.2397031E+04  0.7818609E-02  0.8440616E-01
        2   -1    0    0  501    0  0.00000000000E+00  0.00000000000E+00  0.12251908176E+04  0.12251908176E+04  0.25500000920E-02 0.  1.
       -2   -1    0    0    0  501  0.00000000000E+00  0.00000000000E+00 -0.11724207135E+04  0.11724207135E+04  0.25500000920E-02 0. -1.
    10030    2    1    2    0    0  0.00000000000E+00  0.00000000000E+00  0.52770104067E+02  0.23976115311E+04  0.23970307403E+04 0.  0.
        5    1    3    3  502    0 -0.43660292778E+03  0.11033622282E+04 -0.14213923969E+03  0.11950966390E+04  0.46999998093E+01 0. -1.
       -5    1    3    3    0  502  0.43660292778E+03 -0.11033622282E+04  0.19490934376E+03  0.12025148920E+04  0.46999998093E+01 0.  1.
</event>
<event>
 5   0  0.5042742E-06  0.2395931E+04  0.7818609E-02  0.8441028E-01
       -1   -1    0    0    0  501  0.00000000000E+00  0.00000000000E+00  0.17906037759E+04  0.17906037759E+04  0.50400001928E-02 0. -1.
        1   -1    0    0  501    0  0.00000000000E+00  0.00000000000E+00 -0.80147367294E+03  0.80147367296E+03  0.50400001928E-02 0.  1.
    10030    2    1    2    0    0  0.00000000000E+00  0.00000000000E+00  0.98913010299E+03  0.25920774489E+04  0.23959313722E+04 0.  0.
        5    1    3    3  502    0 -0.73660585662E+03 -0.25548181289E+03 -0.48942227974E+03  0.92055168385E+03  0.46999998093E+01 0.  1.
       -5    1    3    3    0  502  0.73660585662E+03  0.25548181289E+03  0.14785523827E+04  0.16715257650E+04  0.46999998093E+01 0. -1.
</event>
<event>
 5   0  0.5034479E-06  0.2395610E+04  0.7818609E-02  0.8441149E-01
        1   -1    0    0  501    0  0.00000000000E+00  0.00000000000E+00  0.18795554945E+04  0.18795554945E+04  0.50400001928E-02 0.  1.
       -1   -1    0    0    0  501  0.00000000000E+00  0.00000000000E+00 -0.76333848663E+03  0.76333848664E+03  0.50400001928E-02 0. -1.
    10030    2    1    2    0    0  0.00000000000E+00  0.00000000000E+00  0.11162170078E+04  0.26428939811E+04  0.23956101909E+04 0.  0.
        4    1    3    3  502    0  0.78297632687E+02 -0.36835513005E+03  0.18125468411E+04  0.18512546246E+04  0.12699999809E+01 0.  1.
       -4    1    3    3    0  502 -0.78297632687E+02  0.36835513005E+03 -0.69632983327E+03  0.79163935648E+03  0.12699999809E+01 0. -1.
</event>
<event>
 5   0  0.1174210E-05  0.2361520E+04  0.7818609E-02  0.8454052E-01
       -2   -1    0    0    0  501  0.00000000000E+00  0.00000000000E+00  0.66546240210E+03  0.66546240211E+03  0.25500000920E-02 0. -1.
        2   -1    0    0  501    0  0.00000000000E+00  0.00000000000E+00 -0.20950762846E+04  0.20950762846E+04  0.25500000920E-02 0.  1.
    10030    2    1    2    0    0  0.00000000000E+00  0.00000000000E+00 -0.14296138825E+04  0.27605386867E+04  0.23615202704E+04 0.  0.
        3    1    3    3  502    0  0.23654505651E+03 -0.11497478164E+04 -0.86414619216E+03  0.14576084030E+04  0.10100000352E+00 0.  1.
       -3    1    3    3    0  502 -0.23654505651E+03  0.11497478164E+04 -0.56546769029E+03  0.13029302836E+04  0.10100000352E+00 0. -1.
</event>
<event>
 5   0  0.4067750E-06  0.2405232E+04  0.7818609E-02  0.8437547E-01
        3   -1    0    0  501    0  0.00000000000E+00  0.00000000000E+00  0.85050228606E+03  0.85050229206E+03  0.10100000352E+00 0. -1.
       -3   -1    0    0    0  501  0.00000000000E+00  0.00000000000E+00 -0.17005077440E+04  0.17005077470E+04  0.10100000352E+00 0.  1.
    10030    2    1    2    0    0  0.00000000000E+00  0.00000000000E+00 -0.85000545790E+03  0.25510100390E+04  0.24052324089E+04 0.  0.
        2    1    3    3  502    0 -0.87363004508E+03  0.79801981475E+03 -0.65302284766E+03  0.13514821197E+04  0.25500000920E-02 0. -1.
       -2    1    3    3    0  502  0.87363004508E+03 -0.79801981475E+03 -0.19698261024E+03  0.11995279193E+04  0.25500000920E-02 0.  1.
</event>
<event>
 5   0  0.1198313E-05  0.2401742E+04  0.7818609E-02  0.8438852E-01
        2   -1    0    0  501    0  0.00000000000E+00  0.00000000000E+00  0.15338753939E+04  0.15338753939E+04  0.25500000920E-02 0. -1.
       -2   -1    0    0    0  501  0.00000000000E+00  0.00000000000E+00 -0.94016215868E+03  0.94016215868E+03  0.25500000920E-02 0.  1.
    10030    2    1    2    0    0  0.00000000000E+00  0.00000000000E+00  0.59371323517E+03  0.24740375525E+04  0.24017423687E+04 0.  0.
        5    1    3    3  502    0 -0.45388494496E+03  0.78455898862E+03 -0.51458927459E+03  0.10422900563E+04  0.46999998093E+01 0. -1.
       -5    1    3    3    0  502  0.45388494496E+03 -0.78455898862E+03  0.11083025098E+04  0.14317474963E+04  0.46999998093E+01 0.  1.
</event>
<event>
 5   0  0.1154897E-05  0.2395877E+04  0.7818609E-02  0.8441049E-01
        2   -1    0    0  501    0  0.00000000000E+00  0.00000000000E+00  0.93415935066E+03  0.93415935066E+03  0.25500000920E-02 0. -1.
       -2   -1    0    0    0  501  0.00000000000E+00  0.00000000000E+00 -0.15362017262E+04  0.15362017262E+04  0.25500000920E-02 0.  1.
    10030    2    1    2    0    0  0.00000000000E+00  0.00000000000E+00 -0.60204237551E+03  0.24703610768E+04  0.23958774651E+04 0.  0.
        4    1    3    3  502    0  0.38421416714E+03 -0.11836627100E+03  0.86252179889E+03  0.95161786806E+03  0.12699999809E+01 0. -1.
       -4    1    3    3    0  502 -0.38421416714E+03  0.11836627100E+03 -0.14645641744E+04  0.15187432088E+04  0.12699999809E+01 0.  1.
</event>
<event>
 5   0  0.1168435E-05  0.2530830E+04  0.7818609E-02  0.8392084E-01
       -2   -1    0    0    0  501  0.00000000000E+00  0.00000000000E+00  0.50952596519E+03  0.50952596520E+03  0.25500000920E-02 0.  1.
        2   -1    0    0  501    0  0.00000000000E+00  0.00000000000E+00 -0.31426755904E+04  0.31426755904E+04  0.25500000920E-02 0. -1.
    10030    2    1    2    0    0  0.00000000000E+00  0.00000000000E+00 -0.26331496252E+04  0.36522015556E+04  0.25308297560E+04 0.  0.
        1    1    3    3  502    0  0.87051118222E+03  0.45906526651E+03 -0.24644796430E+04  0.26537125971E+04  0.50400001928E-02 0. -1.
       -1    1    3    3    0  502 -0.87051118222E+03 -0.45906526651E+03 -0.16866998222E+03  0.99848895849E+03  0.50400001928E-02 0.  1.
</event>
<event>
 5   0  0.1168435E-05  0.2444510E+04  0.7818609E-02  0.8423025E-01
        2   -1    0    0  501    0  0.00000000000E+00  0.00000000000E+00  0.21783667692E+04  0.21783667692E+04  0.25500000920E-02 0. -1.
       -2   -1    0    0    0  501  0.00000000000E+00  0.00000000000E+00 -0.68579214336E+03  0.68579214336E+03  0.25500000920E-02 0.  1.
    10030    2    1    2    0    0  0.00000000000E+00  0.00000000000E+00  0.14925746258E+04  0.28641589126E+04  0.24445096160E+04 0.  0.
        1    1    3    3  502    0  0.86069603789E+03  0.64497904037E+03  0.14265739505E+04  0.17865914106E+04  0.50400001928E-02 0. -1.
       -1    1    3    3    0  502 -0.86069603789E+03 -0.64497904037E+03  0.66000675374E+02  0.10775675020E+04  0.50400001928E-02 0.  1.
</event>
<event>
 5   0  0.5064437E-06  0.2399462E+04  0.7818609E-02  0.8439705E-01
        1   -1    0    0  501    0  0.00000000000E+00  0.00000000000E+00  0.23848764226E+04  0.23848764227E+04  0.50400001928E-02 0.  1.
       -1   -1    0    0    0  501  0.00000000000E+00  0.00000000000E+00 -0.60353433297E+03  0.60353433299E+03  0.50400001928E-02 0. -1.
    10030    2    1    2    0    0  0.00000000000E+00  0.00000000000E+00  0.17813420897E+04  0.29884107556E+04  0.23994622739E+04 0.  0.
        2    1    3    3  502    0 -0.10523918395E+04 -0.49633231518E+03  0.12548038148E+04  0.17112588830E+04  0.25500000920E-02 0.  1.
       -2    1    3    3    0  502  0.10523918395E+04  0.49633231518E+03  0.52653827492E+03  0.12771518727E+04  0.25500000920E-02 0. -1.
</event>
<event>
 5   0  0.1168435E-05  0.2401122E+04  0.7818609E-02  0.8439084E-01
       -2   -1    0    0    0  501  0.00000000000E+00  0.00000000000E+00  0.87089721306E+03  0.87089721307E+03  0.25500000920E-02 0. -1.
        2   -1    0    0  501    0  0.00000000000E+00  0.00000000000E+00 -0.16550132629E+04  0.16550132629E+04  0.25500000920E-02 0.  1.
    10030    2    1    2    0    0  0.00000000000E+00  0.00000000000E+00 -0.78411604981E+03  0.25259104759E+04  0.24011217697E+04 0.  0.
        1    1    3    3  502    0 -0.46668592529E+03  0.18260032690E+03 -0.15397231006E+04  0.16192238446E+04  0.50400001928E-02 0.  1.
       -1    1    3    3    0  502  0.46668592529E+03 -0.18260032690E+03  0.75560705080E+03  0.90668663137E+03  0.50400001928E-02 0. -1.
</event>
<event>
 5   0  0.5042742E-06  0.2394484E+04  0.7818609E-02  0.8441572E-01
        1   -1    0    0  501    0  0.00000000000E+00  0.00000000000E+00  0.85803423802E+03  0.85803423803E+03  0.50400001928E-02 0.  1.
       -1   -1    0    0    0  501  0.00000000000E+00  0.00000000000E+00 -0.16705485417E+04  0.16705485417E+04  0.50400001928E-02 0. -1.
    10030    2    1    2    0    0  0.00000000000E+00  0.00000000000E+00 -0.81251430364E+03  0.25285827797E+04  0.23944835310E+04 0.  0.
        5    1    3    3  502    0 -0.11449797672E+04  0.28389933561E+03 -0.62212722568E+03  0.13336573304E+04  0.46999998093E+01 0. -1.
       -5    1    3    3    0  502  0.11449797672E+04 -0.28389933561E+03 -0.19038707796E+03  0.11949254493E+04  0.46999998093E+01 0.  1.
</event>
<event>
 5   0  0.5104174E-06  0.2322336E+04  0.7818609E-02  0.8469166E-01
        1   -1    0    0  501    0  0.00000000000E+00  0.00000000000E+00  0.20158862181E+04  0.20158862181E+04  0.50400001928E-02 0.  1.
       -1   -1    0    0    0  501  0.00000000000E+00  0.00000000000E+00 -0.66884296972E+03  0.66884296974E+03  0.50400001928E-02 0. -1.
    10030    2    1    2    0    0  0.00000000000E+00  0.00000000000E+00  0.13470432484E+04  0.26847291879E+04  0.23223361727E+04 0.  0.
        3    1    3    3  502    0 -0.85286342705E+03 -0.49454740844E+03 -0.35690351144E+02  0.98652266865E+03  0.10100000352E+00 0. -1.
       -3    1    3    3    0  502  0.85286342705E+03  0.49454740844E+03  0.13827335996E+04  0.16982065192E+04  0.10100000352E+00 0.  1.
</event>
<event>
 5   0  0.1154897E-05  0.2401430E+04  0.7818609E-02  0.8438968E-01
       -2   -1    0    0    0  501  0.00000000000E+00  0.00000000000E+00  0.76635390719E+03  0.76635390720E+03  0.25500000920E-02 0. -1.
        2   -1    0    0  501    0  0.00000000000E+00  0.00000000000E+00 -0.18812675342E+04  0.18812675342E+04  0.25500000920E-02 0.  1.
    10030    2    1    2    0    0  0.00000000000E+00  0.00000000000E+00 -0.11149136270E+04  0.26476214414E+04  0.24014301783E+04 0.  0.
        4    1    3    3  502    0  0.97261339432E+03 -0.44939499862E+03  0.40127015825E+02  0.10721681164E+04  0.12699999809E+01 0. -1.
       -4    1    3    3    0  502 -0.97261339432E+03  0.44939499862E+03 -0.11550406428E+04  0.15754533249E+04  0.12699999809E+01 0.  1.
</event>
<event>
 5   0  0.5034479E-06  0.2400257E+04  0.7818609E-02  0.8439407E-01
       -1   -1    0    0    0  501  0.00000000000E+00  0.00000000000E+00  0.84286362293E+03  0.84286362294E+03  0.50400001928E-02 0.  1.
        1   -1    0    0  501    0  0.00000000000E+00  0.00000000000E+00 -0.17088276042E+04  0.17088276042E+04  0.50400001928E-02 0. -1.
    10030    2    1    2    0    0  0.00000000000E+00  0.00000000000E+00 -0.86596398129E+03  0.25516912272E+04  0.24002571741E+04 0.  0.
        4    1    3    3  502    0  0.84681615279E+03  0.81383560549E+03 -0.17067412393E+03  0.11868265496E+04  0.12699999809E+01 0.  1.
       -4    1    3    3    0  502 -0.84681615279E+03 -0.81383560549E+03 -0.69528985737E+03  0.13648646776E+04  0.12699999809E+01 0. -1.
</event>
<event>
 5   0  0.1174210E-05  0.2393162E+04  0.7818609E-02  0.8442068E-01
        2   -1    0    0  501    0  0.00000000000E+00  0.00000000000E+00  0.11316721422E+04  0.11316721423E+04  0.25500000920E-02 0.  1.
       -2   -1    0    0    0  501  0.00000000000E+00  0.00000000000E+00 -0.12652127136E+04  0.12652127136E+04  0.25500000920E-02 0. -1.
    10030    2    1    2    0    0  0.00000000000E+00  0.00000000000E+00 -0.13354057136E+03  0.23968848559E+04  0.23931619101E+04 0.  0.
        3    1    3    3  502    0  0.11598976567E+04 -0.29224315979E+03 -0.99028050979E+02  0.12002396442E+04  0.10100000352E+00 0. -1.
       -3    1    3    3    0  502 -0.11598976567E+04  0.29224315979E+03 -0.34512520378E+02  0.11966452117E+04  0.10100000352E+00 0.  1.
</event>
<event>
 5   0  0.1174210E-05  0.2385596E+04  0.7818609E-02  0.8444916E-01
        2   -1    0    0  501    0  0.00000000000E+00  0.00000000000E+00  0.24935789655E+04  0.24935789655E+04  0.25500000920E-02 0. -1.
       -2   -1    0    0    0  501  0.00000000000E+00  0.00000000000E+00 -0.57057246280E+03  0.57057246281E+03  0.25500000920E-02 0.  1.
    10030    2    1    2    0    0  0.00000000000E+00  0.00000000000E+00  0.19230065027E+04  0.30641514283E+04  0.23855963544E+04 0.  0.
        3    1    3    3  502    0 -0.48825489944E+03  0.58870258298E+03 -0.21416408220E+03  0.79424797283E+03  0.10100000352E+00 0.  1.
       -3    1    3    3    0  502  0.48825489944E+03 -0.58870258298E+03  0.21371705849E+04  0.22699034555E+04  0.10100000352E+00 0. -1.
</event>
<event>
 5   0  0.1174210E-05  0.2396774E+04  0.7818609E-02  0.8440712E-01
       -2   -1    0    0    0  501  0.00000000000E+00  0.00000000000E+00  0.82872646769E+03  0.82872646770E+03  0.25500000920E-02 0.  1.
        2   -1    0    0  501    0  0.00000000000E+00  0.00000000000E+00 -0.17329384884E+04  0.17329384884E+04  0.25500000920E-02 0. -1.
    10030    2    1    2    0    0  0.00000000000E+00  0.00000000000E+00 -0.90421202068E+03  0.25616649561E+04  0.23967744927E+04 0.  0.
        3    1    3    3  502    0 -0.69367571848E+03 -0.97260023255E+03 -0.35074052186E+03  0.12450526650E+04  0.10100000352E+00 0. -1.
       -3    1    3    3    0  502  0.69367571848E+03  0.97260023255E+03 -0.55347149882E+03  0.13166122911E+04  0.10100000352E+00 0.  1.
</event>
<event>
 5   0  0.5064437E-06  0.2399871E+04  0.7818609E-02  0.8439552E-01
       -1   -1    0    0    0  501  0.00000000000E+00  0.00000000000E+00  0.12398453693E+04  0.12398453693E+04  0.50400001928E-02 0. -1.
        1   -1    0    0  501    0  0.00000000000E+00  0.00000000000E+00 -0.11613105762E+04  0.11613105762E+04  0.50400001928E-02 0.  1.
    10030    2    1    2    0    0  0.00000000000E+00  0.00000000000E+00  0.78534793152E+02  0.24011559455E+04  0.23998712801E+04 0.  0.
        2    1    3    3  502    0 -0.47663047979E+03 -0.10492830327E+04  0.37362294791E+03  0.12115137656E+04  0.25500000920E-02 0. -1.
       -2    1    3    3    0  502  0.47663047979E+03  0.10492830327E+04 -0.29508815476E+03  0.11896421799E+04  0.25500000920E-02 0.  1.
</event>
<event>
 5   0  0.1198313E-05  0.2436888E+04  0.7818609E-02  0.8425821E-01
        2   -1    0    0  501    0  0.00000000000E+00  0.00000000000E+00  0.10717015935E+04  0.10717015935E+04  0.25500000920E-02 0.  1.
       -2   -1    0    0    0  501  0.00000000000E+00  0.00000000000E+00 -0.13852796186E+04  0.13852796186E+04  0.25500000920E-02 0. -1.
    10030    2    1    2    0    0  0.00000000000E+00  0.00000000000E+00 -0.31357802512E+03  0.24569812122E+04  0.24368884872E+04 0.  0.
        5    1    3    3  502    0  0.32355744697E+03 -0.11577889271E+04 -0.35696991215E+03  0.12540391658E+04  0.46999998093E+01 0.  1.
       -5    1    3    3    0  502 -0.32355744697E+03  0.11577889271E+04  0.43391887030E+02  0.12029420464E+04  0.46999998093E+01 0. -1.
</event>
<event>
 5   0  0.1198313E-05  0.2402579E+04  0.7818609E-02  0.8438539E-01
        2   -1    0    0  501    0  0.00000000000E+00  0.00000000000E+00  0.16358182942E+04  0.16358182942E+04  0.25500000920E-02 0.  1.
       -2   -1    0    0    0  501  0.00000000000E+00  0.00000000000E+00 -0.88218597703E+03  0.88218597703E+03  0.25500000920E-02 0. -1.
    10030    2    1    2    0    0  0.00000000000E+00  0.00000000000E+00  0.75363231713E+03  0.25180042712E+04  0.24025785815E+04 0.  0.
        5    1    3    3  502    0 -0.24912214821E+03  0.80239010086E+03 -0.52302585632E+03  0.98968169381E+03  0.46999998093E+01 0. -1.
       -5    1    3    3    0  502  0.24912214821E+03 -0.80239010086E+03  0.12766581734E+04  0.15283225774E+04  0.46999998093E+01 0.  1.
</event>
<event>
 5   0  0.1154897E-05  0.2408996E+04  0.7818609E-02  0.8436143E-01
        2   -1    0    0  501    0  0.00000000000E+00  0.00000000000E+00  0.12138375101E+04  0.12138375101E+04  0.25500000920E-02 0. -1.
       -2   -1    0    0    0  501  0.00000000000E+00  0.00000000000E+00 -0.11952303028E+04  0.11952303028E+04  0.25500000920E-02 0.  1.
    10030    2    1    2    0    0  0.00000000000E+00  0.00000000000E+00  0.18607207278E+02  0.24090678129E+04  0.24089959524E+04 0.  0.
        4    1    3    3  502    0 -0.80158785686E+03  0.55810250641E+03  0.71415954708E+03  0.12099780872E+04  0.12699999809E+01 0. -1.
       -4    1    3    3    0  502  0.80158785686E+03 -0.55810250641E+03 -0.69555233980E+03  0.11990897257E+04  0.12699999809E+01 0.  1.
</event>
<event>
 5   0  0.1154897E-05  0.2396023E+04  0.7818609E-02  0.8440994E-01
        2   -1    0    0  501    0  0.00000000000E+00  0.00000000000E+00  0.15164443242E+04  0.15164443242E+04  0.25500000920E-02 0.  1.
       -2   -1    0    0    0  501  0.00000000000E+00  0.00000000000E+00 -0.94644530133E+03  0.94644530133E+03  0.25500000920E-02 0. -1.
    10030    2    1    2    0    0  0.00000000000E+00  0.00000000000E+00  0.56999902291E+03  0.24628896256E+04  0.23960230428E+04 0.  0.
        4    1    3    3  502    0  0.11133282056E+04  0.40160629766E+03  0.94232870861E+02  0.11872947227E+04  0.12699999809E+01 0. -1.
       -4    1    3    3    0  502 -0.11133282056E+04 -0.40160629766E+03  0.47576615204E+03  0.12755949028E+04  0.12699999809E+01 0.  1.
</event>
<event>
 5   0  0.5064437E-06  0.2391998E+04  0.7818609E-02  0.8442506E-01
        1   -1    0    0  501    0  0.00000000000E+00  0.00000000000E+00  0.71600970245E+03  0.71600970246E+03  0.50400001928E-02 0. -1.
       -1   -1    0    0    0  501  0.00000000000E+00  0.00000000000E+00 -0.19977566745E+04  0.19977566745E+04  0.50400001928E-02 0.  1.
    10030    2    1    2    0    0  0.00000000000E+00  0.00000000000E+00 -0.12817469720E+04  0.27137663770E+04  0.23919976272E+04 0.  0.
        2    1    3    3  502    0 -0.10378671091E+04 -0.54390397496E+03 -0.91271682380E+03  0.14852783142E+04  0.25500000920E-02 0. -1.
       -2    1    3    3    0  502  0.10378671091E+04  0.54390397496E+03 -0.36903014824E+03  0.12284880628E+04  0.25500000920E-02 0.  1.
</event>
<event>
 5   0  0.1174210E-05  0.2385832E+04  0.7818609E-02  0.8444827E-01
        2   -1    0    0  501    0  0.00000000000E+00  0.00000000000E+00  0.12974787690E+04  0.12974787690E+04  0.25500000920E-02 0.  1.
       -2   -1    0    0    0  501  0.00000000000E+00  0.00000000000E+00 -0.10967801997E+04  0.10967801997E+04  0.25500000920E-02 0. -1.
    10030    2    1    2    0    0  0.00000000000E+00  0.00000000000E+00  0.20069856931E+03  0.23942589687E+04  0.23858323691E+04 0.  0.
        3    1    3    3  502    0  0.44724274967E+03  0.78416730378E+03  0.88291412575E+03  0.12627279205E+04  0.10100000352E+00 0.  1.
       -3    1    3    3    0  502 -0.44724274967E+03 -0.78416730378E+03 -0.68221555644E+03  0.11315310482E+04  0.10100000352E+00 0. -1.
</event>
<event>
 5   0  0.5034479E-06  0.2364484E+04  0.7818609E-02  0.8452921E-01
       -1   -1    0    0    0  501  0.00000000000E+00  0.00000000000E+00  0.93666901908E+03  0.93666901910E+03  0.50400001928E-02 0.  1.
        1   -1    0    0  501    0  0.00000000000E+00  0.00000000000E+00 -0.14921985127E+04  0.14921985127E+04  0.50400001928E-02 0. -1.
    10030    2    1    2    0    0  0.00000000000E+00  0.00000000000E+00 -0.55552949366E+03  0.24288675318E+04  0.23644839752E+04 0.  0.
        4    1    3    3  502    0 -0.88214643646E+03 -0.40555483630E+03 -0.97069739164E+03  0.13729210100E+04  0.12699999809E+01 0. -1.
       -4    1    3    3    0  502  0.88214643646E+03  0.40555483630E+03  0.41516789799E+03  0.10559465219E+04  0.12699999809E+01 0.  1.
</event>
<event>
 5   0  0.1168435E-05  0.2350752E+04  0.7818609E-02  0.8458175E-01
        2   -1    0    0  501    0  0.00000000000E+00  0.00000000000E+00  0.13250952102E+04  0.13250952102E+04  0.25500000920E-02 0. -1.
       -2   -1    0    0    0  501  0.00000000000E+00  0.00000000000E+00 -0.10425732081E+04  0.10425732081E+04  0.25500000920E-02 0.  1.
    10030    2    1    2    0    0  0.00000000000E+00  0.00000000000E+00  0.28252200205E+03  0.23676684183E+04  0.23507520195E+04 0.  0.
        1    1    3    3  502    0 -0.10687876023E+04 -0.45857401481E+03  0.31251900006E+03  0.12042695676E+04  0.50400001928E-02 0.  1.
       -1    1    3    3    0  502  0.10687876023E+04  0.45857401481E+03 -0.29996998005E+02  0.11633988507E+04  0.50400001928E-02 0. -1.
</event>
<event>
 5   0  0.1169371E-05  0.2393582E+04  0.7818609E-02  0.8441910E-01
        2   -1    0    0  501    0  0.00000000000E+00  0.00000000000E+00  0.14433011945E+04  0.14433011945E+04  0.25500000920E-02 0.  1.
       -2   -1    0    0    0  501  0.00000000000E+00  0.00000000000E+00 -0.99238397893E+03  0.99238397893E+03  0.25500000920E-02 0. -1.
    10030    2    1    2    0    0  0.00000000000E+00  0.00000000000E+00  0.45091721559E+03  0.24356851735E+04  0.23935822378E+04 0.  0.
        2    1    3    3  502    0  0.68620866072E+02  0.44156274395E+03  0.13552229022E+04  0.14269953029E+04  0.25500000920E-02 0.  1.
       -2    1    3    3    0  502 -0.68620866072E+02 -0.44156274395E+03 -0.90430568656E+03  0.10086898705E+04  0.25500000920E-02 0. -1.
</event>
<event>
 5   0  0.5034479E-06  0.2460655E+04  0.7818609E-02  0.8417138E-01
        1   -1    0    0  501    0  0.00000000000E+00  0.00000000000E+00  0.13649728080E+04  0.13649728080E+04  0.50400001928E-02 0. -1.
       -1   -1    0    0    0  501  0.00000000000E+00  0.00000000000E+00 -0.11089644025E+04  0.11089644025E+04  0.50400001928E-02 0.  1.
    10030    2    1    2    0    0  0.00000000000E+00  0.00000000000E+00  0.25600840551E+03  0.24739372106E+04  0.24606554042E+04 0.  0.
        4    1    3    3  502    0  0.43181166214E+03  0.92912901799E+03  0.81282881509E+03  0.13078357463E+04  0.12699999809E+01 0. -1.
       -4    1    3    3    0  502 -0.43181166214E+03 -0.92912901799E+03 -0.55682040958E+03  0.11661014643E+04  0.12699999809E+01 0.  1.
</event>
<event>
 5   0  0.5064437E-06  0.2457151E+04  0.7818609E-02  0.8418412E-01
       -1   -1    0    0    0  501  0.00000000000E+00  0.00000000000E+00  0.78623868332E+03  0.78623868333E+03  0.50400001928E-02 0. -1.
        1   -1    0    0  501    0  0.00000000000E+00  0.00000000000E+00 -0.19197711749E+04  0.19197711749E+04  0.50400001928E-02 0.  1.
    10030    2    1    2    0    0  0.00000000000E+00  0.00000000000E+00 -0.11335324916E+04  0.27060098582E+04  0.24571514897E+04 0.  0.
        2    1    3    3  502    0 -0.91444199477E+03 -0.26275558441E+03 -0.14227611163E+04  0.17115764234E+04  0.25500000920E-02 0.  1.
       -2    1    3    3    0  502  0.91444199477E+03  0.26275558441E+03  0.28922862477E+03  0.99443343484E+03  0.25500000920E-02 0. -1.
</event>
<event>
 5   0  0.1154897E-05  0.2390421E+04  0.7818609E-02  0.8443099E-01
       -2   -1    0    0    0  501  0.00000000000E+00  0.00000000000E+00  0.52335164134E+03  0.52335164134E+03  0.25500000920E-02 0.  1.
        2   -1    0    0  501    0  0.00000000000E+00  0.00000000000E+00 -0.27295750931E+04  0.27295750931E+04  0.25500000920E-02 0. -1.
    10030    2    1    2    0    0  0.00000000000E+00  0.00000000000E+00 -0.22062234517E+04  0.32529267344E+04  0.23904205531E+04 0.  0.
        4    1    3    3  502    0  0.15166814244E+03  0.89002448063E+02 -0.27118730625E+04  0.27175690941E+04  0.12699999809E+01 0. -1.
       -4    1    3    3    0  502 -0.15166814244E+03 -0.89002448063E+02  0.50564961081E+03  0.53535764027E+03  0.12699999809E+01 0.  1.
</event>
<event>
 5   0  0.1154897E-05  0.2400885E+04  0.7818609E-02  0.8439172E-01
        2   -1    0    0  501    0  0.00000000000E+00  0.00000000000E+00  0.14964986088E+04  0.14964986088E+04  0.25500000920E-02 0. -1.
       -2   -1    0    0    0  501  0.00000000000E+00  0.00000000000E+00 -0.96295567718E+03  0.96295567718E+03  0.25500000920E-02 0.  1.
    10030    2    1    2    0    0  0.00000000000E+00  0.00000000000E+00  0.53354293164E+03  0.24594542860E+04  0.24008846963E+04 0.  0.
        4    1    3    3  502    0  0.14356463562E+03 -0.40141674240E+03  0.14163389451E+04  0.14791091325E+04  0.12699999809E+01 0. -1.
       -4    1    3    3    0  502 -0.14356463562E+03  0.40141674240E+03 -0.88279601345E+03  0.98034515347E+03  0.12699999809E+01 0.  1.
</event>
<event>
 5   0  0.5034479E-06  0.2387471E+04  0.7818609E-02  0.8444209E-01
       -1   -1    0    0    0  501  0.00000000000E+00  0.00000000000E+00  0.14166414897E+04  0.14166414897E+04  0.50400001928E-02 0. -1.
        1   -1    0    0  501    0  0.00000000000E+00  0.00000000000E+00 -0.10059036629E+04  0.10059036630E+04  0.50400001928E-02 0.  1.
    10030    2    1    2    0    0  0.00000000000E+00  0.00000000000E+00  0.41073782671E+03  0.24225451526E+04  0.23874713515E+04 0.  0.
        4    1    3    3  502    0 -0.72988762865E+03 -0.32704983716E+03  0.11045622655E+04  0.13637290632E+04  0.12699999809E+01 0. -1.
       -4    1    3    3    0  502  0.72988762865E+03  0.32704983716E+03 -0.69382443883E+03  0.10588160894E+04  0.12699999809E+01 0.  1.
</event>
<event>
 5   0  0.5064437E-06  0.2405041E+04  0.7818609E-02  0.8437619E-01
       -1   -1    0    0    0  501  0.00000000000E+00  0.00000000000E+00  0.76944712799E+03  0.76944712801E+03  0.50400001928E-02 0.  1.
        1   -1    0    0  501    0  0.00000000000E+00  0.00000000000E+00 -0.18793430502E+04  0.18793430502E+04  0.50400001928E-02 0. -1.
    10030    2    1    2    0    0  0.00000000000E+00  0.00000000000E+00 -0.11098959222E+04  0.26487901782E+04  0.24050406338E+04 0.  0.
        2    1    3    3  502    0  0.11739780569E+04  0.25376712608E+03 -0.49041903251E+03  0.12973561808E+04  0.25500000920E-02 0. -1.
       -2    1    3    3    0  502 -0.11739780569E+04 -0.25376712608E+03 -0.61947688968E+03  0.13514339974E+04  0.25500000920E-02 0.  1.
</event>
<event>
 5   0  0.1198313E-05  0.2402846E+04  0.7818609E-02  0.8438439E-01
       -2   -1    0    0    0  501  0.00000000000E+00  0.00000000000E+00  0.12171308957E+04  0.12171308957E+04  0.25500000920E-02 0. -1.
        2   -1    0    0  501    0  0.00000000000E+00  0.00000000000E+00 -0.11859181111E+04  0.11859181111E+04  0.25500000920E-02 0.  1.
    10030    2    1    2    0    0  0.00000000000E+00  0.00000000000E+00  0.31212784576E+02  0.24030490069E+04  0.24028462896E+04 0.  0.
        5    1    3    3  502    0 -0.88426719401E+03 -0.12224606822E+03 -0.78852792753E+03  0.11910797430E+04  0.46999998093E+01 0.  1.
       -5    1    3    3    0  502  0.88426719401E+03  0.12224606822E+03  0.81974071210E+03  0.12119692639E+04  0.46999998093E+01 0. -1.
</event>
<event>
 5   0  0.1198313E-05  0.2403245E+04  0.7818609E-02  0.8438290E-01
        2   -1    0    0  501    0  0.00000000000E+00  0.00000000000E+00  0.10462152829E+04  0.10462152829E+04  0.25500000920E-02 0.  1.
       -2   -1    0    0    0  501  0.00000000000E+00  0.00000000000E+00 -0.13801147139E+04  0.13801147139E+04  0.25500000920E-02 0. -1.
    10030    2    1    2    0    0  0.00000000000E+00  0.00000000000E+00 -0.33389943102E+03  0.24263299969E+04  0.24032453940E+04 0.  0.
        5    1    3    3  502    0  0.11120165419E+04  0.45213303682E+03 -0.11286327150E+03  0.12057218918E+04  0.46999998093E+01 0. -1.
       -5    1    3    3    0  502 -0.11120165419E+04 -0.45213303682E+03 -0.22103615952E+03  0.12206081051E+04  0.46999998093E+01 0.  1.
</event>
<event>
 5   0  0.5042742E-06  0.2373990E+04  0.7818609E-02  0.8449306E-01
        1   -1    0    0  501    0  0.00000000000E+00  0.00000000000E+00  0.11606190346E+04  0.11606190346E+04  0.50400001928E-02 0.  1.
       -1   -1    0    0    0  501  0.00000000000E+00  0.00000000000E+00 -0.12139707868E+04  0.12139707868E+04  0.50400001928E-02 0. -1.
    10030    2    1    2    0    0  0.00000000000E+00  0.00000000000E+00 -0.53351752166E+02  0.23745898215E+04  0.23739903982E+04 0.  0.
        5    1    3    3  502    0 -0.27449616858E+03 -0.11436636442E+04  0.13342963570E+03  0.11836976960E+04  0.46999998093E+01 0. -1.
       -5    1    3    3    0  502  0.27449616858E+03  0.11436636442E+04 -0.18678138787E+03  0.11908921255E+04  0.46999998093E+01 0.  1.
</event>
<event>
 5   0  0.1169371E-05  0.2378194E+04  0.7818609E-02  0.8447713E-01
       -2   -1    0    0    0  501  0.00000000000E+00  0.00000000000E+00  0.10087497101E+04  0.10087497101E+04  0.25500000920E-02 0.  1.
        2   -1    0    0  501    0  0.00000000000E+00  0.00000000000E+00 -0.14016868326E+04  0.14016868326E+04  0.25500000920E-02 0. -1.
    10030    2    1    2    0    0  0.00000000000E+00  0.00000000000E+00 -0.39293712253E+03  0.24104365428E+04  0.23781935885E+04 0.  0.
        2    1    3    3  502    0 -0.10510713946E+04 -0.45037184710E+02  0.36527634491E+03  0.11136454699E+04  0.25500000920E-02 0.  1.
       -2    1    3    3    0  502  0.10510713946E+04  0.45037184710E+02 -0.75821346744E+03  0.12967910729E+04  0.25500000920E-02 0. -1.
</event>
<event>
 5   0  0.5034479E-06  0.2396066E+04  0.7818609E-02  0.8440978E-01
        1   -1    0    0  501    0  0.00000000000E+00  0.00000000000E+00  0.13091544477E+04  0.13091544477E+04  0.50400001928E-02 0. -1.
       -1   -1    0    0    0  501  0.00000000000E+00  0.00000000000E+00 -0.10963431362E+04  0.10963431362E+04  0.50400001928E-02 0.  1.
    10030    2    1    2    0    0  0.00000000000E+00  0.00000000000E+00  0.21281131148E+03  0.24054975839E+04  0.23960655191E+04 0.  0.
        4    1    3    3  502    0  0.90482924506E+03 -0.69683262557E+03 -0.25694336656E+03  0.11706037661E+04  0.12699999809E+01 0. -1.
       -4    1    3    3    0  502 -0.90482924506E+03  0.69683262557E+03  0.46975467805E+03  0.12348938178E+04  0.12699999809E+01 0.  1.
</event>
<event>
 5   0  0.1174210E-05  0.2380065E+04  0.7818609E-02  0.8447005E-01
        2   -1    0    0  501    0  0.00000000000E+00  0.00000000000E+00  0.15716095035E+04  0.15716095035E+04  0.25500000920E-02 0.  1.
       -2   -1    0    0    0  501  0.00000000000E+00  0.00000000000E+00 -0.90110024840E+03  0.90110024840E+03  0.25500000920E-02 0. -1.
    10030    2    1    2    0    0  0.00000000000E+00  0.00000000000E+00  0.67050925510E+03  0.24727097519E+04  0.23800653050E+04 0.  0.
        3    1    3    3  502    0  0.54610018171E+03 -0.28316958386E+03 -0.72310741392E+03  0.94936545331E+03  0.10100000352E+00 0. -1.
       -3    1    3    3    0  502 -0.54610018171E+03  0.28316958386E+03  0.13936166690E+04  0.15233442986E+04  0.10100000352E+00 0.  1.
</event>
<event>
 5   0  0.1198313E-05  0.2412270E+04  0.7818609E-02  0.8434924E-01
        2   -1    0    0  501    0  0.00000000000E+00  0.00000000000E+00  0.15471092084E+04  0.15471092084E+04  0.25500000920E-02 0.  1.
       -2   -1    0    0    0  501  0.00000000000E+00  0.00000000000E+00 -0.94030938725E+03  0.94030938725E+03  0.25500000920E-02 0. -1.
    10030    2    1    2    0    0  0.00000000000E+00  0.00000000000E+00  0.60679982117E+03  0.24874185957E+04  0.24122697293E+04 0.  0.
        5    1    3    3  502    0  0.35245067817E+03  0.39226835740E+02  0.14921267497E+04  0.15336963690E+04  0.46999998093E+01 0.  1.
       -5    1    3    3    0  502 -0.35245067817E+03 -0.39226835740E+02 -0.88532692854E+03  0.95372222664E+03  0.46999998093E+01 0. -1.
</event>
<event>
 5   0  0.1169371E-05  0.2400340E+04  0.7818609E-02  0.8439376E-01
       -2   -1    0    0    0  501  0.00000000000E+00  0.00000000000E+00  0.74995109799E+03  0.74995109799E+03  0.25500000920E-02 0.  1.
        2   -1    0    0  501    0  0.00000000000E+00  0.00000000000E+00 -0.19206699447E+04  0.19206699447E+04  0.25500000920E-02 0. -1.
    10030    2    1    2    0    0  0.00000000000E+00  0.00000000000E+00 -0.11707188467E+04  0.26706210427E+04  0.24003404208E+04 0.  0.
        2    1    3    3  502    0 -0.91513337994E+03  0.73505582157E+03 -0.86380405615E+03  0.14573721595E+04  0.25500000920E-02 0.  1.
       -2    1    3    3    0  502  0.91513337994E+03 -0.73505582157E+03 -0.30691479060E+03  0.12132488832E+04  0.25500000920E-02 0. -1.
</event>
<event>
 5   0  0.5104174E-06  0.2231105E+04  0.7818609E-02  0.8505592E-01
        1   -1    0    0  501    0  0.00000000000E+00  0.00000000000E+00  0.83153630210E+03  0.83153630212E+03  0.50400001928E-02 0.  1.
       -1   -1    0    0    0  501  0.00000000000E+00  0.00000000000E+00 -0.14965755133E+04  0.14965755134E+04  0.50400001928E-02 0. -1.
    10030    2    1    2    0    0  0.00000000000E+00  0.00000000000E+00 -0.66503921124E+03  0.23281118155E+04  0.22311045410E+04 0.  0.
        3    1    3    3  502    0 -0.38118010224E+03  0.58741715659E+03 -0.12386658414E+04  0.14229020568E+04  0.10100000352E+00 0. -1.
       -3    1    3    3    0  502  0.38118010224E+03 -0.58741715659E+03  0.57362663019E+03  0.90520975871E+03  0.10100000352E+00 0.  1.
</event>
<event>
 5   0  0.1169371E-05  0.2397106E+04  0.7818609E-02  0.8440588E-01
        2   -1    0    0  501    0  0.00000000000E+00  0.00000000000E+00  0.12052908508E+04  0.12052908508E+04  0.25500000920E-02 0.  1.
       -2   -1    0    0    0  501  0.00000000000E+00  0.00000000000E+00 -0.11918527734E+04  0.11918527734E+04  0.25500000920E-02 0. -1.
    10030    2    1    2    0    0  0.00000000000E+00  0.00000000000E+00  0.13438077324E+02  0.23971436242E+04  0.23971059578E+04 0.  0.
        2    1    3    3  502    0 -0.91055638371E+03  0.71041965568E+03 -0.31378596337E+03  0.11967751025E+04  0.25500000920E-02 0. -1.
       -2    1    3    3    0  502  0.91055638371E+03 -0.71041965568E+03  0.32722404070E+03  0.12003685217E+04  0.25500000920E-02 0.  1.
</event>
<event>
 5   0  0.5042742E-06  0.2390222E+04  0.7818609E-02  0.8443173E-01
        1   -1    0    0  501    0  0.00000000000E+00  0.00000000000E+00  0.15728712948E+04  0.15728712948E+04  0.50400001928E-02 0. -1.
       -1   -1    0    0    0  501  0.00000000000E+00  0.00000000000E+00 -0.90807813202E+03  0.90807813203E+03  0.50400001928E-02 0.  1.
    10030    2    1    2    0    0  0.00000000000E+00  0.00000000000E+00  0.66479316278E+03  0.24809494268E+04  0.23902217699E+04 0.  0.
        5    1    3    3  502    0  0.94135056230E+03  0.31784013452E+03  0.10217636910E+04  0.14251969557E+04  0.46999998093E+01 0. -1.
       -5    1    3    3    0  502 -0.94135056230E+03 -0.31784013452E+03 -0.35697052825E+03  0.10557524711E+04  0.46999998093E+01 0.  1.
</event>
<event>
 5   0  0.5034479E-06  0.2403766E+04  0.7818609E-02  0.8438095E-01
        1   -1    0    0  501    0  0.00000000000E+00  0.00000000000E+00  0.14980764572E+04  0.14980764572E+04  0.50400001928E-02 0.  1.
       -1   -1    0    0    0  501  0.00000000000E+00  0.00000000000E+00 -0.96425158634E+03  0.96425158635E+03  0.50400001928E-02 0. -1.
    10030    2    1    2    0    0  0.00000000000E+00  0.00000000000E+00  0.53382487086E+03  0.24623280436E+04  0.24037658791E+04 0.  0.
        4    1    3    3  502    0 -0.11862258038E+04 -0.10548927283E+03  0.43291401166E+03  0.12671526344E+04  0.12699999809E+01 0. -1.
       -4    1    3    3    0  502  0.11862258038E+04  0.10548927283E+03  0.10091085920E+03  0.11951754092E+04  0.12699999809E+01 0.  1.
</event>
<event>
 5   0  0.1174210E-05  0.2400355E+04  0.7818609E-02  0.8439371E-01
        2   -1    0    0  501    0  0.00000000000E+00  0.00000000000E+00  0.12378956251E+04  0.12378956251E+04  0.25500000920E-02 0.  1.
       -2   -1    0    0    0  501  0.00000000000E+00  0.00000000000E+00 -0.11636086639E+04  0.11636086639E+04  0.25500000920E-02 0. -1.
    10030    2    1    2    0    0  0.00000000000E+00  0.00000000000E+00  0.74286961169E+02  0.24015042891E+04  0.24003550358E+04 0.  0.
        3    1    3    3  502    0 -0.49201050177E+03 -0.10745151466E+04  0.24645390065E+03  0.12072268509E+04  0.10100000352E+00 0.  1.
       -3    1    3    3    0  502  0.49201050177E+03  0.10745151466E+04 -0.17216693948E+03  0.11942774382E+04  0.10100000352E+00 0. -1.
</event>
<event>
 5   0  0.5104174E-06  0.2402072E+04  0.7818609E-02  0.8438728E-01
        1   -1    0    0  501    0  0.00000000000E+00  0.00000000000E+00  0.24375446012E+04  0.24375446012E+04  0.50400001928E-02 0.  1.
       -1   -1    0    0    0  501  0.00000000000E+00  0.00000000000E+00 -0.59177907642E+03  0.59177907644E+03  0.50400001928E-02 0. -1.
    10030    2    1    2    0    0  0.00000000000E+00  0.00000000000E+00  0.18457655247E+04  0.30293236776E+04  0.24020723493E+04 0.  0.
        3    1    3    3  502    0 -0.77383313501E+03 -0.80291453906E+03  0.14854628973E+04  0.18574416565E+04  0.10100000352E+00 0.  1.
       -3    1    3    3    0  502  0.77383313501E+03  0.80291453906E+03  0.36030262746E+03  0.11718820211E+04  0.10100000352E+00 0. -1.
</event>
<event>
 5   0  0.5064437E-06  0.2404284E+04  0.7818609E-02  0.8437901E-01
        1   -1    0    0  501    0  0.00000000000E+00  0.00000000000E+00  0.14533926528E+04  0.14533926528E+04  0.50400001928E-02 0. -1.
       -1   -1    0    0    0  501  0.00000000000E+00  0.00000000000E+00 -0.99432554097E+03  0.99432554099E+03  0.50400001928E-02 0.  1.
    10030    2    1    2    0    0  0.00000000000E+00  0.00000000000E+00  0.45906711186E+03  0.24477181938E+04  0.24042840396E+04 0.  0.
        2    1    3    3  502    0 -0.65702850520E+03  0.69811510543E+03 -0.50889321281E+03  0.10853678911E+04  0.25500000920E-02 0. -1.
       -2    1    3    3    0  502  0.65702850520E+03 -0.69811510543E+03  0.96796032467E+03  0.13623503027E+04  0.25500000920E-02 0.  1.
</event>
<event>
 5   0  0.5064437E-06  0.2402212E+04  0.7818609E-02  0.8438676E-01
        1   -1    0    0  501    0  0.00000000000E+00  0.00000000000E+00  0.19044507721E+04  0.19044507721E+04  0.50400001928E-02 0. -1.
       -1   -1    0    0    0  501  0.00000000000E+00  0.00000000000E+00 -0.75751784265E+03  0.75751784267E+03  0.50400001928E-02 0.  1.
    10030    2    1    2    0    0  0.00000000000E+00  0.00000000000E+00  0.11469329294E+04  0.26619686148E+04  0.24022118477E+04 0.  0.
        2    1    3    3  502    0  0.53626243385E+03 -0.94767612164E+03  0.11352229017E+04  0.15730220806E+04  0.25500000920E-02 0. -1.
       -2    1    3    3    0  502 -0.53626243385E+03  0.94767612164E+03  0.11710027710E+02  0.10889465342E+04  0.25500000920E-02 0.  1.
</event>
<event>
 5   0  0.1154897E-05  0.2398368E+04  0.7818609E-02  0.8440115E-01
        2   -1    0    0  501    0  0.00000000000E+00  0.00000000000E+00  0.16850468357E+04  0.16850468357E+04  0.25500000920E-02 0.  1.
       -2   -1    0    0    0  501  0.00000000000E+00  0.00000000000E+00 -0.85341381827E+03  0.85341381827E+03  0.25500000920E-02 0. -1.
    10030    2    1    2    0    0  0.00000000000E+00  0.00000000000E+00  0.83163301743E+03  0.25384606540E+04  0.23983679901E+04 0.  0.
        4    1    3    3  502    0  0.34220331477E+03 -0.11377065114E+04  0.24331999834E+03  0.12127182069E+04  0.12699999809E+01 0.  1.
       -4    1    3    3    0  502 -0.34220331477E+03  0.11377065114E+04  0.58831301910E+03  0.13257424471E+04  0.12699999809E+01 0. -1.
</event>
<event>
 5   0  0.5196696E-06  0.2380189E+04  0.7818609E-02  0.8446958E-01
       -1   -1    0    0    0  501  0.00000000000E+00  0.00000000000E+00  0.13702759340E+04  0.13702759340E+04  0.50400001928E-02 0. -1.
        1   -1    0    0  501    0  0.00000000000E+00  0.00000000000E+00 -0.10336055506E+04  0.10336055506E+04  0.50400001928E-02 0.  1.
    10030    2    1    2    0    0  0.00000000000E+00  0.00000000000E+00  0.33667038337E+03  0.24038814846E+04  0.23801889095E+04 0.  0.
        1    1    3    3  502    0 -0.10463151943E+04 -0.56497408619E+03  0.21733209434E+03  0.12088028967E+04  0.50400001928E-02 0.  1.
       -1    1    3    3    0  502  0.10463151943E+04  0.56497408619E+03  0.11933828902E+03  0.11950785879E+04  0.50400001928E-02 0. -1.
</event>
<event>
 5   0  0.5196696E-06  0.2385517E+04  0.7818609E-02  0.8444946E-01
        1   -1    0    0  501    0  0.00000000000E+00  0.00000000000E+00  0.17687544567E+04  0.17687544567E+04  0.50400001928E-02 0.  1.
       -1   -1    0    0    0  501  0.00000000000E+00  0.00000000000E+00 -0.80433618471E+03  0.80433618473E+03  0.50400001928E-02 0. -1.
    10030    2    1    2    0    0  0.00000000000E+00  0.00000000000E+00  0.96441827197E+03  0.25730906414E+04  0.23855173120E+04 0.  0.
        1    1    3    3  502    0  0.26477468515E+03  0.28262812031E+03  0.16990496047E+04  0.17426284307E+04  0.50400001928E-02 0.  1.
       -1    1    3    3    0  502 -0.26477468515E+03 -0.28262812031E+03 -0.73463133275E+03  0.83046221068E+03  0.50400001928E-02 0. -1.
</event>
<event>
 5   0  0.1198313E-05  0.2390093E+04  0.7818609E-02  0.8443222E-01
        2   -1    0    0  501    0  0.00000000000E+00  0.00000000000E+00  0.97977398746E+03  0.97977398746E+03  0.25500000920E-02 0.  1.
       -2   -1    0    0    0  501  0.00000000000E+00  0.00000000000E+00 -0.14576176966E+04  0.14576176966E+04  0.25500000920E-02 0. -1.
    10030    2    1    2    0    0  0.00000000000E+00  0.00000000000E+00 -0.47784370914E+03  0.24373916841E+04  0.23900928039E+04 0.  0.
        5    1    3    3  502    0 -0.11087377845E+04  0.27698045370E+03 -0.59525939233E+03  0.12885548031E+04  0.46999998093E+01 0.  1.
       -5    1    3    3    0  502  0.11087377845E+04 -0.27698045370E+03  0.11741568319E+03  0.11488368810E+04  0.46999998093E+01 0. -1.
</event>
<event>
 5   0  0.1168435E-05  0.2394369E+04  0.7818609E-02  0.8441615E-01
       -2   -1    0    0    0  501  0.00000000000E+00  0.00000000000E+00  0.82114150547E+03  0.82114150547E+03  0.25500000920E-02 0.  1.
        2   -1    0    0  501    0  0.00000000000E+00  0.00000000000E+00 -0.17454362839E+04  0.17454362839E+04  0.25500000920E-02 0. -1.
    10030    2    1    2    0    0  0.00000000000E+00  0.00000000000E+00 -0.92429477838E+03  0.25665777893E+04  0.23943685413E+04 0.  0.
        1    1    3    3  502    0 -0.67927621858E+03 -0.84540823721E+03 -0.10056860528E+04  0.14790320164E+04  0.50400001928E-02 0. -1.
       -1    1    3    3    0  502  0.67927621858E+03  0.84540823721E+03  0.81391274409E+02  0.10875457729E+04  0.50400001928E-02 0.  1.
</event>
<event>
 5   0  0.1168435E-05  0.2399245E+04  0.7818609E-02  0.8439786E-01
        2   -1    0    0  501    0  0.00000000000E+00  0.00000000000E+00  0.74331115177E+03  0.74331115178E+03  0.25500000920E-02 0. -1.
       -2   -1    0    0    0  501  0.00000000000E+00  0.00000000000E+00 -0.19360596284E+04  0.19360596284E+04  0.25500000920E-02 0.  1.
    10030    2    1    2    0    0  0.00000000000E+00  0.00000000000E+00 -0.11927484766E+04  0.26793707802E+04  0.23992454750E+04 0.  0.
        1    1    3    3  502    0 -0.96089881245E+03 -0.28704934169E+03  0.13879611521E+03  0.10124170158E+04  0.50400001928E-02 0. -1.
       -1    1    3    3    0  502  0.96089881245E+03  0.28704934169E+03 -0.13315445918E+04  0.16669537643E+04  0.50400001928E-02 0.  1.
</event>
<event>
 5   0  0.5104174E-06  0.2410083E+04  0.7818609E-02  0.8435738E-01
       -1   -1    0    0    0  501  0.00000000000E+00  0.00000000000E+00  0.14726758612E+04  0.14726758612E+04  0.50400001928E-02 0.  1.
        1   -1    0    0  501    0  0.00000000000E+00  0.00000000000E+00 -0.98604485150E+03  0.98604485151E+03  0.50400001928E-02 0. -1.
    10030    2    1    2    0    0  0.00000000000E+00  0.00000000000E+00  0.48663100971E+03  0.24587207127E+04  0.24100825304E+04 0.  0.
        3    1    3    3  502    0  0.83357172030E+03 -0.70829044268E+03 -0.27246377523E+03  0.11272771102E+04  0.10100000352E+00 0. -1.
       -3    1    3    3    0  502 -0.83357172030E+03  0.70829044268E+03  0.75909478494E+03  0.13314436026E+04  0.10100000352E+00 0.  1.
</event>
<event>
 5   0  0.1198313E-05  0.2388663E+04  0.7818609E-02  0.8443760E-01
       -2   -1    0    0    0  501  0.00000000000E+00  0.00000000000E+00  0.61528744175E+03  0.61528744175E+03  0.25500000920E-02 0.  1.
        2   -1    0    0  501    0  0.00000000000E+00  0.00000000000E+00 -0.23183110421E+04  0.23183110421E+04  0.25500000920E-02 0. -1.
    10030    2    1    2    0    0  0.00000000000E+00  0.00000000000E+00 -0.17030236004E+04  0.29335984839E+04  0.23886629484E+04 0.  0.
        5    1    3    3  502    0 -0.23667303735E+03  0.88900211246E+03  0.83861062445E+02  0.92379307768E+03  0.46999998093E+01 0.  1.
       -5    1    3    3    0  502  0.23667303735E+03 -0.88900211246E+03 -0.17868846628E+04  0.20098054062E+04  0.46999998093E+01 0. -1.
</event>
<event>
 5   0  0.1169371E-05  0.2406226E+04  0.7818609E-02  0.8437176E-01
        2   -1    0    0  501    0  0.00000000000E+00  0.00000000000E+00  0.24632616408E+04  0.24632616408E+04  0.25500000920E-02 0.  1.
       -2   -1    0    0    0  501  0.00000000000E+00  0.00000000000E+00 -0.58762787477E+03  0.58762787477E+03  0.25500000920E-02 0. -1.
    10030    2    1    2    0    0  0.00000000000E+00  0.00000000000E+00  0.18756337661E+04  0.30508895156E+04  0.24062262595E+04 0.  0.
        2    1    3    3  502    0  0.39383462735E+03  0.95273090675E+03  0.15142425811E+03  0.10419842611E+04  0.25500000920E-02 0. -1.
       -2    1    3    3    0  502 -0.39383462735E+03 -0.95273090675E+03  0.17242095079E+04  0.20089052545E+04  0.25500000920E-02 0.  1.
</event>
<event>
 5   0  0.5042742E-06  0.2399310E+04  0.7818609E-02  0.8439762E-01
        1   -1    0    0  501    0  0.00000000000E+00  0.00000000000E+00  0.21404872765E+04  0.21404872765E+04  0.50400001928E-02 0. -1.
       -1   -1    0    0    0  501  0.00000000000E+00  0.00000000000E+00 -0.67235733719E+03  0.67235733721E+03  0.50400001928E-02 0.  1.
    10030    2    1    2    0    0  0.00000000000E+00  0.00000000000E+00  0.14681299393E+04  0.28128446137E+04  0.23993101722E+04 0.  0.
        5    1    3    3  502    0 -0.48253339405E+02  0.11770053419E+04  0.10000638320E+04  0.15452571688E+04  0.46999998093E+01 0. -1.
       -5    1    3    3    0  502  0.48253339405E+02 -0.11770053419E+04  0.46806610730E+03  0.12675874449E+04  0.46999998093E+01 0.  1.
</event>
<event>
 5   0  0.1168435E-05  0.2393954E+04  0.7818609E-02  0.8441770E-01
       -2   -1    0    0    0  501  0.00000000000E+00  0.00000000000E+00  0.60316380512E+03  0.60316380512E+03  0.25500000920E-02 0.  1.
        2   -1    0    0  501    0  0.00000000000E+00  0.00000000000E+00 -0.23753983307E+04  0.23753983307E+04  0.25500000920E-02 0. -1.
    10030    2    1    2    0    0  0.00000000000E+00  0.00000000000E+00 -0.17722345256E+04  0.29785621358E+04  0.23939542985E+04 0.  0.
        1    1    3    3  502    0  0.10378530547E+04 -0.50393083172E+03 -0.12828382633E+04  0.17253287386E+04  0.50400001928E-02 0. -1.
       -1    1    3    3    0  502 -0.10378530547E+04  0.50393083172E+03 -0.48939626232E+03  0.12532333973E+04  0.50400001928E-02 0.  1.
</event>
<event>
 5   0  0.1154897E-05  0.2392834E+04  0.7818609E-02  0.8442191E-01
       -2   -1    0    0    0  501  0.00000000000E+00  0.00000000000E+00  0.18241003929E+04  0.18241003929E+04  0.25500000920E-02 0. -1.
        2   -1    0    0  501    0  0.00000000000E+00  0.00000000000E+00 -0.78472279317E+03  0.78472279317E+03  0.25500000920E-02 0.  1.
    10030    2    1    2    0    0  0.00000000000E+00  0.00000000000E+00  0.10393775997E+04  0.26088231861E+04  0.23928335967E+04 0.  0.
        4    1    3    3  502    0 -0.34805471657E+02 -0.14342032206E+00  0.18235475624E+04  0.18238801405E+04  0.12699999809E+01 0. -1.
       -4    1    3    3    0  502  0.34805471657E+02  0.14342032206E+00 -0.78416996274E+03  0.78494304557E+03  0.12699999809E+01 0.  1.
</event>
<event>
 5   0  0.1168435E-05  0.2389227E+04  0.7818609E-02  0.8443548E-01
       -2   -1    0    0    0  501  0.00000000000E+00  0.00000000000E+00  0.15450041628E+04  0.15450041628E+04  0.25500000920E-02 0. -1.
        2   -1    0    0  501    0  0.00000000000E+00  0.00000000000E+00 -0.92368805799E+03  0.92368805800E+03  0.25500000920E-02 0.  1.
    10030    2    1    2    0    0  0.00000000000E+00  0.00000000000E+00  0.62131610478E+03  0.24686922208E+04  0.23892274021E+04 0.  0.
        1    1    3    3  502    0 -0.59125723108E+03 -0.86559029446E+03  0.90266282364E+03  0.13833408273E+04  0.50400001928E-02 0. -1.
       -1    1    3    3    0  502  0.59125723108E+03  0.86559029446E+03 -0.28134671886E+03  0.10853513935E+04  0.50400001928E-02 0.  1.
</event>
<event>
 5   0  0.1169371E-05  0.2389468E+04  0.7818609E-02  0.8443457E-01
        2   -1    0    0  501    0  0.00000000000E+00  0.00000000000E+00  0.21669141880E+04  0.21669141880E+04  0.25500000920E-02 0. -1.
       -2   -1    0    0    0  501  0.00000000000E+00  0.00000000000E+00 -0.65871963286E+03  0.65871963287E+03  0.25500000920E-02 0.  1.
    10030    2    1    2    0    0  0.00000000000E+00  0.00000000000E+00  0.15081945551E+04  0.28256338209E+04  0.23894676548E+04 0.  0.
        2    1    3    3  502    0  0.10795296139E+04  0.48552046289E+03  0.56241459781E+03  0.13105054319E+04  0.25500000920E-02 0. -1.
       -2    1    3    3    0  502 -0.10795296139E+04 -0.48552046289E+03  0.94577995732E+03  0.15151283889E+04  0.25500000920E-02 0.  1.
</event>
<event>
 5   0  0.5064437E-06  0.2402860E+04  0.7818609E-02  0.8438434E-01
       -1   -1    0    0    0  501  0.00000000000E+00  0.00000000000E+00  0.10548680089E+04  0.10548680089E+04  0.50400001928E-02 0.  1.
        1   -1    0    0  501    0  0.00000000000E+00  0.00000000000E+00 -0.13683550454E+04  0.13683550454E+04  0.50400001928E-02 0. -1.
    10030    2    1    2    0    0  0.00000000000E+00  0.00000000000E+00 -0.31348703650E+03  0.24232230543E+04  0.24028599312E+04 0.  0.
        2    1    3    3  502    0  0.89898860757E+03  0.63640627843E+03  0.32715667036E+03  0.11490104241E+04  0.25500000920E-02 0.  1.
       -2    1    3    3    0  502 -0.89898860757E+03 -0.63640627843E+03 -0.64064370686E+03  0.12742126302E+04  0.25500000920E-02 0. -1.
</event>
<event>
 5   0  0.5064437E-06  0.2410466E+04  0.7818609E-02  0.8435596E-01
       -1   -1    0    0    0  501  0.00000000000E+00  0.00000000000E+00  0.10104671509E+04  0.10104671509E+04  0.50400001928E-02 0.  1.
        1   -1    0    0  501    0  0.00000000000E+00  0.00000000000E+00 -0.14375399781E+04  0.14375399781E+04  0.50400001928E-02 0. -1.
    10030    2    1    2    0    0  0.00000000000E+00  0.00000000000E+00 -0.42707282719E+03  0.24480071291E+04  0.24104662836E+04 0.  0.
        2    1    3    3  502    0  0.87043817345E+03  0.12284218484E+01  0.63306677239E+03  0.10763074194E+04  0.25500000920E-02 0.  1.
       -2    1    3    3    0  502 -0.87043817345E+03 -0.12284218484E+01 -0.10601395996E+04  0.13716997096E+04  0.25500000920E-02 0. -1.
</event>
<event>
 5   0  0.1168435E-05  0.2389080E+04  0.7818609E-02  0.8443603E-01
       -2   -1    0    0    0  501  0.00000000000E+00  0.00000000000E+00  0.14542756917E+04  0.14542756917E+04  0.25500000920E-02 0. -1.
        2   -1    0    0  501    0  0.00000000000E+00  0.00000000000E+00 -0.98119351129E+03  0.98119351130E+03  0.25500000920E-02 0.  1.
    10030    2    1    2    0    0  0.00000000000E+00  0.00000000000E+00  0.47308218045E+03  0.24354692030E+04  0.23890800509E+04 0.  0.
        1    1    3    3  502    0 -0.15155919836E+03  0.10616734859E+04 -0.29979741471E+03  0.11135525453E+04  0.50400001928E-02 0.  1.
       -1    1    3    3    0  502  0.15155919836E+03 -0.10616734859E+04  0.77287959516E+03  0.13219166577E+04  0.50400001928E-02 0. -1.
</event>
<event>
 5   0  0.5196696E-06  0.2386190E+04  0.7818609E-02  0.8444692E-01
        1   -1    0    0  501    0  0.00000000000E+00  0.00000000000E+00  0.12689279126E+04  0.12689279126E+04  0.50400001928E-02 0. -1.
       -1   -1    0    0    0  501  0.00000000000E+00  0.00000000000E+00 -0.11217942486E+04  0.11217942487E+04  0.50400001928E-02 0.  1.
    10030    2    1    2    0    0  0.00000000000E+00  0.00000000000E+00  0.14713366392E+03  0.23907221612E+04  0.23861902978E+04 0.  0.
        1    1    3    3  502    0  0.40033259130E+03  0.11145315790E+04 -0.71723096683E+02  0.11864194144E+04  0.50400001928E-02 0.  1.
       -1    1    3    3    0  502 -0.40033259130E+03 -0.11145315790E+04  0.21885676060E+03  0.12043027468E+04  0.50400001928E-02 0. -1.
</event>
<event>
 5   0  0.5042742E-06  0.2399086E+04  0.7818609E-02  0.8439846E-01
       -1   -1    0    0    0  501  0.00000000000E+00  0.00000000000E+00  0.83164723040E+03  0.83164723042E+03  0.50400001928E-02 0. -1.
        1   -1    0    0  501    0  0.00000000000E+00  0.00000000000E+00 -0.17301853074E+04  0.17301853074E+04  0.50400001928E-02 0.  1.
    10030    2    1    2    0    0  0.00000000000E+00  0.00000000000E+00 -0.89853807701E+03  0.25618325378E+04  0.23990863419E+04 0.  0.
        5    1    3    3  502    0  0.63814584711E+03  0.53110175777E+03  0.47524729239E+03  0.95665107443E+03  0.46999998093E+01 0. -1.
       -5    1    3    3    0  502 -0.63814584711E+03 -0.53110175777E+03 -0.13737853694E+04  0.16051814634E+04  0.46999998093E+01 0.  1.
</event>
<event>
 5   0  0.1168435E-05  0.2391821E+04  0.7818609E-02  0.8442572E-01
       -2   -1    0    0    0  501  0.00000000000E+00  0.00000000000E+00  0.14296121568E+04  0.14296121568E+04  0.25500000920E-02 0. -1.
        2   -1    0    0  501    0  0.00000000000E+00  0.00000000000E+00 -0.10004122737E+04  0.10004122737E+04  0.25500000920E-02 0.  1.
    10030    2    1    2    0    0  0.00000000000E+00  0.00000000000E+00  0.42919988315E+03  0.24300244305E+04  0.23918206858E+04 0.  0.
        1    1    3    3  502    0  0.11149993070E+04 -0.23430618626E+02 -0.22407100665E+03  0.11375325334E+04  0.50400001928E-02 0. -1.
       -1    1    3    3    0  502 -0.11149993070E+04  0.23430618626E+02  0.65327088980E+03  0.12924918971E+04  0.50400001928E-02 0.  1.
</event>
<event>
 5   0  0.5034479E-06  0.2422834E+04  0.7818609E-02  0.8431004E-01
        1   -1    0    0  501    0  0.00000000000E+00  0.00000000000E+00  0.19110215323E+04  0.19110215323E+04  0.50400001928E-02 0.  1.
       -1   -1    0    0    0  501  0.00000000000E+00  0.00000000000E+00 -0.76793046767E+03  0.76793046769E+03  0.50400001928E-02 0. -1.
    10030    2    1    2    0    0  0.00000000000E+00  0.00000000000E+00  0.11430910646E+04  0.26789520000E+04  0.24228344219E+04 0.  0.
        4    1    3    3  502    0 -0.68380218786E+03  0.87975903457E+03  0.10971575633E+04  0.15637511703E+04  0.12699999809E+01 0.  1.
       -4    1    3    3    0  502  0.68380218786E+03 -0.87975903457E+03  0.45933501292E+02  0.11152008297E+04  0.12699999809E+01 0. -1.
</event>
<event>
 5   0  0.1169371E-05  0.2398652E+04  0.7818609E-02  0.8440009E-01
       -2   -1    0    0    0  501  0.00000000000E+00  0.00000000000E+00  0.11476170240E+04  0.11476170240E+04  0.25500000920E-02 0. -1.
        2   -1    0    0  501    0  0.00000000000E+00  0.00000000000E+00 -0.12533645529E+04  0.12533645529E+04  0.25500000920E-02 0.  1.
    10030    2    1    2    0    0  0.00000000000E+00  0.00000000000E+00 -0.10574752886E+03  0.24009815769E+04  0.23986517031E+04 0.  0.
        2    1    3    3  502    0 -0.69958485638E+03 -0.95981414613E+03  0.11378219525E+03  0.11931506838E+04  0.25500000920E-02 0. -1.
       -2    1    3    3    0  502  0.69958485638E+03  0.95981414613E+03 -0.21952972411E+03  0.12078308930E+04  0.25500000920E-02 0.  1.
</event>
<event>
 5   0  0.5034479E-06  0.2395085E+04  0.7818609E-02  0.8441346E-01
        1   -1    0    0  501    0  0.00000000000E+00  0.00000000000E+00  0.17418872294E+04  0.17418872294E+04  0.50400001928E-02 0. -1.
       -1   -1    0    0    0  501  0.00000000000E+00  0.00000000000E+00 -0.82330693344E+03  0.82330693346E+03  0.50400001928E-02 0.  1.
    10030    2    1    2    0    0  0.00000000000E+00  0.00000000000E+00  0.91858029597E+03  0.25651941629E+04  0.23950848280E+04 0.  0.
        4    1    3    3  502    0 -0.10796607995E+04  0.38376841717E+03  0.86486618078E+02  0.11490984240E+04  0.12699999809E+01 0.  1.
       -4    1    3    3    0  502  0.10796607995E+04 -0.38376841717E+03  0.83209367789E+03  0.14160957389E+04  0.12699999809E+01 0. -1.
</event>
<event>
 5   0  0.5196696E-06  0.2397514E+04  0.7818609E-02  0.8440435E-01
        1   -1    0    0  501    0  0.00000000000E+00  0.00000000000E+00  0.12928556789E+04  0.12928556789E+04  0.50400001928E-02 0. -1.
       -1   -1    0    0    0  501  0.00000000000E+00  0.00000000000E+00 -0.11115070052E+04  0.11115070052E+04  0.50400001928E-02 0.  1.
    10030    2    1    2    0    0  0.00000000000E+00  0.00000000000E+00  0.18134867373E+03  0.24043626841E+04  0.23975138322E+04 0.  0.
        1    1    3    3  502    0 -0.19477579311E+03  0.72924796608E+03  0.10246122525E+04  0.12726234611E+04  0.50400001928E-02 0. -1.
       -1    1    3    3    0  502  0.19477579311E+03 -0.72924796608E+03 -0.84326357880E+03  0.11317392230E+04  0.50400001928E-02 0.  1.
</event>
<event>
 5   0  0.1198313E-05  0.2397679E+04  0.7818609E-02  0.8440373E-01
       -2   -1    0    0    0  501  0.00000000000E+00  0.00000000000E+00  0.11097583602E+04  0.11097583602E+04  0.25500000920E-02 0. -1.
        2   -1    0    0  501    0  0.00000000000E+00  0.00000000000E+00 -0.12950716259E+04  0.12950716259E+04  0.25500000920E-02 0.  1.
    10030    2    1    2    0    0  0.00000000000E+00  0.00000000000E+00 -0.18531326565E+03  0.24048299861E+04  0.23976793480E+04 0.  0.
        5    1    3    3  502    0 -0.10603079650E+04  0.36321824664E+03  0.33406961503E+03  0.11695319889E+04  0.46999998093E+01 0. -1.
       -5    1    3    3    0  502  0.10603079650E+04 -0.36321824664E+03 -0.51938288068E+03  0.12352979973E+04  0.46999998093E+01 0.  1.
</event>
<event>
 5   0  0.5104174E-06  0.2404172E+04  0.7818609E-02  0.8437943E-01
       -1   -1    0    0    0  501  0.00000000000E+00  0.00000000000E+00  0.14163765451E+04  0.14163765452E+04  0.50400001928E-02 0. -1.
        1   -1    0    0  501    0  0.00000000000E+00  0.00000000000E+00 -0.10202165615E+04  0.10202165615E+04  0.50400001928E-02 0.  1.
    10030    2    1    2    0    0  0.00000000000E+00  0.00000000000E+00  0.39615998361E+03  0.24365931067E+04  0.24041720477E+04 0.  0.
        3    1    3    3  502    0 -0.13223098016E+03  0.15210251380E+02  0.14088851178E+04  0.14151585315E+04  0.10100000352E+00 0. -1.
       -3    1    3    3    0  502  0.13223098016E+03 -0.15210251380E+02 -0.10127251342E+04  0.10214345752E+04  0.10100000352E+00 0.  1.
</event>
<event>
 5   0  0.5104174E-06  0.2391917E+04  0.7818609E-02  0.8442536E-01
        1   -1    0    0  501    0  0.00000000000E+00  0.00000000000E+00  0.28289631955E+04  0.28289631955E+04  0.50400001928E-02 0.  1.
       -1   -1    0    0    0  501  0.00000000000E+00  0.00000000000E+00 -0.50559742188E+03  0.50559742190E+03  0.50400001928E-02 0. -1.
    10030    2    1    2    0    0  0.00000000000E+00  0.00000000000E+00  0.23233657736E+04  0.33345606174E+04  0.23919168031E+04 0.  0.
        3    1    3    3  502    0  0.31069628606E+03 -0.26957324664E+03  0.27272432548E+04  0.27580895015E+04  0.10100000352E+00 0.  1.
       -3    1    3    3    0  502 -0.31069628606E+03  0.26957324664E+03 -0.40387748115E+03  0.57647111589E+03  0.10100000352E+00 0. -1.
</event>
<event>
 5   0  0.1169371E-05  0.2240497E+04  0.7818609E-02  0.8501759E-01
       -2   -1    0    0    0  501  0.00000000000E+00  0.00000000000E+00  0.10377949204E+04  0.10377949204E+04  0.25500000920E-02 0.  1.
        2   -1    0    0  501    0  0.00000000000E+00  0.00000000000E+00 -0.12092528299E+04  0.12092528299E+04  0.25500000920E-02 0. -1.
    10030    2    1    2    0    0  0.00000000000E+00  0.00000000000E+00 -0.17145790952E+03  0.22470477503E+04  0.22404967702E+04 0.  0.
        2    1    3    3  502    0 -0.93768841440E+03  0.15976494817E+01 -0.70046021614E+03  0.11704301044E+04  0.25500000920E-02 0. -1.
       -2    1    3    3    0  502  0.93768841440E+03 -0.15976494817E+01  0.52900230662E+03  0.10766176459E+04  0.25500000920E-02 0.  1.
</event>
<event>
 5   0  0.1154897E-05  0.2400495E+04  0.7818609E-02  0.8439318E-01
       -2   -1    0    0    0  501  0.00000000000E+00  0.00000000000E+00  0.98405730885E+03  0.98405730885E+03  0.25500000920E-02 0. -1.
        2   -1    0    0  501    0  0.00000000000E+00  0.00000000000E+00 -0.14639336273E+04  0.14639336273E+04  0.25500000920E-02 0.  1.
    10030    2    1    2    0    0  0.00000000000E+00  0.00000000000E+00 -0.47987631847E+03  0.24479909362E+04  0.24004954369E+04 0.  0.
        4    1    3    3  502    0  0.42766848842E+03 -0.10438626720E+04  0.17810353327E+03  0.11420473263E+04  0.12699999809E+01 0. -1.
       -4    1    3    3    0  502 -0.42766848842E+03  0.10438626720E+04 -0.65797985174E+03  0.13059436099E+04  0.12699999809E+01 0.  1.
</event>
<event>
 5   0  0.5104174E-06  0.2398110E+04  0.7818609E-02  0.8440212E-01
        1   -1    0    0  501    0  0.00000000000E+00  0.00000000000E+00  0.17910005455E+04  0.17910005455E+04  0.50400001928E-02 0. -1.
       -1   -1    0    0    0  501  0.00000000000E+00  0.00000000000E+00 -0.80275370098E+03  0.80275370100E+03  0.50400001928E-02 0.  1.
    10030    2    1    2    0    0  0.00000000000E+00  0.00000000000E+00  0.98824684448E+03  0.25937542465E+04  0.23981095191E+04 0.  0.
        3    1    3    3  502    0 -0.91653355152E+03 -0.76339956953E+03  0.36201236629E+03  0.12465414624E+04  0.10100000352E+00 0. -1.
       -3    1    3    3    0  502  0.91653355152E+03  0.76339956953E+03  0.62623447819E+03  0.13472127841E+04  0.10100000352E+00 0.  1.
</event>
<event>
 5   0  0.1169371E-05  0.2404625E+04  0.7818609E-02  0.8437774E-01
        2   -1    0    0  501    0  0.00000000000E+00  0.00000000000E+00  0.15953908175E+04  0.15953908175E+04  0.25500000920E-02 0. -1.
       -2   -1    0    0    0  501  0.00000000000E+00  0.00000000000E+00 -0.90608241498E+03  0.90608241498E+03  0.25500000920E-02 0.  1.
    10030    2    1    2    0    0  0.00000000000E+00  0.00000000000E+00  0.68930840256E+03  0.25014732325E+04  0.24046251806E+04 0.  0.
        2    1    3    3  502    0  0.48669409270E+03 -0.69515803363E+02 -0.79673829927E+03  0.93621338610E+03  0.25500000920E-02 0.  1.
       -2    1    3    3    0  502 -0.48669409270E+03  0.69515803363E+02  0.14860467018E+04  0.15652598464E+04  0.25500000920E-02 0. -1.
</event>
<event>
 5   0  0.1154897E-05  0.2407029E+04  0.7818609E-02  0.8436877E-01
        2   -1    0    0  501    0  0.00000000000E+00  0.00000000000E+00  0.11533801243E+04  0.11533801243E+04  0.25500000920E-02 0. -1.
       -2   -1    0    0    0  501  0.00000000000E+00  0.00000000000E+00 -0.12558282154E+04  0.12558282154E+04  0.25500000920E-02 0.  1.
    10030    2    1    2    0    0  0.00000000000E+00  0.00000000000E+00 -0.10244809108E+03  0.24092083396E+04  0.24070291258E+04 0.  0.
        4    1    3    3  502    0 -0.68238229114E+03  0.86721407908E+03 -0.53201280546E+03  0.12250490147E+04  0.12699999809E+01 0.  1.
       -4    1    3    3    0  502  0.68238229114E+03 -0.86721407908E+03  0.42956471438E+03  0.11841593250E+04  0.12699999809E+01 0. -1.
</event>
<event>
 5   0  0.1174210E-05  0.2403007E+04  0.7818609E-02  0.8438379E-01
       -2   -1    0    0    0  501  0.00000000000E+00  0.00000000000E+00  0.10268855014E+04  0.10268855014E+04  0.25500000920E-02 0.  1.
        2   -1    0    0  501    0  0.00000000000E+00  0.00000000000E+00 -0.14058147976E+04  0.14058147976E+04  0.25500000920E-02 0. -1.
    10030    2    1    2    0    0  0.00000000000E+00  0.00000000000E+00 -0.37892929623E+03  0.24327002990E+04  0.24030071438E+04 0.  0.
        3    1    3    3  502    0 -0.87872143462E+02  0.53914822698E+02 -0.14013289433E+04  0.14051160590E+04  0.10100000352E+00 0. -1.
       -3    1    3    3    0  502  0.87872143462E+02 -0.53914822698E+02  0.10223996471E+04  0.10275842400E+04  0.10100000352E+00 0.  1.
</event>
<event>
 5   0  0.5042742E-06  0.2396271E+04  0.7818609E-02  0.8440901E-01
       -1   -1    0    0    0  501  0.00000000000E+00  0.00000000000E+00  0.89446429656E+03  0.89446429658E+03  0.50400001928E-02 0. -1.
        1   -1    0    0  501    0  0.00000000000E+00  0.00000000000E+00 -0.16049031581E+04  0.16049031581E+04  0.50400001928E-02 0.  1.
    10030    2    1    2    0    0  0.00000000000E+00  0.00000000000E+00 -0.71043886151E+03  0.24993674547E+04  0.23962709149E+04 0.  0.
        5    1    3    3  502    0  0.11635237796E+04 -0.15437500336E+03 -0.10427030955E+03  0.11783520759E+04  0.46999998093E+01 0.  1.
       -5    1    3    3    0  502 -0.11635237796E+04  0.15437500336E+03 -0.60616855197E+03  0.13210153787E+04  0.46999998093E+01 0. -1.
</event>
<event>
 5   0  0.1169371E-05  0.2410708E+04  0.7818609E-02  0.8435505E-01
        2   -1    0    0  501    0  0.00000000000E+00  0.00000000000E+00  0.13432561487E+04  0.13432561487E+04  0.25500000920E-02 0. -1.
       -2   -1    0    0    0  501  0.00000000000E+00  0.00000000000E+00 -0.10816094607E+04  0.10816094607E+04  0.25500000920E-02 0.  1.
    10030    2    1    2    0    0  0.00000000000E+00  0.00000000000E+00  0.26164668798E+03  0.24248656093E+04  0.24107082432E+04 0.  0.
        2    1    3    3  502    0 -0.99224675805E+03  0.56707909604E+03  0.51614773028E+03  0.12540098921E+04  0.25500000920E-02 0. -1.
       -2    1    3    3    0  502  0.99224675805E+03 -0.56707909604E+03 -0.25450104230E+03  0.11708557172E+04  0.25500000920E-02 0.  1.
</event>
<event>
 5   0  0.4067750E-06  0.2401541E+04  0.7818609E-02  0.8438927E-01
       -3   -1    0    0    0  501  0.00000000000E+00  0.00000000000E+00  0.10627989161E+04  0.10627989209E+04  0.10100000352E+00 0.  1.
        3   -1    0    0  501    0  0.00000000000E+00  0.00000000000E+00 -0.13566536212E+04  0.13566536250E+04  0.10100000352E+00 0. -1.
    10030    2    1    2    0    0  0.00000000000E+00  0.00000000000E+00 -0.29385470513E+03  0.24194525458E+04  0.24015411789E+04 0.  0.
        4    1    3    3  502    0  0.51598826590E+03 -0.43554656747E+03  0.85340500536E+03  0.10882308666E+04  0.12699999809E+01 0.  1.
       -4    1    3    3    0  502 -0.51598826590E+03  0.43554656747E+03 -0.11472597105E+04  0.13312216792E+04  0.12699999809E+01 0. -1.
</event>
<event>
 5   0  0.5034479E-06  0.2367941E+04  0.7818609E-02  0.8451605E-01
        1   -1    0    0  501    0  0.00000000000E+00  0.00000000000E+00  0.11605307877E+04  0.11605307877E+04  0.50400001928E-02 0.  1.
       -1   -1    0    0    0  501  0.00000000000E+00  0.00000000000E+00 -0.12078831335E+04  0.12078831336E+04  0.50400001928E-02 0. -1.
    10030    2    1    2    0    0  0.00000000000E+00  0.00000000000E+00 -0.47352345815E+02  0.23684139213E+04  0.23679405098E+04 0.  0.
        4    1    3    3  502    0  0.73536640043E+03  0.46401288787E+03 -0.82739904990E+03  0.12002760114E+04  0.12699999809E+01 0. -1.
       -4    1    3    3    0  502 -0.73536640043E+03 -0.46401288787E+03  0.78004670408E+03  0.11681379099E+04  0.12699999809E+01 0.  1.
</event>
<event>
 5   0  0.1169371E-05  0.2403097E+04  0.7818609E-02  0.8438345E-01
        2   -1    0    0  501    0  0.00000000000E+00  0.00000000000E+00  0.17107431463E+04  0.17107431463E+04  0.25500000920E-02 0.  1.
       -2   -1    0    0    0  501  0.00000000000E+00  0.00000000000E+00 -0.84391322943E+03  0.84391322944E+03  0.25500000920E-02 0. -1.
    10030    2    1    2    0    0  0.00000000000E+00  0.00000000000E+00  0.86682991683E+03  0.25546563757E+04  0.24030969796E+04 0.  0.
        2    1    3    3  502    0  0.70381403157E+03  0.91875482914E+03  0.77666283737E+03  0.13937968970E+04  0.25500000920E-02 0.  1.
       -2    1    3    3    0  502 -0.70381403157E+03 -0.91875482914E+03  0.90167079458E+02  0.11608594787E+04  0.25500000920E-02 0. -1.
</event>
<event>
 5   0  0.5042742E-06  0.2396828E+04  0.7818609E-02  0.8440692E-01
       -1   -1    0    0    0  501  0.00000000000E+00  0.00000000000E+00  0.88419016937E+03  0.88419016938E+03  0.50400001928E-02 0. -1.
        1   -1    0    0  501    0  0.00000000000E+00  0.00000000000E+00 -0.16243070545E+04  0.16243070545E+04  0.50400001928E-02 0.  1.
    10030    2    1    2    0    0  0.00000000000E+00  0.00000000000E+00 -0.74011688511E+03  0.25084972239E+04  0.23968281788E+04 0.  0.
        5    1    3    3  502    0 -0.47122174258E+03  0.10065236211E+03  0.77832990699E+03  0.91542359747E+03  0.46999998093E+01 0. -1.
       -5    1    3    3    0  502  0.47122174258E+03 -0.10065236211E+03 -0.15184467921E+04  0.15930736264E+04  0.46999998093E+01 0.  1.
</event>
<event>
 5   0  0.5042742E-06  0.2408161E+04  0.7818609E-02  0.8436454E-01
        1   -1    0    0  501    0  0.00000000000E+00  0.00000000000E+00  0.12568134986E+04  0.12568134986E+04  0.50400001928E-02 0.  1.
       -1   -1    0    0    0  501  0.00000000000E+00  0.00000000000E+00 -0.11535605333E+04  0.11535605333E+04  0.50400001928E-02 0. -1.
    10030    2    1    2    0    0  0.00000000000E+00  0.00000000000E+00  0.10325296526E+03  0.24103740319E+04  0.24081614976E+04 0.  0.
        5    1    3    3  502    0  0.35385410198E+03  0.41864039907E+03  0.11246729507E+04  0.12511530064E+04  0.46999998093E+01 0.  1.
       -5    1    3    3    0  502 -0.35385410198E+03 -0.41864039907E+03 -0.10214199855E+04  0.11592210255E+04  0.46999998093E+01 0. -1.
</event>
<event>
 5   0  0.5104174E-06  0.2399320E+04  0.7818609E-02  0.8439758E-01
        1   -1    0    0  501    0  0.00000000000E+00  0.00000000000E+00  0.12414838862E+04  0.12414838862E+04  0.50400001928E-02 0.  1.
       -1   -1    0    0    0  501  0.00000000000E+00  0.00000000000E+00 -0.11592455437E+04  0.11592455437E+04  0.50400001928E-02 0. -1.
    10030    2    1    2    0    0  0.00000000000E+00  0.00000000000E+00  0.82238342446E+02  0.24007294299E+04  0.23993204560E+04 0.  0.
        3    1    3    3  502    0  0.80406886025E+03 -0.74118366148E+03 -0.45242975257E+03  0.11834579178E+04  0.10100000352E+00 0. -1.
       -3    1    3    3    0  502 -0.80406886025E+03  0.74118366148E+03  0.53466809501E+03  0.12172715121E+04  0.10100000352E+00 0.  1.
</event>
<event>
 5   0  0.5064437E-06  0.2400792E+04  0.7818609E-02  0.8439207E-01
       -1   -1    0    0    0  501  0.00000000000E+00  0.00000000000E+00  0.92539260293E+03  0.92539260294E+03  0.50400001928E-02 0. -1.
        1   -1    0    0  501    0  0.00000000000E+00  0.00000000000E+00 -0.15571236758E+04  0.15571236758E+04  0.50400001928E-02 0.  1.
    10030    2    1    2    0    0  0.00000000000E+00  0.00000000000E+00 -0.63173107288E+03  0.24825162788E+04  0.24007921455E+04 0.  0.
        2    1    3    3  502    0  0.10514921366E+04 -0.40219143588E+03  0.11491760059E+03  0.11316358599E+04  0.25500000920E-02 0. -1.
       -2    1    3    3    0  502 -0.10514921366E+04  0.40219143588E+03 -0.74664867347E+03  0.13508804189E+04  0.25500000920E-02 0.  1.
</event>
<event>
 5   0  0.1198313E-05  0.2398048E+04  0.7818609E-02  0.8440235E-01
        2   -1    0    0  501    0  0.00000000000E+00  0.00000000000E+00  0.11623019003E+04  0.11623019003E+04  0.25500000920E-02 0.  1.
       -2   -1    0    0    0  501  0.00000000000E+00  0.00000000000E+00 -0.12369062797E+04  0.12369062797E+04  0.25500000920E-02 0. -1.
    10030    2    1    2    0    0  0.00000000000E+00  0.00000000000E+00 -0.74604379458E+02  0.23992081800E+04  0.23980479723E+04 0.  0.
        5    1    3    3  502    0 -0.49591385479E+03  0.44811836641E+03  0.95861691185E+03  0.11686355700E+04  0.46999998093E+01 0.  1.
       -5    1    3    3    0  502  0.49591385479E+03 -0.44811836641E+03 -0.10332212913E+04  0.12305726100E+04  0.46999998093E+01 0. -1.
</event>
<event>
 5   0  0.5034479E-06  0.2412730E+04  0.7818609E-02  0.8434753E-01
       -1   -1    0    0    0  501  0.00000000000E+00  0.00000000000E+00  0.65422755975E+03  0.65422755977E+03  0.50400001928E-02 0. -1.
        1   -1    0    0  501    0  0.00000000000E+00  0.00000000000E+00 -0.22244800315E+04  0.22244800315E+04  0.50400001928E-02 0.  1.
    10030    2    1    2    0    0  0.00000000000E+00  0.00000000000E+00 -0.15702524718E+04  0.28787075913E+04  0.24127296929E+04 0.  0.
        4    1    3    3  502    0  0.48677121918E+03 -0.22091578685E+02 -0.21018394131E+04  0.21575830897E+04  0.12699999809E+01 0.  1.
       -4    1    3    3    0  502 -0.48677121918E+03  0.22091578685E+02  0.53158694134E+03  0.72112450158E+03  0.12699999809E+01 0. -1.
</event>
<event>
 5   0  0.5042742E-06  0.2405229E+04  0.7818609E-02  0.8437549E-01
        1   -1    0    0  501    0  0.00000000000E+00  0.00000000000E+00  0.12233462699E+04  0.12233462699E+04  0.50400001928E-02 0. -1.
       -1   -1    0    0    0  501  0.00000000000E+00  0.00000000000E+00 -0.11822339085E+04  0.11822339085E+04  0.50400001928E-02 0.  1.
    10030    2    1    2    0    0  0.00000000000E+00  0.00000000000E+00  0.41112361397E+02  0.24055801784E+04  0.24052288391E+04 0.  0.
        5    1    3    3  502    0  0.50600048355E+03 -0.10745504494E+04 -0.16805608057E+03  0.11995666275E+04  0.46999998093E+01 0.  1.
       -5    1    3    3    0  502 -0.50600048355E+03  0.10745504494E+04  0.20916844196E+03  0.12060135508E+04  0.46999998093E+01 0. -1.
</event>
<event>
 5   0  0.1169371E-05  0.2396222E+04  0.7818609E-02  0.8440919E-01
       -2   -1    0    0    0  501  0.00000000000E+00  0.00000000000E+00  0.53368828342E+03  0.53368828343E+03  0.25500000920E-02 0.  1.
        2   -1    0    0  501    0  0.00000000000E+00  0.00000000000E+00 -0.26897165097E+04  0.26897165097E+04  0.25500000920E-02 0. -1.
    10030    2    1    2    0    0  0.00000000000E+00  0.00000000000E+00 -0.21560282263E+04  0.32234047931E+04  0.23962221825E+04 0.  0.
        2    1    3    3  502    0 -0.74362711638E+03  0.81601740456E+03 -0.45194612990E+03  0.11929463513E+04  0.25500000920E-02 0.  1.
       -2    1    3    3    0  502  0.74362711638E+03 -0.81601740456E+03 -0.17040820964E+04  0.20304584418E+04  0.25500000920E-02 0. -1.
</event>
<event>
 5   0  0.5064437E-06  0.2403603E+04  0.7818609E-02  0.8438156E-01
       -1   -1    0    0    0  501  0.00000000000E+00  0.00000000000E+00  0.69458662078E+03  0.69458662079E+03  0.50400001928E-02 0.  1.
        1   -1    0    0  501    0  0.00000000000E+00  0.00000000000E+00 -0.20794053922E+04  0.20794053922E+04  0.50400001928E-02 0. -1.
    10030    2    1    2    0    0  0.00000000000E+00  0.00000000000E+00 -0.13848187714E+04  0.27739920130E+04  0.24036032656E+04 0.  0.
        2    1    3    3  502    0 -0.65216953594E+03 -0.71233540583E+03  0.13305689970E+03  0.97491075108E+03  0.25500000920E-02 0.  1.
       -2    1    3    3    0  502  0.65216953594E+03  0.71233540583E+03 -0.15178756711E+04  0.17990812619E+04  0.25500000920E-02 0. -1.
</event>
<event>
 5   0  0.1198313E-05  0.2417268E+04  0.7818609E-02  0.8433067E-01
        2   -1    0    0  501    0  0.00000000000E+00  0.00000000000E+00  0.20468333862E+04  0.20468333862E+04  0.25500000920E-02 0.  1.
       -2   -1    0    0    0  501  0.00000000000E+00  0.00000000000E+00 -0.71368569685E+03  0.71368569685E+03  0.25500000920E-02 0. -1.
    10030    2    1    2    0    0  0.00000000000E+00  0.00000000000E+00  0.13331476893E+04  0.27605190830E+04  0.24172676406E+04 0.  0.
        5    1    3    3  502    0  0.12996749543E+03  0.11994708115E+04  0.58460527364E+03  0.13406741564E+04  0.46999998093E+01 0.  1.
       -5    1    3    3    0  502 -0.12996749543E+03 -0.11994708115E+04  0.74854241568E+03  0.14198449266E+04  0.46999998093E+01 0. -1.
</event>
<event>
 5   0  0.5196696E-06  0.2400393E+04  0.7818609E-02  0.8439356E-01
       -1   -1    0    0    0  501  0.00000000000E+00  0.00000000000E+00  0.71011688644E+03  0.71011688646E+03  0.50400001928E-02 0.  1.
        1   -1    0    0  501    0  0.00000000000E+00  0.00000000000E+00 -0.20285000396E+04  0.20285000396E+04  0.50400001928E-02 0. -1.
    10030    2    1    2    0    0  0.00000000000E+00  0.00000000000E+00 -0.13183831532E+04  0.27386169261E+04  0.24003934113E+04 0.  0.
        1    1    3    3  502    0 -0.54556313472E+03 -0.56502262096E+03 -0.16945778429E+04  0.18677483133E+04  0.50400001928E-02 0. -1.
       -1    1    3    3    0  502  0.54556313472E+03  0.56502262096E+03  0.37619468971E+03  0.87086861279E+03  0.50400001928E-02 0.  1.
</event>
<event>
 5   0  0.1174210E-05  0.2403188E+04  0.7818609E-02  0.8438311E-01
       -2   -1    0    0    0  501  0.00000000000E+00  0.00000000000E+00  0.83980994781E+03  0.83980994781E+03  0.25500000920E-02 0. -1.
        2   -1    0    0  501    0  0.00000000000E+00  0.00000000000E+00 -0.17192316050E+04  0.17192316050E+04  0.25500000920E-02 0.  1.
    10030    2    1    2    0    0  0.00000000000E+00  0.00000000000E+00 -0.87942165724E+03  0.25590415529E+04  0.24031877201E+04 0.  0.
        3    1    3    3  502    0 -0.47539732161E+03 -0.73106405030E+03 -0.13199846094E+04  0.15820292786E+04  0.10100000352E+00 0.  1.
       -3    1    3    3    0  502  0.47539732161E+03  0.73106405030E+03  0.44056295218E+03  0.97701227426E+03  0.10100000352E+00 0. -1.
</event>
<event>
 5   0  0.1198313E-05  0.2402271E+04  0.7818609E-02  0.8438654E-01
        2   -1    0    0  501    0  0.00000000000E+00  0.00000000000E+00  0.11748749025E+04  0.11748749025E+04  0.25500000920E-02 0. -1.
       -2   -1    0    0    0  501  0.00000000000E+00  0.00000000000E+00 -0.12279833519E+04  0.12279833519E+04  0.25500000920E-02 0.  1.
    10030    2    1    2    0    0  0.00000000000E+00  0.00000000000E+00 -0.53108449401E+02  0.24028582545E+04  0.24022712760E+04 0.  0.
        5    1    3    3  502    0 -0.34277023596E+03  0.11327450186E+04  0.17868367682E+03  0.11968929185E+04  0.46999998093E+01 0. -1.
       -5    1    3    3    0  502  0.34277023596E+03 -0.11327450186E+04 -0.23179212622E+03  0.12059653360E+04  0.46999998093E+01 0.  1.
</event>
<event>
 5   0  0.5196696E-06  0.2397485E+04  0.7818609E-02  0.8440446E-01
        1   -1    0    0  501    0  0.00000000000E+00  0.00000000000E+00  0.13828266350E+04  0.13828266350E+04  0.50400001928E-02 0. -1.
       -1   -1    0    0    0  501  0.00000000000E+00  0.00000000000E+00 -0.10391637365E+04  0.10391637365E+04  0.50400001928E-02 0.  1.
    10030    2    1    2    0    0  0.00000000000E+00  0.00000000000E+00  0.34366289857E+03  0.24219903715E+04  0.23974847594E+04 0.  0.
        1    1    3    3  502    0 -0.24689419829E+03 -0.51049014999E+03  0.12387641053E+04  0.13623852051E+04  0.50400001928E-02 0. -1.
       -1    1    3    3    0  502  0.24689419829E+03  0.51049014999E+03 -0.89510120674E+03  0.10596051664E+04  0.50400001928E-02 0.  1.
</event>
<event>
 5   0  0.1169371E-05  0.2229179E+04  0.7818609E-02  0.8506380E-01
       -2   -1    0    0    0  501  0.00000000000E+00  0.00000000000E+00  0.47797574314E+03  0.47797574315E+03  0.25500000920E-02 0. -1.
        2   -1    0    0  501    0  0.00000000000E+00  0.00000000000E+00 -0.25991069402E+04  0.25991069402E+04  0.25500000920E-02 0.  1.
    10030    2    1    2    0    0  0.00000000000E+00  0.00000000000E+00 -0.21211311970E+04  0.30770826833E+04  0.22291792851E+04 0.  0.
        2    1    3    3  502    0 -0.92425428688E+03  0.49277372604E+03 -0.15866246600E+04  0.19011706245E+04  0.25500000920E-02 0.  1.
       -2    1    3    3    0  502  0.92425428688E+03 -0.49277372604E+03 -0.53450653706E+03  0.11759120588E+04  0.25500000920E-02 0. -1.
</event>
<event>
 5   0  0.1198313E-05  0.2410371E+04  0.7818609E-02  0.8435631E-01
        2   -1    0    0  501    0  0.00000000000E+00  0.00000000000E+00  0.14747680121E+04  0.14747680121E+04  0.25500000920E-02 0. -1.
       -2   -1    0    0    0  501  0.00000000000E+00  0.00000000000E+00 -0.98488190119E+03  0.98488190119E+03  0.25500000920E-02 0.  1.
    10030    2    1    2    0    0  0.00000000000E+00  0.00000000000E+00  0.48988611093E+03  0.24596499133E+04  0.24103711943E+04 0.  0.
        5    1    3    3  502    0  0.85038522773E+03  0.80704071323E+03  0.52990202763E+03  0.12865799615E+04  0.46999998093E+01 0. -1.
       -5    1    3    3    0  502 -0.85038522773E+03 -0.80704071323E+03 -0.40015916696E+02  0.11730699519E+04  0.46999998093E+01 0.  1.
</event>
<event>
 5   0  0.5064437E-06  0.2395642E+04  0.7818609E-02  0.8441137E-01
        1   -1    0    0  501    0  0.00000000000E+00  0.00000000000E+00  0.73448128999E+03  0.73448129001E+03  0.50400001928E-02 0. -1.
       -1   -1    0    0    0  501  0.00000000000E+00  0.00000000000E+00 -0.19534537247E+04  0.19534537247E+04  0.50400001928E-02 0.  1.
    10030    2    1    2    0    0  0.00000000000E+00  0.00000000000E+00 -0.12189724347E+04  0.26879350147E+04  0.23956420531E+04 0.  0.
        2    1    3    3  502    0 -0.10207019400E+04  0.40248613722E+03 -0.70281566114E+02  0.10994394206E+04  0.25500000920E-02 0. -1.
       -2    1    3    3    0  502  0.10207019400E+04 -0.40248613722E+03 -0.11486908686E+04  0.15884955941E+04  0.25500000920E-02 0.  1.
</event>
<event>
 5   0  0.1198313E-05  0.2406368E+04  0.7818609E-02  0.8437123E-01
        2   -1    0    0  501    0  0.00000000000E+00  0.00000000000E+00  0.20990354156E+04  0.20990354156E+04  0.25500000920E-02 0. -1.
       -2   -1    0    0    0  501  0.00000000000E+00  0.00000000000E+00 -0.68967466677E+03  0.68967466677E+03  0.25500000920E-02 0.  1.
    10030    2    1    2    0    0  0.00000000000E+00  0.00000000000E+00  0.14093607489E+04  0.27887100824E+04  0.24063678446E+04 0.  0.
        5    1    3    3  502    0 -0.64998902054E+03 -0.10095393905E+04  0.79425237032E+03  0.14396230151E+04  0.46999998093E+01 0.  1.
       -5    1    3    3    0  502  0.64998902054E+03  0.10095393905E+04  0.61510837856E+03  0.13490870673E+04  0.46999998093E+01 0. -1.
</event>
<event>
 5   0  0.5034479E-06  0.2390728E+04  0.7818609E-02  0.8442983E-01
       -1   -1    0    0    0  501  0.00000000000E+00  0.00000000000E+00  0.62200796515E+03  0.62200796517E+03  0.50400001928E-02 0. -1.
        1   -1    0    0  501    0  0.00000000000E+00  0.00000000000E+00 -0.22972290434E+04  0.22972290434E+04  0.50400001928E-02 0.  1.
    10030    2    1    2    0    0  0.00000000000E+00  0.00000000000E+00 -0.16752210782E+04  0.29192370086E+04  0.23907277242E+04 0.  0.
        4    1    3    3  502    0 -0.18660746472E+03 -0.46112039802E+03  0.48961536620E+03  0.69798222547E+03  0.12699999809E+01 0. -1.
       -4    1    3    3    0  502  0.18660746472E+03  0.46112039802E+03 -0.21648364444E+04  0.22212547831E+04  0.12699999809E+01 0.  1.
</event>
<event>
 5   0  0.5042742E-06  0.2390866E+04  0.7818609E-02  0.8442931E-01
       -1   -1    0    0    0  501  0.00000000000E+00  0.00000000000E+00  0.86832138620E+03  0.86832138621E+03  0.50400001928E-02 0.  1.
        1   -1    0    0  501    0  0.00000000000E+00  0.00000000000E+00 -0.16457735808E+04  0.16457735808E+04  0.50400001928E-02 0. -1.
    10030    2    1    2    0    0  0.00000000000E+00  0.00000000000E+00 -0.77745219462E+03  0.25140949670E+04  0.23908662841E+04 0.  0.
        5    1    3    3  502    0  0.33489327143E+03 -0.71092528196E+03 -0.13359717874E+04  0.15499712793E+04  0.46999998093E+01 0. -1.
       -5    1    3    3    0  502 -0.33489327143E+03  0.71092528196E+03  0.55851959280E+03  0.96412368777E+03  0.46999998093E+01 0.  1.
</event>
<event>
 5   0  0.5042742E-06  0.2404592E+04  0.7818609E-02  0.8437786E-01
       -1   -1    0    0    0  501  0.00000000000E+00  0.00000000000E+00  0.13432727277E+04  0.13432727277E+04  0.50400001928E-02 0.  1.
        1   -1    0    0  501    0  0.00000000000E+00  0.00000000000E+00 -0.10761147580E+04  0.10761147580E+04  0.50400001928E-02 0. -1.
    10030    2    1    2    0    0  0.00000000000E+00  0.00000000000E+00  0.26715796971E+03  0.24193874857E+04  0.24045919456E+04 0.  0.
        5    1    3    3  502    0  0.84097390525E+03 -0.79504816002E+03  0.46139783438E+03  0.12458927472E+04  0.46999998093E+01 0.  1.
       -5    1    3    3    0  502 -0.84097390525E+03  0.79504816002E+03 -0.19423986467E+03  0.11734947384E+04  0.46999998093E+01 0. -1.
</event>
<event>
 5   0  0.4067750E-06  0.2397489E+04  0.7818609E-02  0.8440444E-01
       -3   -1    0    0    0  501  0.00000000000E+00  0.00000000000E+00  0.69580332306E+03  0.69580333039E+03  0.10100000352E+00 0.  1.
        3   -1    0    0  501    0  0.00000000000E+00  0.00000000000E+00 -0.20652220501E+04  0.20652220526E+04  0.10100000352E+00 0. -1.
    10030    2    1    2    0    0  0.00000000000E+00  0.00000000000E+00 -0.13694187270E+04  0.27610253830E+04  0.23974890021E+04 0.  0.
        1    1    3    3  502    0  0.94836165286E+02 -0.10090275075E+04  0.52567266188E+02  0.10148367980E+04  0.50400001928E-02 0.  1.
       -1    1    3    3    0  502 -0.94836165286E+02  0.10090275075E+04 -0.14219859932E+04  0.17461885849E+04  0.50400001928E-02 0. -1.
</event>
<event>
 5   0  0.1174210E-05  0.2396406E+04  0.7818609E-02  0.8440850E-01
       -2   -1    0    0    0  501  0.00000000000E+00  0.00000000000E+00  0.12275401638E+04  0.12275401638E+04  0.25500000920E-02 0.  1.
        2   -1    0    0  501    0  0.00000000000E+00  0.00000000000E+00 -0.11695671246E+04  0.11695671246E+04  0.25500000920E-02 0. -1.
    10030    2    1    2    0    0  0.00000000000E+00  0.00000000000E+00  0.57973039129E+02  0.23971072884E+04  0.23964061590E+04 0.  0.
        3    1    3    3  502    0  0.99041702029E+03 -0.66419264603E+03 -0.87721796910E+02  0.11957311023E+04  0.10100000352E+00 0.  1.
       -3    1    3    3    0  502 -0.99041702029E+03  0.66419264603E+03  0.14569483604E+03  0.12013761861E+04  0.10100000352E+00 0. -1.
</event>
<event>
 5   0  0.5042742E-06  0.2407819E+04  0.7818609E-02  0.8436582E-01
       -1   -1    0    0    0  501  0.00000000000E+00  0.00000000000E+00  0.13574277965E+04  0.13574277965E+04  0.50400001928E-02 0. -1.
        1   -1    0    0  501    0  0.00000000000E+00  0.00000000000E+00 -0.10677533422E+04  0.10677533422E+04  0.50400001928E-02 0.  1.
    10030    2    1    2    0    0  0.00000000000E+00  0.00000000000E+00  0.28967445434E+03  0.24251811387E+04  0.24078189853E+04 0.  0.
        5    1    3    3  502    0 -0.11278342334E+04  0.35868260362E+03 -0.77463808137E+02  0.11860379420E+04  0.46999998093E+01 0.  1.
       -5    1    3    3    0  502  0.11278342334E+04 -0.35868260362E+03  0.36713826248E+03  0.12391431967E+04  0.46999998093E+01 0. -1.
</event>
<event>
 5   0  0.5042742E-06  0.2350174E+04  0.7818609E-02  0.8458397E-01
       -1   -1    0    0    0  501  0.00000000000E+00  0.00000000000E+00  0.98892063140E+03  0.98892063141E+03  0.50400001928E-02 0.  1.
        1   -1    0    0  501    0  0.00000000000E+00  0.00000000000E+00 -0.13962990921E+04  0.13962990921E+04  0.50400001928E-02 0. -1.
    10030    2    1    2    0    0  0.00000000000E+00  0.00000000000E+00 -0.40737846068E+03  0.23852197235E+04  0.23501735934E+04 0.  0.
        5    1    3    3  502    0  0.24127859545E+03  0.76858071303E+03 -0.10719435851E+04  0.13409014925E+04  0.46999998093E+01 0. -1.
       -5    1    3    3    0  502 -0.24127859545E+03 -0.76858071303E+03  0.66456512438E+03  0.10443182310E+04  0.46999998093E+01 0.  1.
</event>
<event>
 5   0  0.1174210E-05  0.2407840E+04  0.7818609E-02  0.8436574E-01
        2   -1    0    0  501    0  0.00000000000E+00  0.00000000000E+00  0.17427599668E+04  0.17427599668E+04  0.25500000920E-02 0. -1.
       -2   -1    0    0    0  501  0.00000000000E+00  0.00000000000E+00 -0.83168283581E+03  0.83168283581E+03  0.25500000920E-02 0.  1.
    10030    2    1    2    0    0  0.00000000000E+00  0.00000000000E+00  0.91107713100E+03  0.25744428026E+04  0.24078401536E+04 0.  0.
        3    1    3    3  502    0 -0.26981802707E+03 -0.10605065142E+03 -0.79380410524E+03  0.84508785111E+03  0.10100000352E+00 0.  1.
       -3    1    3    3    0  502  0.26981802707E+03  0.10605065142E+03  0.17048812362E+04  0.17293549515E+04  0.10100000352E+00 0. -1.
</event>
<event>
 5   0  0.1168435E-05  0.2407305E+04  0.7818609E-02  0.8436774E-01
        2   -1    0    0  501    0  0.00000000000E+00  0.00000000000E+00  0.16887838927E+04  0.16887838927E+04  0.25500000920E-02 0. -1.
       -2   -1    0    0    0  501  0.00000000000E+00  0.00000000000E+00 -0.85788313301E+03  0.85788313301E+03  0.25500000920E-02 0.  1.
    10030    2    1    2    0    0  0.00000000000E+00  0.00000000000E+00  0.83090075965E+03  0.25466670257E+04  0.24073048970E+04 0.  0.
        1    1    3    3  502    0  0.31488855952E+03  0.99152963599E+03  0.10558840265E+04  0.14822877256E+04  0.50400001928E-02 0. -1.
       -1    1    3    3    0  502 -0.31488855952E+03 -0.99152963599E+03 -0.22498326690E+03  0.10643793001E+04  0.50400001928E-02 0.  1.
</event>
<event>
 5   0  0.1154897E-05  0.2399467E+04  0.7818609E-02  0.8439703E-01
        2   -1    0    0  501    0  0.00000000000E+00  0.00000000000E+00  0.29849789170E+04  0.29849789170E+04  0.25500000920E-02 0.  1.
       -2   -1    0    0    0  501  0.00000000000E+00  0.00000000000E+00 -0.48220111963E+03  0.48220111964E+03  0.25500000920E-02 0. -1.
    10030    2    1    2    0    0  0.00000000000E+00  0.00000000000E+00  0.25027777974E+04  0.34671800367E+04  0.23994667540E+04 0.  0.
        4    1    3    3  502    0 -0.10134687434E+04 -0.48793919098E+03  0.64837176921E+03  0.12983031664E+04  0.12699999809E+01 0.  1.
       -4    1    3    3    0  502  0.10134687434E+04  0.48793919098E+03  0.18544060282E+04  0.21688768702E+04  0.12699999809E+01 0. -1.
</event>
<event>
 5   0  0.5064437E-06  0.2400380E+04  0.7818609E-02  0.8439361E-01
        1   -1    0    0  501    0  0.00000000000E+00  0.00000000000E+00  0.11676434616E+04  0.11676434616E+04  0.50400001928E-02 0. -1.
       -1   -1    0    0    0  501  0.00000000000E+00  0.00000000000E+00 -0.12336433532E+04  0.12336433532E+04  0.50400001928E-02 0.  1.
    10030    2    1    2    0    0  0.00000000000E+00  0.00000000000E+00 -0.65999891660E+02  0.24012868148E+04  0.24003796327E+04 0.  0.
        2    1    3    3  502    0 -0.11096537744E+04 -0.39074810148E+03 -0.27066081060E+03  0.12071755681E+04  0.25500000920E-02 0.  1.
       -2    1    3    3    0  502  0.11096537744E+04  0.39074810148E+03  0.20466091894E+03  0.11941112467E+04  0.25500000920E-02 0. -1.
</event>
<event>
 5   0  0.1198313E-05  0.2386224E+04  0.7818609E-02  0.8444679E-01
       -2   -1    0    0    0  501  0.00000000000E+00  0.00000000000E+00  0.85638234171E+03  0.85638234171E+03  0.25500000920E-02 0.  1.
        2   -1    0    0  501    0  0.00000000000E+00  0.00000000000E+00 -0.16622434612E+04  0.16622434612E+04  0.25500000920E-02 0. -1.
    10030    2    1    2    0    0  0.00000000000E+00  0.00000000000E+00 -0.80586111954E+03  0.25186258030E+04  0.23862237513E+04 0.  0.
        5    1    3    3  502    0 -0.45507012546E+03 -0.18810443632E+03 -0.15499781421E+04  0.16263229781E+04  0.46999998093E+01 0. -1.
       -5    1    3    3    0  502  0.45507012546E+03  0.18810443632E+03  0.74411702255E+03  0.89230282488E+03  0.46999998093E+01 0.  1.
</event>
<event>
 5   0  0.5034479E-06  0.2399747E+04  0.7818609E-02  0.8439598E-01
       -1   -1    0    0    0  501  0.00000000000E+00  0.00000000000E+00  0.67209603858E+03  0.67209603859E+03  0.50400001928E-02 0.  1.
        1   -1    0    0  501    0  0.00000000000E+00  0.00000000000E+00 -0.21420985859E+04  0.21420985859E+04  0.50400001928E-02 0. -1.
    10030    2    1    2    0    0  0.00000000000E+00  0.00000000000E+00 -0.14700025473E+04  0.28141946245E+04  0.23997466315E+04 0.  0.
        4    1    3    3  502    0 -0.10764279268E+04 -0.48831589403E+03 -0.49311438774E+03  0.12807470110E+04  0.12699999809E+01 0. -1.
       -4    1    3    3    0  502  0.10764279268E+04  0.48831589403E+03 -0.97688815954E+03  0.15334476134E+04  0.12699999809E+01 0.  1.
</event>
<event>
 5   0  0.1168435E-05  0.2390780E+04  0.7818609E-02  0.8442963E-01
       -2   -1    0    0    0  501  0.00000000000E+00  0.00000000000E+00  0.17131751293E+04  0.17131751293E+04  0.25500000920E-02 0.  1.
        2   -1    0    0  501    0  0.00000000000E+00  0.00000000000E+00 -0.83409871081E+03  0.83409871081E+03  0.25500000920E-02 0. -1.
    10030    2    1    2    0    0  0.00000000000E+00  0.00000000000E+00  0.87907641850E+03  0.25472738401E+04  0.23907799286E+04 0.  0.
        1    1    3    3  502    0 -0.24696415921E+03  0.95798314849E+03 -0.27537818240E+03  0.10269158447E+04  0.50400001928E-02 0. -1.
       -1    1    3    3    0  502  0.24696415921E+03 -0.95798314849E+03  0.11544546009E+04  0.15203579954E+04  0.50400001928E-02 0.  1.
</event>
<event>
 5   0  0.1198313E-05  0.2411104E+04  0.7818609E-02  0.8435358E-01
        2   -1    0    0  501    0  0.00000000000E+00  0.00000000000E+00  0.14271012008E+04  0.14271012008E+04  0.25500000920E-02 0. -1.
       -2   -1    0    0    0  501  0.00000000000E+00  0.00000000000E+00 -0.10183972379E+04  0.10183972379E+04  0.25500000920E-02 0.  1.
    10030    2    1    2    0    0  0.00000000000E+00  0.00000000000E+00  0.40870396297E+03  0.24454984387E+04  0.24111042459E+04 0.  0.
        5    1    3    3  502    0 -0.21000220583E+03 -0.10989087837E+04  0.65979237992E+03  0.12988647027E+04  0.46999998093E+01 0. -1.
       -5    1    3    3    0  502  0.21000220583E+03  0.10989087837E+04 -0.25108841696E+03  0.11466337360E+04  0.46999998093E+01 0.  1.
</event>
<event>
 5   0  0.1169371E-05  0.2406479E+04  0.7818609E-02  0.8437082E-01
        2   -1    0    0  501    0  0.00000000000E+00  0.00000000000E+00  0.12783954560E+04  0.12783954560E+04  0.25500000920E-02 0.  1.
       -2   -1    0    0    0  501  0.00000000000E+00  0.00000000000E+00 -0.11325017192E+04  0.11325017192E+04  0.25500000920E-02 0. -1.
    10030    2    1    2    0    0  0.00000000000E+00  0.00000000000E+00  0.14589373677E+03  0.24108971752E+04  0.24064787984E+04 0.  0.
        2    1    3    3  502    0  0.25269669154E+03  0.10123653799E+04  0.67325130973E+03  0.12417755861E+04  0.25500000920E-02 0.  1.
       -2    1    3    3    0  502 -0.25269669154E+03 -0.10123653799E+04 -0.52735757296E+03  0.11691215891E+04  0.25500000920E-02 0. -1.
</event>
<event>
 5   0  0.5196696E-06  0.2397015E+04  0.7818609E-02  0.8440622E-01
       -1   -1    0    0    0  501  0.00000000000E+00  0.00000000000E+00  0.67717593617E+03  0.67717593619E+03  0.50400001928E-02 0. -1.
        1   -1    0    0  501    0  0.00000000000E+00  0.00000000000E+00 -0.21211915501E+04  0.21211915502E+04  0.50400001928E-02 0.  1.
    10030    2    1    2    0    0  0.00000000000E+00  0.00000000000E+00 -0.14440156140E+04  0.27983674863E+04  0.23970147048E+04 0.  0.
        1    1    3    3  502    0  0.16900533270E+03 -0.38471076581E+03  0.58836320721E+03  0.72300514482E+03  0.50400001928E-02 0. -1.
       -1    1    3    3    0  502 -0.16900533270E+03  0.38471076581E+03 -0.20323788212E+04  0.20753623415E+04  0.50400001928E-02 0.  1.
</event>
<event>
 5   0  0.5034479E-06  0.2394910E+04  0.7818609E-02  0.8441411E-01
       -1   -1    0    0    0  501  0.00000000000E+00  0.00000000000E+00  0.95879665111E+03  0.95879665113E+03  0.50400001928E-02 0.  1.
        1   -1    0    0  501    0  0.00000000000E+00  0.00000000000E+00 -0.14955193914E+04  0.14955193914E+04  0.50400001928E-02 0. -1.
    10030    2    1    2    0    0  0.00000000000E+00  0.00000000000E+00 -0.53672274032E+03  0.24543160426E+04  0.23949104236E+04 0.  0.
        4    1    3    3  502    0  0.10304366757E+03 -0.79452512462E+03  0.64366275209E+03  0.10277117896E+04  0.12699999809E+01 0.  1.
       -4    1    3    3    0  502 -0.10304366757E+03  0.79452512462E+03 -0.11803854924E+04  0.14266042530E+04  0.12699999809E+01 0. -1.
</event>
<event>
 5   0  0.1169371E-05  0.2397764E+04  0.7818609E-02  0.8440341E-01
        2   -1    0    0  501    0  0.00000000000E+00  0.00000000000E+00  0.20035577482E+04  0.20035577482E+04  0.25500000920E-02 0. -1.
       -2   -1    0    0    0  501  0.00000000000E+00  0.00000000000E+00 -0.71738279646E+03  0.71738279647E+03  0.25500000920E-02 0.  1.
    10030    2    1    2    0    0  0.00000000000E+00  0.00000000000E+00  0.12861749517E+04  0.27209405446E+04  0.23977638418E+04 0.  0.
        2    1    3    3  502    0 -0.51651596134E+03 -0.84990180596E+03  0.14027953957E+04  0.17195803966E+04  0.25500000920E-02 0. -1.
       -2    1    3    3    0  502  0.51651596134E+03  0.84990180596E+03 -0.11662044404E+03  0.10013601480E+04  0.25500000920E-02 0.  1.
</event>
<event>
 5   0  0.1198313E-05  0.2401961E+04  0.7818609E-02  0.8438770E-01
       -2   -1    0    0    0  501  0.00000000000E+00  0.00000000000E+00  0.14563180270E+04  0.14563180270E+04  0.25500000920E-02 0. -1.
        2   -1    0    0  501    0  0.00000000000E+00  0.00000000000E+00 -0.99041187470E+03  0.99041187470E+03  0.25500000920E-02 0.  1.
    10030    2    1    2    0    0  0.00000000000E+00  0.00000000000E+00  0.46590615228E+03  0.24467299017E+04  0.24019614212E+04 0.  0.
        5    1    3    3  502    0  0.45743181444E+03  0.22792327858E+03 -0.87410558440E+03  0.10125589111E+04  0.46999998093E+01 0.  1.
       -5    1    3    3    0  502 -0.45743181444E+03 -0.22792327858E+03  0.13400117367E+04  0.14341709906E+04  0.46999998093E+01 0. -1.
</event>
<event>
 5   0  0.5034479E-06  0.2383075E+04  0.7818609E-02  0.8445867E-01
       -1   -1    0    0    0  501  0.00000000000E+00  0.00000000000E+00  0.58229094337E+03  0.58229094339E+03  0.50400001928E-02 0.  1.
        1   -1    0    0  501    0  0.00000000000E+00  0.00000000000E+00 -0.24382339255E+04  0.24382339255E+04  0.50400001928E-02 0. -1.
    10030    2    1    2    0    0  0.00000000000E+00  0.00000000000E+00 -0.18559429822E+04  0.30205248689E+04  0.23830749318E+04 0.  0.
        4    1    3    3  502    0  0.11757318055E+04  0.57194827208E+02 -0.69376546955E+03  0.13663559808E+04  0.12699999809E+01 0.  1.
       -4    1    3    3    0  502 -0.11757318055E+04 -0.57194827208E+02 -0.11621775126E+04  0.16541688881E+04  0.12699999809E+01 0. -1.
</event>
<event>
 5   0  0.5064437E-06  0.2405736E+04  0.7818609E-02  0.8437359E-01
        1   -1    0    0  501    0  0.00000000000E+00  0.00000000000E+00  0.12901872080E+04  0.12901872080E+04  0.50400001928E-02 0.  1.
       -1   -1    0    0    0  501  0.00000000000E+00  0.00000000000E+00 -0.11214586988E+04  0.11214586988E+04  0.50400001928E-02 0. -1.
    10030    2    1    2    0    0  0.00000000000E+00  0.00000000000E+00  0.16872850921E+03  0.24116459069E+04  0.24057362013E+04 0.  0.
        2    1    3    3  502    0 -0.11824284295E+04 -0.21979366721E+03  0.63207419611E+02  0.12043427356E+04  0.25500000920E-02 0. -1.
       -2    1    3    3    0  502  0.11824284295E+04  0.21979366721E+03  0.10552108960E+03  0.12073031712E+04  0.25500000920E-02 0.  1.
</event>
<event>
 5   0  0.1154897E-05  0.2404736E+04  0.7818609E-02  0.8437733E-01
       -2   -1    0    0    0  501  0.00000000000E+00  0.00000000000E+00  0.97019014020E+03  0.97019014021E+03  0.25500000920E-02 0. -1.
        2   -1    0    0  501    0  0.00000000000E+00  0.00000000000E+00 -0.14901087152E+04  0.14901087152E+04  0.25500000920E-02 0.  1.
    10030    2    1    2    0    0  0.00000000000E+00  0.00000000000E+00 -0.51991857500E+03  0.24602988554E+04  0.24047359800E+04 0.  0.
        4    1    3    3  502    0 -0.10029606544E+04 -0.18206772630E+03  0.39243275819E+03  0.10922837607E+04  0.12699999809E+01 0. -1.
       -4    1    3    3    0  502  0.10029606544E+04  0.18206772630E+03 -0.91235133319E+03  0.13680150947E+04  0.12699999809E+01 0.  1.
</event>
<event>
 5   0  0.4067750E-06  0.2416181E+04  0.7818609E-02  0.8433470E-01
       -3   -1    0    0    0  501  0.00000000000E+00  0.00000000000E+00  0.25860771415E+04  0.25860771434E+04  0.10100000352E+00 0.  1.
        3   -1    0    0  501    0  0.00000000000E+00  0.00000000000E+00 -0.56436176024E+03  0.56436176928E+03  0.10100000352E+00 0. -1.
    10030    2    1    2    0    0  0.00000000000E+00  0.00000000000E+00  0.20217153812E+04  0.31504389127E+04  0.24161813384E+04 0.  0.
        2    1    3    3  502    0 -0.32838363763E+03 -0.65889239494E+03  0.22598118026E+04  0.23767045219E+04  0.25500000920E-02 0.  1.
       -2    1    3    3    0  502  0.32838363763E+03  0.65889239494E+03 -0.23809642136E+03  0.77373439076E+03  0.25500000920E-02 0. -1.
</event>
<event>
 5   0  0.1154897E-05  0.2412763E+04  0.7818609E-02  0.8434741E-01
        2   -1    0    0  501    0  0.00000000000E+00  0.00000000000E+00  0.13391157196E+04  0.13391157196E+04  0.25500000920E-02 0. -1.
       -2   -1    0    0    0  501  0.00000000000E+00  0.00000000000E+00 -0.10868040191E+04  0.10868040191E+04  0.25500000920E-02 0.  1.
    10030    2    1    2    0    0  0.00000000000E+00  0.00000000000E+00  0.25231170053E+03  0.24259197388E+04  0.24127630187E+04 0.  0.
        4    1    3    3  502    0  0.67528837425E+03 -0.80607941312E+03 -0.46831801491E+03  0.11511306549E+04  0.12699999809E+01 0. -1.
       -4    1    3    3    0  502 -0.67528837425E+03  0.80607941312E+03  0.72062971544E+03  0.12747890839E+04  0.12699999809E+01 0.  1.
</event>
<event>
 5   0  0.1154897E-05  0.2407948E+04  0.7818609E-02  0.8436534E-01
       -2   -1    0    0    0  501  0.00000000000E+00  0.00000000000E+00  0.62979275787E+03  0.62979275787E+03  0.25500000920E-02 0. -1.
        2   -1    0    0  501    0  0.00000000000E+00  0.00000000000E+00 -0.23016364907E+04  0.23016364907E+04  0.25500000920E-02 0.  1.
    10030    2    1    2    0    0  0.00000000000E+00  0.00000000000E+00 -0.16718437328E+04  0.29314292485E+04  0.24079484987E+04 0.  0.
        4    1    3    3  502    0  0.60557410160E+03  0.61505094643E+03 -0.18577703513E+04  0.20484921162E+04  0.12699999809E+01 0.  1.
       -4    1    3    3    0  502 -0.60557410160E+03 -0.61505094643E+03  0.18592661850E+03  0.88293713230E+03  0.12699999809E+01 0. -1.
</event>
<event>
 5   0  0.1174210E-05  0.2474341E+04  0.7818609E-02  0.8412184E-01
       -2   -1    0    0    0  501  0.00000000000E+00  0.00000000000E+00  0.92276041247E+03  0.92276041247E+03  0.25500000920E-02 0. -1.
        2   -1    0    0  501    0  0.00000000000E+00  0.00000000000E+00 -0.16587094808E+04  0.16587094808E+04  0.25500000920E-02 0.  1.
    10030    2    1    2    0    0  0.00000000000E+00  0.00000000000E+00 -0.73594906831E+03  0.25814698933E+04  0.24743414838E+04 0.  0.
        3    1    3    3  502    0 -0.21760051370E+03 -0.11715917514E+04 -0.20987771709E+02  0.11918127840E+04  0.10100000352E+00 0. -1.
       -3    1    3    3    0  502  0.21760051370E+03  0.11715917514E+04 -0.71496129661E+03  0.13896571092E+04  0.10100000352E+00 0.  1.
</event>
<event>
 5   0  0.5064437E-06  0.2384819E+04  0.7818609E-02  0.8445209E-01
        1   -1    0    0  501    0  0.00000000000E+00  0.00000000000E+00  0.94542496183E+03  0.94542496185E+03  0.50400001928E-02 0. -1.
       -1   -1    0    0    0  501  0.00000000000E+00  0.00000000000E+00 -0.15039168812E+04  0.15039168812E+04  0.50400001928E-02 0.  1.
    10030    2    1    2    0    0  0.00000000000E+00  0.00000000000E+00 -0.55849191934E+03  0.24493418430E+04  0.23848191210E+04 0.  0.
        2    1    3    3  502    0  0.93364377141E+03 -0.43988070803E+03 -0.89260957776E+03  0.13645283388E+04  0.25500000920E-02 0.  1.
       -2    1    3    3    0  502 -0.93364377141E+03  0.43988070803E+03  0.33411765842E+03  0.10848135042E+04  0.25500000920E-02 0. -1.
</event>
<event>
 5   0  0.5196696E-06  0.2406135E+04  0.7818609E-02  0.8437210E-01
       -1   -1    0    0    0  501  0.00000000000E+00  0.00000000000E+00  0.10463146811E+04  0.10463146811E+04  0.50400001928E-02 0. -1.
        1   -1    0    0  501    0  0.00000000000E+00  0.00000000000E+00 -0.13833039346E+04  0.13833039346E+04  0.50400001928E-02 0.  1.
    10030    2    1    2    0    0  0.00000000000E+00  0.00000000000E+00 -0.33698925343E+03  0.24296186157E+04  0.24061348385E+04 0.  0.
        1    1    3    3  502    0 -0.26151998820E+02  0.85415380431E+03 -0.10235822109E+04  0.13334103610E+04  0.50400001928E-02 0.  1.
       -1    1    3    3    0  502  0.26151998820E+02 -0.85415380431E+03  0.68659295743E+03  0.10962082547E+04  0.50400001928E-02 0. -1.
</event>
<event>
 5   0  0.5042742E-06  0.2409463E+04  0.7818609E-02  0.8435969E-01
        1   -1    0    0  501    0  0.00000000000E+00  0.00000000000E+00  0.12626266598E+04  0.12626266598E+04  0.50400001928E-02 0.  1.
       -1   -1    0    0    0  501  0.00000000000E+00  0.00000000000E+00 -0.11494914701E+04  0.11494914701E+04  0.50400001928E-02 0. -1.
    10030    2    1    2    0    0  0.00000000000E+00  0.00000000000E+00  0.11313518971E+03  0.24121181300E+04  0.24094634884E+04 0.  0.
        5    1    3    3  502    0  0.97695776245E+02 -0.10140105642E+04  0.70038935545E+03  0.12362561338E+04  0.46999998093E+01 0. -1.
       -5    1    3    3    0  502 -0.97695776245E+02  0.10140105642E+04 -0.58725416574E+03  0.11758619962E+04  0.46999998093E+01 0.  1.
</event>
<event>
 5   0  0.1168435E-05  0.2403293E+04  0.7818609E-02  0.8438272E-01
        2   -1    0    0  501    0  0.00000000000E+00  0.00000000000E+00  0.14313480371E+04  0.14313480371E+04  0.25500000920E-02 0.  1.
       -2   -1    0    0    0  501  0.00000000000E+00  0.00000000000E+00 -0.10088073430E+04  0.10088073430E+04  0.25500000920E-02 0. -1.
    10030    2    1    2    0    0  0.00000000000E+00  0.00000000000E+00  0.42254069416E+03  0.24401553801E+04  0.24032930826E+04 0.  0.
        1    1    3    3  502    0  0.33365923531E+03 -0.10904759443E+04 -0.17333803740E+03  0.11534783681E+04  0.50400001928E-02 0. -1.
       -1    1    3    3    0  502 -0.33365923531E+03  0.10904759443E+04  0.59587873156E+03  0.12866770120E+04  0.50400001928E-02 0.  1.
</event>
<event>
 5   0  0.1198313E-05  0.2403756E+04  0.7818609E-02  0.8438099E-01
        2   -1    0    0  501    0  0.00000000000E+00  0.00000000000E+00  0.18880527654E+04  0.18880527654E+04  0.25500000920E-02 0.  1.
       -2   -1    0    0    0  501  0.00000000000E+00  0.00000000000E+00 -0.76507962955E+03  0.76507962956E+03  0.25500000920E-02 0. -1.
    10030    2    1    2    0    0  0.00000000000E+00  0.00000000000E+00  0.11229731358E+04  0.26531323949E+04  0.24037559862E+04 0.  0.
        5    1    3    3  502    0  0.63567513489E+03  0.18220478175E+02  0.16871294071E+04  0.18030093148E+04  0.46999998093E+01 0.  1.
       -5    1    3    3    0  502 -0.63567513489E+03 -0.18220478175E+02 -0.56415627128E+03  0.85012308013E+03  0.46999998093E+01 0. -1.
</event>
<event>
 5   0  0.1154897E-05  0.2472619E+04  0.7818609E-02  0.8412806E-01
        2   -1    0    0  501    0  0.00000000000E+00  0.00000000000E+00  0.20246984169E+04  0.20246984169E+04  0.25500000920E-02 0.  1.
       -2   -1    0    0    0  501  0.00000000000E+00  0.00000000000E+00 -0.75490807078E+03  0.75490807079E+03  0.25500000920E-02 0. -1.
    10030    2    1    2    0    0  0.00000000000E+00  0.00000000000E+00  0.12697903461E+04  0.27796064877E+04  0.24726189968E+04 0.  0.
        4    1    3    3  502    0 -0.38900777949E+03  0.43864131049E+03 -0.58869260954E+03  0.83083924630E+03  0.12699999809E+01 0. -1.
       -4    1    3    3    0  502  0.38900777949E+03 -0.43864131049E+03  0.18584829557E+04  0.19487672414E+04  0.12699999809E+01 0.  1.
</event>
<event>
 5   0  0.5042742E-06  0.2392020E+04  0.7818609E-02  0.8442497E-01
        1   -1    0    0  501    0  0.00000000000E+00  0.00000000000E+00  0.13674829233E+04  0.13674829233E+04  0.50400001928E-02 0.  1.
       -1   -1    0    0    0  501  0.00000000000E+00  0.00000000000E+00 -0.10460385185E+04  0.10460385185E+04  0.50400001928E-02 0. -1.
    10030    2    1    2    0    0  0.00000000000E+00  0.00000000000E+00  0.32144440479E+03  0.24135214418E+04  0.23920199089E+04 0.  0.
        5    1    3    3  502    0  0.99185727269E+03  0.65975466346E+03  0.53177734993E+02  0.11924374310E+04  0.46999998093E+01 0. -1.
       -5    1    3    3    0  502 -0.99185727269E+03 -0.65975466346E+03  0.26826666979E+03  0.12210840108E+04  0.46999998093E+01 0.  1.
</event>
<event>
 5   0  0.5196696E-06  0.2392204E+04  0.7818609E-02  0.8442428E-01
       -1   -1    0    0    0  501  0.00000000000E+00  0.00000000000E+00  0.70802749010E+03  0.70802749012E+03  0.50400001928E-02 0.  1.
        1   -1    0    0  501    0  0.00000000000E+00  0.00000000000E+00 -0.20206283755E+04  0.20206283756E+04  0.50400001928E-02 0. -1.
    10030    2    1    2    0    0  0.00000000000E+00  0.00000000000E+00 -0.13126008855E+04  0.27286558657E+04  0.23922043702E+04 0.  0.
        1    1    3    3  502    0  0.18105521130E+03  0.47261339508E+03  0.57987456959E+03  0.76967455930E+03  0.50400001928E-02 0.  1.
       -1    1    3    3    0  502 -0.18105521130E+03 -0.47261339508E+03 -0.18924754550E+04  0.19589813064E+04  0.50400001928E-02 0. -1.
</event>
<event>
 5   0  0.5064437E-06  0.2412668E+04  0.7818609E-02  0.8434776E-01
        1   -1    0    0  501    0  0.00000000000E+00  0.00000000000E+00  0.20156401667E+04  0.20156401667E+04  0.50400001928E-02 0.  1.
       -1   -1    0    0    0  501  0.00000000000E+00  0.00000000000E+00 -0.72197507488E+03  0.72197507490E+03  0.50400001928E-02 0. -1.
    10030    2    1    2    0    0  0.00000000000E+00  0.00000000000E+00  0.12936650918E+04  0.27376152416E+04  0.24126681996E+04 0.  0.
        2    1    3    3  502    0 -0.16034717645E+03  0.39983064408E+03  0.19253880588E+04  0.19729913680E+04  0.25500000920E-02 0.  1.
       -2    1    3    3    0  502  0.16034717645E+03 -0.39983064408E+03 -0.63172296707E+03  0.76462387359E+03  0.25500000920E-02 0. -1.
</event>
<event>
 5   0  0.5064437E-06  0.2398016E+04  0.7818609E-02  0.8440247E-01
       -1   -1    0    0    0  501  0.00000000000E+00  0.00000000000E+00  0.96468525703E+03  0.96468525704E+03  0.50400001928E-02 0. -1.
        1   -1    0    0  501    0  0.00000000000E+00  0.00000000000E+00 -0.14902483715E+04  0.14902483715E+04  0.50400001928E-02 0.  1.
    10030    2    1    2    0    0  0.00000000000E+00  0.00000000000E+00 -0.52556311449E+03  0.24549336286E+04  0.23980163747E+04 0.  0.
        2    1    3    3  502    0  0.19893476488E+02  0.10654409466E+04 -0.82542668087E+03  0.13479203859E+04  0.25500000920E-02 0.  1.
       -2    1    3    3    0  502 -0.19893476488E+02 -0.10654409466E+04  0.29986356637E+03  0.11070132427E+04  0.25500000920E-02 0. -1.
</event>
<event>
 5   0  0.5042742E-06  0.2393906E+04  0.7818609E-02  0.8441789E-01
        1   -1    0    0  501    0  0.00000000000E+00  0.00000000000E+00  0.10788520336E+04  0.10788520336E+04  0.50400001928E-02 0.  1.
       -1   -1    0    0    0  501  0.00000000000E+00  0.00000000000E+00 -0.13279824271E+04  0.13279824271E+04  0.50400001928E-02 0. -1.
    10030    2    1    2    0    0  0.00000000000E+00  0.00000000000E+00 -0.24913039353E+03  0.24068344607E+04  0.23939060484E+04 0.  0.
        5    1    3    3  502    0  0.71323598593E+03 -0.52591624737E+03 -0.93351036862E+03  0.12871507950E+04  0.46999998093E+01 0. -1.
       -5    1    3    3    0  502 -0.71323598593E+03  0.52591624737E+03  0.68437997509E+03  0.11196836657E+04  0.46999998093E+01 0.  1.
</event>
<event>
 5   0  0.1168435E-05  0.2391594E+04  0.7818609E-02  0.8442657E-01
        2   -1    0    0  501    0  0.00000000000E+00  0.00000000000E+00  0.94079263107E+03  0.94079263107E+03  0.25500000920E-02 0.  1.
       -2   -1    0    0    0  501  0.00000000000E+00  0.00000000000E+00 -0.15199204999E+04  0.15199204999E+04  0.25500000920E-02 0. -1.
    10030    2    1    2    0    0  0.00000000000E+00  0.00000000000E+00 -0.57912786885E+03  0.24607131310E+04  0.23915936161E+04 0.  0.
        1    1    3    3  502    0  0.93508572593E+03  0.18401642791E+03  0.45358660280E+03  0.10554563785E+04  0.50400001928E-02 0.  1.
       -1    1    3    3    0  502 -0.93508572593E+03 -0.18401642791E+03 -0.10327144717E+04  0.14052567525E+04  0.50400001928E-02 0. -1.
</event>
<event>
 5   0  0.5064437E-06  0.2397622E+04  0.7818609E-02  0.8440394E-01
       -1   -1    0    0    0  501  0.00000000000E+00  0.00000000000E+00  0.88109514037E+03  0.88109514039E+03  0.50400001928E-02 0.  1.
        1   -1    0    0  501    0  0.00000000000E+00  0.00000000000E+00 -0.16310933190E+04  0.16310933190E+04  0.50400001928E-02 0. -1.
    10030    2    1    2    0    0  0.00000000000E+00  0.00000000000E+00 -0.74999817865E+03  0.25121884594E+04  0.23976224865E+04 0.  0.
        2    1    3    3  502    0  0.17304558093E+03 -0.47650472123E+03  0.76325558753E+03  0.91627540311E+03  0.25500000920E-02 0.  1.
       -2    1    3    3    0  502 -0.17304558093E+03  0.47650472123E+03 -0.15132537662E+04  0.15959130563E+04  0.25500000920E-02 0. -1.
</event>
<event>
 5   0  0.5196696E-06  0.2393811E+04  0.7818609E-02  0.8441824E-01
       -1   -1    0    0    0  501  0.00000000000E+00  0.00000000000E+00  0.62995262510E+03  0.62995262512E+03  0.50400001928E-02 0. -1.
        1   -1    0    0  501    0  0.00000000000E+00  0.00000000000E+00 -0.22741124011E+04  0.22741124011E+04  0.50400001928E-02 0.  1.
    10030    2    1    2    0    0  0.00000000000E+00  0.00000000000E+00 -0.16441597760E+04  0.29040650262E+04  0.23938112514E+04 0.  0.
        1    1    3    3  502    0  0.11332258360E+04  0.37438740161E+03 -0.93204528117E+03  0.15142903051E+04  0.50400001928E-02 0.  1.
       -1    1    3    3    0  502 -0.11332258360E+04 -0.37438740161E+03 -0.71211449480E+03  0.13897747211E+04  0.50400001928E-02 0. -1.
</event>
<event>
 5   0  0.1154897E-05  0.2321448E+04  0.7818609E-02  0.8469512E-01
        2   -1    0    0  501    0  0.00000000000E+00  0.00000000000E+00  0.16891611270E+04  0.16891611270E+04  0.25500000920E-02 0. -1.
       -2   -1    0    0    0  501  0.00000000000E+00  0.00000000000E+00 -0.79760318006E+03  0.79760318006E+03  0.25500000920E-02 0.  1.
    10030    2    1    2    0    0  0.00000000000E+00  0.00000000000E+00  0.89155794690E+03  0.24867643070E+04  0.23214480709E+04 0.  0.
        4    1    3    3  502    0  0.42892952764E+03 -0.51489270322E+03  0.14609944310E+04  0.16073585088E+04  0.12699999809E+01 0. -1.
       -4    1    3    3    0  502 -0.42892952764E+03  0.51489270322E+03 -0.56943648414E+03  0.87940579818E+03  0.12699999809E+01 0.  1.
</event>
<event>
 5   0  0.5042742E-06  0.2401785E+04  0.7818609E-02  0.8438836E-01
        1   -1    0    0  501    0  0.00000000000E+00  0.00000000000E+00  0.15569923944E+04  0.15569923944E+04  0.50400001928E-02 0.  1.
       -1   -1    0    0    0  501  0.00000000000E+00  0.00000000000E+00 -0.92623605604E+03  0.92623605605E+03  0.50400001928E-02 0. -1.
    10030    2    1    2    0    0  0.00000000000E+00  0.00000000000E+00  0.63075633834E+03  0.24832284504E+04  0.24017847486E+04 0.  0.
        5    1    3    3  502    0  0.82446170597E+03 -0.45552886924E+03  0.10855379873E+04  0.14372398781E+04  0.46999998093E+01 0.  1.
       -5    1    3    3    0  502 -0.82446170597E+03  0.45552886924E+03 -0.45478164892E+03  0.10459885724E+04  0.46999998093E+01 0. -1.
</event>
<event>
 5   0  0.5042742E-06  0.2417861E+04  0.7818609E-02  0.8432847E-01
       -1   -1    0    0    0  501  0.00000000000E+00  0.00000000000E+00  0.85354320071E+03  0.85354320072E+03  0.50400001928E-02 0. -1.
        1   -1    0    0  501    0  0.00000000000E+00  0.00000000000E+00 -0.17122900455E+04  0.17122900455E+04  0.50400001928E-02 0.  1.
    10030    2    1    2    0    0  0.00000000000E+00  0.00000000000E+00 -0.85874684482E+03  0.25658332463E+04  0.24178614733E+04 0.  0.
        5    1    3    3  502    0 -0.65971168803E+03 -0.86806203291E+02 -0.15004683663E+04  0.16413964288E+04  0.46999998093E+01 0.  1.
       -5    1    3    3    0  502  0.65971168803E+03  0.86806203291E+02  0.64172152150E+03  0.92443681742E+03  0.46999998093E+01 0. -1.
</event>
<event>
 5   0  0.5064437E-06  0.2409980E+04  0.7818609E-02  0.8435777E-01
       -1   -1    0    0    0  501  0.00000000000E+00  0.00000000000E+00  0.11452240674E+04  0.11452240674E+04  0.50400001928E-02 0. -1.
        1   -1    0    0  501    0  0.00000000000E+00  0.00000000000E+00 -0.12678747620E+04  0.12678747620E+04  0.50400001928E-02 0.  1.
    10030    2    1    2    0    0  0.00000000000E+00  0.00000000000E+00 -0.12265069465E+03  0.24130988294E+04  0.24099798272E+04 0.  0.
        2    1    3    3  502    0  0.58263883376E+03 -0.70766997779E+02 -0.11150773538E+04  0.12601085205E+04  0.25500000920E-02 0.  1.
       -2    1    3    3    0  502 -0.58263883376E+03  0.70766997779E+02  0.99242665915E+03  0.11529903089E+04  0.25500000920E-02 0. -1.
</event>
<event>
 5   0  0.1168435E-05  0.2367736E+04  0.7818609E-02  0.8451683E-01
       -2   -1    0    0    0  501  0.00000000000E+00  0.00000000000E+00  0.82300042585E+03  0.82300042585E+03  0.25500000920E-02 0.  1.
        2   -1    0    0  501    0  0.00000000000E+00  0.00000000000E+00 -0.17029675081E+04  0.17029675081E+04  0.25500000920E-02 0. -1.
    10030    2    1    2    0    0  0.00000000000E+00  0.00000000000E+00 -0.87996708224E+03  0.25259679339E+04  0.23677356139E+04 0.  0.
        1    1    3    3  502    0  0.49121569938E+03 -0.78917836278E+03 -0.12220842935E+04  0.15354430540E+04  0.50400001928E-02 0. -1.
       -1    1    3    3    0  502 -0.49121569938E+03  0.78917836278E+03  0.34211721123E+03  0.99052487997E+03  0.50400001928E-02 0.  1.
</event>
<event>
 5   0  0.5034479E-06  0.2399484E+04  0.7818609E-02  0.8439697E-01
        1   -1    0    0  501    0  0.00000000000E+00  0.00000000000E+00  0.96976247144E+03  0.96976247145E+03  0.50400001928E-02 0.  1.
       -1   -1    0    0    0  501  0.00000000000E+00  0.00000000000E+00 -0.14842610744E+04  0.14842610744E+04  0.50400001928E-02 0. -1.
    10030    2    1    2    0    0  0.00000000000E+00  0.00000000000E+00 -0.51449860295E+03  0.24540235458E+04  0.23994838510E+04 0.  0.
        4    1    3    3  502    0  0.65396462706E+03 -0.36332093221E+03  0.70199665572E+03  0.10259009459E+04  0.12699999809E+01 0.  1.
       -4    1    3    3    0  502 -0.65396462706E+03  0.36332093221E+03 -0.12164952587E+04  0.14281226000E+04  0.12699999809E+01 0. -1.
</event>
<event>
 5   0  0.1168435E-05  0.2368144E+04  0.7818609E-02  0.8451527E-01
        2   -1    0    0  501    0  0.00000000000E+00  0.00000000000E+00  0.64505787553E+03  0.64505787553E+03  0.25500000920E-02 0. -1.
       -2   -1    0    0    0  501  0.00000000000E+00  0.00000000000E+00 -0.21734890040E+04  0.21734890040E+04  0.25500000920E-02 0.  1.
    10030    2    1    2    0    0  0.00000000000E+00  0.00000000000E+00 -0.15284311285E+04  0.28185468795E+04  0.23681437452E+04 0.  0.
        1    1    3    3  502    0 -0.22896900201E+02  0.66431659515E+03  0.40204274159E+03  0.77683921935E+03  0.50400001928E-02 0. -1.
       -1    1    3    3    0  502  0.22896900201E+02 -0.66431659515E+03 -0.19304738701E+04  0.20417076602E+04  0.50400001928E-02 0.  1.
</event>
<event>
 5   0  0.1174210E-05  0.2404807E+04  0.7818609E-02  0.8437706E-01
        2   -1    0    0  501    0  0.00000000000E+00  0.00000000000E+00  0.16346584283E+04  0.16346584283E+04  0.25500000920E-02 0.  1.
       -2   -1    0    0    0  501  0.00000000000E+00  0.00000000000E+00 -0.88445050487E+03  0.88445050488E+03  0.25500000920E-02 0. -1.
    10030    2    1    2    0    0  0.00000000000E+00  0.00000000000E+00  0.75020792340E+03  0.25191089332E+04  0.24048072457E+04 0.  0.
        3    1    3    3  502    0 -0.75973665111E+03  0.47568269579E+03  0.12146332639E+04  0.15095720526E+04  0.10100000352E+00 0.  1.
       -3    1    3    3    0  502  0.75973665111E+03 -0.47568269579E+03 -0.46442534047E+03  0.10095368805E+04  0.10100000352E+00 0. -1.
</event>
<event>
 5   0  0.1174210E-05  0.2389553E+04  0.7818609E-02  0.8443425E-01
        2   -1    0    0  501    0  0.00000000000E+00  0.00000000000E+00  0.22027199224E+04  0.22027199224E+04  0.25500000920E-02 0. -1.
       -2   -1    0    0    0  501  0.00000000000E+00  0.00000000000E+00 -0.64805802181E+03  0.64805802181E+03  0.25500000920E-02 0.  1.
    10030    2    1    2    0    0  0.00000000000E+00  0.00000000000E+00  0.15546619006E+04  0.28507779442E+04  0.23895525234E+04 0.  0.
        3    1    3    3  502    0  0.40228790290E+03  0.10259757619E+04  0.22669362368E+03  0.11251008088E+04  0.10100000352E+00 0. -1.
       -3    1    3    3    0  502 -0.40228790290E+03 -0.10259757619E+04  0.13279682769E+04  0.17256771354E+04  0.10100000352E+00 0.  1.
</event>
<event>
 5   0  0.5196696E-06  0.2403899E+04  0.7818609E-02  0.8438045E-01
        1   -1    0    0  501    0  0.00000000000E+00  0.00000000000E+00  0.17077483801E+04  0.17077483801E+04  0.50400001928E-02 0. -1.
       -1   -1    0    0    0  501  0.00000000000E+00  0.00000000000E+00 -0.84595771023E+03  0.84595771025E+03  0.50400001928E-02 0.  1.
    10030    2    1    2    0    0  0.00000000000E+00  0.00000000000E+00  0.86179066986E+03  0.25537060903E+04  0.24038992569E+04 0.  0.
        1    1    3    3  502    0 -0.15105313974E+03  0.11879213253E+04  0.32096318713E+03  0.12397546102E+04  0.50400001928E-02 0.  1.
       -1    1    3    3    0  502  0.15105313974E+03 -0.11879213253E+04  0.54082748273E+03  0.13139514801E+04  0.50400001928E-02 0. -1.
</event>
<event>
 5   0  0.5042742E-06  0.2461866E+04  0.7818609E-02  0.8416698E-01
        1   -1    0    0  501    0  0.00000000000E+00  0.00000000000E+00  0.11024953735E+04  0.11024953735E+04  0.50400001928E-02 0. -1.
       -1   -1    0    0    0  501  0.00000000000E+00  0.00000000000E+00 -0.13743329161E+04  0.13743329161E+04  0.50400001928E-02 0.  1.
    10030    2    1    2    0    0  0.00000000000E+00  0.00000000000E+00 -0.27183754258E+03  0.24768282896E+04  0.24618657003E+04 0.  0.
        5    1    3    3  502    0 -0.48104500154E+03  0.91659963042E+03  0.53417312681E+03  0.11648700337E+04  0.46999998093E+01 0. -1.
       -5    1    3    3    0  502  0.48104500154E+03 -0.91659963042E+03 -0.80601066940E+03  0.13119582559E+04  0.46999998093E+01 0.  1.
</event>
<event>
 5   0  0.1174210E-05  0.2400127E+04  0.7818609E-02  0.8439456E-01
        2   -1    0    0  501    0  0.00000000000E+00  0.00000000000E+00  0.18406479123E+04  0.18406479123E+04  0.25500000920E-02 0. -1.
       -2   -1    0    0    0  501  0.00000000000E+00  0.00000000000E+00 -0.78241578785E+03  0.78241578785E+03  0.25500000920E-02 0.  1.
    10030    2    1    2    0    0  0.00000000000E+00  0.00000000000E+00  0.10582321244E+04  0.26230637001E+04  0.24001266520E+04 0.  0.
        3    1    3    3  502    0  0.93904747178E+03 -0.54959773795E+03  0.10823840601E+04  0.15347387698E+04  0.10100000352E+00 0.  1.
       -3    1    3    3    0  502 -0.93904747178E+03  0.54959773795E+03 -0.24151935626E+02  0.10883249303E+04  0.10100000352E+00 0. -1.
</event>
<event>
 5   0  0.5042742E-06  0.2397799E+04  0.7818609E-02  0.8440328E-01
        1   -1    0    0  501    0  0.00000000000E+00  0.00000000000E+00  0.13784877761E+04  0.13784877761E+04  0.50400001928E-02 0. -1.
       -1   -1    0    0    0  501  0.00000000000E+00  0.00000000000E+00 -0.10427078087E+04  0.10427078087E+04  0.50400001928E-02 0.  1.
    10030    2    1    2    0    0  0.00000000000E+00  0.00000000000E+00  0.33577996735E+03  0.24211955848E+04  0.23977989644E+04 0.  0.
        5    1    3    3  502    0  0.38431558543E+03 -0.86253464191E+02  0.13112814559E+04  0.13691673659E+04  0.46999998093E+01 0. -1.
       -5    1    3    3    0  502 -0.38431558543E+03  0.86253464191E+02 -0.97550148853E+03  0.10520282189E+04  0.46999998093E+01 0.  1.
</event>
<event>
 5   0  0.1169371E-05  0.2390103E+04  0.7818609E-02  0.8443218E-01
       -2   -1    0    0    0  501  0.00000000000E+00  0.00000000000E+00  0.66159356595E+03  0.66159356596E+03  0.25500000920E-02 0.  1.
        2   -1    0    0  501    0  0.00000000000E+00  0.00000000000E+00 -0.21586495043E+04  0.21586495043E+04  0.25500000920E-02 0. -1.
    10030    2    1    2    0    0  0.00000000000E+00  0.00000000000E+00 -0.14970559384E+04  0.28202430703E+04  0.23901034482E+04 0.  0.
        2    1    3    3  502    0 -0.23097021415E+03 -0.10131977128E+04 -0.52215708012E+02  0.10405014777E+04  0.25500000920E-02 0.  1.
       -2    1    3    3    0  502  0.23097021415E+03  0.10131977128E+04 -0.14448402304E+04  0.17797415926E+04  0.25500000920E-02 0. -1.
</event>
<event>
 5   0  0.5104174E-06  0.2397959E+04  0.7818609E-02  0.8440268E-01
        1   -1    0    0  501    0  0.00000000000E+00  0.00000000000E+00  0.18073248616E+04  0.18073248616E+04  0.50400001928E-02 0. -1.
       -1   -1    0    0    0  501  0.00000000000E+00  0.00000000000E+00 -0.79540305921E+03  0.79540305923E+03  0.50400001928E-02 0.  1.
    10030    2    1    2    0    0  0.00000000000E+00  0.00000000000E+00  0.10119218024E+04  0.26027279208E+04  0.23979589020E+04 0.  0.
        3    1    3    3  502    0  0.35224919845E+03 -0.11450902003E+04  0.45458328406E+03  0.12813887142E+04  0.10100000352E+00 0. -1.
       -3    1    3    3    0  502 -0.35224919845E+03  0.11450902003E+04  0.55733851830E+03  0.13213392066E+04  0.10100000352E+00 0.  1.
</event>
<event>
 5   0  0.5196696E-06  0.2399776E+04  0.7818609E-02  0.8439588E-01
       -1   -1    0    0    0  501  0.00000000000E+00  0.00000000000E+00  0.60716100041E+03  0.60716100043E+03  0.50400001928E-02 0.  1.
        1   -1    0    0  501    0  0.00000000000E+00  0.00000000000E+00 -0.23712503901E+04  0.23712503901E+04  0.50400001928E-02 0. -1.
    10030    2    1    2    0    0  0.00000000000E+00  0.00000000000E+00 -0.17640893897E+04  0.29784113905E+04  0.23997756221E+04 0.  0.
        1    1    3    3  502    0 -0.10961197293E+03 -0.96764220268E+03 -0.17520557917E+04  0.20045063518E+04  0.50400001928E-02 0. -1.
       -1    1    3    3    0  502  0.10961197293E+03  0.96764220268E+03 -0.12033597984E+02  0.97390503876E+03  0.50400001928E-02 0.  1.
</event>
<event>
 5   0  0.5034479E-06  0.2396887E+04  0.7818609E-02  0.8440670E-01
        1   -1    0    0  501    0  0.00000000000E+00  0.00000000000E+00  0.14969200662E+04  0.14969200662E+04  0.50400001928E-02 0. -1.
       -1   -1    0    0    0  501  0.00000000000E+00  0.00000000000E+00 -0.95948146284E+03  0.95948146285E+03  0.50400001928E-02 0.  1.
    10030    2    1    2    0    0  0.00000000000E+00  0.00000000000E+00  0.53743860335E+03  0.24564015291E+04  0.23968871937E+04 0.  0.
        4    1    3    3  502    0  0.30723538534E+03 -0.11263010302E+04  0.54621523461E+03  0.12889143836E+04  0.12699999809E+01 0.  1.
       -4    1    3    3    0  502 -0.30723538534E+03  0.11263010302E+04 -0.87766312519E+01  0.11674871455E+04  0.12699999809E+01 0. -1.
</event>
<event>
 5   0  0.1154897E-05  0.2397742E+04  0.7818609E-02  0.8440349E-01
        2   -1    0    0  501    0  0.00000000000E+00  0.00000000000E+00  0.19980847928E+04  0.19980847928E+04  0.25500000920E-02 0. -1.
       -2   -1    0    0    0  501  0.00000000000E+00  0.00000000000E+00 -0.71933482220E+03  0.71933482220E+03  0.25500000920E-02 0.  1.
    10030    2    1    2    0    0  0.00000000000E+00  0.00000000000E+00  0.12787499706E+04  0.27174196150E+04  0.23977422457E+04 0.  0.
        4    1    3    3  502    0 -0.30585965385E+01 -0.95167799255E+03  0.14656842307E+04  0.17475503522E+04  0.12699999809E+01 0. -1.
       -4    1    3    3    0  502  0.30585965385E+01  0.95167799255E+03 -0.18693426005E+03  0.96986926283E+03  0.12699999809E+01 0.  1.
</event>
<event>
 5   0  0.5104174E-06  0.2398626E+04  0.7818609E-02  0.8440018E-01
       -1   -1    0    0    0  501  0.00000000000E+00  0.00000000000E+00  0.71899190857E+03  0.71899190858E+03  0.50400001928E-02 0. -1.
        1   -1    0    0  501    0  0.00000000000E+00  0.00000000000E+00 -0.20005117675E+04  0.20005117675E+04  0.50400001928E-02 0.  1.
    10030    2    1    2    0    0  0.00000000000E+00  0.00000000000E+00 -0.12815198589E+04  0.27195036761E+04  0.23986260849E+04 0.  0.
        3    1    3    3  502    0 -0.21194163219E+03  0.65697286807E+02 -0.19770366829E+04  0.19894495331E+04  0.10100000352E+00 0.  1.
       -3    1    3    3    0  502  0.21194163219E+03 -0.65697286807E+02  0.69551682402E+03  0.73005414295E+03  0.10100000352E+00 0. -1.
</event>
<event>
 5   0  0.5042742E-06  0.2388964E+04  0.7818609E-02  0.8443647E-01
       -1   -1    0    0    0  501  0.00000000000E+00  0.00000000000E+00  0.12860879960E+04  0.12860879960E+04  0.50400001928E-02 0. -1.
        1   -1    0    0  501    0  0.00000000000E+00  0.00000000000E+00 -0.11094013900E+04  0.11094013901E+04  0.50400001928E-02 0.  1.
    10030    2    1    2    0    0  0.00000000000E+00  0.00000000000E+00  0.17668660595E+03  0.23954893861E+04  0.23889644706E+04 0.  0.
        5    1    3    3  502    0  0.11782591070E+04  0.12999914023E+03 -0.58929968690E+02  0.11868821049E+04  0.46999998093E+01 0.  1.
       -5    1    3    3    0  502 -0.11782591070E+04 -0.12999914023E+03  0.23561657464E+03  0.12086072811E+04  0.46999998093E+01 0. -1.
</event>
<event>
 5   0  0.5034479E-06  0.2401474E+04  0.7818609E-02  0.8438952E-01
       -1   -1    0    0    0  501  0.00000000000E+00  0.00000000000E+00  0.83742770223E+03  0.83742770224E+03  0.50400001928E-02 0.  1.
        1   -1    0    0  501    0  0.00000000000E+00  0.00000000000E+00 -0.17216644338E+04  0.17216644338E+04  0.50400001928E-02 0. -1.
    10030    2    1    2    0    0  0.00000000000E+00  0.00000000000E+00 -0.88423673161E+03  0.25590921361E+04  0.24014741230E+04 0.  0.
        4    1    3    3  502    0  0.35837548613E+03  0.11142160844E+04 -0.15646208406E+03  0.11808439645E+04  0.12699999809E+01 0.  1.
       -4    1    3    3    0  502 -0.35837548613E+03 -0.11142160844E+04 -0.72777464755E+03  0.13782481716E+04  0.12699999809E+01 0. -1.
</event>
<event>
 5   0  0.1169371E-05  0.2453540E+04  0.7818609E-02  0.8419726E-01
       -2   -1    0    0    0  501  0.00000000000E+00  0.00000000000E+00  0.13249336466E+04  0.13249336466E+04  0.25500000920E-02 0.  1.
        2   -1    0    0  501    0  0.00000000000E+00  0.00000000000E+00 -0.11358797011E+04  0.11358797011E+04  0.25500000920E-02 0. -1.
    10030    2    1    2    0    0  0.00000000000E+00  0.00000000000E+00  0.18905394548E+03  0.24608133477E+04  0.24535404904E+04 0.  0.
        2    1    3    3  502    0 -0.62758811771E+03  0.10298573549E+04  0.31989778307E+03  0.12477209659E+04  0.25500000920E-02 0.  1.
       -2    1    3    3    0  502  0.62758811771E+03 -0.10298573549E+04 -0.13084383759E+03  0.12130923818E+04  0.25500000920E-02 0. -1.
</event>
<event>
 5   0  0.1154897E-05  0.2416830E+04  0.7818609E-02  0.8433229E-01
        2   -1    0    0  501    0  0.00000000000E+00  0.00000000000E+00  0.15310943419E+04  0.15310943419E+04  0.25500000920E-02 0.  1.
       -2   -1    0    0    0  501  0.00000000000E+00  0.00000000000E+00 -0.95374071723E+03  0.95374071723E+03  0.25500000920E-02 0. -1.
    10030    2    1    2    0    0  0.00000000000E+00  0.00000000000E+00  0.57735362465E+03  0.24848350591E+04  0.24168301684E+04 0.  0.
        4    1    3    3  502    0 -0.81375846798E+03 -0.89214559723E+03  0.24112843412E+03  0.12313696218E+04  0.12699999809E+01 0. -1.
       -4    1    3    3    0  502  0.81375846798E+03  0.89214559723E+03  0.33622519053E+03  0.12534654373E+04  0.12699999809E+01 0.  1.
</event>
<event>
 5   0  0.1154897E-05  0.2407584E+04  0.7818609E-02  0.8436670E-01
        2   -1    0    0  501    0  0.00000000000E+00  0.00000000000E+00  0.17162844414E+04  0.17162844414E+04  0.25500000920E-02 0. -1.
       -2   -1    0    0    0  501  0.00000000000E+00  0.00000000000E+00 -0.84433261941E+03  0.84433261941E+03  0.25500000920E-02 0.  1.
    10030    2    1    2    0    0  0.00000000000E+00  0.00000000000E+00  0.87195182203E+03  0.25606170609E+04  0.24075837997E+04 0.  0.
        4    1    3    3  502    0 -0.80039088863E+03 -0.66970394406E+03  0.10740998680E+04  0.14976051170E+04  0.12699999809E+01 0. -1.
       -4    1    3    3    0  502  0.80039088863E+03  0.66970394406E+03 -0.20214804596E+03  0.10630119438E+04  0.12699999809E+01 0.  1.
</event>
<event>
 5   0  0.5034479E-06  0.2401203E+04  0.7818609E-02  0.8439053E-01
        1   -1    0    0  501    0  0.00000000000E+00  0.00000000000E+00  0.17139621840E+04  0.17139621840E+04  0.50400001928E-02 0.  1.
       -1   -1    0    0    0  501  0.00000000000E+00  0.00000000000E+00 -0.84100113393E+03  0.84100113394E+03  0.50400001928E-02 0. -1.
    10030    2    1    2    0    0  0.00000000000E+00  0.00000000000E+00  0.87296105008E+03  0.25549633180E+04  0.24012031487E+04 0.  0.
        4    1    3    3  502    0  0.11221790991E+04  0.39402715361E+03  0.26196846696E+03  0.12178556642E+04  0.12699999809E+01 0. -1.
       -4    1    3    3    0  502 -0.11221790991E+04 -0.39402715361E+03  0.61099258312E+03  0.13371076538E+04  0.12699999809E+01 0.  1.
</event>
<event>
 5   0  0.1169371E-05  0.2404279E+04  0.7818609E-02  0.8437903E-01
        2   -1    0    0  501    0  0.00000000000E+00  0.00000000000E+00  0.23249120321E+04  0.23249120321E+04  0.25500000920E-02 0. -1.
       -2   -1    0    0    0  501  0.00000000000E+00  0.00000000000E+00 -0.62158864813E+03  0.62158864814E+03  0.25500000920E-02 0.  1.
    10030    2    1    2    0    0  0.00000000000E+00  0.00000000000E+00  0.17033233839E+04  0.29465006802E+04  0.24042786253E+04 0.  0.
        2    1    3    3  502    0  0.11506525651E+04 -0.34375700481E+03  0.91843557004E+03  0.15118512163E+04  0.25500000920E-02 0. -1.
       -2    1    3    3    0  502 -0.11506525651E+04  0.34375700481E+03  0.78488781391E+03  0.14346494639E+04  0.25500000920E-02 0.  1.
</event>
<event>
 5   0  0.1154897E-05  0.2397457E+04  0.7818609E-02  0.8440456E-01
        2   -1    0    0  501    0  0.00000000000E+00  0.00000000000E+00  0.17215633916E+04  0.17215633916E+04  0.25500000920E-02 0. -1.
       -2   -1    0    0    0  501  0.00000000000E+00  0.00000000000E+00 -0.83467739104E+03  0.83467739105E+03  0.25500000920E-02 0.  1.
    10030    2    1    2    0    0  0.00000000000E+00  0.00000000000E+00  0.88688600060E+03  0.25562407827E+04  0.23974570196E+04 0.  0.
        4    1    3    3  502    0 -0.85373312156E+03 -0.40379896663E+03  0.12306028923E+04  0.15512249804E+04  0.12699999809E+01 0.  1.
       -4    1    3    3    0  502  0.85373312156E+03  0.40379896663E+03 -0.34371689173E+03  0.10050158023E+04  0.12699999809E+01 0. -1.
</event>
<event>
 5   0  0.1198313E-05  0.2399977E+04  0.7818609E-02  0.8439512E-01
        2   -1    0    0  501    0  0.00000000000E+00  0.00000000000E+00  0.21831602958E+04  0.21831602958E+04  0.25500000920E-02 0.  1.
       -2   -1    0    0    0  501  0.00000000000E+00  0.00000000000E+00 -0.65958159073E+03  0.65958159073E+03  0.25500000920E-02 0. -1.
    10030    2    1    2    0    0  0.00000000000E+00  0.00000000000E+00  0.15235787051E+04  0.28427418865E+04  0.23999769505E+04 0.  0.
        5    1    3    3  502    0 -0.39609573137E+03 -0.61383341227E+03  0.18893980903E+04  0.20257172853E+04  0.46999998093E+01 0.  1.
       -5    1    3    3    0  502  0.39609573137E+03  0.61383341227E+03 -0.36581938520E+03  0.81702460123E+03  0.46999998093E+01 0. -1.
</event>
<event>
 5   0  0.4067750E-06  0.2385724E+04  0.7818609E-02  0.8444868E-01
        4   -1    0    0  501    0  0.00000000000E+00  0.00000000000E+00  0.99704738794E+03  0.99704819678E+03  0.12699999809E+01 0. -1.
       -4   -1    0    0    0  501  0.00000000000E+00  0.00000000000E+00 -0.14271321713E+04  0.14271327364E+04  0.12699999809E+01 0.  1.
    10030    2    1    2    0    0  0.00000000000E+00  0.00000000000E+00 -0.43008478335E+03  0.24241809332E+04  0.23857242665E+04 0.  0.
        1    1    3    3  502    0 -0.10258517283E+04 -0.10784356208E+03 -0.82379725373E+03  0.13200923898E+04  0.50400001928E-02 0.  1.
       -1    1    3    3    0  502  0.10258517283E+04  0.10784356208E+03  0.39371247038E+03  0.11040885434E+04  0.50400001928E-02 0. -1.
</event>
<event>
 5   0  0.1174210E-05  0.2403335E+04  0.7818609E-02  0.8438256E-01
       -2   -1    0    0    0  501  0.00000000000E+00  0.00000000000E+00  0.23181660128E+04  0.23181660128E+04  0.25500000920E-02 0. -1.
        2   -1    0    0  501    0  0.00000000000E+00  0.00000000000E+00 -0.62290801261E+03  0.62290801261E+03  0.25500000920E-02 0.  1.
    10030    2    1    2    0    0  0.00000000000E+00  0.00000000000E+00  0.16952580002E+04  0.29410740254E+04  0.24033345035E+04 0.  0.
        3    1    3    3  502    0  0.50801184063E+03  0.10712846508E+04  0.10870502049E+04  0.16085412620E+04  0.10100000352E+00 0. -1.
       -3    1    3    3    0  502 -0.50801184063E+03 -0.10712846508E+04  0.60820779521E+03  0.13325327634E+04  0.10100000352E+00 0.  1.
</event>
<event>
 5   0  0.5042742E-06  0.2395078E+04  0.7818609E-02  0.8441349E-01
        1   -1    0    0  501    0  0.00000000000E+00  0.00000000000E+00  0.15060852253E+04  0.15060852253E+04  0.50400001928E-02 0. -1.
       -1   -1    0    0    0  501  0.00000000000E+00  0.00000000000E+00 -0.95220340885E+03  0.95220340886E+03  0.50400001928E-02 0.  1.
    10030    2    1    2    0    0  0.00000000000E+00  0.00000000000E+00  0.55388181649E+03  0.24582886342E+04  0.23950778573E+04 0.  0.
        5    1    3    3  502    0 -0.65506781746E+03 -0.69325900489E+03 -0.46629409059E+03  0.10616845870E+04  0.46999998093E+01 0.  1.
       -5    1    3    3    0  502  0.65506781746E+03  0.69325900489E+03  0.10201759071E+04  0.13966040472E+04  0.46999998093E+01 0. -1.
</event>
<event>
 5   0  0.5064437E-06  0.2395426E+04  0.7818609E-02  0.8441218E-01
        1   -1    0    0  501    0  0.00000000000E+00  0.00000000000E+00  0.11779176153E+04  0.11779176154E+04  0.50400001928E-02 0. -1.
       -1   -1    0    0    0  501  0.00000000000E+00  0.00000000000E+00 -0.12178407199E+04  0.12178407199E+04  0.50400001928E-02 0.  1.
    10030    2    1    2    0    0  0.00000000000E+00  0.00000000000E+00 -0.39923104518E+02  0.23957583352E+04  0.23954256713E+04 0.  0.
        2    1    3    3  502    0 -0.56482097141E+03 -0.10514428522E+04  0.79858296983E+02  0.11962157618E+04  0.25500000920E-02 0.  1.
       -2    1    3    3    0  502  0.56482097141E+03  0.10514428522E+04 -0.11978140150E+03  0.11995425734E+04  0.25500000920E-02 0. -1.
</event>
<event>
 5   0  0.1168435E-05  0.2397795E+04  0.7818609E-02  0.8440329E-01
       -2   -1    0    0    0  501  0.00000000000E+00  0.00000000000E+00  0.12025284722E+04  0.12025284723E+04  0.25500000920E-02 0. -1.
        2   -1    0    0  501    0  0.00000000000E+00  0.00000000000E+00 -0.11952779277E+04  0.11952779277E+04  0.25500000920E-02 0.  1.
    10030    2    1    2    0    0  0.00000000000E+00  0.00000000000E+00  0.72505445598E+01  0.23978063999E+04  0.23977954377E+04 0.  0.
        1    1    3    3  502    0 -0.83570429955E+03 -0.47202936271E+03 -0.71480848537E+03  0.11967307827E+04  0.50400001928E-02 0.  1.
       -1    1    3    3    0  502  0.83570429955E+03  0.47202936271E+03  0.72205902993E+03  0.12010756172E+04  0.50400001928E-02 0. -1.
</event>
<event>
 5   0  0.5034479E-06  0.2402144E+04  0.7818609E-02  0.8438701E-01
       -1   -1    0    0    0  501  0.00000000000E+00  0.00000000000E+00  0.77032030942E+03  0.77032030944E+03  0.50400001928E-02 0.  1.
        1   -1    0    0  501    0  0.00000000000E+00  0.00000000000E+00 -0.18726942047E+04  0.18726942047E+04  0.50400001928E-02 0. -1.
    10030    2    1    2    0    0  0.00000000000E+00  0.00000000000E+00 -0.11023738953E+04  0.26430145141E+04  0.24021443581E+04 0.  0.
        4    1    3    3  502    0  0.97069767108E+03  0.51322624647E+03 -0.15638057637E+02  0.10981353789E+04  0.12699999809E+01 0.  1.
       -4    1    3    3    0  502 -0.97069767108E+03 -0.51322624647E+03 -0.10867358376E+04  0.15448791352E+04  0.12699999809E+01 0. -1.
</event>
<event>
 5   0  0.1174210E-05  0.2402928E+04  0.7818609E-02  0.8438408E-01
        2   -1    0    0  501    0  0.00000000000E+00  0.00000000000E+00  0.98895762696E+03  0.98895762696E+03  0.25500000920E-02 0. -1.
       -2   -1    0    0    0  501  0.00000000000E+00  0.00000000000E+00 -0.14596332244E+04  0.14596332244E+04  0.25500000920E-02 0.  1.
    10030    2    1    2    0    0  0.00000000000E+00  0.00000000000E+00 -0.47067559746E+03  0.24485908514E+04  0.24029277225E+04 0.  0.
        3    1    3    3  502    0  0.45496499747E+03  0.89776653140E+03  0.43328473644E+03  0.10957707638E+04  0.10100000352E+00 0. -1.
       -3    1    3    3    0  502 -0.45496499747E+03 -0.89776653140E+03 -0.90396033389E+03  0.13528200876E+04  0.10100000352E+00 0.  1.
</event>
<event>
 5   0  0.5042742E-06  0.2356634E+04  0.7818609E-02  0.8455920E-01
       -1   -1    0    0    0  501  0.00000000000E+00  0.00000000000E+00  0.15145504379E+04  0.15145504379E+04  0.50400001928E-02 0.  1.
        1   -1    0    0  501    0  0.00000000000E+00  0.00000000000E+00 -0.91672780110E+03  0.91672780111E+03  0.50400001928E-02 0. -1.
    10030    2    1    2    0    0  0.00000000000E+00  0.00000000000E+00  0.59782263681E+03  0.24312782390E+04  0.23566336097E+04 0.  0.
        5    1    3    3  502    0  0.44108865729E+03 -0.32543198277E+03  0.13749941724E+04  0.14802351986E+04  0.46999998093E+01 0.  1.
       -5    1    3    3    0  502 -0.44108865729E+03  0.32543198277E+03 -0.77717153560E+03  0.95104304043E+03  0.46999998093E+01 0. -1.
</event>
<event>
 5   0  0.5104174E-06  0.2565133E+04  0.7818609E-02  0.8380142E-01
       -1   -1    0    0    0  501  0.00000000000E+00  0.00000000000E+00  0.15013379236E+04  0.15013379236E+04  0.50400001928E-02 0.  1.
        1   -1    0    0  501    0  0.00000000000E+00  0.00000000000E+00 -0.10956739103E+04  0.10956739103E+04  0.50400001928E-02 0. -1.
    10030    2    1    2    0    0  0.00000000000E+00  0.00000000000E+00  0.40566401330E+03  0.25970118339E+04  0.25651329739E+04 0.  0.
        3    1    3    3  502    0  0.63623916284E+02 -0.10311441022E+04 -0.56666012908E+03  0.11783080557E+04  0.10100000352E+00 0. -1.
       -3    1    3    3    0  502 -0.63623916284E+02  0.10311441022E+04  0.97232414238E+03  0.14187037782E+04  0.10100000352E+00 0.  1.
</event>
<event>
 5   0  0.4067750E-06  0.2396894E+04  0.7818609E-02  0.8440667E-01
       -3   -1    0    0    0  501  0.00000000000E+00  0.00000000000E+00  0.11759661525E+04  0.11759661568E+04  0.10100000352E+00 0. -1.
        3   -1    0    0  501    0  0.00000000000E+00  0.00000000000E+00 -0.12213580894E+04  0.12213580936E+04  0.10100000352E+00 0.  1.
    10030    2    1    2    0    0  0.00000000000E+00  0.00000000000E+00 -0.45391936905E+02  0.23973242504E+04  0.23968944769E+04 0.  0.
        3    1    3    3  502    0 -0.10800806084E+04  0.39395887866E+03 -0.36113225207E+03  0.12050702189E+04  0.10100000352E+00 0. -1.
       -3    1    3    3    0  502  0.10800806084E+04 -0.39395887866E+03  0.31574031516E+03  0.11922540315E+04  0.10100000352E+00 0.  1.
</event>
<event>
 5   0  0.1169371E-05  0.2399822E+04  0.7818609E-02  0.8439570E-01
       -2   -1    0    0    0  501  0.00000000000E+00  0.00000000000E+00  0.15492675055E+04  0.15492675055E+04  0.25500000920E-02 0. -1.
        2   -1    0    0  501    0  0.00000000000E+00  0.00000000000E+00 -0.92933369912E+03  0.92933369912E+03  0.25500000920E-02 0.  1.
    10030    2    1    2    0    0  0.00000000000E+00  0.00000000000E+00  0.61993380636E+03  0.24786012046E+04  0.23998220782E+04 0.  0.
        2    1    3    3  502    0 -0.15456764814E+03  0.89257435223E+03  0.11226950852E+04  0.14425756086E+04  0.25500000920E-02 0. -1.
       -2    1    3    3    0  502  0.15456764814E+03 -0.89257435223E+03 -0.50276127884E+03  0.10360255960E+04  0.25500000920E-02 0.  1.
</event>
<event>
 5   0  0.1198313E-05  0.2347226E+04  0.7818609E-02  0.8459530E-01
       -2   -1    0    0    0  501  0.00000000000E+00  0.00000000000E+00  0.11334478592E+04  0.11334478592E+04  0.25500000920E-02 0.  1.
        2   -1    0    0  501    0  0.00000000000E+00  0.00000000000E+00 -0.12152018992E+04  0.12152018992E+04  0.25500000920E-02 0. -1.
    10030    2    1    2    0    0  0.00000000000E+00  0.00000000000E+00 -0.81754040006E+02  0.23486497585E+04  0.23472264409E+04 0.  0.
        5    1    3    3  502    0 -0.88654430674E+03  0.76700381832E+03  0.14746580696E+02  0.11723886799E+04  0.46999998093E+01 0. -1.
       -5    1    3    3    0  502  0.88654430674E+03 -0.76700381832E+03 -0.96500620702E+02  0.11762610786E+04  0.46999998093E+01 0.  1.
</event>
<event>
 5   0  0.5034479E-06  0.2400401E+04  0.7818609E-02  0.8439353E-01
        1   -1    0    0  501    0  0.00000000000E+00  0.00000000000E+00  0.18945030932E+04  0.18945030932E+04  0.50400001928E-02 0.  1.
       -1   -1    0    0    0  501  0.00000000000E+00  0.00000000000E+00 -0.76034799716E+03  0.76034799718E+03  0.50400001928E-02 0. -1.
    10030    2    1    2    0    0  0.00000000000E+00  0.00000000000E+00  0.11341550960E+04  0.26548510903E+04  0.24004013269E+04 0.  0.
        4    1    3    3  502    0  0.62131722520E+03 -0.10227184997E+04  0.66899676401E+03  0.13709655383E+04  0.12699999809E+01 0.  1.
       -4    1    3    3    0  502 -0.62131722520E+03  0.10227184997E+04  0.46515833199E+03  0.12838855521E+04  0.12699999809E+01 0. -1.
</event>
<event>
 5   0  0.1154897E-05  0.2402312E+04  0.7818609E-02  0.8438639E-01
       -2   -1    0    0    0  501  0.00000000000E+00  0.00000000000E+00  0.73587615662E+03  0.73587615662E+03  0.25500000920E-02 0. -1.
        2   -1    0    0  501    0  0.00000000000E+00  0.00000000000E+00 -0.19606228498E+04  0.19606228498E+04  0.25500000920E-02 0.  1.
    10030    2    1    2    0    0  0.00000000000E+00  0.00000000000E+00 -0.12247466931E+04  0.26964990064E+04  0.24023118925E+04 0.  0.
        4    1    3    3  502    0  0.65179576308E+03  0.10028849541E+04 -0.48860694304E+03  0.12920349475E+04  0.12699999809E+01 0.  1.
       -4    1    3    3    0  502 -0.65179576308E+03 -0.10028849541E+04 -0.73613975011E+03  0.14044640588E+04  0.12699999809E+01 0. -1.
</event>
<event>
 5   0  0.5042742E-06  0.2422010E+04  0.7818609E-02  0.8431309E-01
       -1   -1    0    0    0  501  0.00000000000E+00  0.00000000000E+00  0.13090029563E+04  0.13090029563E+04  0.50400001928E-02 0.  1.
        1   -1    0    0  501    0  0.00000000000E+00  0.00000000000E+00 -0.11203436479E+04  0.11203436479E+04  0.50400001928E-02 0. -1.
    10030    2    1    2    0    0  0.00000000000E+00  0.00000000000E+00  0.18865930839E+03  0.24293466041E+04  0.24220100306E+04 0.  0.
        5    1    3    3  502    0  0.13679468995E+03  0.69944709282E+03  0.10763622915E+04  0.12909364412E+04  0.46999998093E+01 0.  1.
       -5    1    3    3    0  502 -0.13679468995E+03 -0.69944709282E+03 -0.88770298307E+03  0.11384101629E+04  0.46999998093E+01 0. -1.
</event>
<event>
 5   0  0.1169371E-05  0.2413846E+04  0.7818609E-02  0.8434338E-01
        2   -1    0    0  501    0  0.00000000000E+00  0.00000000000E+00  0.97285136201E+03  0.97285136201E+03  0.25500000920E-02 0. -1.
       -2   -1    0    0    0  501  0.00000000000E+00  0.00000000000E+00 -0.14973126511E+04  0.14973126511E+04  0.25500000920E-02 0.  1.
    10030    2    1    2    0    0  0.00000000000E+00  0.00000000000E+00 -0.52446128914E+03  0.24701640132E+04  0.24138456057E+04 0.  0.
        2    1    3    3  502    0  0.88584218191E+03 -0.57148214538E+03  0.33914913683E+03  0.11073980092E+04  0.25500000920E-02 0. -1.
       -2    1    3    3    0  502 -0.88584218191E+03  0.57148214538E+03 -0.86361042596E+03  0.13627660040E+04  0.25500000920E-02 0.  1.
</event>
<event>
 5   0  0.1174210E-05  0.2371948E+04  0.7818609E-02  0.8450081E-01
       -2   -1    0    0    0  501  0.00000000000E+00  0.00000000000E+00  0.82695718797E+03  0.82695718798E+03  0.25500000920E-02 0. -1.
        2   -1    0    0  501    0  0.00000000000E+00  0.00000000000E+00 -0.17008553989E+04  0.17008553989E+04  0.25500000920E-02 0.  1.
    10030    2    1    2    0    0  0.00000000000E+00  0.00000000000E+00 -0.87389821097E+03  0.25278125869E+04  0.23719482270E+04 0.  0.
        3    1    3    3  502    0  0.18525261124E+03  0.11639004475E+04 -0.57813801062E+03  0.13127171635E+04  0.10100000352E+00 0. -1.
       -3    1    3    3    0  502 -0.18525261124E+03 -0.11639004475E+04 -0.29576020035E+03  0.12150954234E+04  0.10100000352E+00 0.  1.
</event>
<event>
 5   0  0.5064437E-06  0.2407163E+04  0.7818609E-02  0.8436827E-01
        1   -1    0    0  501    0  0.00000000000E+00  0.00000000000E+00  0.21806236085E+04  0.21806236085E+04  0.50400001928E-02 0.  1.
       -1   -1    0    0    0  501  0.00000000000E+00  0.00000000000E+00 -0.66430918007E+03  0.66430918009E+03  0.50400001928E-02 0. -1.
    10030    2    1    2    0    0  0.00000000000E+00  0.00000000000E+00  0.15163144284E+04  0.28449327886E+04  0.24071628789E+04 0.  0.
        2    1    3    3  502    0  0.80012113373E+03  0.38389280758E+03  0.17190626593E+04  0.19346172601E+04  0.25500000920E-02 0.  1.
       -2    1    3    3    0  502 -0.80012113373E+03 -0.38389280758E+03 -0.20274823087E+03  0.91031552852E+03  0.25500000920E-02 0. -1.
</event>
<event>
 5   0  0.5042742E-06  0.2386534E+04  0.7818609E-02  0.8444562E-01
       -1   -1    0    0    0  501  0.00000000000E+00  0.00000000000E+00  0.13951890269E+04  0.13951890269E+04  0.50400001928E-02 0.  1.
        1   -1    0    0  501    0  0.00000000000E+00  0.00000000000E+00 -0.10205685456E+04  0.10205685456E+04  0.50400001928E-02 0. -1.
    10030    2    1    2    0    0  0.00000000000E+00  0.00000000000E+00  0.37462048127E+03  0.24157575725E+04  0.23865339185E+04 0.  0.
        5    1    3    3  502    0 -0.85829908286E+03 -0.50937251740E+03  0.84932656720E+03  0.13105401119E+04  0.46999998093E+01 0.  1.
       -5    1    3    3    0  502  0.85829908286E+03  0.50937251740E+03 -0.47470608593E+03  0.11052174606E+04  0.46999998093E+01 0. -1.
</event>
<event>
 5   0  0.1174210E-05  0.2402329E+04  0.7818609E-02  0.8438632E-01
        2   -1    0    0  501    0  0.00000000000E+00  0.00000000000E+00  0.14150871689E+04  0.14150871689E+04  0.25500000920E-02 0. -1.
       -2   -1    0    0    0  501  0.00000000000E+00  0.00000000000E+00 -0.10195812744E+04  0.10195812744E+04  0.25500000920E-02 0.  1.
    10030    2    1    2    0    0  0.00000000000E+00  0.00000000000E+00  0.39550589453E+03  0.24346684434E+04  0.24023291857E+04 0.  0.
        3    1    3    3  502    0  0.51332861059E+03  0.30650837617E+03  0.12535750719E+04  0.13888499264E+04  0.10100000352E+00 0. -1.
       -3    1    3    3    0  502 -0.51332861059E+03 -0.30650837617E+03 -0.85806917732E+03  0.10458185169E+04  0.10100000352E+00 0.  1.
</event>
<event>
 5   0  0.1174210E-05  0.2400487E+04  0.7818609E-02  0.8439321E-01
        2   -1    0    0  501    0  0.00000000000E+00  0.00000000000E+00  0.11031823076E+04  0.11031823076E+04  0.25500000920E-02 0. -1.
       -2   -1    0    0    0  501  0.00000000000E+00  0.00000000000E+00 -0.13058447012E+04  0.13058447012E+04  0.25500000920E-02 0.  1.
    10030    2    1    2    0    0  0.00000000000E+00  0.00000000000E+00 -0.20266239360E+03  0.24090270088E+04  0.24004872596E+04 0.  0.
        3    1    3    3  502    0 -0.19882127572E+03 -0.11765425300E+04 -0.23141693369E+03  0.12154571288E+04  0.10100000352E+00 0.  1.
       -3    1    3    3    0  502  0.19882127572E+03  0.11765425300E+04  0.28754540085E+02  0.11935698800E+04  0.10100000352E+00 0. -1.
</event>
<event>
 5   0  0.1169371E-05  0.2412703E+04  0.7818609E-02  0.8434763E-01
        2   -1    0    0  501    0  0.00000000000E+00  0.00000000000E+00  0.10995548382E+04  0.10995548382E+04  0.25500000920E-02 0.  1.
       -2   -1    0    0    0  501  0.00000000000E+00  0.00000000000E+00 -0.13235212822E+04  0.13235212822E+04  0.25500000920E-02 0. -1.
    10030    2    1    2    0    0  0.00000000000E+00  0.00000000000E+00 -0.22396644395E+03  0.24230761204E+04  0.24127032386E+04 0.  0.
        2    1    3    3  502    0 -0.10486925584E+04  0.20568717345E+03 -0.67405080800E+03  0.12634903193E+04  0.25500000920E-02 0.  1.
       -2    1    3    3    0  502  0.10486925584E+04 -0.20568717345E+03  0.45008436405E+03  0.11595858011E+04  0.25500000920E-02 0. -1.
</event>
<event>
 5   0  0.5196696E-06  0.2398728E+04  0.7818609E-02  0.8439980E-01
        1   -1    0    0  501    0  0.00000000000E+00  0.00000000000E+00  0.11041631264E+04  0.11041631264E+04  0.50400001928E-02 0.  1.
       -1   -1    0    0    0  501  0.00000000000E+00  0.00000000000E+00 -0.13027726868E+04  0.13027726868E+04  0.50400001928E-02 0. -1.
    10030    2    1    2    0    0  0.00000000000E+00  0.00000000000E+00 -0.19860956040E+03  0.24069358133E+04  0.23987276319E+04 0.  0.
        1    1    3    3  502    0  0.34355322832E+03 -0.98677805240E+03  0.49153420821E+03  0.11547145202E+04  0.50400001928E-02 0. -1.
       -1    1    3    3    0  502 -0.34355322832E+03  0.98677805240E+03 -0.69014376861E+03  0.12522212930E+04  0.50400001928E-02 0.  1.
</event>
<event>
 5   0  0.1154897E-05  0.2397395E+04  0.7818609E-02  0.8440479E-01
        2   -1    0    0  501    0  0.00000000000E+00  0.00000000000E+00  0.27603842422E+04  0.27603842422E+04  0.25500000920E-02 0. -1.
       -2   -1    0    0    0  501  0.00000000000E+00  0.00000000000E+00 -0.52053474688E+03  0.52053474688E+03  0.25500000920E-02 0.  1.
    10030    2    1    2    0    0  0.00000000000E+00  0.00000000000E+00  0.22398494953E+04  0.32809189891E+04  0.23973951805E+04 0.  0.
        4    1    3    3  502    0  0.13186664369E+03 -0.51761849794E+03 -0.34865833007E+03  0.63787300080E+03  0.12699999809E+01 0.  1.
       -4    1    3    3    0  502 -0.13186664369E+03  0.51761849794E+03  0.25885078254E+04  0.26430459883E+04  0.12699999809E+01 0. -1.
</event>
<event>
 5   0  0.1174210E-05  0.2402440E+04  0.7818609E-02  0.8438591E-01
       -2   -1    0    0    0  501  0.00000000000E+00  0.00000000000E+00  0.11342744529E+04  0.11342744529E+04  0.25500000920E-02 0. -1.
        2   -1    0    0  501    0  0.00000000000E+00  0.00000000000E+00 -0.12721167156E+04  0.12721167156E+04  0.25500000920E-02 0.  1.
    10030    2    1    2    0    0  0.00000000000E+00  0.00000000000E+00 -0.13784226262E+03  0.24063911685E+04  0.24024400027E+04 0.  0.
        3    1    3    3  502    0  0.88342276210E+03 -0.18102673756E+03 -0.86377713878E+03  0.12487263159E+04  0.10100000352E+00 0.  1.
       -3    1    3    3    0  502 -0.88342276210E+03  0.18102673756E+03  0.72593487616E+03  0.11576648526E+04  0.10100000352E+00 0. -1.
</event>
<event>
 5   0  0.5064437E-06  0.2405578E+04  0.7818609E-02  0.8437418E-01
        1   -1    0    0  501    0  0.00000000000E+00  0.00000000000E+00  0.13309401227E+04  0.13309401227E+04  0.50400001928E-02 0. -1.
       -1   -1    0    0    0  501  0.00000000000E+00  0.00000000000E+00 -0.10869767606E+04  0.10869767606E+04  0.50400001928E-02 0.  1.
    10030    2    1    2    0    0  0.00000000000E+00  0.00000000000E+00  0.24396336210E+03  0.24179168833E+04  0.24055776713E+04 0.  0.
        2    1    3    3  502    0  0.59723130961E+01  0.79677343464E+03  0.10276124385E+04  0.13003349178E+04  0.25500000920E-02 0. -1.
       -2    1    3    3    0  502 -0.59723130961E+01 -0.79677343464E+03 -0.78364907642E+03  0.11175819655E+04  0.25500000920E-02 0.  1.
</event>
<event>
 5   0  0.5196696E-06  0.2406602E+04  0.7818609E-02  0.8437036E-01
        1   -1    0    0  501    0  0.00000000000E+00  0.00000000000E+00  0.19448747296E+04  0.19448747296E+04  0.50400001928E-02 0. -1.
       -1   -1    0    0    0  501  0.00000000000E+00  0.00000000000E+00 -0.74448692112E+03  0.74448692113E+03  0.50400001928E-02 0.  1.
    10030    2    1    2    0    0  0.00000000000E+00  0.00000000000E+00  0.12003878085E+04  0.26893616508E+04  0.24066024179E+04 0.  0.
        1    1    3    3  502    0 -0.54108619199E+03 -0.29418074186E+02 -0.60041925377E+03  0.80879105495E+03  0.50400001928E-02 0.  1.
       -1    1    3    3    0  502  0.54108619199E+03  0.29418074186E+02  0.18008070623E+04  0.18805705958E+04  0.50400001928E-02 0. -1.
</event>
<event>
 5   0  0.1168435E-05  0.2398469E+04  0.7818609E-02  0.8440077E-01
       -2   -1    0    0    0  501  0.00000000000E+00  0.00000000000E+00  0.18794829477E+04  0.18794829477E+04  0.25500000920E-02 0.  1.
        2   -1    0    0  501    0  0.00000000000E+00  0.00000000000E+00 -0.76519117681E+03  0.76519117682E+03  0.25500000920E-02 0. -1.
    10030    2    1    2    0    0  0.00000000000E+00  0.00000000000E+00  0.11142917709E+04  0.26446741246E+04  0.23984693190E+04 0.  0.
        1    1    3    3  502    0  0.84417970125E+03 -0.78839378215E+03  0.20162068310E+03  0.11725421202E+04  0.50400001928E-02 0. -1.
       -1    1    3    3    0  502 -0.84417970125E+03  0.78839378215E+03  0.91267108783E+03  0.14721320044E+04  0.50400001928E-02 0.  1.
</event>
<event>
 5   0  0.5042742E-06  0.2391802E+04  0.7818609E-02  0.8442579E-01
       -1   -1    0    0    0  501  0.00000000000E+00  0.00000000000E+00  0.70085883665E+03  0.70085883667E+03  0.50400001928E-02 0.  1.
        1   -1    0    0  501    0  0.00000000000E+00  0.00000000000E+00 -0.20406099183E+04  0.20406099184E+04  0.50400001928E-02 0. -1.
    10030    2    1    2    0    0  0.00000000000E+00  0.00000000000E+00 -0.13397510817E+04  0.27414687550E+04  0.23918022439E+04 0.  0.
        5    1    3    3  502    0 -0.99186204831E+03 -0.11479936214E+03 -0.14242662550E+04  0.17394038265E+04  0.46999998093E+01 0. -1.
       -5    1    3    3    0  502  0.99186204831E+03  0.11479936214E+03  0.84515173352E+02  0.10020649285E+04  0.46999998093E+01 0.  1.
</event>
<event>
 5   0  0.5196696E-06  0.2399535E+04  0.7818609E-02  0.8439678E-01
        1   -1    0    0  501    0  0.00000000000E+00  0.00000000000E+00  0.13524621645E+04  0.13524621646E+04  0.50400001928E-02 0. -1.
       -1   -1    0    0    0  501  0.00000000000E+00  0.00000000000E+00 -0.10643121697E+04  0.10643121697E+04  0.50400001928E-02 0.  1.
    10030    2    1    2    0    0  0.00000000000E+00  0.00000000000E+00  0.28814999484E+03  0.24167743343E+04  0.23995349056E+04 0.  0.
        1    1    3    3  502    0  0.34663721804E+03  0.95804372970E+03  0.78221741727E+03  0.12844723574E+04  0.50400001928E-02 0. -1.
       -1    1    3    3    0  502 -0.34663721804E+03 -0.95804372970E+03 -0.49406742243E+03  0.11323019769E+04  0.50400001928E-02 0.  1.
</event>
<event>
 5   0  0.1174210E-05  0.2403180E+04  0.7818609E-02  0.8438314E-01
        2   -1    0    0  501    0  0.00000000000E+00  0.00000000000E+00  0.19337744216E+04  0.19337744216E+04  0.25500000920E-02 0. -1.
       -2   -1    0    0    0  501  0.00000000000E+00  0.00000000000E+00 -0.74663236159E+03  0.74663236159E+03  0.25500000920E-02 0.  1.
    10030    2    1    2    0    0  0.00000000000E+00  0.00000000000E+00  0.11871420600E+04  0.26804067832E+04  0.24031800292E+04 0.  0.
        3    1    3    3  502    0  0.28144045758E+03  0.22981159962E+03 -0.68388990367E+03  0.77442075969E+03  0.10100000352E+00 0.  1.
       -3    1    3    3    0  502 -0.28144045758E+03 -0.22981159962E+03  0.18710319636E+04  0.19059860235E+04  0.10100000352E+00 0. -1.
</event>
<event>
 5   0  0.5196696E-06  0.2390511E+04  0.7818609E-02  0.8443065E-01
        1   -1    0    0  501    0  0.00000000000E+00  0.00000000000E+00  0.22111241426E+04  0.22111241426E+04  0.50400001928E-02 0.  1.
       -1   -1    0    0    0  501  0.00000000000E+00  0.00000000000E+00 -0.64611289884E+03  0.64611289886E+03  0.50400001928E-02 0. -1.
    10030    2    1    2    0    0  0.00000000000E+00  0.00000000000E+00  0.15650112437E+04  0.28572370414E+04  0.23905110997E+04 0.  0.
        1    1    3    3  502    0 -0.38876678271E+03 -0.81789891712E+02 -0.56489034611E+03  0.69060140521E+03  0.50400001928E-02 0. -1.
       -1    1    3    3    0  502  0.38876678271E+03  0.81789891712E+02  0.21299015898E+04  0.21666356362E+04  0.50400001928E-02 0.  1.
</event>
<event>
 5   0  0.5196696E-06  0.2398016E+04  0.7818609E-02  0.8440247E-01
        1   -1    0    0  501    0  0.00000000000E+00  0.00000000000E+00  0.20057276134E+04  0.20057276134E+04  0.50400001928E-02 0. -1.
       -1   -1    0    0    0  501  0.00000000000E+00  0.00000000000E+00 -0.71675737085E+03  0.71675737087E+03  0.50400001928E-02 0.  1.
    10030    2    1    2    0    0  0.00000000000E+00  0.00000000000E+00  0.12889702425E+04  0.27224849842E+04  0.23980158889E+04 0.  0.
        1    1    3    3  502    0  0.22074843905E+03 -0.10950927138E+04  0.15005633993E+03  0.11271534191E+04  0.50400001928E-02 0.  1.
       -1    1    3    3    0  502 -0.22074843905E+03  0.10950927138E+04  0.11389139026E+04  0.15953315651E+04  0.50400001928E-02 0. -1.
</event>
<event>
 5   0  0.5064437E-06  0.2269881E+04  0.7818609E-02  0.8489892E-01
        1   -1    0    0  501    0  0.00000000000E+00  0.00000000000E+00  0.15225889083E+04  0.15225889083E+04  0.50400001928E-02 0. -1.
       -1   -1    0    0    0  501  0.00000000000E+00  0.00000000000E+00 -0.84598661364E+03  0.84598661365E+03  0.50400001928E-02 0.  1.
    10030    2    1    2    0    0  0.00000000000E+00  0.00000000000E+00  0.67660229470E+03  0.23685755220E+04  0.22698809084E+04 0.  0.
        2    1    3    3  502    0  0.54582567704E+03 -0.21356387481E+03 -0.67583837177E+03  0.89459080204E+03  0.25500000920E-02 0.  1.
       -2    1    3    3    0  502 -0.54582567704E+03  0.21356387481E+03  0.13524406665E+04  0.14739847200E+04  0.25500000920E-02 0. -1.
</event>
<event>
 5   0  0.1168435E-05  0.2461406E+04  0.7818609E-02  0.8416865E-01
       -2   -1    0    0    0  501  0.00000000000E+00  0.00000000000E+00  0.10664040709E+04  0.10664040709E+04  0.25500000920E-02 0.  1.
        2   -1    0    0  501    0  0.00000000000E+00  0.00000000000E+00 -0.14203147862E+04  0.14203147862E+04  0.25500000920E-02 0. -1.
    10030    2    1    2    0    0  0.00000000000E+00  0.00000000000E+00 -0.35391071528E+03  0.24867188571E+04  0.24614056716E+04 0.  0.
        1    1    3    3  502    0 -0.98185814600E+03  0.65285320374E+03 -0.53323878829E+03  0.12940658136E+04  0.50400001928E-02 0.  1.
       -1    1    3    3    0  502  0.98185814600E+03 -0.65285320374E+03  0.17932807301E+03  0.11926530436E+04  0.50400001928E-02 0. -1.
</event>
<event>
 5   0  0.4067750E-06  0.2389745E+04  0.7818609E-02  0.8443353E-01
        3   -1    0    0  501    0  0.00000000000E+00  0.00000000000E+00  0.92802414033E+03  0.92802414582E+03  0.10100000352E+00 0.  1.
       -3   -1    0    0    0  501  0.00000000000E+00  0.00000000000E+00 -0.15384512057E+04  0.15384512090E+04  0.10100000352E+00 0. -1.
    10030    2    1    2    0    0  0.00000000000E+00  0.00000000000E+00 -0.61042706533E+03  0.24664753548E+04  0.23897446461E+04 0.  0.
        1    1    3    3  502    0 -0.57031544914E+03  0.27425906115E+03  0.74085874569E+03  0.97434563951E+03  0.50400001928E-02 0.  1.
       -1    1    3    3    0  502  0.57031544914E+03 -0.27425906115E+03 -0.13512858110E+04  0.14921297153E+04  0.50400001928E-02 0. -1.
</event>
<event>
 5   0  0.1174210E-05  0.2391980E+04  0.7818609E-02  0.8442512E-01
        2   -1    0    0  501    0  0.00000000000E+00  0.00000000000E+00  0.10637466642E+04  0.10637466642E+04  0.25500000920E-02 0. -1.
       -2   -1    0    0    0  501  0.00000000000E+00  0.00000000000E+00 -0.13446736180E+04  0.13446736180E+04  0.25500000920E-02 0.  1.
    10030    2    1    2    0    0  0.00000000000E+00  0.00000000000E+00 -0.28092695381E+03  0.24084202822E+04  0.23919799963E+04 0.  0.
        3    1    3    3  502    0  0.41994929047E+03 -0.11025379165E+04 -0.33788456623E+03  0.12272380593E+04  0.10100000352E+00 0.  1.
       -3    1    3    3    0  502 -0.41994929047E+03  0.11025379165E+04  0.56957612422E+02  0.11811822229E+04  0.10100000352E+00 0. -1.
</event>
<event>
 5   0  0.1169371E-05  0.2406050E+04  0.7818609E-02  0.8437242E-01
       -2   -1    0    0    0  501  0.00000000000E+00  0.00000000000E+00  0.77724376465E+03  0.77724376465E+03  0.25500000920E-02 0. -1.
        2   -1    0    0  501    0  0.00000000000E+00  0.00000000000E+00 -0.18620524284E+04  0.18620524284E+04  0.25500000920E-02 0.  1.
    10030    2    1    2    0    0  0.00000000000E+00  0.00000000000E+00 -0.10848086638E+04  0.26392961931E+04  0.24060495751E+04 0.  0.
        2    1    3    3  502    0 -0.57299697001E+03  0.28948578034E+03  0.57364485405E+03  0.86092738558E+03  0.25500000920E-02 0. -1.
       -2    1    3    3    0  502  0.57299697001E+03 -0.28948578034E+03 -0.16584535178E+04  0.17783688075E+04  0.25500000920E-02 0.  1.
</event>
<event>
 5   0  0.1154897E-05  0.2404240E+04  0.7818609E-02  0.8437918E-01
       -2   -1    0    0    0  501  0.00000000000E+00  0.00000000000E+00  0.82461396956E+03  0.82461396957E+03  0.25500000920E-02 0.  1.
        2   -1    0    0  501    0  0.00000000000E+00  0.00000000000E+00 -0.17524478673E+04  0.17524478673E+04  0.25500000920E-02 0. -1.
    10030    2    1    2    0    0  0.00000000000E+00  0.00000000000E+00 -0.92783389772E+03  0.25770618369E+04  0.24042404142E+04 0.  0.
        4    1    3    3  502    0 -0.10706472549E+04 -0.19276758354E+03 -0.10121994762E+04  0.14859321244E+04  0.12699999809E+01 0. -1.
       -4    1    3    3    0  502  0.10706472549E+04  0.19276758354E+03  0.84365578469E+02  0.10911297125E+04  0.12699999809E+01 0.  1.
</event>
<event>
 5   0  0.1174210E-05  0.2404779E+04  0.7818609E-02  0.8437716E-01
        2   -1    0    0  501    0  0.00000000000E+00  0.00000000000E+00  0.16482573049E+04  0.16482573049E+04  0.25500000920E-02 0. -1.
       -2   -1    0    0    0  501  0.00000000000E+00  0.00000000000E+00 -0.87713313728E+03  0.87713313729E+03  0.25500000920E-02 0.  1.
    10030    2    1    2    0    0  0.00000000000E+00  0.00000000000E+00  0.77112416757E+03  0.25253904421E+04  0.24047794917E+04 0.  0.
        3    1    3    3  502    0  0.11013564559E+04  0.44193197539E+03  0.58879123680E+03  0.13247509368E+04  0.10100000352E+00 0.  1.
       -3    1    3    3    0  502 -0.11013564559E+04 -0.44193197539E+03  0.18233293077E+03  0.12006395053E+04  0.10100000352E+00 0. -1.
</event>
<event>
 5   0  0.5196696E-06  0.2400713E+04  0.7818609E-02  0.8439237E-01
        1   -1    0    0  501    0  0.00000000000E+00  0.00000000000E+00  0.11081412037E+04  0.11081412037E+04  0.50400001928E-02 0.  1.
       -1   -1    0    0    0  501  0.00000000000E+00  0.00000000000E+00 -0.13002455985E+04  0.13002455985E+04  0.50400001928E-02 0. -1.
    10030    2    1    2    0    0  0.00000000000E+00  0.00000000000E+00 -0.19210439479E+03  0.24083868022E+04  0.24007129963E+04 0.  0.
        1    1    3    3  502    0  0.85758995140E+03 -0.83721478962E+03 -0.16309840673E+03  0.12095413259E+04  0.50400001928E-02 0. -1.
       -1    1    3    3    0  502 -0.85758995140E+03  0.83721478962E+03 -0.29005988064E+02  0.11988454763E+04  0.50400001928E-02 0.  1.
</event>
<event>
 5   0  0.4067750E-06  0.2402136E+04  0.7818609E-02  0.8438704E-01
       -3   -1    0    0    0  501  0.00000000000E+00  0.00000000000E+00  0.98594589825E+03  0.98594590342E+03  0.10100000352E+00 0.  1.
        3   -1    0    0  501    0  0.00000000000E+00  0.00000000000E+00 -0.14631266671E+04  0.14631266706E+04  0.10100000352E+00 0. -1.
    10030    2    1    2    0    0  0.00000000000E+00  0.00000000000E+00 -0.47718076887E+03  0.24490725740E+04  0.24021355055E+04 0.  0.
        4    1    3    3  502    0  0.11866891439E+04  0.15919735790E+03 -0.14193710007E+03  0.12057042242E+04  0.12699999809E+01 0.  1.
       -4    1    3    3    0  502 -0.11866891439E+04 -0.15919735790E+03 -0.33524366880E+03  0.12433683498E+04  0.12699999809E+01 0. -1.
</event>
<event>
 5   0  0.1154897E-05  0.2395711E+04  0.7818609E-02  0.8441111E-01
        2   -1    0    0  501    0  0.00000000000E+00  0.00000000000E+00  0.19674056239E+04  0.19674056239E+04  0.25500000920E-02 0.  1.
       -2   -1    0    0    0  501  0.00000000000E+00  0.00000000000E+00 -0.72931494053E+03  0.72931494053E+03  0.25500000920E-02 0. -1.
    10030    2    1    2    0    0  0.00000000000E+00  0.00000000000E+00  0.12380906833E+04  0.26967205644E+04  0.23957114313E+04 0.  0.
        4    1    3    3  502    0  0.91263642617E+03 -0.74824613855E+03  0.38813943798E+03  0.12423491323E+04  0.12699999809E+01 0. -1.
       -4    1    3    3    0  502 -0.91263642617E+03  0.74824613855E+03  0.84995124535E+03  0.14543714321E+04  0.12699999809E+01 0.  1.
</event>
<event>
 5   0  0.1169371E-05  0.2398244E+04  0.7818609E-02  0.8440161E-01
        2   -1    0    0  501    0  0.00000000000E+00  0.00000000000E+00  0.17958155251E+04  0.17958155251E+04  0.25500000920E-02 0.  1.
       -2   -1    0    0    0  501  0.00000000000E+00  0.00000000000E+00 -0.80069089072E+03  0.80069089073E+03  0.25500000920E-02 0. -1.
    10030    2    1    2    0    0  0.00000000000E+00  0.00000000000E+00  0.99512463435E+03  0.25965064158E+04  0.23982436343E+04 0.  0.
        2    1    3    3  502    0 -0.26152925287E+03  0.19697191216E+03 -0.75136105872E+03  0.81959680628E+03  0.25500000920E-02 0. -1.
       -2    1    3    3    0  502  0.26152925287E+03 -0.19697191216E+03  0.17464856931E+04  0.17769096095E+04  0.25500000920E-02 0.  1.
</event>
<event>
 5   0  0.5064437E-06  0.2404043E+04  0.7818609E-02  0.8437992E-01
       -1   -1    0    0    0  501  0.00000000000E+00  0.00000000000E+00  0.10005385632E+04  0.10005385632E+04  0.50400001928E-02 0.  1.
        1   -1    0    0  501    0  0.00000000000E+00  0.00000000000E+00 -0.14440775522E+04  0.14440775523E+04  0.50400001928E-02 0. -1.
    10030    2    1    2    0    0  0.00000000000E+00  0.00000000000E+00 -0.44353898901E+03  0.24446161155E+04  0.24040426613E+04 0.  0.
        2    1    3    3  502    0 -0.14006075507E+03  0.11436894181E+04 -0.56991114332E+03  0.12854731469E+04  0.25500000920E-02 0. -1.
       -2    1    3    3    0  502  0.14006075507E+03 -0.11436894181E+04  0.12637215431E+03  0.11591429686E+04  0.25500000920E-02 0.  1.
</event>
<event>
 5   0  0.4067750E-06  0.2398658E+04  0.7818609E-02  0.8440006E-01
       -4   -1    0    0    0  501  0.00000000000E+00  0.00000000000E+00  0.11634495000E+04  0.11634501931E+04  0.12699999809E+01 0. -1.
        4   -1    0    0  501    0  0.00000000000E+00  0.00000000000E+00 -0.12363135867E+04  0.12363142390E+04  0.12699999809E+01 0.  1.
    10030    2    1    2    0    0  0.00000000000E+00  0.00000000000E+00 -0.72864086669E+02  0.23997644321E+04  0.23986579903E+04 0.  0.
        5    1    3    3  502    0 -0.42728644639E+03  0.10208269911E+04 -0.49892928231E+03  0.12139250273E+04  0.46999998093E+01 0.  1.
       -5    1    3    3    0  502  0.42728644639E+03 -0.10208269911E+04  0.42606519565E+03  0.11858394048E+04  0.46999998093E+01 0. -1.
</event>
<event>
 5   0  0.1168435E-05  0.2388328E+04  0.7818609E-02  0.8443886E-01
       -2   -1    0    0    0  501  0.00000000000E+00  0.00000000000E+00  0.10216254848E+04  0.10216254848E+04  0.25500000920E-02 0. -1.
        2   -1    0    0  501    0  0.00000000000E+00  0.00000000000E+00 -0.13958420232E+04  0.13958420232E+04  0.25500000920E-02 0.  1.
    10030    2    1    2    0    0  0.00000000000E+00  0.00000000000E+00 -0.37421653838E+03  0.24174675080E+04  0.23883281045E+04 0.  0.
        1    1    3    3  502    0 -0.39942234385E+03 -0.10872611319E+04 -0.48108734713E+03  0.12542408115E+04  0.50400001928E-02 0.  1.
       -1    1    3    3    0  502  0.39942234385E+03  0.10872611319E+04  0.10687080875E+03  0.11632266965E+04  0.50400001928E-02 0. -1.
</event>
<event>
 5   0  0.5196696E-06  0.2398323E+04  0.7818609E-02  0.8440132E-01
       -1   -1    0    0    0  501  0.00000000000E+00  0.00000000000E+00  0.15152780350E+04  0.15152780350E+04  0.50400001928E-02 0. -1.
        1   -1    0    0  501    0  0.00000000000E+00  0.00000000000E+00 -0.94899305226E+03  0.94899305227E+03  0.50400001928E-02 0.  1.
    10030    2    1    2    0    0  0.00000000000E+00  0.00000000000E+00  0.56628498272E+03  0.24642710873E+04  0.23983230203E+04 0.  0.
        1    1    3    3  502    0 -0.89349296929E+03 -0.76363937471E+03  0.52740515417E+03  0.12882666562E+04  0.50400001928E-02 0. -1.
       -1    1    3    3    0  502  0.89349296929E+03  0.76363937471E+03  0.38879828551E+02  0.11760044311E+04  0.50400001928E-02 0.  1.
</event>
<event>
 5   0  0.5042742E-06  0.2423614E+04  0.7818609E-02  0.8430715E-01
       -1   -1    0    0    0  501  0.00000000000E+00  0.00000000000E+00  0.98290119691E+03  0.98290119692E+03  0.50400001928E-02 0. -1.
        1   -1    0    0  501    0  0.00000000000E+00  0.00000000000E+00 -0.14940224210E+04  0.14940224210E+04  0.50400001928E-02 0.  1.
    10030    2    1    2    0    0  0.00000000000E+00  0.00000000000E+00 -0.51112122411E+03  0.24769236180E+04  0.24236141820E+04 0.  0.
        5    1    3    3  502    0 -0.11617996203E+04 -0.33919892510E+03 -0.31705103078E+03  0.12511505564E+04  0.46999998093E+01 0.  1.
       -5    1    3    3    0  502  0.11617996203E+04  0.33919892510E+03 -0.19407019333E+03  0.12257730616E+04  0.46999998093E+01 0. -1.
</event>
<event>
 5   0  0.5196696E-06  0.2400134E+04  0.7818609E-02  0.8439453E-01
        1   -1    0    0  501    0  0.00000000000E+00  0.00000000000E+00  0.10009118445E+04  0.10009118445E+04  0.50400001928E-02 0. -1.
       -1   -1    0    0    0  501  0.00000000000E+00  0.00000000000E+00 -0.14388488117E+04  0.14388488117E+04  0.50400001928E-02 0.  1.
    10030    2    1    2    0    0  0.00000000000E+00  0.00000000000E+00 -0.43793696714E+03  0.24397606562E+04  0.24001340113E+04 0.  0.
        1    1    3    3  502    0 -0.33945618582E+03 -0.39664317636E+03 -0.13173661806E+04  0.14170426829E+04  0.50400001928E-02 0.  1.
       -1    1    3    3    0  502  0.33945618582E+03  0.39664317636E+03  0.87942921343E+03  0.10227179733E+04  0.50400001928E-02 0. -1.
</event>
<event>
 5   0  0.5104174E-06  0.2412358E+04  0.7818609E-02  0.8434891E-01
       -1   -1    0    0    0  501  0.00000000000E+00  0.00000000000E+00  0.14529494188E+04  0.14529494188E+04  0.50400001928E-02 0.  1.
        1   -1    0    0  501    0  0.00000000000E+00  0.00000000000E+00 -0.10013205789E+04  0.10013205790E+04  0.50400001928E-02 0. -1.
    10030    2    1    2    0    0  0.00000000000E+00  0.00000000000E+00  0.45162883981E+03  0.24542699977E+04  0.24123583094E+04 0.  0.
        3    1    3    3  502    0 -0.54618593290E+03  0.26215040263E+03 -0.83529528955E+03  0.10318721519E+04  0.10100000352E+00 0. -1.
       -3    1    3    3    0  502  0.54618593290E+03 -0.26215040263E+03  0.12869241294E+04  0.14223978458E+04  0.10100000352E+00 0.  1.
</event>
<event>
 5   0  0.1168435E-05  0.2400558E+04  0.7818609E-02  0.8439295E-01
        2   -1    0    0  501    0  0.00000000000E+00  0.00000000000E+00  0.12535700377E+04  0.12535700377E+04  0.25500000920E-02 0. -1.
       -2   -1    0    0    0  501  0.00000000000E+00  0.00000000000E+00 -0.11492537492E+04  0.11492537492E+04  0.25500000920E-02 0.  1.
    10030    2    1    2    0    0  0.00000000000E+00  0.00000000000E+00  0.10431628851E+03  0.24028237870E+04  0.24005583232E+04 0.  0.
        1    1    3    3  502    0  0.72326143734E+03 -0.24791279595E+03  0.97828924456E+03  0.12416189863E+04  0.50400001928E-02 0. -1.
       -1    1    3    3    0  502 -0.72326143734E+03  0.24791279595E+03 -0.87397295605E+03  0.11612048007E+04  0.50400001928E-02 0.  1.
</event>
<event>
 5   0  0.1168435E-05  0.2395567E+04  0.7818609E-02  0.8441165E-01
       -2   -1    0    0    0  501  0.00000000000E+00  0.00000000000E+00  0.95800421820E+03  0.95800421820E+03  0.25500000920E-02 0. -1.
        2   -1    0    0  501    0  0.00000000000E+00  0.00000000000E+00 -0.14975773412E+04  0.14975773412E+04  0.25500000920E-02 0.  1.
    10030    2    1    2    0    0  0.00000000000E+00  0.00000000000E+00 -0.53957312296E+03  0.24555815594E+04  0.23955670810E+04 0.  0.
        1    1    3    3  502    0  0.80148759910E+03  0.87568295811E+03 -0.10615534813E+03  0.11918355476E+04  0.50400001928E-02 0.  1.
       -1    1    3    3    0  502 -0.80148759910E+03 -0.87568295811E+03 -0.43341777483E+03  0.12637460117E+04  0.50400001928E-02 0. -1.
</event>
<event>
 5   0  0.4067750E-06  0.2394062E+04  0.7818609E-02  0.8441730E-01
       -3   -1    0    0    0  501  0.00000000000E+00  0.00000000000E+00  0.87369386995E+03  0.87369387579E+03  0.10100000352E+00 0.  1.
        3   -1    0    0  501    0  0.00000000000E+00  0.00000000000E+00 -0.16400292197E+04  0.16400292228E+04  0.10100000352E+00 0. -1.
    10030    2    1    2    0    0  0.00000000000E+00  0.00000000000E+00 -0.76633534972E+03  0.25137230986E+04  0.23940622273E+04 0.  0.
        3    1    3    3  502    0 -0.42824589637E+03 -0.15969211160E+03 -0.15448047577E+04  0.16109990279E+04  0.10100000352E+00 0. -1.
       -3    1    3    3    0  502  0.42824589637E+03  0.15969211160E+03  0.77846940803E+03  0.90272407063E+03  0.10100000352E+00 0.  1.
</event>
<event>
 5   0  0.1154897E-05  0.2451537E+04  0.7818609E-02  0.8420457E-01
       -2   -1    0    0    0  501  0.00000000000E+00  0.00000000000E+00  0.96752727952E+03  0.96752727953E+03  0.25500000920E-02 0. -1.
        2   -1    0    0  501    0  0.00000000000E+00  0.00000000000E+00 -0.15529360174E+04  0.15529360174E+04  0.25500000920E-02 0.  1.
    10030    2    1    2    0    0  0.00000000000E+00  0.00000000000E+00 -0.58540873788E+03  0.25204632969E+04  0.24515366285E+04 0.  0.
        4    1    3    3  502    0 -0.10804419131E+02  0.41307831772E+03  0.89375892930E+03  0.98466089018E+03  0.12699999809E+01 0. -1.
       -4    1    3    3    0  502  0.10804419131E+02 -0.41307831772E+03 -0.14791676672E+04  0.15358024068E+04  0.12699999809E+01 0.  1.
</event>
<event>
 5   0  0.5064437E-06  0.2392236E+04  0.7818609E-02  0.8442416E-01
        1   -1    0    0  501    0  0.00000000000E+00  0.00000000000E+00  0.18606058135E+04  0.18606058135E+04  0.50400001928E-02 0.  1.
       -1   -1    0    0    0  501  0.00000000000E+00  0.00000000000E+00 -0.76894237209E+03  0.76894237211E+03  0.50400001928E-02 0. -1.
    10030    2    1    2    0    0  0.00000000000E+00  0.00000000000E+00  0.10916634414E+04  0.26295481856E+04  0.23922363159E+04 0.  0.
        2    1    3    3  502    0 -0.50860757365E+02  0.42573956710E+03  0.17732299488E+04  0.18243315069E+04  0.25500000920E-02 0.  1.
       -2    1    3    3    0  502  0.50860757365E+02 -0.42573956710E+03 -0.68156650742E+03  0.80521667871E+03  0.25500000920E-02 0. -1.
</event>
<event>
 5   0  0.1198313E-05  0.2384784E+04  0.7818609E-02  0.8445222E-01
        2   -1    0    0  501    0  0.00000000000E+00  0.00000000000E+00  0.19502411821E+04  0.19502411821E+04  0.25500000920E-02 0. -1.
       -2   -1    0    0    0  501  0.00000000000E+00  0.00000000000E+00 -0.72903724412E+03  0.72903724413E+03  0.25500000920E-02 0.  1.
    10030    2    1    2    0    0  0.00000000000E+00  0.00000000000E+00  0.12212039380E+04  0.26792784262E+04  0.23847838114E+04 0.  0.
        5    1    3    3  502    0  0.65366878265E+02 -0.77579629231E+02  0.19453735655E+04  0.19480225427E+04  0.46999998093E+01 0. -1.
       -5    1    3    3    0  502 -0.65366878265E+02  0.77579629231E+02 -0.72416962755E+03  0.73125588347E+03  0.46999998093E+01 0.  1.
</event>
<event>
 5   0  0.1198313E-05  0.2405547E+04  0.7818609E-02  0.8437430E-01
       -2   -1    0    0    0  501  0.00000000000E+00  0.00000000000E+00  0.19892742791E+04  0.19892742791E+04  0.25500000920E-02 0.  1.
        2   -1    0    0  501    0  0.00000000000E+00  0.00000000000E+00 -0.72723206904E+03  0.72723206904E+03  0.25500000920E-02 0. -1.
    10030    2    1    2    0    0  0.00000000000E+00  0.00000000000E+00  0.12620422101E+04  0.27165063482E+04  0.24055469648E+04 0.  0.
        5    1    3    3  502    0 -0.33025715594E+03  0.43514514576E+03  0.18410886215E+04  0.19204297668E+04  0.46999998093E+01 0.  1.
       -5    1    3    3    0  502  0.33025715594E+03 -0.43514514576E+03 -0.57904641139E+03  0.79607658141E+03  0.46999998093E+01 0. -1.
</event>
<event>
 5   0  0.1174210E-05  0.2395939E+04  0.7818609E-02  0.8441026E-01
        2   -1    0    0  501    0  0.00000000000E+00  0.00000000000E+00  0.13852813217E+04  0.13852813217E+04  0.25500000920E-02 0. -1.
       -2   -1    0    0    0  501  0.00000000000E+00  0.00000000000E+00 -0.10359851014E+04  0.10359851014E+04  0.25500000920E-02 0.  1.
    10030    2    1    2    0    0  0.00000000000E+00  0.00000000000E+00  0.34929622033E+03  0.24212664232E+04  0.23959389062E+04 0.  0.
        3    1    3    3  502    0  0.11623504590E+04 -0.28022198202E+03  0.99376837054E+02  0.11997744432E+04  0.10100000352E+00 0. -1.
       -3    1    3    3    0  502 -0.11623504590E+04  0.28022198202E+03  0.24991938328E+03  0.12214919799E+04  0.10100000352E+00 0.  1.
</event>
<event>
 5   0  0.1198313E-05  0.2392417E+04  0.7818609E-02  0.8442348E-01
       -2   -1    0    0    0  501  0.00000000000E+00  0.00000000000E+00  0.94773231589E+03  0.94773231589E+03  0.25500000920E-02 0. -1.
        2   -1    0    0  501    0  0.00000000000E+00  0.00000000000E+00 -0.15098301503E+04  0.15098301503E+04  0.25500000920E-02 0.  1.
    10030    2    1    2    0    0  0.00000000000E+00  0.00000000000E+00 -0.56209783443E+03  0.24575624662E+04  0.23924170414E+04 0.  0.
        5    1    3    3  502    0  0.63607398894E+03  0.97484680313E+03  0.20947303194E+01  0.11640201402E+04  0.46999998093E+01 0. -1.
       -5    1    3    3    0  502 -0.63607398894E+03 -0.97484680313E+03 -0.56419256475E+03  0.12935423260E+04  0.46999998093E+01 0.  1.
</event>
<event>
 5   0  0.1169371E-05  0.2393997E+04  0.7818609E-02  0.8441755E-01
        2   -1    0    0  501    0  0.00000000000E+00  0.00000000000E+00  0.96076573686E+03  0.96076573687E+03  0.25500000920E-02 0. -1.
       -2   -1    0    0    0  501  0.00000000000E+00  0.00000000000E+00 -0.14913154981E+04  0.14913154981E+04  0.25500000920E-02 0.  1.
    10030    2    1    2    0    0  0.00000000000E+00  0.00000000000E+00 -0.53054976128E+03  0.24520812350E+04  0.23939965192E+04 0.  0.
        2    1    3    3  502    0 -0.61440905849E+03 -0.54235547080E+03 -0.11588857228E+04  0.14193886242E+04  0.25500000920E-02 0.  1.
       -2    1    3    3    0  502  0.61440905849E+03  0.54235547080E+03  0.62833596156E+03  0.10326926108E+04  0.25500000920E-02 0. -1.
</event>
<event>
 5   0  0.1198313E-05  0.2392623E+04  0.7818609E-02  0.8442271E-01
        2   -1    0    0  501    0  0.00000000000E+00  0.00000000000E+00  0.10594045184E+04  0.10594045184E+04  0.25500000920E-02 0.  1.
       -2   -1    0    0    0  501  0.00000000000E+00  0.00000000000E+00 -0.13509108028E+04  0.13509108028E+04  0.25500000920E-02 0. -1.
    10030    2    1    2    0    0  0.00000000000E+00  0.00000000000E+00 -0.29150628438E+03  0.24103153212E+04  0.23926228357E+04 0.  0.
        5    1    3    3  502    0  0.67716075926E+03 -0.44517527557E+03 -0.10322667989E+04  0.13123736335E+04  0.46999998093E+01 0. -1.
       -5    1    3    3    0  502 -0.67716075926E+03  0.44517527557E+03  0.74076051449E+03  0.10979416877E+04  0.46999998093E+01 0.  1.
</event>
<event>
 5   0  0.1169371E-05  0.2401958E+04  0.7818609E-02  0.8438771E-01
        2   -1    0    0  501    0  0.00000000000E+00  0.00000000000E+00  0.15096975743E+04  0.15096975743E+04  0.25500000920E-02 0.  1.
       -2   -1    0    0    0  501  0.00000000000E+00  0.00000000000E+00 -0.95539024062E+03  0.95539024063E+03  0.25500000920E-02 0. -1.
    10030    2    1    2    0    0  0.00000000000E+00  0.00000000000E+00  0.55430733364E+03  0.24650878149E+04  0.24019578087E+04 0.  0.
        2    1    3    3  502    0 -0.10358096693E+04  0.46773472102E+03  0.67552178802E+03  0.13221222055E+04  0.25500000920E-02 0.  1.
       -2    1    3    3    0  502  0.10358096693E+04 -0.46773472102E+03 -0.12121445438E+03  0.11429656094E+04  0.25500000920E-02 0. -1.
</event>
<event>
 5   0  0.1154897E-05  0.2382160E+04  0.7818609E-02  0.8446213E-01
       -2   -1    0    0    0  501  0.00000000000E+00  0.00000000000E+00  0.87836274114E+03  0.87836274114E+03  0.25500000920E-02 0. -1.
        2   -1    0    0  501    0  0.00000000000E+00  0.00000000000E+00 -0.16151324251E+04  0.16151324251E+04  0.25500000920E-02 0.  1.
    10030    2    1    2    0    0  0.00000000000E+00  0.00000000000E+00 -0.73676968396E+03  0.24934951662E+04  0.23821604851E+04 0.  0.
        4    1    3    3  502    0 -0.78736075634E+03 -0.86476005361E+03 -0.60459422771E+03  0.13165419492E+04  0.12699999809E+01 0.  1.
       -4    1    3    3    0  502  0.78736075634E+03  0.86476005361E+03 -0.13217545625E+03  0.11769532170E+04  0.12699999809E+01 0. -1.
</event>
<event>
 5   0  0.1168435E-05  0.2313176E+04  0.7818609E-02  0.8472744E-01
        2   -1    0    0  501    0  0.00000000000E+00  0.00000000000E+00  0.19659458255E+04  0.19659458255E+04  0.25500000920E-02 0.  1.
       -2   -1    0    0    0  501  0.00000000000E+00  0.00000000000E+00 -0.68043342763E+03  0.68043342764E+03  0.25500000920E-02 0. -1.
    10030    2    1    2    0    0  0.00000000000E+00  0.00000000000E+00  0.12855123978E+04  0.26463792531E+04  0.23131755286E+04 0.  0.
        1    1    3    3  502    0 -0.87026768675E+03 -0.67727448087E+03  0.10417457332E+04  0.15170038701E+04  0.50400001928E-02 0.  1.
       -1    1    3    3    0  502  0.87026768675E+03  0.67727448087E+03  0.24376666459E+03  0.11293753830E+04  0.50400001928E-02 0. -1.
</event>
<event>
 5   0  0.5196696E-06  0.2419810E+04  0.7818609E-02  0.8432124E-01
       -1   -1    0    0    0  501  0.00000000000E+00  0.00000000000E+00  0.94216634789E+03  0.94216634790E+03  0.50400001928E-02 0.  1.
        1   -1    0    0  501    0  0.00000000000E+00  0.00000000000E+00 -0.15537281437E+04  0.15537281437E+04  0.50400001928E-02 0. -1.
    10030    2    1    2    0    0  0.00000000000E+00  0.00000000000E+00 -0.61156179577E+03  0.24958944916E+04  0.24198102163E+04 0.  0.
        1    1    3    3  502    0  0.35485924250E+03 -0.11102752512E+04 -0.64037884831E+03  0.13299328121E+04  0.50400001928E-02 0. -1.
       -1    1    3    3    0  502 -0.35485924250E+03  0.11102752512E+04  0.28817052541E+02  0.11659616794E+04  0.50400001928E-02 0.  1.
</event>
<event>
 5   0  0.5042742E-06  0.2395309E+04  0.7818609E-02  0.8441262E-01
       -1   -1    0    0    0  501  0.00000000000E+00  0.00000000000E+00  0.91431461883E+03  0.91431461885E+03  0.50400001928E-02 0.  1.
        1   -1    0    0  501    0  0.00000000000E+00  0.00000000000E+00 -0.15687994572E+04  0.15687994573E+04  0.50400001928E-02 0. -1.
    10030    2    1    2    0    0  0.00000000000E+00  0.00000000000E+00 -0.65448483841E+03  0.24831140761E+04  0.23953089803E+04 0.  0.
        5    1    3    3  502    0 -0.17379266232E+03 -0.63478505089E+03 -0.13645204202E+04  0.15149567708E+04  0.46999998093E+01 0. -1.
       -5    1    3    3    0  502  0.17379266232E+03  0.63478505089E+03  0.71003558181E+03  0.96815730526E+03  0.46999998093E+01 0.  1.
</event>
<event>
 5   0  0.5064437E-06  0.2401294E+04  0.7818609E-02  0.8439019E-01
       -1   -1    0    0    0  501  0.00000000000E+00  0.00000000000E+00  0.98897592101E+03  0.98897592102E+03  0.50400001928E-02 0. -1.
        1   -1    0    0  501    0  0.00000000000E+00  0.00000000000E+00 -0.14576222435E+04  0.14576222435E+04  0.50400001928E-02 0.  1.
    10030    2    1    2    0    0  0.00000000000E+00  0.00000000000E+00 -0.46864632247E+03  0.24465981645E+04  0.24012940684E+04 0.  0.
        2    1    3    3  502    0 -0.82654719221E+03 -0.81744455015E+03 -0.54025036746E+03  0.12818994941E+04  0.25500000920E-02 0.  1.
       -2    1    3    3    0  502  0.82654719221E+03  0.81744455015E+03  0.71604044990E+02  0.11646986704E+04  0.25500000920E-02 0. -1.
</event>
<event>
 5   0  0.5042742E-06  0.2413377E+04  0.7818609E-02  0.8434512E-01
       -1   -1    0    0    0  501  0.00000000000E+00  0.00000000000E+00  0.60803437151E+03  0.60803437153E+03  0.50400001928E-02 0.  1.
        1   -1    0    0  501    0  0.00000000000E+00  0.00000000000E+00 -0.23947611383E+04  0.23947611383E+04  0.50400001928E-02 0. -1.
    10030    2    1    2    0    0  0.00000000000E+00  0.00000000000E+00 -0.17867267668E+04  0.30027955098E+04  0.24133769566E+04 0.  0.
        5    1    3    3  502    0 -0.35360530052E+02  0.11598909873E+04 -0.13050465220E+04  0.17463579198E+04  0.46999998093E+01 0.  1.
       -5    1    3    3    0  502  0.35360530052E+02 -0.11598909873E+04 -0.48168024474E+03  0.12564375900E+04  0.46999998093E+01 0. -1.
</event>
<event>
 5   0  0.1168435E-05  0.2388468E+04  0.7818609E-02  0.8443834E-01
        2   -1    0    0  501    0  0.00000000000E+00  0.00000000000E+00  0.14266898173E+04  0.14266898173E+04  0.25500000920E-02 0. -1.
       -2   -1    0    0    0  501  0.00000000000E+00  0.00000000000E+00 -0.99965312949E+03  0.99965312949E+03  0.25500000920E-02 0.  1.
    10030    2    1    2    0    0  0.00000000000E+00  0.00000000000E+00  0.42703668786E+03  0.24263429468E+04  0.23884680787E+04 0.  0.
        1    1    3    3  502    0 -0.10077806472E+04  0.20241371366E+03 -0.40407098111E+03  0.11044756684E+04  0.50400001928E-02 0.  1.
       -1    1    3    3    0  502  0.10077806472E+04 -0.20241371366E+03  0.83110766897E+03  0.13218672784E+04  0.50400001928E-02 0. -1.
</event>
<event>
 5   0  0.1154897E-05  0.2399926E+04  0.7818609E-02  0.8439531E-01
        2   -1    0    0  501    0  0.00000000000E+00  0.00000000000E+00  0.21257513716E+04  0.21257513716E+04  0.25500000920E-02 0.  1.
       -2   -1    0    0    0  501  0.00000000000E+00  0.00000000000E+00 -0.67736593221E+03  0.67736593222E+03  0.25500000920E-02 0. -1.
    10030    2    1    2    0    0  0.00000000000E+00  0.00000000000E+00  0.14483854394E+04  0.28031173038E+04  0.23999262985E+04 0.  0.
        4    1    3    3  502    0 -0.35048093907E+03  0.53298387534E+03 -0.46292500759E+03  0.78816868472E+03  0.12699999809E+01 0. -1.
       -4    1    3    3    0  502  0.35048093907E+03 -0.53298387534E+03  0.19113104470E+04  0.20149486191E+04  0.12699999809E+01 0.  1.
</event>
<event>
 5   0  0.5034479E-06  0.2488457E+04  0.7818609E-02  0.8407109E-01
        1   -1    0    0  501    0  0.00000000000E+00  0.00000000000E+00  0.17200780321E+04  0.17200780321E+04  0.50400001928E-02 0.  1.
       -1   -1    0    0    0  501  0.00000000000E+00  0.00000000000E+00 -0.90001990245E+03  0.90001990247E+03  0.50400001928E-02 0. -1.
    10030    2    1    2    0    0  0.00000000000E+00  0.00000000000E+00  0.82005812960E+03  0.26200979345E+04  0.24884569216E+04 0.  0.
        4    1    3    3  502    0  0.22851124615E+03  0.78838112592E+03 -0.57449817235E+03  0.10019041632E+04  0.12699999809E+01 0. -1.
       -4    1    3    3    0  502 -0.22851124615E+03 -0.78838112592E+03  0.13945563019E+04  0.16181937713E+04  0.12699999809E+01 0.  1.
</event>
<event>
 5   0  0.5064437E-06  0.2405226E+04  0.7818609E-02  0.8437549E-01
       -1   -1    0    0    0  501  0.00000000000E+00  0.00000000000E+00  0.21608731731E+04  0.21608731731E+04  0.50400001928E-02 0.  1.
        1   -1    0    0  501    0  0.00000000000E+00  0.00000000000E+00 -0.66930278867E+03  0.66930278868E+03  0.50400001928E-02 0. -1.
    10030    2    1    2    0    0  0.00000000000E+00  0.00000000000E+00  0.14915703844E+04  0.28301759618E+04  0.24052263434E+04 0.  0.
        2    1    3    3  502    0 -0.96552641645E+03 -0.38034820759E+03  0.14609229673E+04  0.17919826830E+04  0.25500000920E-02 0.  1.
       -2    1    3    3    0  502  0.96552641645E+03  0.38034820759E+03  0.30647417135E+02  0.10381932788E+04  0.25500000920E-02 0. -1.
</event>
<event>
 5   0  0.5064437E-06  0.2389264E+04  0.7818609E-02  0.8443534E-01
       -1   -1    0    0    0  501  0.00000000000E+00  0.00000000000E+00  0.74754217826E+03  0.74754217828E+03  0.50400001928E-02 0.  1.
        1   -1    0    0  501    0  0.00000000000E+00  0.00000000000E+00 -0.19091176495E+04  0.19091176495E+04  0.50400001928E-02 0. -1.
    10030    2    1    2    0    0  0.00000000000E+00  0.00000000000E+00 -0.11615754712E+04  0.26566598278E+04  0.23892642937E+04 0.  0.
        2    1    3    3  502    0  0.58179231182E+03  0.66831298304E+03  0.31014828486E+03  0.93878458445E+03  0.25500000920E-02 0.  1.
       -2    1    3    3    0  502 -0.58179231182E+03 -0.66831298304E+03 -0.14717237561E+04  0.17178752433E+04  0.25500000920E-02 0. -1.
</event>
<event>
 5   0  0.1169371E-05  0.2404860E+04  0.7818609E-02  0.8437686E-01
        2   -1    0    0  501    0  0.00000000000E+00  0.00000000000E+00  0.15350665260E+04  0.15350665260E+04  0.25500000920E-02 0. -1.
       -2   -1    0    0    0  501  0.00000000000E+00  0.00000000000E+00 -0.94187339750E+03  0.94187339750E+03  0.25500000920E-02 0.  1.
    10030    2    1    2    0    0  0.00000000000E+00  0.00000000000E+00  0.59319312855E+03  0.24769399235E+04  0.24048603488E+04 0.  0.
        2    1    3    3  502    0  0.11348662251E+04  0.33479745966E+03  0.76106339080E+02  0.11856655779E+04  0.25500000920E-02 0.  1.
       -2    1    3    3    0  502 -0.11348662251E+04 -0.33479745966E+03  0.51708678947E+03  0.12912743456E+04  0.25500000920E-02 0. -1.
</event>
<event>
 5   0  0.5196696E-06  0.2396323E+04  0.7818609E-02  0.8440882E-01
       -1   -1    0    0    0  501  0.00000000000E+00  0.00000000000E+00  0.55746944950E+03  0.55746944952E+03  0.50400001928E-02 0. -1.
        1   -1    0    0  501    0  0.00000000000E+00  0.00000000000E+00 -0.25751916337E+04  0.25751916338E+04  0.50400001928E-02 0.  1.
    10030    2    1    2    0    0  0.00000000000E+00  0.00000000000E+00 -0.20177221842E+04  0.31326610833E+04  0.23963227349E+04 0.  0.
        1    1    3    3  502    0 -0.13144151312E+03 -0.53325000915E+03 -0.24009489016E+04  0.24629632704E+04  0.50400001928E-02 0.  1.
       -1    1    3    3    0  502  0.13144151312E+03  0.53325000915E+03  0.38322671731E+03  0.66969781283E+03  0.50400001928E-02 0. -1.
</event>
<event>
 5   0  0.5064437E-06  0.2395470E+04  0.7818609E-02  0.8441201E-01
       -1   -1    0    0    0  501  0.00000000000E+00  0.00000000000E+00  0.79032100746E+03  0.79032100747E+03  0.50400001928E-02 0. -1.
        1   -1    0    0  501    0  0.00000000000E+00  0.00000000000E+00 -0.18151728450E+04  0.18151728450E+04  0.50400001928E-02 0.  1.
    10030    2    1    2    0    0  0.00000000000E+00  0.00000000000E+00 -0.10248518375E+04  0.26054938525E+04  0.23954700846E+04 0.  0.
        2    1    3    3  502    0  0.73669513658E+03 -0.42666184962E+03  0.40394248225E+03  0.94230015767E+03  0.25500000920E-02 0. -1.
       -2    1    3    3    0  502 -0.73669513658E+03  0.42666184962E+03 -0.14287943198E+04  0.16631936948E+04  0.25500000920E-02 0.  1.
</event>
<event>
 5   0  0.5104174E-06  0.2377866E+04  0.7818609E-02  0.8447837E-01
       -1   -1    0    0    0  501  0.00000000000E+00  0.00000000000E+00  0.16465690664E+04  0.16465690664E+04  0.50400001928E-02 0.  1.
        1   -1    0    0  501    0  0.00000000000E+00  0.00000000000E+00 -0.85848890500E+03  0.85848890501E+03  0.50400001928E-02 0. -1.
    10030    2    1    2    0    0  0.00000000000E+00  0.00000000000E+00  0.78808016143E+03  0.25050579714E+04  0.23778656605E+04 0.  0.
        3    1    3    3  502    0 -0.43604180095E+03 -0.68971446990E+03 -0.51692297918E+03  0.96594403500E+03  0.10100000352E+00 0. -1.
       -3    1    3    3    0  502  0.43604180095E+03  0.68971446990E+03  0.13050031406E+04  0.15391139364E+04  0.10100000352E+00 0.  1.
</event>
<event>
 5   0  0.5034479E-06  0.2393055E+04  0.7818609E-02  0.8442108E-01
       -1   -1    0    0    0  501  0.00000000000E+00  0.00000000000E+00  0.10054671140E+04  0.10054671140E+04  0.50400001928E-02 0. -1.
        1   -1    0    0  501    0  0.00000000000E+00  0.00000000000E+00 -0.14238939103E+04  0.14238939103E+04  0.50400001928E-02 0.  1.
    10030    2    1    2    0    0  0.00000000000E+00  0.00000000000E+00 -0.41842679622E+03  0.24293610243E+04  0.23930553697E+04 0.  0.
        4    1    3    3  502    0  0.27087373931E+03 -0.11243435386E+04  0.10229023073E+03  0.11610279409E+04  0.12699999809E+01 0.  1.
       -4    1    3    3    0  502 -0.27087373931E+03  0.11243435386E+04 -0.52071702695E+03  0.12683330834E+04  0.12699999809E+01 0. -1.
</event>
<event>
 5   0  0.1154897E-05  0.2371404E+04  0.7818609E-02  0.8450288E-01
       -2   -1    0    0    0  501  0.00000000000E+00  0.00000000000E+00  0.57925064947E+03  0.57925064948E+03  0.25500000920E-02 0. -1.
        2   -1    0    0  501    0  0.00000000000E+00  0.00000000000E+00 -0.24270819672E+04  0.24270819672E+04  0.25500000920E-02 0.  1.
    10030    2    1    2    0    0  0.00000000000E+00  0.00000000000E+00 -0.18478313177E+04  0.30063326167E+04  0.23714036399E+04 0.  0.
        4    1    3    3  502    0 -0.68835623052E+03  0.23883402468E+03 -0.21097891278E+04  0.22320590871E+04  0.12699999809E+01 0.  1.
       -4    1    3    3    0  502  0.68835623052E+03 -0.23883402468E+03  0.26195781010E+03  0.77427352959E+03  0.12699999809E+01 0. -1.
</event>
<event>
 5   0  0.1169371E-05  0.2386963E+04  0.7818609E-02  0.8444401E-01
       -2   -1    0    0    0  501  0.00000000000E+00  0.00000000000E+00  0.97783725885E+03  0.97783725886E+03  0.25500000920E-02 0.  1.
        2   -1    0    0  501    0  0.00000000000E+00  0.00000000000E+00 -0.14566819100E+04  0.14566819100E+04  0.25500000920E-02 0. -1.
    10030    2    1    2    0    0  0.00000000000E+00  0.00000000000E+00 -0.47884465119E+03  0.24345191689E+04  0.23869627948E+04 0.  0.
        2    1    3    3  502    0  0.72602089778E+03 -0.45078218713E+03 -0.10891396625E+04  0.13843901649E+04  0.25500000920E-02 0. -1.
       -2    1    3    3    0  502 -0.72602089778E+03  0.45078218713E+03  0.61029501130E+03  0.10501290040E+04  0.25500000920E-02 0.  1.
</event>
<event>
 5   0  0.1198313E-05  0.2400721E+04  0.7818609E-02  0.8439234E-01
       -2   -1    0    0    0  501  0.00000000000E+00  0.00000000000E+00  0.16387781110E+04  0.16387781110E+04  0.25500000920E-02 0.  1.
        2   -1    0    0  501    0  0.00000000000E+00  0.00000000000E+00 -0.87923125623E+03  0.87923125624E+03  0.25500000920E-02 0. -1.
    10030    2    1    2    0    0  0.00000000000E+00  0.00000000000E+00  0.75954685476E+03  0.25180093672E+04  0.24007206728E+04 0.  0.
        5    1    3    3  502    0 -0.27107093966E+03 -0.11549185815E+04  0.57182133410E+03  0.13169351208E+04  0.46999998093E+01 0.  1.
       -5    1    3    3    0  502  0.27107093966E+03  0.11549185815E+04  0.18772552065E+03  0.12010742464E+04  0.46999998093E+01 0. -1.
</event>
<event>
 5   0  0.1174210E-05  0.2412191E+04  0.7818609E-02  0.8434954E-01
       -2   -1    0    0    0  501  0.00000000000E+00  0.00000000000E+00  0.63898109979E+03  0.63898109980E+03  0.25500000920E-02 0. -1.
        2   -1    0    0  501    0  0.00000000000E+00  0.00000000000E+00 -0.22765399488E+04  0.22765399488E+04  0.25500000920E-02 0.  1.
    10030    2    1    2    0    0  0.00000000000E+00  0.00000000000E+00 -0.16375588490E+04  0.29155210486E+04  0.24121907057E+04 0.  0.
        3    1    3    3  502    0  0.91272890886E+03 -0.90923407690E+02  0.12778423408E+03  0.92610471752E+03  0.10100000352E+00 0. -1.
       -3    1    3    3    0  502 -0.91272890886E+03  0.90923407690E+02 -0.17653430831E+04  0.19894163311E+04  0.10100000352E+00 0.  1.
</event>
<event>
 5   0  0.1168435E-05  0.2257008E+04  0.7818609E-02  0.8495068E-01
       -2   -1    0    0    0  501  0.00000000000E+00  0.00000000000E+00  0.11472409752E+04  0.11472409752E+04  0.25500000920E-02 0.  1.
        2   -1    0    0  501    0  0.00000000000E+00  0.00000000000E+00 -0.11100732934E+04  0.11100732934E+04  0.25500000920E-02 0. -1.
    10030    2    1    2    0    0  0.00000000000E+00  0.00000000000E+00  0.37167681776E+02  0.22573142687E+04  0.22570082567E+04 0.  0.
        1    1    3    3  502    0 -0.25226469048E+03  0.46458712561E+03 -0.97856833670E+03  0.11122385810E+04  0.50400001928E-02 0. -1.
       -1    1    3    3    0  502  0.25226469048E+03 -0.46458712561E+03  0.10157360185E+04  0.11450756877E+04  0.50400001928E-02 0.  1.
</event>
<event>
 5   0  0.5104174E-06  0.2400778E+04  0.7818609E-02  0.8439212E-01
       -1   -1    0    0    0  501  0.00000000000E+00  0.00000000000E+00  0.73099367964E+03  0.73099367965E+03  0.50400001928E-02 0. -1.
        1   -1    0    0  501    0  0.00000000000E+00  0.00000000000E+00 -0.19711981344E+04  0.19711981344E+04  0.50400001928E-02 0.  1.
    10030    2    1    2    0    0  0.00000000000E+00  0.00000000000E+00 -0.12402044547E+04  0.27021918140E+04  0.24007776886E+04 0.  0.
        3    1    3    3  502    0 -0.53876236266E+02 -0.76321261884E+03  0.42097675997E+03  0.87327979081E+03  0.10100000352E+00 0. -1.
       -3    1    3    3    0  502  0.53876236266E+02  0.76321261884E+03 -0.16611812147E+04  0.18289120232E+04  0.10100000352E+00 0.  1.
</event>
<event>
 5   0  0.5104174E-06  0.2395298E+04  0.7818609E-02  0.8441266E-01
       -1   -1    0    0    0  501  0.00000000000E+00  0.00000000000E+00  0.85268886585E+03  0.85268886586E+03  0.50400001928E-02 0.  1.
        1   -1    0    0  501    0  0.00000000000E+00  0.00000000000E+00 -0.16821647507E+04  0.16821647508E+04  0.50400001928E-02 0. -1.
    10030    2    1    2    0    0  0.00000000000E+00  0.00000000000E+00 -0.82947588490E+03  0.25348536166E+04  0.23952980220E+04 0.  0.
        3    1    3    3  502    0 -0.14995429769E+03  0.26906780491E+03 -0.16395271282E+04  0.16682125133E+04  0.10100000352E+00 0. -1.
       -3    1    3    3    0  502  0.14995429769E+03 -0.26906780491E+03  0.81005124332E+03  0.86664110336E+03  0.10100000352E+00 0.  1.
</event>
<event>
 5   0  0.1174210E-05  0.2389294E+04  0.7818609E-02  0.8443523E-01
        2   -1    0    0  501    0  0.00000000000E+00  0.00000000000E+00  0.10672325771E+04  0.10672325771E+04  0.25500000920E-02 0.  1.
       -2   -1    0    0    0  501  0.00000000000E+00  0.00000000000E+00 -0.13372731198E+04  0.13372731198E+04  0.25500000920E-02 0. -1.
    10030    2    1    2    0    0  0.00000000000E+00  0.00000000000E+00 -0.27004054268E+03  0.24045056969E+04  0.23892939860E+04 0.  0.
        3    1    3    3  502    0 -0.69043107237E+03  0.52124997588E+03  0.69410906679E+03  0.11091366056E+04  0.10100000352E+00 0.  1.
       -3    1    3    3    0  502  0.69043107237E+03 -0.52124997588E+03 -0.96414960947E+03  0.12953690913E+04  0.10100000352E+00 0. -1.
</event>
<event>
 5   0  0.5034479E-06  0.2409522E+04  0.7818609E-02  0.8435947E-01
        1   -1    0    0  501    0  0.00000000000E+00  0.00000000000E+00  0.95692912043E+03  0.95692912044E+03  0.50400001928E-02 0.  1.
       -1   -1    0    0    0  501  0.00000000000E+00  0.00000000000E+00 -0.15167775864E+04  0.15167775864E+04  0.50400001928E-02 0. -1.
    10030    2    1    2    0    0  0.00000000000E+00  0.00000000000E+00 -0.55984846594E+03  0.24737067068E+04  0.24095216468E+04 0.  0.
        4    1    3    3  502    0  0.40828094714E+03  0.27078590509E+03  0.85004417556E+03  0.98111928505E+03  0.12699999809E+01 0.  1.
       -4    1    3    3    0  502 -0.40828094714E+03 -0.27078590509E+03 -0.14098926415E+04  0.14925874218E+04  0.12699999809E+01 0. -1.
</event>
<event>
 5   0  0.1168435E-05  0.2399388E+04  0.7818609E-02  0.8439733E-01
       -2   -1    0    0    0  501  0.00000000000E+00  0.00000000000E+00  0.85972602051E+03  0.85972602052E+03  0.25500000920E-02 0. -1.
        2   -1    0    0  501    0  0.00000000000E+00  0.00000000000E+00 -0.16740979708E+04  0.16740979708E+04  0.25500000920E-02 0.  1.
    10030    2    1    2    0    0  0.00000000000E+00  0.00000000000E+00 -0.81437195026E+03  0.25338239913E+04  0.23993879106E+04 0.  0.
        1    1    3    3  502    0  0.70093816490E+03  0.42109052260E+02 -0.14344035097E+04  0.15970600840E+04  0.50400001928E-02 0.  1.
       -1    1    3    3    0  502 -0.70093816490E+03 -0.42109052260E+02  0.62003155942E+03  0.93676390729E+03  0.50400001928E-02 0. -1.
</event>
<event>
 5   0  0.1174210E-05  0.2399196E+04  0.7818609E-02  0.8439804E-01
       -2   -1    0    0    0  501  0.00000000000E+00  0.00000000000E+00  0.10146840198E+04  0.10146840198E+04  0.25500000920E-02 0.  1.
        2   -1    0    0  501    0  0.00000000000E+00  0.00000000000E+00 -0.14182108261E+04  0.14182108261E+04  0.25500000920E-02 0. -1.
    10030    2    1    2    0    0  0.00000000000E+00  0.00000000000E+00 -0.40352680634E+03  0.24328948459E+04  0.23991964171E+04 0.  0.
        3    1    3    3  502    0 -0.69675772771E+03  0.78719791928E+03 -0.78770632149E+03  0.13136335693E+04  0.10100000352E+00 0. -1.
       -3    1    3    3    0  502  0.69675772771E+03 -0.78719791928E+03  0.38417951515E+03  0.11192612766E+04  0.10100000352E+00 0.  1.
</event>
<event>
 5   0  0.5104174E-06  0.2399015E+04  0.7818609E-02  0.8439872E-01
        1   -1    0    0  501    0  0.00000000000E+00  0.00000000000E+00  0.13402598386E+04  0.13402598386E+04  0.50400001928E-02 0.  1.
       -1   -1    0    0    0  501  0.00000000000E+00  0.00000000000E+00 -0.10735369679E+04  0.10735369679E+04  0.50400001928E-02 0. -1.
    10030    2    1    2    0    0  0.00000000000E+00  0.00000000000E+00  0.26672287076E+03  0.24137968065E+04  0.23990152007E+04 0.  0.
        3    1    3    3  502    0  0.99132554952E+03  0.33407250166E+03  0.72390856550E+03  0.12721534510E+04  0.10100000352E+00 0.  1.
       -3    1    3    3    0  502 -0.99132554952E+03 -0.33407250166E+03 -0.45718569474E+03  0.11416433555E+04  0.10100000352E+00 0. -1.
</event>
<event>
 5   0  0.1174210E-05  0.2339366E+04  0.7818609E-02  0.8462559E-01
       -2   -1    0    0    0  501  0.00000000000E+00  0.00000000000E+00  0.16372951166E+04  0.16372951166E+04  0.25500000920E-02 0. -1.
        2   -1    0    0  501    0  0.00000000000E+00  0.00000000000E+00 -0.83562137489E+03  0.83562137489E+03  0.25500000920E-02 0.  1.
    10030    2    1    2    0    0  0.00000000000E+00  0.00000000000E+00  0.80167374172E+03  0.24729164915E+04  0.23393664069E+04 0.  0.
        3    1    3    3  502    0 -0.69102469466E+03  0.66628820510E+03 -0.30567745009E+03  0.10074193837E+04  0.10100000352E+00 0.  1.
       -3    1    3    3    0  502  0.69102469466E+03 -0.66628820510E+03  0.11073511918E+04  0.14654971078E+04  0.10100000352E+00 0. -1.
</event>
<event>
 5   0  0.1168435E-05  0.2292691E+04  0.7818609E-02  0.8480808E-01
        2   -1    0    0  501    0  0.00000000000E+00  0.00000000000E+00  0.24195968116E+04  0.24195968116E+04  0.25500000920E-02 0.  1.
       -2   -1    0    0    0  501  0.00000000000E+00  0.00000000000E+00 -0.54311045370E+03  0.54311045370E+03  0.25500000920E-02 0. -1.
    10030    2    1    2    0    0  0.00000000000E+00  0.00000000000E+00  0.18764863579E+04  0.29627072653E+04  0.22926912763E+04 0.  0.
        1    1    3    3  502    0  0.68234890175E+03 -0.33398040054E+03 -0.17110202581E+03  0.77872898683E+03  0.50400001928E-02 0. -1.
       -1    1    3    3    0  502 -0.68234890175E+03  0.33398040054E+03  0.20475883837E+04  0.21839782784E+04  0.50400001928E-02 0.  1.
</event>
<event>
 5   0  0.5064437E-06  0.2391826E+04  0.7818609E-02  0.8442570E-01
       -1   -1    0    0    0  501  0.00000000000E+00  0.00000000000E+00  0.12760589856E+04  0.12760589856E+04  0.50400001928E-02 0.  1.
        1   -1    0    0  501    0  0.00000000000E+00  0.00000000000E+00 -0.11208006608E+04  0.11208006608E+04  0.50400001928E-02 0. -1.
    10030    2    1    2    0    0  0.00000000000E+00  0.00000000000E+00  0.15525832475E+03  0.23968596464E+04  0.23918258752E+04 0.  0.
        2    1    3    3  502    0  0.86962496726E+03 -0.32986552897E+03 -0.67571684072E+03  0.11496312886E+04  0.25500000920E-02 0. -1.
       -2    1    3    3    0  502 -0.86962496726E+03  0.32986552897E+03  0.83097516547E+03  0.12472283578E+04  0.25500000920E-02 0.  1.
</event>
<event>
 5   0  0.1154897E-05  0.2400399E+04  0.7818609E-02  0.8439354E-01
       -2   -1    0    0    0  501  0.00000000000E+00  0.00000000000E+00  0.55130936688E+03  0.55130936688E+03  0.25500000920E-02 0. -1.
        2   -1    0    0  501    0  0.00000000000E+00  0.00000000000E+00 -0.26128329295E+04  0.26128329295E+04  0.25500000920E-02 0.  1.
    10030    2    1    2    0    0  0.00000000000E+00  0.00000000000E+00 -0.20615235626E+04  0.31641422963E+04  0.24003993569E+04 0.  0.
        4    1    3    3  502    0 -0.53829909880E+03 -0.82644991896E+02 -0.24405797134E+04  0.25006053397E+04  0.12699999809E+01 0.  1.
       -4    1    3    3    0  502  0.53829909880E+03  0.82644991896E+02  0.37905615083E+03  0.66353695665E+03  0.12699999809E+01 0. -1.
</event>
<event>
 5   0  0.1169371E-05  0.2398018E+04  0.7818609E-02  0.8440246E-01
        2   -1    0    0  501    0  0.00000000000E+00  0.00000000000E+00  0.14787183832E+04  0.14787183832E+04  0.25500000920E-02 0.  1.
       -2   -1    0    0    0  501  0.00000000000E+00  0.00000000000E+00 -0.97220818267E+03  0.97220818268E+03  0.25500000920E-02 0. -1.
    10030    2    1    2    0    0  0.00000000000E+00  0.00000000000E+00  0.50651020054E+03  0.24509265659E+04  0.23980176080E+04 0.  0.
        2    1    3    3  502    0 -0.90659022949E+03 -0.20432530510E+03 -0.52106682883E+03  0.10654413708E+04  0.25500000920E-02 0. -1.
       -2    1    3    3    0  502  0.90659022949E+03  0.20432530510E+03  0.10275770294E+04  0.13854851951E+04  0.25500000920E-02 0.  1.
</event>
<event>
 5   0  0.5104174E-06  0.2387932E+04  0.7818609E-02  0.8444036E-01
        1   -1    0    0  501    0  0.00000000000E+00  0.00000000000E+00  0.14791593657E+04  0.14791593657E+04  0.50400001928E-02 0. -1.
       -1   -1    0    0    0  501  0.00000000000E+00  0.00000000000E+00 -0.96375978459E+03  0.96375978460E+03  0.50400001928E-02 0.  1.
    10030    2    1    2    0    0  0.00000000000E+00  0.00000000000E+00  0.51539958112E+03  0.24429191503E+04  0.23879315834E+04 0.  0.
        3    1    3    3  502    0  0.42691773170E+03  0.85508590941E+03  0.98980690276E+03  0.13759172857E+04  0.10100000352E+00 0. -1.
       -3    1    3    3    0  502 -0.42691773170E+03 -0.85508590941E+03 -0.47440732163E+03  0.10670018646E+04  0.10100000352E+00 0.  1.
</event>
<event>
 5   0  0.5034479E-06  0.2402089E+04  0.7818609E-02  0.8438722E-01
       -1   -1    0    0    0  501  0.00000000000E+00  0.00000000000E+00  0.81654203773E+03  0.81654203774E+03  0.50400001928E-02 0.  1.
        1   -1    0    0  501    0  0.00000000000E+00  0.00000000000E+00 -0.17666058045E+04  0.17666058045E+04  0.50400001928E-02 0. -1.
    10030    2    1    2    0    0  0.00000000000E+00  0.00000000000E+00 -0.95006376680E+03  0.25831478423E+04  0.24020890104E+04 0.  0.
        4    1    3    3  502    0  0.21947249499E+02  0.37209085812E+03  0.75276872819E+03  0.83999741636E+03  0.12699999809E+01 0.  1.
       -4    1    3    3    0  502 -0.21947249499E+02 -0.37209085812E+03 -0.17028324950E+04  0.17431504259E+04  0.12699999809E+01 0. -1.
</event>
<event>
 5   0  0.5042742E-06  0.2399364E+04  0.7818609E-02  0.8439742E-01
       -1   -1    0    0    0  501  0.00000000000E+00  0.00000000000E+00  0.93077238793E+03  0.93077238795E+03  0.50400001928E-02 0. -1.
        1   -1    0    0  501    0  0.00000000000E+00  0.00000000000E+00 -0.15462825466E+04  0.15462825466E+04  0.50400001928E-02 0.  1.
    10030    2    1    2    0    0  0.00000000000E+00  0.00000000000E+00 -0.61551015865E+03  0.24770549345E+04  0.23993641644E+04 0.  0.
        5    1    3    3  502    0 -0.10986407386E+04  0.44245258581E+03 -0.11068342782E+03  0.11895581845E+04  0.46999998093E+01 0.  1.
       -5    1    3    3    0  502  0.10986407386E+04 -0.44245258581E+03 -0.50482673083E+03  0.12874967500E+04  0.46999998093E+01 0. -1.
</event>
<event>
 5   0  0.5034479E-06  0.2398317E+04  0.7818609E-02  0.8440134E-01
       -1   -1    0    0    0  501  0.00000000000E+00  0.00000000000E+00  0.79316003268E+03  0.79316003270E+03  0.50400001928E-02 0. -1.
        1   -1    0    0  501    0  0.00000000000E+00  0.00000000000E+00 -0.18129778721E+04  0.18129778721E+04  0.50400001928E-02 0.  1.
    10030    2    1    2    0    0  0.00000000000E+00  0.00000000000E+00 -0.10198178394E+04  0.26061379048E+04  0.23983174005E+04 0.  0.
        4    1    3    3  502    0 -0.10569743876E+04 -0.51670632360E+03 -0.25786243801E+03  0.12044396750E+04  0.12699999809E+01 0.  1.
       -4    1    3    3    0  502  0.10569743876E+04  0.51670632360E+03 -0.76195540144E+03  0.14016982298E+04  0.12699999809E+01 0. -1.
</event>
<event>
 5   0  0.5196696E-06  0.2402389E+04  0.7818609E-02  0.8438610E-01
        1   -1    0    0  501    0  0.00000000000E+00  0.00000000000E+00  0.10798100996E+04  0.10798100996E+04  0.50400001928E-02 0. -1.
       -1   -1    0    0    0  501  0.00000000000E+00  0.00000000000E+00 -0.13362243311E+04  0.13362243311E+04  0.50400001928E-02 0.  1.
    10030    2    1    2    0    0  0.00000000000E+00  0.00000000000E+00 -0.25641423150E+03  0.24160344307E+04  0.24023892508E+04 0.  0.
        1    1    3    3  502    0 -0.17877029918E+03  0.82862634225E+03 -0.98409211736E+03  0.12988524668E+04  0.50400001928E-02 0.  1.
       -1    1    3    3    0  502  0.17877029918E+03 -0.82862634225E+03  0.72767788586E+03  0.11171819639E+04  0.50400001928E-02 0. -1.
</event>
<event>
 5   0  0.1198313E-05  0.2340758E+04  0.7818609E-02  0.8462022E-01
       -2   -1    0    0    0  501  0.00000000000E+00  0.00000000000E+00  0.83048965647E+03  0.83048965647E+03  0.25500000920E-02 0.  1.
        2   -1    0    0  501    0  0.00000000000E+00  0.00000000000E+00 -0.16493730957E+04  0.16493730957E+04  0.25500000920E-02 0. -1.
    10030    2    1    2    0    0  0.00000000000E+00  0.00000000000E+00 -0.81888343920E+03  0.24798627521E+04  0.23407582495E+04 0.  0.
        5    1    3    3  502    0 -0.31181306065E+03  0.92045222444E+03 -0.11003519037E+04  0.14680790456E+04  0.46999998093E+01 0. -1.
       -5    1    3    3    0  502  0.31181306065E+03 -0.92045222444E+03  0.28146846448E+03  0.10117837065E+04  0.46999998093E+01 0.  1.
</event>
<event>
 5   0  0.5034479E-06  0.2416446E+04  0.7818609E-02  0.8433372E-01
       -1   -1    0    0    0  501  0.00000000000E+00  0.00000000000E+00  0.91676001847E+03  0.91676001848E+03  0.50400001928E-02 0.  1.
        1   -1    0    0  501    0  0.00000000000E+00  0.00000000000E+00 -0.15923500756E+04  0.15923500756E+04  0.50400001928E-02 0. -1.
    10030    2    1    2    0    0  0.00000000000E+00  0.00000000000E+00 -0.67559005710E+03  0.25091100941E+04  0.24164460554E+04 0.  0.
        4    1    3    3  502    0 -0.68159469628E+03  0.65422386179E+03 -0.11198167110E+04  0.14651181763E+04  0.12699999809E+01 0. -1.
       -4    1    3    3    0  502  0.68159469628E+03 -0.65422386179E+03  0.44422665394E+03  0.10439919177E+04  0.12699999809E+01 0.  1.
</event>
<event>
 5   0  0.1198313E-05  0.2442773E+04  0.7818609E-02  0.8423661E-01
       -2   -1    0    0    0  501  0.00000000000E+00  0.00000000000E+00  0.10761906808E+04  0.10761906808E+04  0.25500000920E-02 0.  1.
        2   -1    0    0  501    0  0.00000000000E+00  0.00000000000E+00 -0.13861721275E+04  0.13861721275E+04  0.25500000920E-02 0. -1.
    10030    2    1    2    0    0  0.00000000000E+00  0.00000000000E+00 -0.30998144670E+03  0.24623628084E+04  0.24427734448E+04 0.  0.
        5    1    3    3  502    0 -0.68767715844E+03 -0.20845985463E+03 -0.11505383024E+04  0.13565087027E+04  0.46999998093E+01 0. -1.
       -5    1    3    3    0  502  0.68767715844E+03  0.20845985463E+03  0.84055685573E+03  0.11058541056E+04  0.46999998093E+01 0.  1.
</event>
<event>
 5   0  0.1174210E-05  0.2360706E+04  0.7818609E-02  0.8454363E-01
       -2   -1    0    0    0  501  0.00000000000E+00  0.00000000000E+00  0.85555220244E+03  0.85555220244E+03  0.25500000920E-02 0. -1.
        2   -1    0    0  501    0  0.00000000000E+00  0.00000000000E+00 -0.16284604370E+04  0.16284604370E+04  0.25500000920E-02 0.  1.
    10030    2    1    2    0    0  0.00000000000E+00  0.00000000000E+00 -0.77290823460E+03  0.24840126395E+04  0.23607057534E+04 0.  0.
        3    1    3    3  502    0 -0.41556496895E+03  0.22963025275E+03 -0.15235518112E+04  0.15958177928E+04  0.10100000352E+00 0.  1.
       -3    1    3    3    0  502  0.41556496895E+03 -0.22963025275E+03  0.75064357656E+03  0.88819484666E+03  0.10100000352E+00 0. -1.
</event>
<event>
 5   0  0.1174210E-05  0.2395697E+04  0.7818609E-02  0.8441116E-01
        2   -1    0    0  501    0  0.00000000000E+00  0.00000000000E+00  0.21611215759E+04  0.21611215759E+04  0.25500000920E-02 0.  1.
       -2   -1    0    0    0  501  0.00000000000E+00  0.00000000000E+00 -0.66393344384E+03  0.66393344384E+03  0.25500000920E-02 0. -1.
    10030    2    1    2    0    0  0.00000000000E+00  0.00000000000E+00  0.14971881320E+04  0.28250550197E+04  0.23956968844E+04 0.  0.
        3    1    3    3  502    0 -0.88830297567E+02 -0.87158240810E+03  0.17118766442E+04  0.19230362376E+04  0.10100000352E+00 0. -1.
       -3    1    3    3    0  502  0.88830297567E+02  0.87158240810E+03 -0.21468851217E+03  0.90201878214E+03  0.10100000352E+00 0.  1.
</event>
<event>
 5   0  0.5042742E-06  0.2402562E+04  0.7818609E-02  0.8438545E-01
        1   -1    0    0  501    0  0.00000000000E+00  0.00000000000E+00  0.18242855938E+04  0.18242855938E+04  0.50400001928E-02 0.  1.
       -1   -1    0    0    0  501  0.00000000000E+00  0.00000000000E+00 -0.79103611703E+03  0.79103611705E+03  0.50400001928E-02 0. -1.
    10030    2    1    2    0    0  0.00000000000E+00  0.00000000000E+00  0.10332494767E+04  0.26153217108E+04  0.24025617932E+04 0.  0.
        5    1    3    3  502    0  0.73009184529E+03 -0.47602485073E+03  0.14165249959E+04  0.16631893804E+04  0.46999998093E+01 0.  1.
       -5    1    3    3    0  502 -0.73009184529E+03  0.47602485073E+03 -0.38327551916E+03  0.95213233043E+03  0.46999998093E+01 0. -1.
</event>
<event>
 5   0  0.1198313E-05  0.2403915E+04  0.7818609E-02  0.8438039E-01
        2   -1    0    0  501    0  0.00000000000E+00  0.00000000000E+00  0.15253312807E+04  0.15253312807E+04  0.25500000920E-02 0. -1.
       -2   -1    0    0    0  501  0.00000000000E+00  0.00000000000E+00 -0.94713964685E+03  0.94713964685E+03  0.25500000920E-02 0.  1.
    10030    2    1    2    0    0  0.00000000000E+00  0.00000000000E+00  0.57819163382E+03  0.24724709275E+04  0.24039149157E+04 0.  0.
        5    1    3    3  502    0  0.11356764572E+04 -0.32444880896E+02  0.69253991763E+03  0.13305815696E+04  0.46999998093E+01 0. -1.
       -5    1    3    3    0  502 -0.11356764572E+04  0.32444880896E+02 -0.11434828381E+03  0.11418893580E+04  0.46999998093E+01 0.  1.
</event>
<event>
 5   0  0.1174210E-05  0.2407125E+04  0.7818609E-02  0.8436841E-01
       -2   -1    0    0    0  501  0.00000000000E+00  0.00000000000E+00  0.11978993479E+04  0.11978993479E+04  0.25500000920E-02 0. -1.
        2   -1    0    0  501    0  0.00000000000E+00  0.00000000000E+00 -0.12092528120E+04  0.12092528120E+04  0.25500000920E-02 0.  1.
    10030    2    1    2    0    0  0.00000000000E+00  0.00000000000E+00 -0.11353464021E+02  0.24071521599E+04  0.24071253851E+04 0.  0.
        3    1    3    3  502    0  0.98869569130E+03 -0.59737117740E+03 -0.34360304277E+03  0.12051699278E+04  0.10100000352E+00 0. -1.
       -3    1    3    3    0  502 -0.98869569130E+03  0.59737117740E+03  0.33224957875E+03  0.12019822321E+04  0.10100000352E+00 0.  1.
</event>
<event>
 5   0  0.5104174E-06  0.2409311E+04  0.7818609E-02  0.8436026E-01
        1   -1    0    0  501    0  0.00000000000E+00  0.00000000000E+00  0.16217644004E+04  0.16217644004E+04  0.50400001928E-02 0. -1.
       -1   -1    0    0    0  501  0.00000000000E+00  0.00000000000E+00 -0.89482441086E+03  0.89482441088E+03  0.50400001928E-02 0.  1.
    10030    2    1    2    0    0  0.00000000000E+00  0.00000000000E+00  0.72693998955E+03  0.25165888113E+04  0.24093105854E+04 0.  0.
        3    1    3    3  502    0  0.32479585746E+03 -0.21576479543E+03  0.15540229435E+04  0.16021966531E+04  0.10100000352E+00 0. -1.
       -3    1    3    3    0  502 -0.32479585746E+03  0.21576479543E+03 -0.82708295399E+03  0.91439215819E+03  0.10100000352E+00 0.  1.
</event>
<event>
 5   0  0.5104174E-06  0.2406658E+04  0.7818609E-02  0.8437015E-01
       -1   -1    0    0    0  501  0.00000000000E+00  0.00000000000E+00  0.73719412744E+03  0.73719412746E+03  0.50400001928E-02 0. -1.
        1   -1    0    0  501    0  0.00000000000E+00  0.00000000000E+00 -0.19642059422E+04  0.19642059422E+04  0.50400001928E-02 0.  1.
    10030    2    1    2    0    0  0.00000000000E+00  0.00000000000E+00 -0.12270118147E+04  0.27014000696E+04  0.24066583353E+04 0.  0.
        3    1    3    3  502    0  0.28318196325E+03 -0.10098164276E+04  0.48731789630E+02  0.10499028713E+04  0.10100000352E+00 0. -1.
       -3    1    3    3    0  502 -0.28318196325E+03  0.10098164276E+04 -0.12757436044E+04  0.16514971983E+04  0.10100000352E+00 0.  1.
</event>
<event>
 5   0  0.5034479E-06  0.2428056E+04  0.7818609E-02  0.8429074E-01
        1   -1    0    0  501    0  0.00000000000E+00  0.00000000000E+00  0.13347851067E+04  0.13347851067E+04  0.50400001928E-02 0. -1.
       -1   -1    0    0    0  501  0.00000000000E+00  0.00000000000E+00 -0.11041957729E+04  0.11041957729E+04  0.50400001928E-02 0.  1.
    10030    2    1    2    0    0  0.00000000000E+00  0.00000000000E+00  0.23058933375E+03  0.24389808796E+04  0.24280560723E+04 0.  0.
        4    1    3    3  502    0  0.62334469302E+03  0.10415643258E+04  0.94042715228E+02  0.12174812099E+04  0.12699999809E+01 0. -1.
       -4    1    3    3    0  502 -0.62334469302E+03 -0.10415643258E+04  0.13654661852E+03  0.12214996697E+04  0.12699999809E+01 0.  1.
</event>
<event>
 5   0  0.1168435E-05  0.2400144E+04  0.7818609E-02  0.8439450E-01
       -2   -1    0    0    0  501  0.00000000000E+00  0.00000000000E+00  0.10405838740E+04  0.10405838740E+04  0.25500000920E-02 0.  1.
        2   -1    0    0  501    0  0.00000000000E+00  0.00000000000E+00 -0.13840040741E+04  0.13840040741E+04  0.25500000920E-02 0. -1.
    10030    2    1    2    0    0  0.00000000000E+00  0.00000000000E+00 -0.34342020010E+03  0.24245879481E+04  0.24001435966E+04 0.  0.
        1    1    3    3  502    0  0.12876178356E+03 -0.11827268122E+04 -0.12786490071E+02  0.11897839315E+04  0.50400001928E-02 0.  1.
       -1    1    3    3    0  502 -0.12876178356E+03  0.11827268122E+04 -0.33063371003E+03  0.12348040166E+04  0.50400001928E-02 0. -1.
</event>
<event>
 5   0  0.1198313E-05  0.2396423E+04  0.7818609E-02  0.8440844E-01
        2   -1    0    0  501    0  0.00000000000E+00  0.00000000000E+00  0.19261743868E+04  0.19261743868E+04  0.25500000920E-02 0. -1.
       -2   -1    0    0    0  501  0.00000000000E+00  0.00000000000E+00 -0.74536937054E+03  0.74536937054E+03  0.25500000920E-02 0.  1.
    10030    2    1    2    0    0  0.00000000000E+00  0.00000000000E+00  0.11808050163E+04  0.26715437574E+04  0.23964234937E+04 0.  0.
        5    1    3    3  502    0 -0.87750248420E+03 -0.31469155012E+03  0.14295829863E+04  0.17066842081E+04  0.46999998093E+01 0. -1.
       -5    1    3    3    0  502  0.87750248420E+03  0.31469155012E+03 -0.24877796998E+03  0.96485954928E+03  0.46999998093E+01 0.  1.
</event>
<event>
 5   0  0.1169371E-05  0.2403575E+04  0.7818609E-02  0.8438166E-01
       -2   -1    0    0    0  501  0.00000000000E+00  0.00000000000E+00  0.15387309820E+04  0.15387309820E+04  0.25500000920E-02 0. -1.
        2   -1    0    0  501    0  0.00000000000E+00  0.00000000000E+00 -0.93862627852E+03  0.93862627852E+03  0.25500000920E-02 0.  1.
    10030    2    1    2    0    0  0.00000000000E+00  0.00000000000E+00  0.60010470349E+03  0.24773572605E+04  0.24035751166E+04 0.  0.
        2    1    3    3  502    0  0.66605633381E+03  0.99871397729E+03  0.24145030670E+03  0.12244831150E+04  0.25500000920E-02 0.  1.
       -2    1    3    3    0  502 -0.66605633381E+03 -0.99871397729E+03  0.35865439679E+03  0.12528741455E+04  0.25500000920E-02 0. -1.
</event>
<event>
 5   0  0.1174210E-05  0.2392222E+04  0.7818609E-02  0.8442421E-01
        2   -1    0    0  501    0  0.00000000000E+00  0.00000000000E+00  0.13886882441E+04  0.13886882441E+04  0.25500000920E-02 0.  1.
       -2   -1    0    0    0  501  0.00000000000E+00  0.00000000000E+00 -0.10302396176E+04  0.10302396176E+04  0.25500000920E-02 0. -1.
    10030    2    1    2    0    0  0.00000000000E+00  0.00000000000E+00  0.35844862647E+03  0.24189278617E+04  0.23922221014E+04 0.  0.
        3    1    3    3  502    0  0.44320895953E+03 -0.25074256780E+03  0.12736077424E+04  0.13716350494E+04  0.10100000352E+00 0.  1.
       -3    1    3    3    0  502 -0.44320895953E+03  0.25074256780E+03 -0.91515911589E+03  0.10472928123E+04  0.10100000352E+00 0. -1.
</event>
<event>
 5   0  0.5064437E-06  0.2399831E+04  0.7818609E-02  0.8439567E-01
       -1   -1    0    0    0  501  0.00000000000E+00  0.00000000000E+00  0.12004261621E+04  0.12004261621E+04  0.50400001928E-02 0. -1.
        1   -1    0    0  501    0  0.00000000000E+00  0.00000000000E+00 -0.11994050096E+04  0.11994050097E+04  0.50400001928E-02 0.  1.
    10030    2    1    2    0    0  0.00000000000E+00  0.00000000000E+00  0.10211524108E+01  0.23998311717E+04  0.23998309545E+04 0.  0.
        2    1    3    3  502    0  0.93699853211E+03  0.74955043598E+03  0.27571820941E+01  0.11999165418E+04  0.25500000920E-02 0. -1.
       -2    1    3    3    0  502 -0.93699853211E+03 -0.74955043598E+03 -0.17360296833E+01  0.11999146299E+04  0.25500000920E-02 0.  1.
</event>
<event>
 5   0  0.5196696E-06  0.2406319E+04  0.7818609E-02  0.8437141E-01
        1   -1    0    0  501    0  0.00000000000E+00  0.00000000000E+00  0.87255834999E+03  0.87255835000E+03  0.50400001928E-02 0.  1.
       -1   -1    0    0    0  501  0.00000000000E+00  0.00000000000E+00 -0.16590217063E+04  0.16590217063E+04  0.50400001928E-02 0. -1.
    10030    2    1    2    0    0  0.00000000000E+00  0.00000000000E+00 -0.78646335634E+03  0.25315800563E+04  0.24063193825E+04 0.  0.
        1    1    3    3  502    0 -0.76317531152E+03 -0.35800960800E+03 -0.12963984653E+04  0.15463687841E+04  0.50400001928E-02 0. -1.
       -1    1    3    3    0  502  0.76317531152E+03  0.35800960800E+03  0.50993510899E+03  0.98521127223E+03  0.50400001928E-02 0.  1.
</event>
<event>
 5   0  0.1174210E-05  0.2387295E+04  0.7818609E-02  0.8444276E-01
       -2   -1    0    0    0  501  0.00000000000E+00  0.00000000000E+00  0.11378105278E+04  0.11378105279E+04  0.25500000920E-02 0.  1.
        2   -1    0    0  501    0  0.00000000000E+00  0.00000000000E+00 -0.12522243810E+04  0.12522243810E+04  0.25500000920E-02 0. -1.
    10030    2    1    2    0    0  0.00000000000E+00  0.00000000000E+00 -0.11441385315E+03  0.23900349089E+04  0.23872947735E+04 0.  0.
        3    1    3    3  502    0  0.64477157969E+03  0.75750242490E+03 -0.71770181786E+03  0.12266361413E+04  0.10100000352E+00 0. -1.
       -3    1    3    3    0  502 -0.64477157969E+03 -0.75750242490E+03  0.60328796470E+03  0.11633987675E+04  0.10100000352E+00 0.  1.
</event>
<event>
 5   0  0.1198313E-05  0.2401813E+04  0.7818609E-02  0.8438825E-01
        2   -1    0    0  501    0  0.00000000000E+00  0.00000000000E+00  0.22150440612E+04  0.22150440612E+04  0.25500000920E-02 0. -1.
       -2   -1    0    0    0  501  0.00000000000E+00  0.00000000000E+00 -0.65108257794E+03  0.65108257794E+03  0.25500000920E-02 0.  1.
    10030    2    1    2    0    0  0.00000000000E+00  0.00000000000E+00  0.15639614833E+04  0.28661266391E+04  0.24018131465E+04 0.  0.
        5    1    3    3  502    0 -0.15857432261E+03  0.10897557348E+04  0.13535801819E+04  0.17449684169E+04  0.46999998093E+01 0.  1.
       -5    1    3    3    0  502  0.15857432261E+03 -0.10897557348E+04  0.21038130140E+03  0.11211582222E+04  0.46999998093E+01 0. -1.
</event>
<event>
 5   0  0.5104174E-06  0.2400663E+04  0.7818609E-02  0.8439255E-01
       -1   -1    0    0    0  501  0.00000000000E+00  0.00000000000E+00  0.75746477805E+03  0.75746477806E+03  0.50400001928E-02 0. -1.
        1   -1    0    0  501    0  0.00000000000E+00  0.00000000000E+00 -0.19021292252E+04  0.19021292253E+04  0.50400001928E-02 0.  1.
    10030    2    1    2    0    0  0.00000000000E+00  0.00000000000E+00 -0.11446644472E+04  0.26595940033E+04  0.24006631513E+04 0.  0.
        3    1    3    3  502    0  0.89561234370E+02  0.34695628506E+03  0.69682833798E+03  0.78356213618E+03  0.10100000352E+00 0. -1.
       -3    1    3    3    0  502 -0.89561234370E+02 -0.34695628506E+03 -0.18414927852E+04  0.18760318671E+04  0.10100000352E+00 0.  1.
</event>
<event>
 5   0  0.5064437E-06  0.2402750E+04  0.7818609E-02  0.8438475E-01
        1   -1    0    0  501    0  0.00000000000E+00  0.00000000000E+00  0.15013230932E+04  0.15013230932E+04  0.50400001928E-02 0. -1.
       -1   -1    0    0    0  501  0.00000000000E+00  0.00000000000E+00 -0.96135304135E+03  0.96135304136E+03  0.50400001928E-02 0.  1.
    10030    2    1    2    0    0  0.00000000000E+00  0.00000000000E+00  0.53997005188E+03  0.24626761346E+04  0.24027496930E+04 0.  0.
        2    1    3    3  502    0  0.51227428189E+03  0.54295768827E+03  0.12347769354E+04  0.14428797841E+04  0.25500000920E-02 0. -1.
       -2    1    3    3    0  502 -0.51227428189E+03 -0.54295768827E+03 -0.69480688351E+03  0.10197963505E+04  0.25500000920E-02 0.  1.
</event>
<event>
 5   0  0.5064437E-06  0.2401336E+04  0.7818609E-02  0.8439004E-01
        1   -1    0    0  501    0  0.00000000000E+00  0.00000000000E+00  0.16319315055E+04  0.16319315056E+04  0.50400001928E-02 0.  1.
       -1   -1    0    0    0  501  0.00000000000E+00  0.00000000000E+00 -0.88337274684E+03  0.88337274685E+03  0.50400001928E-02 0. -1.
    10030    2    1    2    0    0  0.00000000000E+00  0.00000000000E+00  0.74855875870E+03  0.25153042524E+04  0.24013361420E+04 0.  0.
        2    1    3    3  502    0  0.17170006562E+03 -0.17492284714E+03  0.16054462663E+04  0.16240494540E+04  0.25500000920E-02 0.  1.
       -2    1    3    3    0  502 -0.17170006562E+03  0.17492284714E+03 -0.85688750761E+03  0.89125479841E+03  0.25500000920E-02 0. -1.
</event>
<event>
 5   0  0.1154897E-05  0.2420347E+04  0.7818609E-02  0.8431925E-01
       -2   -1    0    0    0  501  0.00000000000E+00  0.00000000000E+00  0.26409763713E+04  0.26409763713E+04  0.25500000920E-02 0. -1.
        2   -1    0    0  501    0  0.00000000000E+00  0.00000000000E+00 -0.55453725870E+03  0.55453725871E+03  0.25500000920E-02 0.  1.
    10030    2    1    2    0    0  0.00000000000E+00  0.00000000000E+00  0.20864391126E+04  0.31955136301E+04  0.24203469150E+04 0.  0.
        4    1    3    3  502    0 -0.46297936222E+03  0.38314776248E+03  0.24300484166E+04  0.25032556836E+04  0.12699999809E+01 0. -1.
       -4    1    3    3    0  502  0.46297936222E+03 -0.38314776248E+03 -0.34360930395E+03  0.69225794643E+03  0.12699999809E+01 0.  1.
</event>
<event>
 5   0  0.5042742E-06  0.2430069E+04  0.7818609E-02  0.8428331E-01
        1   -1    0    0  501    0  0.00000000000E+00  0.00000000000E+00  0.15687315447E+04  0.15687315447E+04  0.50400001928E-02 0. -1.
       -1   -1    0    0    0  501  0.00000000000E+00  0.00000000000E+00 -0.94108440766E+03  0.94108440767E+03  0.50400001928E-02 0.  1.
    10030    2    1    2    0    0  0.00000000000E+00  0.00000000000E+00  0.62764713700E+03  0.25098159523E+04  0.24300689673E+04 0.  0.
        5    1    3    3  502    0  0.36858667574E+03  0.50082115216E+03  0.13919223756E+04  0.15245156456E+04  0.46999998093E+01 0. -1.
       -5    1    3    3    0  502 -0.36858667574E+03 -0.50082115216E+03 -0.76427523865E+03  0.98530030670E+03  0.46999998093E+01 0.  1.
</event>
<event>
 5   0  0.1198313E-05  0.2391631E+04  0.7818609E-02  0.8442643E-01
        2   -1    0    0  501    0  0.00000000000E+00  0.00000000000E+00  0.11389160544E+04  0.11389160544E+04  0.25500000920E-02 0. -1.
       -2   -1    0    0    0  501  0.00000000000E+00  0.00000000000E+00 -0.12555574158E+04  0.12555574158E+04  0.25500000920E-02 0.  1.
    10030    2    1    2    0    0  0.00000000000E+00  0.00000000000E+00 -0.11664136134E+03  0.23944734702E+04  0.23916308228E+04 0.  0.
        5    1    3    3  502    0  0.45053346421E+03 -0.48814884941E+03 -0.10538277689E+04  0.12457306121E+04  0.46999998093E+01 0.  1.
       -5    1    3    3    0  502 -0.45053346421E+03  0.48814884941E+03  0.93718640753E+03  0.11487428581E+04  0.46999998093E+01 0. -1.
</event>
<event>
 5   0  0.5064437E-06  0.2403021E+04  0.7818609E-02  0.8438373E-01
       -1   -1    0    0    0  501  0.00000000000E+00  0.00000000000E+00  0.13448548875E+04  0.13448548876E+04  0.50400001928E-02 0.  1.
        1   -1    0    0  501    0  0.00000000000E+00  0.00000000000E+00 -0.10734446156E+04  0.10734446156E+04  0.50400001928E-02 0. -1.
    10030    2    1    2    0    0  0.00000000000E+00  0.00000000000E+00  0.27141027193E+03  0.24182995032E+04  0.24030207971E+04 0.  0.
        2    1    3    3  502    0 -0.89535790396E+02 -0.27956629474E+03  0.13082109387E+04  0.13407422687E+04  0.25500000920E-02 0.  1.
       -2    1    3    3    0  502  0.89535790396E+02  0.27956629474E+03 -0.10368006668E+04  0.10775572345E+04  0.25500000920E-02 0. -1.
</event>
<event>
 5   0  0.1168435E-05  0.2406071E+04  0.7818609E-02  0.8437234E-01
        2   -1    0    0  501    0  0.00000000000E+00  0.00000000000E+00  0.80950351309E+03  0.80950351309E+03  0.25500000920E-02 0.  1.
       -2   -1    0    0    0  501  0.00000000000E+00  0.00000000000E+00 -0.17878787970E+04  0.17878787970E+04  0.25500000920E-02 0. -1.
    10030    2    1    2    0    0  0.00000000000E+00  0.00000000000E+00 -0.97837528395E+03  0.25973823101E+04  0.24060707946E+04 0.  0.
        1    1    3    3  502    0  0.31234975417E+03 -0.10582388154E+04  0.28373249978E+02  0.11037376503E+04  0.50400001928E-02 0. -1.
       -1    1    3    3    0  502 -0.31234975417E+03  0.10582388154E+04 -0.10067485339E+04  0.14936446598E+04  0.50400001928E-02 0.  1.
</event>
<event>
 5   0  0.5042742E-06  0.2402929E+04  0.7818609E-02  0.8438408E-01
        1   -1    0    0  501    0  0.00000000000E+00  0.00000000000E+00  0.28270885858E+04  0.28270885858E+04  0.50400001928E-02 0. -1.
       -1   -1    0    0    0  501  0.00000000000E+00  0.00000000000E+00 -0.51060192045E+03  0.51060192048E+03  0.50400001928E-02 0.  1.
    10030    2    1    2    0    0  0.00000000000E+00  0.00000000000E+00  0.23164866653E+04  0.33376905062E+04  0.24029289305E+04 0.  0.
        5    1    3    3  502    0 -0.11379301935E+04 -0.41483372201E+01  0.16936743058E+04  0.20404551154E+04  0.46999998093E+01 0. -1.
       -5    1    3    3    0  502  0.11379301935E+04  0.41483372201E+01  0.62281235949E+03  0.12972353908E+04  0.46999998093E+01 0.  1.
</event>
<event>
 5   0  0.5064437E-06  0.2396299E+04  0.7818609E-02  0.8440890E-01
        1   -1    0    0  501    0  0.00000000000E+00  0.00000000000E+00  0.83506637203E+03  0.83506637204E+03  0.50400001928E-02 0. -1.
       -1   -1    0    0    0  501  0.00000000000E+00  0.00000000000E+00 -0.17191000951E+04  0.17191000951E+04  0.50400001928E-02 0.  1.
    10030    2    1    2    0    0  0.00000000000E+00  0.00000000000E+00 -0.88403372303E+03  0.25541664671E+04  0.23962993799E+04 0.  0.
        2    1    3    3  502    0  0.99799731688E+03  0.55872594869E+03 -0.82244679660E+03  0.14087555017E+04  0.25500000920E-02 0.  1.
       -2    1    3    3    0  502 -0.99799731688E+03 -0.55872594869E+03 -0.61586926431E+02  0.11454109654E+04  0.25500000920E-02 0. -1.
</event>
<event>
 5   0  0.1169371E-05  0.2389997E+04  0.7818609E-02  0.8443258E-01
        2   -1    0    0  501    0  0.00000000000E+00  0.00000000000E+00  0.14508262696E+04  0.14508262696E+04  0.25500000920E-02 0. -1.
       -2   -1    0    0    0  501  0.00000000000E+00  0.00000000000E+00 -0.98428131599E+03  0.98428131599E+03  0.25500000920E-02 0.  1.
    10030    2    1    2    0    0  0.00000000000E+00  0.00000000000E+00  0.46654495364E+03  0.24351075856E+04  0.23899968117E+04 0.  0.
        2    1    3    3  502    0  0.21855698399E+02 -0.10323779525E+04  0.84607235157E+03  0.13349607981E+04  0.25500000920E-02 0. -1.
       -2    1    3    3    0  502 -0.21855698399E+02  0.10323779525E+04 -0.37952739793E+03  0.11001467875E+04  0.25500000920E-02 0.  1.
</event>
<event>
 5   0  0.1169371E-05  0.2420456E+04  0.7818609E-02  0.8431885E-01
       -2   -1    0    0    0  501  0.00000000000E+00  0.00000000000E+00  0.23976173718E+04  0.23976173718E+04  0.25500000920E-02 0.  1.
        2   -1    0    0  501    0  0.00000000000E+00  0.00000000000E+00 -0.61087780302E+03  0.61087780303E+03  0.25500000920E-02 0. -1.
    10030    2    1    2    0    0  0.00000000000E+00  0.00000000000E+00  0.17867395688E+04  0.30084951749E+04  0.24204555213E+04 0.  0.
        2    1    3    3  502    0 -0.13179048508E+03 -0.46019444588E+02 -0.60083762981E+03  0.61684064283E+03  0.25500000920E-02 0. -1.
       -2    1    3    3    0  502  0.13179048508E+03  0.46019444588E+02  0.23875771986E+04  0.23916545320E+04  0.25500000920E-02 0.  1.
</event>
<event>
 5   0  0.1154897E-05  0.2409138E+04  0.7818609E-02  0.8436090E-01
       -2   -1    0    0    0  501  0.00000000000E+00  0.00000000000E+00  0.11922424104E+04  0.11922424104E+04  0.25500000920E-02 0.  1.
        2   -1    0    0  501    0  0.00000000000E+00  0.00000000000E+00 -0.12170234861E+04  0.12170234861E+04  0.25500000920E-02 0. -1.
    10030    2    1    2    0    0  0.00000000000E+00  0.00000000000E+00 -0.24781075707E+02  0.24092658965E+04  0.24091384473E+04 0.  0.
        4    1    3    3  502    0 -0.13104608339E+03 -0.50829129937E+02 -0.12087935469E+04  0.12169388351E+04  0.12699999809E+01 0. -1.
       -4    1    3    3    0  502  0.13104608339E+03  0.50829129937E+02  0.11840124712E+04  0.11923270614E+04  0.12699999809E+01 0.  1.
</event>
<event>
 5   0  0.1169371E-05  0.2400244E+04  0.7818609E-02  0.8439412E-01
       -2   -1    0    0    0  501  0.00000000000E+00  0.00000000000E+00  0.14178889188E+04  0.14178889188E+04  0.25500000920E-02 0.  1.
        2   -1    0    0  501    0  0.00000000000E+00  0.00000000000E+00 -0.10158005607E+04  0.10158005607E+04  0.25500000920E-02 0. -1.
    10030    2    1    2    0    0  0.00000000000E+00  0.00000000000E+00  0.40208835814E+03  0.24336894795E+04  0.24002436200E+04 0.  0.
        2    1    3    3  502    0  0.10539489826E+04  0.55282473082E+03  0.44396347829E+02  0.11909637596E+04  0.25500000920E-02 0. -1.
       -2    1    3    3    0  502 -0.10539489826E+04 -0.55282473082E+03  0.35769201031E+03  0.12427257200E+04  0.25500000920E-02 0.  1.
</event>
<event>
 5   0  0.1169371E-05  0.2404302E+04  0.7818609E-02  0.8437895E-01
       -2   -1    0    0    0  501  0.00000000000E+00  0.00000000000E+00  0.85675795748E+03  0.85675795748E+03  0.25500000920E-02 0.  1.
        2   -1    0    0  501    0  0.00000000000E+00  0.00000000000E+00 -0.16867853790E+04  0.16867853790E+04  0.25500000920E-02 0. -1.
    10030    2    1    2    0    0  0.00000000000E+00  0.00000000000E+00 -0.83002742151E+03  0.25435433365E+04  0.24043018080E+04 0.  0.
        2    1    3    3  502    0 -0.11351976038E+03  0.90252483023E+03  0.41646120226E+03  0.10004387728E+04  0.25500000920E-02 0.  1.
       -2    1    3    3    0  502  0.11351976038E+03 -0.90252483023E+03 -0.12464886238E+04  0.15431045637E+04  0.25500000920E-02 0. -1.
</event>
<event>
 5   0  0.1174210E-05  0.2397217E+04  0.7818609E-02  0.8440546E-01
        2   -1    0    0  501    0  0.00000000000E+00  0.00000000000E+00  0.10666015275E+04  0.10666015275E+04  0.25500000920E-02 0. -1.
       -2   -1    0    0    0  501  0.00000000000E+00  0.00000000000E+00 -0.13469533220E+04  0.13469533220E+04  0.25500000920E-02 0.  1.
    10030    2    1    2    0    0  0.00000000000E+00  0.00000000000E+00 -0.28035179450E+03  0.24135548495E+04  0.23972171122E+04 0.  0.
        3    1    3    3  502    0 -0.38750315285E+03  0.10482669267E+04  0.29595089522E+03  0.11561181539E+04  0.10100000352E+00 0. -1.
       -3    1    3    3    0  502  0.38750315285E+03 -0.10482669267E+04 -0.57630268972E+03  0.12574366956E+04  0.10100000352E+00 0.  1.
</event>
<event>
 5   0  0.5034479E-06  0.2408557E+04  0.7818609E-02  0.8436307E-01
        1   -1    0    0  501    0  0.00000000000E+00  0.00000000000E+00  0.15204183724E+04  0.15204183724E+04  0.50400001928E-02 0. -1.
       -1   -1    0    0    0  501  0.00000000000E+00  0.00000000000E+00 -0.95387309271E+03  0.95387309272E+03  0.50400001928E-02 0.  1.
    10030    2    1    2    0    0  0.00000000000E+00  0.00000000000E+00  0.56654527971E+03  0.24742914652E+04  0.24085565596E+04 0.  0.
        4    1    3    3  502    0 -0.34561637375E+03 -0.10385234301E+04 -0.23273387994E+03  0.11189943093E+04  0.12699999809E+01 0.  1.
       -4    1    3    3    0  502  0.34561637375E+03  0.10385234301E+04  0.79927915965E+03  0.13552971558E+04  0.12699999809E+01 0. -1.
</event>
<event>
 5   0  0.5196696E-06  0.2398068E+04  0.7818609E-02  0.8440227E-01
        1   -1    0    0  501    0  0.00000000000E+00  0.00000000000E+00  0.15995101141E+04  0.15995101141E+04  0.50400001928E-02 0.  1.
       -1   -1    0    0    0  501  0.00000000000E+00  0.00000000000E+00 -0.89882691604E+03  0.89882691605E+03  0.50400001928E-02 0. -1.
    10030    2    1    2    0    0  0.00000000000E+00  0.00000000000E+00  0.70068319809E+03  0.24983370302E+04  0.23980681751E+04 0.  0.
        1    1    3    3  502    0  0.79410420578E+02  0.68427822956E+03  0.13727730889E+04  0.15359194848E+04  0.50400001928E-02 0.  1.
       -1    1    3    3    0  502 -0.79410420578E+02 -0.68427822956E+03 -0.67208989077E+03  0.96241754537E+03  0.50400001928E-02 0. -1.
</event>
<event>
 5   0  0.5104174E-06  0.2401275E+04  0.7818609E-02  0.8439026E-01
        1   -1    0    0  501    0  0.00000000000E+00  0.00000000000E+00  0.10994534557E+04  0.10994534557E+04  0.50400001928E-02 0. -1.
       -1   -1    0    0    0  501  0.00000000000E+00  0.00000000000E+00 -0.13111333165E+04  0.13111333165E+04  0.50400001928E-02 0.  1.
    10030    2    1    2    0    0  0.00000000000E+00  0.00000000000E+00 -0.21167986082E+03  0.24105867723E+04  0.24012747080E+04 0.  0.
        3    1    3    3  502    0 -0.97695931695E+03 -0.32620948356E+03 -0.72521548001E+03  0.12596823555E+04  0.10100000352E+00 0.  1.
       -3    1    3    3    0  502  0.97695931695E+03  0.32620948356E+03  0.51353561919E+03  0.11509044168E+04  0.10100000352E+00 0. -1.
</event>
<event>
 5   0  0.5064437E-06  0.2419304E+04  0.7818609E-02  0.8432312E-01
        1   -1    0    0  501    0  0.00000000000E+00  0.00000000000E+00  0.10262877438E+04  0.10262877438E+04  0.50400001928E-02 0.  1.
       -1   -1    0    0    0  501  0.00000000000E+00  0.00000000000E+00 -0.14257773695E+04  0.14257773696E+04  0.50400001928E-02 0. -1.
    10030    2    1    2    0    0  0.00000000000E+00  0.00000000000E+00 -0.39948962577E+03  0.24520651133E+04  0.24193038997E+04 0.  0.
        2    1    3    3  502    0 -0.30079229960E+03 -0.62086655575E+03 -0.12068331873E+04  0.13901070568E+04  0.25500000920E-02 0. -1.
       -2    1    3    3    0  502  0.30079229960E+03  0.62086655575E+03  0.80734356149E+03  0.10619580565E+04  0.25500000920E-02 0.  1.
</event>
<event>
 5   0  0.5104174E-06  0.2398757E+04  0.7818609E-02  0.8439969E-01
       -1   -1    0    0    0  501  0.00000000000E+00  0.00000000000E+00  0.72395222521E+03  0.72395222523E+03  0.50400001928E-02 0. -1.
        1   -1    0    0  501    0  0.00000000000E+00  0.00000000000E+00 -0.19870215323E+04  0.19870215323E+04  0.50400001928E-02 0.  1.
    10030    2    1    2    0    0  0.00000000000E+00  0.00000000000E+00 -0.12630693070E+04  0.27109737575E+04  0.23987568946E+04 0.  0.
        3    1    3    3  502    0 -0.11278766134E+04  0.12177002713E+03 -0.10715349253E+04  0.15604873281E+04  0.10100000352E+00 0.  1.
       -3    1    3    3    0  502  0.11278766134E+04 -0.12177002713E+03 -0.19153438170E+03  0.11504864294E+04  0.10100000352E+00 0. -1.
</event>
<event>
 5   0  0.1154897E-05  0.2289945E+04  0.7818609E-02  0.8481896E-01
        2   -1    0    0  501    0  0.00000000000E+00  0.00000000000E+00  0.69587392362E+03  0.69587392362E+03  0.25500000920E-02 0.  1.
       -2   -1    0    0    0  501  0.00000000000E+00  0.00000000000E+00 -0.18839069655E+04  0.18839069655E+04  0.25500000920E-02 0. -1.
    10030    2    1    2    0    0  0.00000000000E+00  0.00000000000E+00 -0.11880330419E+04  0.25797808891E+04  0.22899447433E+04 0.  0.
        4    1    3    3  502    0 -0.45789286671E+03  0.63568479136E+03 -0.15346842027E+04  0.17230839348E+04  0.12699999809E+01 0. -1.
       -4    1    3    3    0  502  0.45789286671E+03 -0.63568479136E+03  0.34665116084E+03  0.85669695433E+03  0.12699999809E+01 0.  1.
</event>
<event>
 5   0  0.1154897E-05  0.2401714E+04  0.7818609E-02  0.8438862E-01
        2   -1    0    0  501    0  0.00000000000E+00  0.00000000000E+00  0.20500382970E+04  0.20500382970E+04  0.25500000920E-02 0.  1.
       -2   -1    0    0    0  501  0.00000000000E+00  0.00000000000E+00 -0.70342928978E+03  0.70342928978E+03  0.25500000920E-02 0. -1.
    10030    2    1    2    0    0  0.00000000000E+00  0.00000000000E+00  0.13466090072E+04  0.27534675867E+04  0.24017135410E+04 0.  0.
        4    1    3    3  502    0  0.10012753128E+04 -0.55625532130E+03  0.10867985498E+04  0.15789569137E+04  0.12699999809E+01 0. -1.
       -4    1    3    3    0  502 -0.10012753128E+04  0.55625532130E+03  0.25981045736E+03  0.11745106731E+04  0.12699999809E+01 0.  1.
</event>
<event>
 5   0  0.1169371E-05  0.2401092E+04  0.7818609E-02  0.8439095E-01
       -2   -1    0    0    0  501  0.00000000000E+00  0.00000000000E+00  0.11505294117E+04  0.11505294117E+04  0.25500000920E-02 0.  1.
        2   -1    0    0  501    0  0.00000000000E+00  0.00000000000E+00 -0.12527373002E+04  0.12527373002E+04  0.25500000920E-02 0. -1.
    10030    2    1    2    0    0  0.00000000000E+00  0.00000000000E+00 -0.10220788849E+03  0.24032667120E+04  0.24010923423E+04 0.  0.
        2    1    3    3  502    0 -0.10574476343E+02 -0.72834030127E+03 -0.10062844990E+04  0.12422559748E+04  0.25500000920E-02 0. -1.
       -2    1    3    3    0  502  0.10574476343E+02  0.72834030127E+03  0.90407661055E+03  0.11610107371E+04  0.25500000920E-02 0.  1.
</event>
<event>
 5   0  0.4067750E-06  0.2406943E+04  0.7818609E-02  0.8436909E-01
       -3   -1    0    0    0  501  0.00000000000E+00  0.00000000000E+00  0.80944390203E+03  0.80944390833E+03  0.10100000352E+00 0. -1.
        3   -1    0    0  501    0  0.00000000000E+00  0.00000000000E+00 -0.17893064826E+04  0.17893064855E+04  0.10100000352E+00 0.  1.
    10030    2    1    2    0    0  0.00000000000E+00  0.00000000000E+00 -0.97986258059E+03  0.25987503938E+04  0.24069426525E+04 0.  0.
        4    1    3    3  502    0 -0.38523666123E+03  0.64267960016E+03  0.52686858293E+03  0.91598933956E+03  0.12699999809E+01 0. -1.
       -4    1    3    3    0  502  0.38523666123E+03 -0.64267960016E+03 -0.15067311635E+04  0.16827610542E+04  0.12699999809E+01 0.  1.
</event>
<event>
 5   0  0.5034479E-06  0.2404156E+04  0.7818609E-02  0.8437949E-01
       -1   -1    0    0    0  501  0.00000000000E+00  0.00000000000E+00  0.12020714415E+04  0.12020714415E+04  0.50400001928E-02 0. -1.
        1   -1    0    0  501    0  0.00000000000E+00  0.00000000000E+00 -0.12020847182E+04  0.12020847183E+04  0.50400001928E-02 0.  1.
    10030    2    1    2    0    0  0.00000000000E+00  0.00000000000E+00 -0.13276715996E-01  0.24041561598E+04  0.24041561598E+04 0.  0.
        4    1    3    3  502    0  0.11896316132E+04  0.17252819848E+03 -0.86849871282E+00  0.12020780847E+04  0.12699999809E+01 0. -1.
       -4    1    3    3    0  502 -0.11896316132E+04 -0.17252819848E+03  0.85522199683E+00  0.12020780751E+04  0.12699999809E+01 0.  1.
</event>
<event>
 5   0  0.5104174E-06  0.2408379E+04  0.7818609E-02  0.8436373E-01
       -1   -1    0    0    0  501  0.00000000000E+00  0.00000000000E+00  0.11408215792E+04  0.11408215792E+04  0.50400001928E-02 0.  1.
        1   -1    0    0  501    0  0.00000000000E+00  0.00000000000E+00 -0.12710774308E+04  0.12710774308E+04  0.50400001928E-02 0. -1.
    10030    2    1    2    0    0  0.00000000000E+00  0.00000000000E+00 -0.13025585166E+03  0.24118990100E+04  0.24083791744E+04 0.  0.
        3    1    3    3  502    0  0.20149121204E+03  0.78627762718E+03  0.82568957385E+03  0.11578404459E+04  0.10100000352E+00 0.  1.
       -3    1    3    3    0  502 -0.20149121204E+03 -0.78627762718E+03 -0.95594542551E+03  0.12540585641E+04  0.10100000352E+00 0. -1.
</event>
<event>
 5   0  0.5034479E-06  0.2402195E+04  0.7818609E-02  0.8438682E-01
       -1   -1    0    0    0  501  0.00000000000E+00  0.00000000000E+00  0.73431389462E+03  0.73431389463E+03  0.50400001928E-02 0. -1.
        1   -1    0    0  501    0  0.00000000000E+00  0.00000000000E+00 -0.19646031707E+04  0.19646031707E+04  0.50400001928E-02 0.  1.
    10030    2    1    2    0    0  0.00000000000E+00  0.00000000000E+00 -0.12302892761E+04  0.26989170653E+04  0.24021951675E+04 0.  0.
        4    1    3    3  502    0  0.81093548561E+03 -0.80015718641E+03 -0.10426232591E+04  0.15443227506E+04  0.12699999809E+01 0.  1.
       -4    1    3    3    0  502 -0.81093548561E+03  0.80015718641E+03 -0.18766601702E+03  0.11545943147E+04  0.12699999809E+01 0. -1.
</event>
<event>
 5   0  0.5034479E-06  0.2404746E+04  0.7818609E-02  0.8437729E-01
       -1   -1    0    0    0  501  0.00000000000E+00  0.00000000000E+00  0.16554124478E+04  0.16554124478E+04  0.50400001928E-02 0.  1.
        1   -1    0    0  501    0  0.00000000000E+00  0.00000000000E+00 -0.87331788963E+03  0.87331788964E+03  0.50400001928E-02 0. -1.
    10030    2    1    2    0    0  0.00000000000E+00  0.00000000000E+00  0.78209455816E+03  0.25287303374E+04  0.24047463944E+04 0.  0.
        4    1    3    3  502    0  0.83316768876E+03  0.52341929783E+03  0.11177366620E+04  0.14891182013E+04  0.12699999809E+01 0.  1.
       -4    1    3    3    0  502 -0.83316768876E+03 -0.52341929783E+03 -0.33564210381E+03  0.10396121362E+04  0.12699999809E+01 0. -1.
</event>
<event>
 5   0  0.1168435E-05  0.2349085E+04  0.7818609E-02  0.8458815E-01
        2   -1    0    0  501    0  0.00000000000E+00  0.00000000000E+00  0.19992976686E+04  0.19992976686E+04  0.25500000920E-02 0.  1.
       -2   -1    0    0    0  501  0.00000000000E+00  0.00000000000E+00 -0.69001722091E+03  0.69001722092E+03  0.25500000920E-02 0. -1.
    10030    2    1    2    0    0  0.00000000000E+00  0.00000000000E+00  0.13092804476E+04  0.26893148895E+04  0.23490847759E+04 0.  0.
        1    1    3    3  502    0 -0.11183668227E+04  0.35829022464E+03  0.67847881035E+03  0.13562631497E+04  0.50400001928E-02 0. -1.
       -1    1    3    3    0  502  0.11183668227E+04 -0.35829022464E+03  0.63080163730E+03  0.13330517397E+04  0.50400001928E-02 0.  1.
</event>
<event>
 5   0  0.1169371E-05  0.2391993E+04  0.7818609E-02  0.8442507E-01
        2   -1    0    0  501    0  0.00000000000E+00  0.00000000000E+00  0.14946711153E+04  0.14946711153E+04  0.25500000920E-02 0.  1.
       -2   -1    0    0    0  501  0.00000000000E+00  0.00000000000E+00 -0.95700513776E+03  0.95700513776E+03  0.25500000920E-02 0. -1.
    10030    2    1    2    0    0  0.00000000000E+00  0.00000000000E+00  0.53766597754E+03  0.24516762531E+04  0.23919932580E+04 0.  0.
        2    1    3    3  502    0 -0.10773160910E+04  0.23884275119E+03  0.74159232500E+03  0.13295168281E+04  0.25500000920E-02 0.  1.
       -2    1    3    3    0  502  0.10773160910E+04 -0.23884275119E+03 -0.20392634745E+03  0.11221594249E+04  0.25500000920E-02 0. -1.
</event>
<event>
 5   0  0.1174210E-05  0.2403897E+04  0.7818609E-02  0.8438046E-01
       -2   -1    0    0    0  501  0.00000000000E+00  0.00000000000E+00  0.73075899219E+03  0.73075899220E+03  0.25500000920E-02 0.  1.
        2   -1    0    0  501    0  0.00000000000E+00  0.00000000000E+00 -0.19769582771E+04  0.19769582771E+04  0.25500000920E-02 0. -1.
    10030    2    1    2    0    0  0.00000000000E+00  0.00000000000E+00 -0.12461992849E+04  0.27077172693E+04  0.24038968682E+04 0.  0.
        3    1    3    3  502    0 -0.39458590356E+03  0.82796473875E+03 -0.14981044239E+04  0.17565706701E+04  0.10100000352E+00 0. -1.
       -3    1    3    3    0  502  0.39458590356E+03 -0.82796473875E+03  0.25190513901E+03  0.95114659920E+03  0.10100000352E+00 0.  1.
</event>
<event>
 5   0  0.1198313E-05  0.2406706E+04  0.7818609E-02  0.8436997E-01
       -2   -1    0    0    0  501  0.00000000000E+00  0.00000000000E+00  0.82577157292E+03  0.82577157292E+03  0.25500000920E-02 0.  1.
        2   -1    0    0  501    0  0.00000000000E+00  0.00000000000E+00 -0.17535827919E+04  0.17535827919E+04  0.25500000920E-02 0. -1.
    10030    2    1    2    0    0  0.00000000000E+00  0.00000000000E+00 -0.92781121896E+03  0.25793543648E+04  0.24067063139E+04 0.  0.
        5    1    3    3  502    0 -0.64046852149E+03  0.76839226067E+02  0.62480778838E+03  0.89805960610E+03  0.46999998093E+01 0.  1.
       -5    1    3    3    0  502  0.64046852149E+03 -0.76839226067E+02 -0.15526190073E+04  0.16812947587E+04  0.46999998093E+01 0. -1.
</event>
<event>
 5   0  0.5042742E-06  0.2398923E+04  0.7818609E-02  0.8439907E-01
       -1   -1    0    0    0  501  0.00000000000E+00  0.00000000000E+00  0.16981988963E+04  0.16981988963E+04  0.50400001928E-02 0. -1.
        1   -1    0    0  501    0  0.00000000000E+00  0.00000000000E+00 -0.84719600596E+03  0.84719600597E+03  0.50400001928E-02 0.  1.
    10030    2    1    2    0    0  0.00000000000E+00  0.00000000000E+00  0.85100289032E+03  0.25453949023E+04  0.23989225267E+04 0.  0.
        5    1    3    3  502    0 -0.81428348097E+03 -0.54005356517E+03 -0.31265441978E+03  0.10259095071E+04  0.46999998093E+01 0.  1.
       -5    1    3    3    0  502  0.81428348097E+03  0.54005356517E+03  0.11636573101E+04  0.15194853951E+04  0.46999998093E+01 0. -1.
</event>
<event>
 5   0  0.5064437E-06  0.2382415E+04  0.7818609E-02  0.8446117E-01
        1   -1    0    0  501    0  0.00000000000E+00  0.00000000000E+00  0.15679740364E+04  0.15679740364E+04  0.50400001928E-02 0.  1.
       -1   -1    0    0    0  501  0.00000000000E+00  0.00000000000E+00 -0.90497365834E+03  0.90497365835E+03  0.50400001928E-02 0. -1.
    10030    2    1    2    0    0  0.00000000000E+00  0.00000000000E+00  0.66300037807E+03  0.24729476948E+04  0.23824149092E+04 0.  0.
        2    1    3    3  502    0 -0.82236707334E+03 -0.84524478326E+03  0.50596102199E+03  0.12832470155E+04  0.25500000920E-02 0. -1.
       -2    1    3    3    0  502  0.82236707334E+03  0.84524478326E+03  0.15703935607E+03  0.11897006793E+04  0.25500000920E-02 0.  1.
</event>
<event>
 5   0  0.5042742E-06  0.2385683E+04  0.7818609E-02  0.8444883E-01
       -1   -1    0    0    0  501  0.00000000000E+00  0.00000000000E+00  0.13153938370E+04  0.13153938371E+04  0.50400001928E-02 0. -1.
        1   -1    0    0  501    0  0.00000000000E+00  0.00000000000E+00 -0.10817069228E+04  0.10817069228E+04  0.50400001928E-02 0.  1.
    10030    2    1    2    0    0  0.00000000000E+00  0.00000000000E+00  0.23368691424E+03  0.23971007599E+04  0.23856828119E+04 0.  0.
        5    1    3    3  502    0 -0.44712951886E+03  0.52178564188E+03  0.10965296567E+04  0.12940573560E+04  0.46999998093E+01 0. -1.
       -5    1    3    3    0  502  0.44712951886E+03 -0.52178564188E+03 -0.86284274241E+03  0.11030434039E+04  0.46999998093E+01 0.  1.
</event>
<event>
 5   0  0.1169371E-05  0.2407606E+04  0.7818609E-02  0.8436661E-01
        2   -1    0    0  501    0  0.00000000000E+00  0.00000000000E+00  0.13194566563E+04  0.13194566563E+04  0.25500000920E-02 0.  1.
       -2   -1    0    0    0  501  0.00000000000E+00  0.00000000000E+00 -0.10982868730E+04  0.10982868730E+04  0.25500000920E-02 0. -1.
    10030    2    1    2    0    0  0.00000000000E+00  0.00000000000E+00  0.22116978328E+03  0.24177435294E+04  0.24076062180E+04 0.  0.
        2    1    3    3  502    0  0.99733571966E+03  0.65907113854E+03  0.25291600443E+03  0.12218918973E+04  0.25500000920E-02 0.  1.
       -2    1    3    3    0  502 -0.99733571966E+03 -0.65907113854E+03 -0.31746221148E+02  0.11958516321E+04  0.25500000920E-02 0. -1.
</event>
<event>
 5   0  0.1168435E-05  0.2398309E+04  0.7818609E-02  0.8440137E-01
        2   -1    0    0  501    0  0.00000000000E+00  0.00000000000E+00  0.16022089552E+04  0.16022089552E+04  0.25500000920E-02 0.  1.
       -2   -1    0    0    0  501  0.00000000000E+00  0.00000000000E+00 -0.89749302845E+03  0.89749302845E+03  0.25500000920E-02 0. -1.
    10030    2    1    2    0    0  0.00000000000E+00  0.00000000000E+00  0.70471592678E+03  0.24997019837E+04  0.23983088770E+04 0.  0.
        1    1    3    3  502    0 -0.79016002952E+03  0.33517741221E+03  0.12251829566E+04  0.14959177942E+04  0.50400001928E-02 0.  1.
       -1    1    3    3    0  502  0.79016002952E+03 -0.33517741221E+03 -0.52046702980E+03  0.10037841895E+04  0.50400001928E-02 0. -1.
</event>
<event>
 5   0  0.1168435E-05  0.2391409E+04  0.7818609E-02  0.8442727E-01
       -2   -1    0    0    0  501  0.00000000000E+00  0.00000000000E+00  0.74473666402E+03  0.74473666402E+03  0.25500000920E-02 0.  1.
        2   -1    0    0  501    0  0.00000000000E+00  0.00000000000E+00 -0.19197507876E+04  0.19197507876E+04  0.25500000920E-02 0. -1.
    10030    2    1    2    0    0  0.00000000000E+00  0.00000000000E+00 -0.11750141236E+04  0.26644874516E+04  0.23914086203E+04 0.  0.
        1    1    3    3  502    0  0.24484242604E+03  0.10550324855E+04 -0.23031328004E+02  0.10833151901E+04  0.50400001928E-02 0.  1.
       -1    1    3    3    0  502 -0.24484242604E+03 -0.10550324855E+04 -0.11519827955E+04  0.15811722614E+04  0.50400001928E-02 0. -1.
</event>
<event>
 5   0  0.1174210E-05  0.2388122E+04  0.7818609E-02  0.8443964E-01
        2   -1    0    0  501    0  0.00000000000E+00  0.00000000000E+00  0.18808500638E+04  0.18808500638E+04  0.25500000920E-02 0. -1.
       -2   -1    0    0    0  501  0.00000000000E+00  0.00000000000E+00 -0.75805174442E+03  0.75805174442E+03  0.25500000920E-02 0.  1.
    10030    2    1    2    0    0  0.00000000000E+00  0.00000000000E+00  0.11227983194E+04  0.26389018082E+04  0.23881220001E+04 0.  0.
        3    1    3    3  502    0 -0.10372833832E+04 -0.21777174651E+03 -0.46256906710E+02  0.10609057745E+04  0.10100000352E+00 0. -1.
       -3    1    3    3    0  502  0.10372833832E+04  0.21777174651E+03  0.11690552261E+04  0.15779960337E+04  0.10100000352E+00 0.  1.
</event>
<event>
 5   0  0.5034479E-06  0.2400164E+04  0.7818609E-02  0.8439442E-01
        1   -1    0    0  501    0  0.00000000000E+00  0.00000000000E+00  0.16908983907E+04  0.16908983907E+04  0.50400001928E-02 0. -1.
       -1   -1    0    0    0  501  0.00000000000E+00  0.00000000000E+00 -0.85173455110E+03  0.85173455111E+03  0.50400001928E-02 0.  1.
    10030    2    1    2    0    0  0.00000000000E+00  0.00000000000E+00  0.83916383956E+03  0.25426329418E+04  0.24001638125E+04 0.  0.
        4    1    3    3  502    0 -0.10599556218E+04  0.40199736603E+03  0.23949683848E+01  0.11336291948E+04  0.12699999809E+01 0.  1.
       -4    1    3    3    0  502  0.10599556218E+04 -0.40199736603E+03  0.83676887117E+03  0.14090037470E+04  0.12699999809E+01 0. -1.
</event>
<event>
 5   0  0.1174210E-05  0.2403149E+04  0.7818609E-02  0.8438325E-01
        2   -1    0    0  501    0  0.00000000000E+00  0.00000000000E+00  0.13083363142E+04  0.13083363142E+04  0.25500000920E-02 0. -1.
       -2   -1    0    0    0  501  0.00000000000E+00  0.00000000000E+00 -0.11035248832E+04  0.11035248832E+04  0.25500000920E-02 0.  1.
    10030    2    1    2    0    0  0.00000000000E+00  0.00000000000E+00  0.20481143108E+03  0.24118611974E+04  0.24031493323E+04 0.  0.
        3    1    3    3  502    0 -0.69604834856E+03  0.41318517386E+03  0.99364317739E+03  0.12816130717E+04  0.10100000352E+00 0. -1.
       -3    1    3    3    0  502  0.69604834856E+03 -0.41318517386E+03 -0.78883174630E+03  0.11302481257E+04  0.10100000352E+00 0.  1.
</event>
<event>
 5   0  0.5064437E-06  0.2420580E+04  0.7818609E-02  0.8431839E-01
        1   -1    0    0  501    0  0.00000000000E+00  0.00000000000E+00  0.22248416164E+04  0.22248416164E+04  0.50400001928E-02 0.  1.
       -1   -1    0    0    0  501  0.00000000000E+00  0.00000000000E+00 -0.65838481651E+03  0.65838481653E+03  0.50400001928E-02 0. -1.
    10030    2    1    2    0    0  0.00000000000E+00  0.00000000000E+00  0.15664567999E+04  0.28832264329E+04  0.24205800457E+04 0.  0.
        2    1    3    3  502    0 -0.10900439377E+04 -0.44439479834E+03  0.44818517522E+03  0.12595842465E+04  0.25500000920E-02 0.  1.
       -2    1    3    3    0  502  0.10900439377E+04  0.44439479834E+03  0.11182716246E+04  0.16236421864E+04  0.25500000920E-02 0. -1.
</event>
<event>
 5   0  0.1198313E-05  0.2403885E+04  0.7818609E-02  0.8438051E-01
       -2   -1    0    0    0  501  0.00000000000E+00  0.00000000000E+00  0.15504240906E+04  0.15504240906E+04  0.25500000920E-02 0.  1.
        2   -1    0    0  501    0  0.00000000000E+00  0.00000000000E+00 -0.93178735127E+03  0.93178735127E+03  0.25500000920E-02 0. -1.
    10030    2    1    2    0    0  0.00000000000E+00  0.00000000000E+00  0.61863673935E+03  0.24822114419E+04  0.24038848198E+04 0.  0.
        5    1    3    3  502    0  0.98752086004E+03 -0.61258746523E+03  0.62620979719E+03  0.13200839563E+04  0.46999998093E+01 0.  1.
       -5    1    3    3    0  502 -0.98752086004E+03  0.61258746523E+03 -0.75730578413E+01  0.11621274856E+04  0.46999998093E+01 0. -1.
</event>
<event>
 5   0  0.1174210E-05  0.2398048E+04  0.7818609E-02  0.8440235E-01
        2   -1    0    0  501    0  0.00000000000E+00  0.00000000000E+00  0.22533775983E+04  0.22533775983E+04  0.25500000920E-02 0. -1.
       -2   -1    0    0    0  501  0.00000000000E+00  0.00000000000E+00 -0.63800161662E+03  0.63800161662E+03  0.25500000920E-02 0.  1.
    10030    2    1    2    0    0  0.00000000000E+00  0.00000000000E+00  0.16153759816E+04  0.28913792149E+04  0.23980479983E+04 0.  0.
        3    1    3    3  502    0 -0.55139779303E+03  0.41906687228E+03  0.19878194413E+04  0.21050137080E+04  0.10100000352E+00 0. -1.
       -3    1    3    3    0  502  0.55139779303E+03 -0.41906687228E+03 -0.37244345962E+03  0.78636550688E+03  0.10100000352E+00 0.  1.
</event>
<event>
 5   0  0.5064437E-06  0.2399470E+04  0.7818609E-02  0.8439702E-01
        1   -1    0    0  501    0  0.00000000000E+00  0.00000000000E+00  0.11991277534E+04  0.11991277534E+04  0.50400001928E-02 0.  1.
       -1   -1    0    0    0  501  0.00000000000E+00  0.00000000000E+00 -0.12003428794E+04  0.12003428795E+04  0.50400001928E-02 0. -1.
    10030    2    1    2    0    0  0.00000000000E+00  0.00000000000E+00 -0.12151260089E+01  0.23994706329E+04  0.23994703252E+04 0.  0.
        2    1    3    3  502    0 -0.81317335941E+03  0.84233033655E+03 -0.26251054057E+03  0.11998679478E+04  0.25500000920E-02 0.  1.
       -2    1    3    3    0  502  0.81317335941E+03 -0.84233033655E+03  0.26129541456E+03  0.11996026851E+04  0.25500000920E-02 0. -1.
</event>
<event>
 5   0  0.5064437E-06  0.2402989E+04  0.7818609E-02  0.8438385E-01
        1   -1    0    0  501    0  0.00000000000E+00  0.00000000000E+00  0.13815720885E+04  0.13815720885E+04  0.50400001928E-02 0. -1.
       -1   -1    0    0    0  501  0.00000000000E+00  0.00000000000E+00 -0.10448889452E+04  0.10448889452E+04  0.50400001928E-02 0.  1.
    10030    2    1    2    0    0  0.00000000000E+00  0.00000000000E+00  0.33668314324E+03  0.24264610337E+04  0.24029893069E+04 0.  0.
        2    1    3    3  502    0 -0.75683889584E+03  0.91693474343E+03  0.34328208586E+03  0.12375043549E+04  0.25500000920E-02 0. -1.
       -2    1    3    3    0  502  0.75683889584E+03 -0.91693474343E+03 -0.65989426203E+01  0.11889566788E+04  0.25500000920E-02 0.  1.
</event>
<event>
 5   0  0.5042742E-06  0.2397630E+04  0.7818609E-02  0.8440391E-01
       -1   -1    0    0    0  501  0.00000000000E+00  0.00000000000E+00  0.10818909183E+04  0.10818909183E+04  0.50400001928E-02 0. -1.
        1   -1    0    0  501    0  0.00000000000E+00  0.00000000000E+00 -0.13283760536E+04  0.13283760536E+04  0.50400001928E-02 0.  1.
    10030    2    1    2    0    0  0.00000000000E+00  0.00000000000E+00 -0.24648513531E+03  0.24102669719E+04  0.23976304874E+04 0.  0.
        5    1    3    3  502    0 -0.46744482160E+03 -0.69094874215E+03 -0.98872204922E+03  0.12936414519E+04  0.46999998093E+01 0.  1.
       -5    1    3    3    0  502  0.46744482160E+03  0.69094874215E+03  0.74223691391E+03  0.11166255200E+04  0.46999998093E+01 0. -1.
</event>
<event>
 5   0  0.1169371E-05  0.2405278E+04  0.7818609E-02  0.8437530E-01
        2   -1    0    0  501    0  0.00000000000E+00  0.00000000000E+00  0.11000017250E+04  0.11000017250E+04  0.25500000920E-02 0.  1.
       -2   -1    0    0    0  501  0.00000000000E+00  0.00000000000E+00 -0.13148531214E+04  0.13148531214E+04  0.25500000920E-02 0. -1.
    10030    2    1    2    0    0  0.00000000000E+00  0.00000000000E+00 -0.21485139636E+03  0.24148548465E+04  0.24052781143E+04 0.  0.
        2    1    3    3  502    0  0.79407866085E+03  0.32670355125E+03 -0.95282619684E+03  0.12826433220E+04  0.25500000920E-02 0. -1.
       -2    1    3    3    0  502 -0.79407866085E+03 -0.32670355125E+03  0.73797480048E+03  0.11322115245E+04  0.25500000920E-02 0.  1.
</event>
<event>
 5   0  0.1169371E-05  0.2407697E+04  0.7818609E-02  0.8436627E-01
        2   -1    0    0  501    0  0.00000000000E+00  0.00000000000E+00  0.16886027691E+04  0.16886027691E+04  0.25500000920E-02 0.  1.
       -2   -1    0    0    0  501  0.00000000000E+00  0.00000000000E+00 -0.85825478476E+03  0.85825478477E+03  0.25500000920E-02 0. -1.
    10030    2    1    2    0    0  0.00000000000E+00  0.00000000000E+00  0.83034798432E+03  0.25468575539E+04  0.24076971621E+04 0.  0.
        2    1    3    3  502    0 -0.93290722475E+03  0.14206804753E+02 -0.38954115166E+03  0.10110687574E+04  0.25500000920E-02 0. -1.
       -2    1    3    3    0  502  0.93290722475E+03 -0.14206804753E+02  0.12198891360E+04  0.15357887965E+04  0.25500000920E-02 0.  1.
</event>
<event>
 5   0  0.5104174E-06  0.2396257E+04  0.7818609E-02  0.8440906E-01
       -1   -1    0    0    0  501  0.00000000000E+00  0.00000000000E+00  0.68013805140E+03  0.68013805142E+03  0.50400001928E-02 0.  1.
        1   -1    0    0  501    0  0.00000000000E+00  0.00000000000E+00 -0.21106188579E+04  0.21106188579E+04  0.50400001928E-02 0. -1.
    10030    2    1    2    0    0  0.00000000000E+00  0.00000000000E+00 -0.14304808065E+04  0.27907569093E+04  0.23962572460E+04 0.  0.
        3    1    3    3  502    0  0.64436568641E+03 -0.73564971681E+03 -0.15213846867E+04  0.18085903403E+04  0.10100000352E+00 0. -1.
       -3    1    3    3    0  502 -0.64436568641E+03  0.73564971681E+03  0.90903880284E+02  0.98216656902E+03  0.10100000352E+00 0.  1.
</event>
<event>
 5   0  0.1154897E-05  0.2395225E+04  0.7818609E-02  0.8441293E-01
        2   -1    0    0  501    0  0.00000000000E+00  0.00000000000E+00  0.12894396801E+04  0.12894396801E+04  0.25500000920E-02 0. -1.
       -2   -1    0    0    0  501  0.00000000000E+00  0.00000000000E+00 -0.11123249824E+04  0.11123249824E+04  0.25500000920E-02 0.  1.
    10030    2    1    2    0    0  0.00000000000E+00  0.00000000000E+00  0.17711469771E+03  0.24017646625E+04  0.23952252249E+04 0.  0.
        4    1    3    3  502    0  0.10866488835E+03 -0.11884847777E+04 -0.11566311973E+02  0.11934988552E+04  0.12699999809E+01 0. -1.
       -4    1    3    3    0  502 -0.10866488835E+03  0.11884847777E+04  0.18868100968E+03  0.12082658073E+04  0.12699999809E+01 0.  1.
</event>
<event>
 5   0  0.5196696E-06  0.2397169E+04  0.7818609E-02  0.8440564E-01
        1   -1    0    0  501    0  0.00000000000E+00  0.00000000000E+00  0.85786162440E+03  0.85786162441E+03  0.50400001928E-02 0. -1.
       -1   -1    0    0    0  501  0.00000000000E+00  0.00000000000E+00 -0.16746339849E+04  0.16746339849E+04  0.50400001928E-02 0.  1.
    10030    2    1    2    0    0  0.00000000000E+00  0.00000000000E+00 -0.81677236048E+03  0.25324956093E+04  0.23971685219E+04 0.  0.
        1    1    3    3  502    0  0.54943149414E+03 -0.10205987779E+04 -0.73074698436E+03  0.13702145772E+04  0.50400001928E-02 0.  1.
       -1    1    3    3    0  502 -0.54943149414E+03  0.10205987779E+04 -0.86025376117E+02  0.11622810321E+04  0.50400001928E-02 0. -1.
</event>
<event>
 5   0  0.1169371E-05  0.2390815E+04  0.7818609E-02  0.8442950E-01
       -2   -1    0    0    0  501  0.00000000000E+00  0.00000000000E+00  0.11693829024E+04  0.11693829024E+04  0.25500000920E-02 0. -1.
        2   -1    0    0  501    0  0.00000000000E+00  0.00000000000E+00 -0.12220114171E+04  0.12220114171E+04  0.25500000920E-02 0.  1.
    10030    2    1    2    0    0  0.00000000000E+00  0.00000000000E+00 -0.52628514720E+02  0.23913943194E+04  0.23908151393E+04 0.  0.
        2    1    3    3  502    0 -0.92024768052E+03  0.30211095421E+03 -0.72710687580E+03  0.12111198252E+04  0.25500000920E-02 0.  1.
       -2    1    3    3    0  502  0.92024768052E+03 -0.30211095421E+03  0.67447836108E+03  0.11802744942E+04  0.25500000920E-02 0. -1.
</event>
<event>
 5   0  0.5042742E-06  0.2407125E+04  0.7818609E-02  0.8436841E-01
        1   -1    0    0  501    0  0.00000000000E+00  0.00000000000E+00  0.13238648609E+04  0.13238648609E+04  0.50400001928E-02 0. -1.
       -1   -1    0    0    0  501  0.00000000000E+00  0.00000000000E+00 -0.10941920593E+04  0.10941920594E+04  0.50400001928E-02 0.  1.
    10030    2    1    2    0    0  0.00000000000E+00  0.00000000000E+00  0.22967280153E+03  0.24180569202E+04  0.24071247732E+04 0.  0.
        5    1    3    3  502    0 -0.11950644080E+04 -0.14192157493E+03  0.12972449421E+03  0.12104425667E+04  0.46999998093E+01 0. -1.
       -5    1    3    3    0  502  0.11950644080E+04  0.14192157493E+03  0.99948307322E+02  0.12076143536E+04  0.46999998093E+01 0.  1.
</event>
<event>
 5   0  0.1168435E-05  0.2391273E+04  0.7818609E-02  0.8442778E-01
       -2   -1    0    0    0  501  0.00000000000E+00  0.00000000000E+00  0.87458082376E+03  0.87458082377E+03  0.25500000920E-02 0.  1.
        2   -1    0    0  501    0  0.00000000000E+00  0.00000000000E+00 -0.16345508222E+04  0.16345508222E+04  0.25500000920E-02 0. -1.
    10030    2    1    2    0    0  0.00000000000E+00  0.00000000000E+00 -0.75996999839E+03  0.25091316459E+04  0.23912731375E+04 0.  0.
        1    1    3    3  502    0 -0.41129215444E+03 -0.11219678214E+04 -0.42161109904E+03  0.12671736059E+04  0.50400001928E-02 0. -1.
       -1    1    3    3    0  502  0.41129215444E+03  0.11219678214E+04 -0.33835889935E+03  0.12419580401E+04  0.50400001928E-02 0.  1.
</event>
<event>
 5   0  0.1198313E-05  0.2404845E+04  0.7818609E-02  0.8437692E-01
        2   -1    0    0  501    0  0.00000000000E+00  0.00000000000E+00  0.16737164985E+04  0.16737164985E+04  0.25500000920E-02 0. -1.
       -2   -1    0    0    0  501  0.00000000000E+00  0.00000000000E+00 -0.86383815483E+03  0.86383815483E+03  0.25500000920E-02 0.  1.
    10030    2    1    2    0    0  0.00000000000E+00  0.00000000000E+00  0.80987834364E+03  0.25375546533E+04  0.24048452522E+04 0.  0.
        5    1    3    3  502    0  0.12394544167E+03  0.31646304958E+03  0.16219681007E+04  0.16572006348E+04  0.46999998093E+01 0. -1.
       -5    1    3    3    0  502 -0.12394544167E+03 -0.31646304958E+03 -0.81208975710E+03  0.88035401847E+03  0.46999998093E+01 0.  1.
</event>
<event>
 5   0  0.5196696E-06  0.2403797E+04  0.7818609E-02  0.8438083E-01
        1   -1    0    0  501    0  0.00000000000E+00  0.00000000000E+00  0.90367705319E+03  0.90367705320E+03  0.50400001928E-02 0.  1.
       -1   -1    0    0    0  501  0.00000000000E+00  0.00000000000E+00 -0.15985353751E+04  0.15985353751E+04  0.50400001928E-02 0. -1.
    10030    2    1    2    0    0  0.00000000000E+00  0.00000000000E+00 -0.69485832192E+03  0.25022124283E+04  0.24037967778E+04 0.  0.
        1    1    3    3  502    0  0.88355618268E+03 -0.63351919850E+03  0.18593707579E+03  0.11029917040E+04  0.50400001928E-02 0. -1.
       -1    1    3    3    0  502 -0.88355618268E+03  0.63351919850E+03 -0.88079539770E+03  0.13992207244E+04  0.50400001928E-02 0.  1.
</event>
<event>
 5   0  0.5034479E-06  0.2402125E+04  0.7818609E-02  0.8438708E-01
       -1   -1    0    0    0  501  0.00000000000E+00  0.00000000000E+00  0.17897465260E+04  0.17897465260E+04  0.50400001928E-02 0.  1.
        1   -1    0    0  501    0  0.00000000000E+00  0.00000000000E+00 -0.80600853920E+03  0.80600853921E+03  0.50400001928E-02 0. -1.
    10030    2    1    2    0    0  0.00000000000E+00  0.00000000000E+00  0.98373798679E+03  0.25957550652E+04  0.24021248785E+04 0.  0.
        4    1    3    3  502    0  0.54758817660E+03 -0.18098816767E+03 -0.64659119863E+03  0.86642444508E+03  0.12699999809E+01 0. -1.
       -4    1    3    3    0  502 -0.54758817660E+03  0.18098816767E+03  0.16303291854E+04  0.17293306201E+04  0.12699999809E+01 0.  1.
</event>
<event>
 5   0  0.5034479E-06  0.2393740E+04  0.7818609E-02  0.8441851E-01
        1   -1    0    0  501    0  0.00000000000E+00  0.00000000000E+00  0.11900131674E+04  0.11900131674E+04  0.50400001928E-02 0.  1.
       -1   -1    0    0    0  501  0.00000000000E+00  0.00000000000E+00 -0.12037662614E+04  0.12037662615E+04  0.50400001928E-02 0. -1.
    10030    2    1    2    0    0  0.00000000000E+00  0.00000000000E+00 -0.13753094059E+02  0.23937794289E+04  0.23937399204E+04 0.  0.
        4    1    3    3  502    0  0.97015680014E+03 -0.68242897218E+03  0.15307161413E+03  0.11959707567E+04  0.12699999809E+01 0.  1.
       -4    1    3    3    0  502 -0.97015680014E+03  0.68242897218E+03 -0.16682470819E+03  0.11978086722E+04  0.12699999809E+01 0. -1.
</event>
<event>
 5   0  0.1169371E-05  0.2431398E+04  0.7818609E-02  0.8427841E-01
       -2   -1    0    0    0  501  0.00000000000E+00  0.00000000000E+00  0.63582928320E+03  0.63582928320E+03  0.25500000920E-02 0. -1.
        2   -1    0    0  501    0  0.00000000000E+00  0.00000000000E+00 -0.23244045574E+04  0.23244045574E+04  0.25500000920E-02 0.  1.
    10030    2    1    2    0    0  0.00000000000E+00  0.00000000000E+00 -0.16885752742E+04  0.29602338406E+04  0.24313983496E+04 0.  0.
        2    1    3    3  502    0 -0.19500191515E+03  0.10151206685E+04 -0.65248856799E+02  0.10357379648E+04  0.25500000920E-02 0. -1.
       -2    1    3    3    0  502  0.19500191515E+03 -0.10151206685E+04 -0.16233264174E+04  0.19244958758E+04  0.25500000920E-02 0.  1.
</event>
<event>
 5   0  0.1169371E-05  0.2379285E+04  0.7818609E-02  0.8447300E-01
        2   -1    0    0  501    0  0.00000000000E+00  0.00000000000E+00  0.19828306668E+04  0.19828306668E+04  0.25500000920E-02 0.  1.
       -2   -1    0    0    0  501  0.00000000000E+00  0.00000000000E+00 -0.71375208276E+03  0.71375208276E+03  0.25500000920E-02 0. -1.
    10030    2    1    2    0    0  0.00000000000E+00  0.00000000000E+00  0.12690785841E+04  0.26965827496E+04  0.23792852021E+04 0.  0.
        2    1    3    3  502    0 -0.82708845037E+03  0.84712062918E+03  0.76652009126E+03  0.14104048055E+04  0.25500000920E-02 0. -1.
       -2    1    3    3    0  502  0.82708845037E+03 -0.84712062918E+03  0.50255849281E+03  0.12861779441E+04  0.25500000920E-02 0.  1.
</event>
<event>
 5   0  0.1154897E-05  0.2397119E+04  0.7818609E-02  0.8440583E-01
       -2   -1    0    0    0  501  0.00000000000E+00  0.00000000000E+00  0.10492374159E+04  0.10492374159E+04  0.25500000920E-02 0. -1.
        2   -1    0    0  501    0  0.00000000000E+00  0.00000000000E+00 -0.13691321488E+04  0.13691321488E+04  0.25500000920E-02 0.  1.
    10030    2    1    2    0    0  0.00000000000E+00  0.00000000000E+00 -0.31989473287E+03  0.24183695648E+04  0.23971188355E+04 0.  0.
        4    1    3    3  502    0  0.88832532166E+03  0.27867406065E+03  0.60157002781E+03  0.11084535265E+04  0.12699999809E+01 0. -1.
       -4    1    3    3    0  502 -0.88832532166E+03 -0.27867406065E+03 -0.92146476068E+03  0.13099160382E+04  0.12699999809E+01 0.  1.
</event>
<event>
 5   0  0.1198313E-05  0.2399640E+04  0.7818609E-02  0.8439639E-01
        2   -1    0    0  501    0  0.00000000000E+00  0.00000000000E+00  0.13212879230E+04  0.13212879230E+04  0.25500000920E-02 0. -1.
       -2   -1    0    0    0  501  0.00000000000E+00  0.00000000000E+00 -0.10895184091E+04  0.10895184091E+04  0.25500000920E-02 0.  1.
    10030    2    1    2    0    0  0.00000000000E+00  0.00000000000E+00  0.23176951394E+03  0.24108063321E+04  0.23996395695E+04 0.  0.
        5    1    3    3  502    0  0.72185243225E+01 -0.63725792826E+03 -0.90540652262E+03  0.11072185130E+04  0.46999998093E+01 0.  1.
       -5    1    3    3    0  502 -0.72185243225E+01  0.63725792826E+03  0.11371760366E+04  0.13035878192E+04  0.46999998093E+01 0. -1.
</event>
<event>
 5   0  0.1169371E-05  0.2381422E+04  0.7818609E-02  0.8446492E-01
        2   -1    0    0  501    0  0.00000000000E+00  0.00000000000E+00  0.11444965582E+04  0.11444965582E+04  0.25500000920E-02 0.  1.
       -2   -1    0    0    0  501  0.00000000000E+00  0.00000000000E+00 -0.12387916167E+04  0.12387916167E+04  0.25500000920E-02 0. -1.
    10030    2    1    2    0    0  0.00000000000E+00  0.00000000000E+00 -0.94295058515E+02  0.23832881750E+04  0.23814220472E+04 0.  0.
        2    1    3    3  502    0 -0.27579943718E+03  0.11382277669E+04  0.16788117262E+03  0.11831364533E+04  0.25500000920E-02 0. -1.
       -2    1    3    3    0  502  0.27579943718E+03 -0.11382277669E+04 -0.26217623114E+03  0.12001517217E+04  0.25500000920E-02 0.  1.
</event>
<event>
 5   0  0.1168435E-05  0.2463825E+04  0.7818609E-02  0.8415987E-01
       -2   -1    0    0    0  501  0.00000000000E+00  0.00000000000E+00  0.76399337353E+03  0.76399337353E+03  0.25500000920E-02 0.  1.
        2   -1    0    0  501    0  0.00000000000E+00  0.00000000000E+00 -0.19864164124E+04  0.19864164124E+04  0.25500000920E-02 0. -1.
    10030    2    1    2    0    0  0.00000000000E+00  0.00000000000E+00 -0.12224230389E+04  0.27504097859E+04  0.24638254615E+04 0.  0.
        1    1    3    3  502    0  0.14286619328E+02 -0.10551011250E+04 -0.13208997682E+04  0.16906267149E+04  0.50400001928E-02 0. -1.
       -1    1    3    3    0  502 -0.14286619328E+02  0.10551011250E+04  0.98476729291E+02  0.10597830711E+04  0.50400001928E-02 0.  1.
</event>
<event>
 5   0  0.1154897E-05  0.2398408E+04  0.7818609E-02  0.8440100E-01
       -2   -1    0    0    0  501  0.00000000000E+00  0.00000000000E+00  0.13138035672E+04  0.13138035672E+04  0.25500000920E-02 0. -1.
        2   -1    0    0  501    0  0.00000000000E+00  0.00000000000E+00 -0.10946008027E+04  0.10946008027E+04  0.25500000920E-02 0.  1.
    10030    2    1    2    0    0  0.00000000000E+00  0.00000000000E+00  0.21920276452E+03  0.24084043699E+04  0.23984081715E+04 0.  0.
        4    1    3    3  502    0  0.23094770527E+03  0.85037099973E+03  0.92639248843E+03  0.12785430518E+04  0.12699999809E+01 0. -1.
       -4    1    3    3    0  502 -0.23094770527E+03 -0.85037099973E+03 -0.70718972391E+03  0.11298613182E+04  0.12699999809E+01 0.  1.
</event>
<event>
 5   0  0.1154897E-05  0.2407431E+04  0.7818609E-02  0.8436727E-01
       -2   -1    0    0    0  501  0.00000000000E+00  0.00000000000E+00  0.12045135882E+04  0.12045135882E+04  0.25500000920E-02 0.  1.
        2   -1    0    0  501    0  0.00000000000E+00  0.00000000000E+00 -0.12029179931E+04  0.12029179931E+04  0.25500000920E-02 0. -1.
    10030    2    1    2    0    0  0.00000000000E+00  0.00000000000E+00  0.15955950830E+01  0.24074315812E+04  0.24074310525E+04 0.  0.
        4    1    3    3  502    0  0.95330743332E+03  0.72033256621E+03  0.14659010250E+03  0.12038124187E+04  0.12699999809E+01 0.  1.
       -4    1    3    3    0  502 -0.95330743332E+03 -0.72033256621E+03 -0.14499450742E+03  0.12036191625E+04  0.12699999809E+01 0. -1.
</event>
<event>
 5   0  0.1198313E-05  0.2417024E+04  0.7818609E-02  0.8433157E-01
       -2   -1    0    0    0  501  0.00000000000E+00  0.00000000000E+00  0.65526634159E+03  0.65526634160E+03  0.25500000920E-02 0.  1.
        2   -1    0    0  501    0  0.00000000000E+00  0.00000000000E+00 -0.22288663239E+04  0.22288663239E+04  0.25500000920E-02 0. -1.
    10030    2    1    2    0    0  0.00000000000E+00  0.00000000000E+00 -0.15735999823E+04  0.28841326655E+04  0.24170238576E+04 0.  0.
        5    1    3    3  502    0  0.10226318339E+04 -0.34435926857E+03 -0.13746615608E+03  0.10877859199E+04  0.46999998093E+01 0.  1.
       -5    1    3    3    0  502 -0.10226318339E+04  0.34435926857E+03 -0.14361338263E+04  0.17963467456E+04  0.46999998093E+01 0. -1.
</event>
<event>
 5   0  0.5034479E-06  0.2398425E+04  0.7818609E-02  0.8440094E-01
       -1   -1    0    0    0  501  0.00000000000E+00  0.00000000000E+00  0.18375375097E+04  0.18375375098E+04  0.50400001928E-02 0. -1.
        1   -1    0    0  501    0  0.00000000000E+00  0.00000000000E+00 -0.78262906642E+03  0.78262906644E+03  0.50400001928E-02 0.  1.
    10030    2    1    2    0    0  0.00000000000E+00  0.00000000000E+00  0.10549084433E+04  0.26201665762E+04  0.23984247045E+04 0.  0.
        4    1    3    3  502    0  0.69617833507E+03  0.84293268748E+03 -0.10969882403E+02  0.10933077065E+04  0.12699999809E+01 0. -1.
       -4    1    3    3    0  502 -0.69617833507E+03 -0.84293268748E+03  0.10658783257E+04  0.15268588697E+04  0.12699999809E+01 0.  1.
</event>
<event>
 5   0  0.1198313E-05  0.2346720E+04  0.7818609E-02  0.8459724E-01
        2   -1    0    0  501    0  0.00000000000E+00  0.00000000000E+00  0.99107166323E+03  0.99107166323E+03  0.25500000920E-02 0.  1.
       -2   -1    0    0    0  501  0.00000000000E+00  0.00000000000E+00 -0.13891772544E+04  0.13891772544E+04  0.25500000920E-02 0. -1.
    10030    2    1    2    0    0  0.00000000000E+00  0.00000000000E+00 -0.39810559112E+03  0.23802489176E+04  0.23467204452E+04 0.  0.
        5    1    3    3  502    0 -0.72550532375E+03 -0.51636400626E+03  0.57590680679E+03  0.10605095482E+04  0.46999998093E+01 0.  1.
       -5    1    3    3    0  502  0.72550532375E+03  0.51636400626E+03 -0.97401239792E+03  0.13197393694E+04  0.46999998093E+01 0. -1.
</event>
<event>
 5   0  0.1174210E-05  0.2386016E+04  0.7818609E-02  0.8444757E-01
        2   -1    0    0  501    0  0.00000000000E+00  0.00000000000E+00  0.17767581600E+04  0.17767581600E+04  0.25500000920E-02 0.  1.
       -2   -1    0    0    0  501  0.00000000000E+00  0.00000000000E+00 -0.80104795089E+03  0.80104795089E+03  0.25500000920E-02 0. -1.
    10030    2    1    2    0    0  0.00000000000E+00  0.00000000000E+00  0.97571020910E+03  0.25778061109E+04  0.23860163313E+04 0.  0.
        3    1    3    3  502    0  0.57459585420E+02 -0.27858862170E+02  0.17749104520E+04  0.17760587949E+04  0.10100000352E+00 0.  1.
       -3    1    3    3    0  502 -0.57459585420E+02  0.27858862170E+02 -0.79920024292E+03  0.80174731595E+03  0.10100000352E+00 0. -1.
</event>
<event>
 5   0  0.1198313E-05  0.2405876E+04  0.7818609E-02  0.8437307E-01
       -2   -1    0    0    0  501  0.00000000000E+00  0.00000000000E+00  0.87875842242E+03  0.87875842243E+03  0.25500000920E-02 0.  1.
        2   -1    0    0  501    0  0.00000000000E+00  0.00000000000E+00 -0.16467099238E+04  0.16467099238E+04  0.25500000920E-02 0. -1.
    10030    2    1    2    0    0  0.00000000000E+00  0.00000000000E+00 -0.76795150141E+03  0.25254683463E+04  0.24058763184E+04 0.  0.
        5    1    3    3  502    0  0.47062829247E+02  0.63912397312E+02  0.87599714012E+03  0.87959808090E+03  0.46999998093E+01 0.  1.
       -5    1    3    3    0  502 -0.47062829247E+02 -0.63912397312E+02 -0.16439486415E+04  0.16458702654E+04  0.46999998093E+01 0. -1.
</event>
<event>
 5   0  0.5196696E-06  0.2509585E+04  0.7818609E-02  0.8399579E-01
       -1   -1    0    0    0  501  0.00000000000E+00  0.00000000000E+00  0.91311102998E+03  0.91311102999E+03  0.50400001928E-02 0. -1.
        1   -1    0    0  501    0  0.00000000000E+00  0.00000000000E+00 -0.17243296096E+04  0.17243296096E+04  0.50400001928E-02 0.  1.
    10030    2    1    2    0    0  0.00000000000E+00  0.00000000000E+00 -0.81121857959E+03  0.26374406396E+04  0.25095851337E+04 0.  0.
        1    1    3    3  502    0 -0.78780823008E+03  0.93542779822E+03 -0.11052441968E+03  0.12279587210E+04  0.50400001928E-02 0.  1.
       -1    1    3    3    0  502  0.78780823008E+03 -0.93542779822E+03 -0.70069415990E+03  0.14094819186E+04  0.50400001928E-02 0. -1.
</event>
<event>
 5   0  0.5042742E-06  0.2398307E+04  0.7818609E-02  0.8440138E-01
       -1   -1    0    0    0  501  0.00000000000E+00  0.00000000000E+00  0.14372511420E+04  0.14372511420E+04  0.50400001928E-02 0.  1.
        1   -1    0    0  501    0  0.00000000000E+00  0.00000000000E+00 -0.10004996463E+04  0.10004996463E+04  0.50400001928E-02 0. -1.
    10030    2    1    2    0    0  0.00000000000E+00  0.00000000000E+00  0.43675149568E+03  0.24377507883E+04  0.23983071189E+04 0.  0.
        5    1    3    3  502    0  0.82196305983E+03  0.82442380051E+03  0.51059181043E+03  0.12712293111E+04  0.46999998093E+01 0.  1.
       -5    1    3    3    0  502 -0.82196305983E+03 -0.82442380051E+03 -0.73840314747E+02  0.11665214771E+04  0.46999998093E+01 0. -1.
</event>
<event>
 5   0  0.5042742E-06  0.2400790E+04  0.7818609E-02  0.8439208E-01
       -1   -1    0    0    0  501  0.00000000000E+00  0.00000000000E+00  0.53081721437E+03  0.53081721440E+03  0.50400001928E-02 0. -1.
        1   -1    0    0  501    0  0.00000000000E+00  0.00000000000E+00 -0.27145835226E+04  0.27145835226E+04  0.50400001928E-02 0.  1.
    10030    2    1    2    0    0  0.00000000000E+00  0.00000000000E+00 -0.21837663082E+04  0.32454007370E+04  0.24007895899E+04 0.  0.
        5    1    3    3  502    0 -0.95928741693E+03 -0.31059252617E+03 -0.19723492160E+04  0.22151486599E+04  0.46999998093E+01 0.  1.
       -5    1    3    3    0  502  0.95928741693E+03  0.31059252617E+03 -0.21141709229E+03  0.10302520772E+04  0.46999998093E+01 0. -1.
</event>
<event>
 5   0  0.1168435E-05  0.2405808E+04  0.7818609E-02  0.8437332E-01
        2   -1    0    0  501    0  0.00000000000E+00  0.00000000000E+00  0.19224416592E+04  0.19224416592E+04  0.25500000920E-02 0. -1.
       -2   -1    0    0    0  501  0.00000000000E+00  0.00000000000E+00 -0.75267743105E+03  0.75267743106E+03  0.25500000920E-02 0.  1.
    10030    2    1    2    0    0  0.00000000000E+00  0.00000000000E+00  0.11697642281E+04  0.26751190902E+04  0.24058083460E+04 0.  0.
        1    1    3    3  502    0  0.22181789837E+03  0.33102875948E+03 -0.67715735348E+03  0.78570051612E+03  0.50400001928E-02 0.  1.
       -1    1    3    3    0  502 -0.22181789837E+03 -0.33102875948E+03  0.18469215816E+04  0.18894185741E+04  0.50400001928E-02 0. -1.
</event>
<event>
 5   0  0.1168435E-05  0.2401994E+04  0.7818609E-02  0.8438757E-01
        2   -1    0    0  501    0  0.00000000000E+00  0.00000000000E+00  0.12048037005E+04  0.12048037005E+04  0.25500000920E-02 0.  1.
       -2   -1    0    0    0  501  0.00000000000E+00  0.00000000000E+00 -0.11972022846E+04  0.11972022846E+04  0.25500000920E-02 0. -1.
    10030    2    1    2    0    0  0.00000000000E+00  0.00000000000E+00  0.76014159027E+01  0.24020059852E+04  0.24019939574E+04 0.  0.
        1    1    3    3  502    0  0.70840049626E+03 -0.18772291883E+03  0.95528988398E+03  0.12040140862E+04  0.50400001928E-02 0.  1.
       -1    1    3    3    0  502 -0.70840049626E+03  0.18772291883E+03 -0.94768846807E+03  0.11979918989E+04  0.50400001928E-02 0. -1.
</event>
<event>
 5   0  0.5034479E-06  0.2391108E+04  0.7818609E-02  0.8442840E-01
       -1   -1    0    0    0  501  0.00000000000E+00  0.00000000000E+00  0.85055398819E+03  0.85055398820E+03  0.50400001928E-02 0. -1.
        1   -1    0    0  501    0  0.00000000000E+00  0.00000000000E+00 -0.16804918895E+04  0.16804918895E+04  0.50400001928E-02 0.  1.
    10030    2    1    2    0    0  0.00000000000E+00  0.00000000000E+00 -0.82993790135E+03  0.25310458777E+04  0.23911077590E+04 0.  0.
        4    1    3    3  502    0  0.15780054436E+03  0.11691854652E+04 -0.61981954479E+03  0.13326940928E+04  0.12699999809E+01 0.  1.
       -4    1    3    3    0  502 -0.15780054436E+03 -0.11691854652E+04 -0.21011835656E+03  0.11983517850E+04  0.12699999809E+01 0. -1.
</event>
<event>
 5   0  0.1169371E-05  0.2397438E+04  0.7818609E-02  0.8440463E-01
       -2   -1    0    0    0  501  0.00000000000E+00  0.00000000000E+00  0.90549277120E+03  0.90549277121E+03  0.25500000920E-02 0. -1.
        2   -1    0    0  501    0  0.00000000000E+00  0.00000000000E+00 -0.15869007397E+04  0.15869007397E+04  0.25500000920E-02 0.  1.
    10030    2    1    2    0    0  0.00000000000E+00  0.00000000000E+00 -0.68140796850E+03  0.24923935109E+04  0.23974379228E+04 0.  0.
        2    1    3    3  502    0  0.48335304148E+03  0.74607466807E+03 -0.11767120268E+04  0.14747571892E+04  0.25500000920E-02 0.  1.
       -2    1    3    3    0  502 -0.48335304148E+03 -0.74607466807E+03  0.49530405833E+03  0.10176363217E+04  0.25500000920E-02 0. -1.
</event>
<event>
 5   0  0.4067750E-06  0.2406466E+04  0.7818609E-02  0.8437087E-01
        3   -1    0    0  501    0  0.00000000000E+00  0.00000000000E+00  0.21720342743E+04  0.21720342766E+04  0.10100000352E+00 0.  1.
       -3   -1    0    0    0  501  0.00000000000E+00  0.00000000000E+00 -0.66654989954E+03  0.66654990719E+03  0.10100000352E+00 0. -1.
    10030    2    1    2    0    0  0.00000000000E+00  0.00000000000E+00  0.15054843747E+04  0.28385841838E+04  0.24064656586E+04 0.  0.
        5    1    3    3  502    0 -0.98747076322E+02 -0.89210275993E+03  0.16979775452E+04  0.19206114010E+04  0.46999998093E+01 0.  1.
       -5    1    3    3    0  502  0.98747076322E+02  0.89210275993E+03 -0.19249317051E+03  0.91797278285E+03  0.46999998093E+01 0. -1.
</event>
<event>
 5   0  0.1198313E-05  0.2423489E+04  0.7818609E-02  0.8430762E-01
       -2   -1    0    0    0  501  0.00000000000E+00  0.00000000000E+00  0.12070266323E+04  0.12070266323E+04  0.25500000920E-02 0.  1.
        2   -1    0    0  501    0  0.00000000000E+00  0.00000000000E+00 -0.12164804188E+04  0.12164804188E+04  0.25500000920E-02 0. -1.
    10030    2    1    2    0    0  0.00000000000E+00  0.00000000000E+00 -0.94537864706E+01  0.24235070511E+04  0.24234886120E+04 0.  0.
        5    1    3    3  502    0  0.32918178186E+03  0.94981016324E+03 -0.68134284621E+03  0.12143929166E+04  0.46999998093E+01 0. -1.
       -5    1    3    3    0  502 -0.32918178186E+03 -0.94981016324E+03  0.67188905974E+03  0.12091141345E+04  0.46999998093E+01 0.  1.
</event>
<event>
 5   0  0.1198313E-05  0.2416887E+04  0.7818609E-02  0.8433208E-01
       -2   -1    0    0    0  501  0.00000000000E+00  0.00000000000E+00  0.11640032776E+04  0.11640032776E+04  0.25500000920E-02 0.  1.
        2   -1    0    0  501    0  0.00000000000E+00  0.00000000000E+00 -0.12545799961E+04  0.12545799961E+04  0.25500000920E-02 0. -1.
    10030    2    1    2    0    0  0.00000000000E+00  0.00000000000E+00 -0.90576718501E+02  0.24185832738E+04  0.24168866151E+04 0.  0.
        5    1    3    3  502    0 -0.74832955836E+03  0.31039347575E+03 -0.94256260686E+03  0.12428948449E+04  0.46999998093E+01 0. -1.
       -5    1    3    3    0  502  0.74832955836E+03 -0.31039347575E+03  0.85198588836E+03  0.11756884288E+04  0.46999998093E+01 0.  1.
</event>
<event>
 5   0  0.5196696E-06  0.2390174E+04  0.7818609E-02  0.8443192E-01
       -1   -1    0    0    0  501  0.00000000000E+00  0.00000000000E+00  0.92156459379E+03  0.92156459380E+03  0.50400001928E-02 0.  1.
        1   -1    0    0  501    0  0.00000000000E+00  0.00000000000E+00 -0.15497910908E+04  0.15497910908E+04  0.50400001928E-02 0. -1.
    10030    2    1    2    0    0  0.00000000000E+00  0.00000000000E+00 -0.62822649705E+03  0.24713556847E+04  0.23901737151E+04 0.  0.
        1    1    3    3  502    0  0.23639175705E+03 -0.28941481613E+03  0.85960340824E+03  0.93731532479E+03  0.50400001928E-02 0.  1.
       -1    1    3    3    0  502 -0.23639175705E+03  0.28941481613E+03 -0.14878299053E+04  0.15340403599E+04  0.50400001928E-02 0. -1.
</event>
<event>
 5   0  0.5034479E-06  0.2396886E+04  0.7818609E-02  0.8440670E-01
       -1   -1    0    0    0  501  0.00000000000E+00  0.00000000000E+00  0.53541923436E+03  0.53541923439E+03  0.50400001928E-02 0. -1.
        1   -1    0    0  501    0  0.00000000000E+00  0.00000000000E+00 -0.26825067782E+04  0.26825067782E+04  0.50400001928E-02 0.  1.
    10030    2    1    2    0    0  0.00000000000E+00  0.00000000000E+00 -0.21470875438E+04  0.32179260126E+04  0.23968860844E+04 0.  0.
        4    1    3    3  502    0  0.46671138320E+03 -0.10743261207E+04 -0.73319358165E+03  0.13818721250E+04  0.12699999809E+01 0.  1.
       -4    1    3    3    0  502 -0.46671138320E+03  0.10743261207E+04 -0.14138939622E+04  0.18360538876E+04  0.12699999809E+01 0. -1.
</event>
<event>
 5   0  0.1174210E-05  0.2398259E+04  0.7818609E-02  0.8440156E-01
        2   -1    0    0  501    0  0.00000000000E+00  0.00000000000E+00  0.11827152212E+04  0.11827152212E+04  0.25500000920E-02 0.  1.
       -2   -1    0    0    0  501  0.00000000000E+00  0.00000000000E+00 -0.12157714534E+04  0.12157714534E+04  0.25500000920E-02 0. -1.
    10030    2    1    2    0    0  0.00000000000E+00  0.00000000000E+00 -0.33056232147E+02  0.23984866746E+04  0.23982588713E+04 0.  0.
        3    1    3    3  502    0 -0.88427500965E+03 -0.31227641358E+03 -0.76389592281E+03  0.12095436504E+04  0.10100000352E+00 0. -1.
       -3    1    3    3    0  502  0.88427500965E+03  0.31227641358E+03  0.73083969066E+03  0.11889430242E+04  0.10100000352E+00 0.  1.
</event>
<event>
 5   0  0.1168435E-05  0.2326291E+04  0.7818609E-02  0.8467626E-01
        2   -1    0    0  501    0  0.00000000000E+00  0.00000000000E+00  0.17368059872E+04  0.17368059872E+04  0.25500000920E-02 0. -1.
       -2   -1    0    0    0  501  0.00000000000E+00  0.00000000000E+00 -0.77896294933E+03  0.77896294934E+03  0.25500000920E-02 0.  1.
    10030    2    1    2    0    0  0.00000000000E+00  0.00000000000E+00  0.95784303785E+03  0.25157689365E+04  0.23262910516E+04 0.  0.
        1    1    3    3  502    0  0.34794419905E+03  0.50230656139E+01 -0.72135087532E+03  0.80089792245E+03  0.50400001928E-02 0.  1.
       -1    1    3    3    0  502 -0.34794419905E+03 -0.50230656139E+01  0.16791939132E+04  0.17148710141E+04  0.50400001928E-02 0. -1.
</event>
<event>
 5   0  0.1198313E-05  0.2391794E+04  0.7818609E-02  0.8442582E-01
       -2   -1    0    0    0  501  0.00000000000E+00  0.00000000000E+00  0.63256810866E+03  0.63256810867E+03  0.25500000920E-02 0.  1.
        2   -1    0    0  501    0  0.00000000000E+00  0.00000000000E+00 -0.22608952004E+04  0.22608952004E+04  0.25500000920E-02 0. -1.
    10030    2    1    2    0    0  0.00000000000E+00  0.00000000000E+00 -0.16283270918E+04  0.28934633091E+04  0.23917944735E+04 0.  0.
        5    1    3    3  502    0 -0.24121269047E+03  0.12332242389E+02 -0.22310710288E+04  0.22441113323E+04  0.46999998093E+01 0. -1.
       -5    1    3    3    0  502  0.24121269047E+03 -0.12332242389E+02  0.60274393699E+03  0.64935197684E+03  0.46999998093E+01 0.  1.
</event>
<event>
 5   0  0.4067750E-06  0.2396528E+04  0.7818609E-02  0.8440805E-01
        4   -1    0    0  501    0  0.00000000000E+00  0.00000000000E+00  0.12178137910E+04  0.12178144532E+04  0.12699999809E+01 0. -1.
       -4   -1    0    0    0  501  0.00000000000E+00  0.00000000000E+00 -0.11790263442E+04  0.11790270282E+04  0.12699999809E+01 0.  1.
    10030    2    1    2    0    0  0.00000000000E+00  0.00000000000E+00  0.38787446775E+02  0.23968414815E+04  0.23965276174E+04 0.  0.
        4    1    3    3  502    0 -0.26692491103E+03 -0.95990926063E+03  0.68518342825E+03  0.12091950380E+04  0.12699999809E+01 0. -1.
       -4    1    3    3    0  502  0.26692491103E+03  0.95990926063E+03 -0.64639598148E+03  0.11876464434E+04  0.12699999809E+01 0.  1.
</event>
<event>
 5   0  0.1174210E-05  0.2413298E+04  0.7818609E-02  0.8434542E-01
       -2   -1    0    0    0  501  0.00000000000E+00  0.00000000000E+00  0.94675400436E+03  0.94675400436E+03  0.25500000920E-02 0.  1.
        2   -1    0    0  501    0  0.00000000000E+00  0.00000000000E+00 -0.15378883084E+04  0.15378883084E+04  0.25500000920E-02 0. -1.
    10030    2    1    2    0    0  0.00000000000E+00  0.00000000000E+00 -0.59113430403E+03  0.24846423127E+04  0.24132980870E+04 0.  0.
        3    1    3    3  502    0 -0.10138586551E+04  0.65359947609E+03 -0.26467586410E+03  0.12349716478E+04  0.10100000352E+00 0.  1.
       -3    1    3    3    0  502  0.10138586551E+04 -0.65359947609E+03 -0.32645843993E+03  0.12496706649E+04  0.10100000352E+00 0. -1.
</event>
<event>
 5   0  0.1154897E-05  0.2401064E+04  0.7818609E-02  0.8439105E-01
       -2   -1    0    0    0  501  0.00000000000E+00  0.00000000000E+00  0.83634946017E+03  0.83634946017E+03  0.25500000920E-02 0.  1.
        2   -1    0    0  501    0  0.00000000000E+00  0.00000000000E+00 -0.17232955213E+04  0.17232955213E+04  0.25500000920E-02 0. -1.
    10030    2    1    2    0    0  0.00000000000E+00  0.00000000000E+00 -0.88694606111E+03  0.25596449814E+04  0.24010641632E+04 0.  0.
        4    1    3    3  502    0 -0.50136136557E+03  0.10589222556E+04 -0.16426642271E+03  0.11830742296E+04  0.12699999809E+01 0.  1.
       -4    1    3    3    0  502  0.50136136557E+03 -0.10589222556E+04 -0.72267963839E+03  0.13765707518E+04  0.12699999809E+01 0. -1.
</event>
<event>
 5   0  0.4067750E-06  0.2403556E+04  0.7818609E-02  0.8438173E-01
       -3   -1    0    0    0  501  0.00000000000E+00  0.00000000000E+00  0.78175302232E+03  0.78175302885E+03  0.10100000352E+00 0. -1.
        3   -1    0    0  501    0  0.00000000000E+00  0.00000000000E+00 -0.18474767425E+04  0.18474767453E+04  0.10100000352E+00 0.  1.
    10030    2    1    2    0    0  0.00000000000E+00  0.00000000000E+00 -0.10657237202E+04  0.26292297741E+04  0.24035561482E+04 0.  0.
        4    1    3    3  502    0  0.90179419007E+03  0.23850439133E+03  0.29601047174E+03  0.97864238525E+03  0.12699999809E+01 0. -1.
       -4    1    3    3    0  502 -0.90179419007E+03 -0.23850439133E+03 -0.13617341920E+04  0.16505873889E+04  0.12699999809E+01 0.  1.
</event>
<event>
 5   0  0.1174210E-05  0.2401532E+04  0.7818609E-02  0.8438930E-01
       -2   -1    0    0    0  501  0.00000000000E+00  0.00000000000E+00  0.21169928388E+04  0.21169928388E+04  0.25500000920E-02 0.  1.
        2   -1    0    0  501    0  0.00000000000E+00  0.00000000000E+00 -0.68107891451E+03  0.68107891451E+03  0.25500000920E-02 0. -1.
    10030    2    1    2    0    0  0.00000000000E+00  0.00000000000E+00  0.14359139243E+04  0.27980717533E+04  0.24015321648E+04 0.  0.
        3    1    3    3  502    0  0.92521680866E+03  0.73212457374E+03  0.97798133758E+03  0.15324751356E+04  0.10100000352E+00 0.  1.
       -3    1    3    3    0  502 -0.92521680866E+03 -0.73212457374E+03  0.45793258671E+03  0.12655966177E+04  0.10100000352E+00 0. -1.
</event>
<event>
 5   0  0.1154897E-05  0.2398545E+04  0.7818609E-02  0.8440048E-01
        2   -1    0    0  501    0  0.00000000000E+00  0.00000000000E+00  0.12908057398E+04  0.12908057398E+04  0.25500000920E-02 0.  1.
       -2   -1    0    0    0  501  0.00000000000E+00  0.00000000000E+00 -0.11142301822E+04  0.11142301822E+04  0.25500000920E-02 0. -1.
    10030    2    1    2    0    0  0.00000000000E+00  0.00000000000E+00  0.17657555756E+03  0.24050359220E+04  0.23985451545E+04 0.  0.
        4    1    3    3  502    0 -0.84656341909E+03 -0.62570984286E+03 -0.48778471238E+03  0.11602232408E+04  0.12699999809E+01 0. -1.
       -4    1    3    3    0  502  0.84656341909E+03  0.62570984286E+03  0.66436026994E+03  0.12448126812E+04  0.12699999809E+01 0.  1.
</event>
<event>
 5   0  0.1168435E-05  0.2401245E+04  0.7818609E-02  0.8439038E-01
       -2   -1    0    0    0  501  0.00000000000E+00  0.00000000000E+00  0.13351824356E+04  0.13351824356E+04  0.25500000920E-02 0. -1.
        2   -1    0    0  501    0  0.00000000000E+00  0.00000000000E+00 -0.10796235612E+04  0.10796235612E+04  0.25500000920E-02 0.  1.
    10030    2    1    2    0    0  0.00000000000E+00  0.00000000000E+00  0.25555887434E+03  0.24148059968E+04  0.24012450237E+04 0.  0.
        1    1    3    3  502    0 -0.76210613248E+03 -0.33037455780E+03  0.99959014065E+03  0.12996667092E+04  0.50400001928E-02 0. -1.
       -1    1    3    3    0  502  0.76210613248E+03  0.33037455780E+03 -0.74403126631E+03  0.11151392877E+04  0.50400001928E-02 0.  1.
</event>
<event>
 5   0  0.5034479E-06  0.2402194E+04  0.7818609E-02  0.8438683E-01
        1   -1    0    0  501    0  0.00000000000E+00  0.00000000000E+00  0.21431845582E+04  0.21431845582E+04  0.50400001928E-02 0. -1.
       -1   -1    0    0    0  501  0.00000000000E+00  0.00000000000E+00 -0.67312651357E+03  0.67312651359E+03  0.50400001928E-02 0.  1.
    10030    2    1    2    0    0  0.00000000000E+00  0.00000000000E+00  0.14700580446E+04  0.28163110718E+04  0.24021942882E+04 0.  0.
        4    1    3    3  502    0  0.10811371493E+03 -0.57496749780E+03  0.19648423821E+04  0.20500935097E+04  0.12699999809E+01 0. -1.
       -4    1    3    3    0  502 -0.10811371493E+03  0.57496749780E+03 -0.49478433754E+03  0.76621756209E+03  0.12699999809E+01 0.  1.
</event>
<event>
 5   0  0.1174210E-05  0.2399912E+04  0.7818609E-02  0.8439536E-01
        2   -1    0    0  501    0  0.00000000000E+00  0.00000000000E+00  0.13888859284E+04  0.13888859284E+04  0.25500000920E-02 0.  1.
       -2   -1    0    0    0  501  0.00000000000E+00  0.00000000000E+00 -0.10367262133E+04  0.10367262133E+04  0.25500000920E-02 0. -1.
    10030    2    1    2    0    0  0.00000000000E+00  0.00000000000E+00  0.35215971510E+03  0.24256121417E+04  0.23999120395E+04 0.  0.
        3    1    3    3  502    0  0.49906551371E+03  0.94551873155E+03  0.72672822411E+03  0.12927513220E+04  0.10100000352E+00 0.  1.
       -3    1    3    3    0  502 -0.49906551371E+03 -0.94551873155E+03 -0.37456850900E+03  0.11328608197E+04  0.10100000352E+00 0. -1.
</event>
<event>
 5   0  0.1198313E-05  0.2360187E+04  0.7818609E-02  0.8454561E-01
       -2   -1    0    0    0  501  0.00000000000E+00  0.00000000000E+00  0.65964946387E+03  0.65964946387E+03  0.25500000920E-02 0.  1.
        2   -1    0    0  501    0  0.00000000000E+00  0.00000000000E+00 -0.21111531822E+04  0.21111531822E+04  0.25500000920E-02 0. -1.
    10030    2    1    2    0    0  0.00000000000E+00  0.00000000000E+00 -0.14515037183E+04  0.27708026461E+04  0.23601873356E+04 0.  0.
        5    1    3    3  502    0 -0.16867086611E+02  0.11775506105E+04 -0.81429979846E+03  0.14317877603E+04  0.46999998093E+01 0.  1.
       -5    1    3    3    0  502  0.16867086611E+02 -0.11775506105E+04 -0.63720391984E+03  0.13390148857E+04  0.46999998093E+01 0. -1.
</event>
<event>
 5   0  0.5104174E-06  0.2413215E+04  0.7818609E-02  0.8434573E-01
       -1   -1    0    0    0  501  0.00000000000E+00  0.00000000000E+00  0.10944861651E+04  0.10944861651E+04  0.50400001928E-02 0.  1.
        1   -1    0    0  501    0  0.00000000000E+00  0.00000000000E+00 -0.13302148240E+04  0.13302148240E+04  0.50400001928E-02 0. -1.
    10030    2    1    2    0    0  0.00000000000E+00  0.00000000000E+00 -0.23572865887E+03  0.24247009892E+04  0.24132150518E+04 0.  0.
        3    1    3    3  502    0 -0.82250448706E+03  0.86982884301E+03 -0.26953266285E+03  0.12270956417E+04  0.10100000352E+00 0.  1.
       -3    1    3    3    0  502  0.82250448706E+03 -0.86982884301E+03  0.33804003974E+02  0.11976053475E+04  0.10100000352E+00 0. -1.
</event>
<event>
 5   0  0.5034479E-06  0.2407067E+04  0.7818609E-02  0.8436862E-01
        1   -1    0    0  501    0  0.00000000000E+00  0.00000000000E+00  0.24410421031E+04  0.24410421031E+04  0.50400001928E-02 0.  1.
       -1   -1    0    0    0  501  0.00000000000E+00  0.00000000000E+00 -0.59339128923E+03  0.59339128925E+03  0.50400001928E-02 0. -1.
    10030    2    1    2    0    0  0.00000000000E+00  0.00000000000E+00  0.18476508139E+04  0.30344333923E+04  0.24070671953E+04 0.  0.
        4    1    3    3  502    0  0.11974957250E+04 -0.11368902410E+03  0.97378064170E+03  0.15476341805E+04  0.12699999809E+01 0. -1.
       -4    1    3    3    0  502 -0.11974957250E+04  0.11368902410E+03  0.87387017216E+03  0.14867992118E+04  0.12699999809E+01 0.  1.
</event>
<event>
 5   0  0.1154897E-05  0.2394259E+04  0.7818609E-02  0.8441656E-01
        2   -1    0    0  501    0  0.00000000000E+00  0.00000000000E+00  0.14195195129E+04  0.14195195129E+04  0.25500000920E-02 0. -1.
       -2   -1    0    0    0  501  0.00000000000E+00  0.00000000000E+00 -0.10095806820E+04  0.10095806820E+04  0.25500000920E-02 0.  1.
    10030    2    1    2    0    0  0.00000000000E+00  0.00000000000E+00  0.40993883099E+03  0.24291001949E+04  0.23942593660E+04 0.  0.
        4    1    3    3  502    0  0.24960722893E+03 -0.11528850557E+04  0.41207258156E+03  0.12495011587E+04  0.12699999809E+01 0. -1.
       -4    1    3    3    0  502 -0.24960722893E+03  0.11528850557E+04 -0.21337505711E+01  0.11795990362E+04  0.12699999809E+01 0.  1.
</event>
<event>
 5   0  0.5104174E-06  0.2393080E+04  0.7818609E-02  0.8442099E-01
       -1   -1    0    0    0  501  0.00000000000E+00  0.00000000000E+00  0.67912556337E+03  0.67912556339E+03  0.50400001928E-02 0. -1.
        1   -1    0    0  501    0  0.00000000000E+00  0.00000000000E+00 -0.21081635823E+04  0.21081635823E+04  0.50400001928E-02 0.  1.
    10030    2    1    2    0    0  0.00000000000E+00  0.00000000000E+00 -0.14290380189E+04  0.27872891457E+04  0.23930798403E+04 0.  0.
        3    1    3    3  502    0  0.53714619882E+02 -0.10382181805E+04 -0.14044923509E+04  0.17473926361E+04  0.10100000352E+00 0.  1.
       -3    1    3    3    0  502 -0.53714619882E+02  0.10382181805E+04 -0.24545668018E+02  0.10398965096E+04  0.10100000352E+00 0. -1.
</event>
<event>
 5   0  0.1198313E-05  0.2397278E+04  0.7818609E-02  0.8440523E-01
       -2   -1    0    0    0  501  0.00000000000E+00  0.00000000000E+00  0.13429983000E+04  0.13429983000E+04  0.25500000920E-02 0.  1.
        2   -1    0    0  501    0  0.00000000000E+00  0.00000000000E+00 -0.10697968922E+04  0.10697968922E+04  0.25500000920E-02 0. -1.
    10030    2    1    2    0    0  0.00000000000E+00  0.00000000000E+00  0.27320140780E+03  0.24127951922E+04  0.23972779627E+04 0.  0.
        5    1    3    3  502    0  0.87158719355E+02  0.26643184768E+03  0.13095327615E+04  0.13392089887E+04  0.46999998093E+01 0.  1.
       -5    1    3    3    0  502 -0.87158719355E+02 -0.26643184768E+03 -0.10363313537E+04  0.10735862036E+04  0.46999998093E+01 0. -1.
</event>
<event>
 5   0  0.1169371E-05  0.2400943E+04  0.7818609E-02  0.8439151E-01
        2   -1    0    0  501    0  0.00000000000E+00  0.00000000000E+00  0.11527644533E+04  0.11527644533E+04  0.25500000920E-02 0.  1.
       -2   -1    0    0    0  501  0.00000000000E+00  0.00000000000E+00 -0.12501528169E+04  0.12501528169E+04  0.25500000920E-02 0. -1.
    10030    2    1    2    0    0  0.00000000000E+00  0.00000000000E+00 -0.97388363693E+02  0.24029172702E+04  0.24009429219E+04 0.  0.
        2    1    3    3  502    0 -0.10000514103E+04  0.37458390645E+03 -0.59752072654E+03  0.12237021471E+04  0.25500000920E-02 0. -1.
       -2    1    3    3    0  502  0.10000514103E+04 -0.37458390645E+03  0.50013236284E+03  0.11792151231E+04  0.25500000920E-02 0.  1.
</event>
<event>
 5   0  0.1198313E-05  0.2417836E+04  0.7818609E-02  0.8432856E-01
        2   -1    0    0  501    0  0.00000000000E+00  0.00000000000E+00  0.67071168184E+03  0.67071168185E+03  0.25500000920E-02 0.  1.
       -2   -1    0    0    0  501  0.00000000000E+00  0.00000000000E+00 -0.21790021118E+04  0.21790021118E+04  0.25500000920E-02 0. -1.
    10030    2    1    2    0    0  0.00000000000E+00  0.00000000000E+00 -0.15082904300E+04  0.28497137936E+04  0.24178355371E+04 0.  0.
        5    1    3    3  502    0 -0.11760798879E+04 -0.26623331138E+03 -0.65264676289E+03  0.13711360129E+04  0.46999998093E+01 0. -1.
       -5    1    3    3    0  502  0.11760798879E+04  0.26623331138E+03 -0.85564366706E+03  0.14785777808E+04  0.46999998093E+01 0.  1.
</event>
<event>
 5   0  0.5042742E-06  0.2396083E+04  0.7818609E-02  0.8440971E-01
       -1   -1    0    0    0  501  0.00000000000E+00  0.00000000000E+00  0.89509989220E+03  0.89509989221E+03  0.50400001928E-02 0. -1.
        1   -1    0    0  501    0  0.00000000000E+00  0.00000000000E+00 -0.16035122715E+04  0.16035122715E+04  0.50400001928E-02 0.  1.
    10030    2    1    2    0    0  0.00000000000E+00  0.00000000000E+00 -0.70841237932E+03  0.24986121637E+04  0.23960831884E+04 0.  0.
        5    1    3    3  502    0 -0.10355898998E+04  0.15249864753E+03 -0.96187585627E+03  0.14215940106E+04  0.46999998093E+01 0.  1.
       -5    1    3    3    0  502  0.10355898998E+04 -0.15249864753E+03  0.25346347695E+03  0.10770181531E+04  0.46999998093E+01 0. -1.
</event>
<event>
 5   0  0.5034479E-06  0.2388628E+04  0.7818609E-02  0.8443773E-01
       -1   -1    0    0    0  501  0.00000000000E+00  0.00000000000E+00  0.79019832800E+03  0.79019832801E+03  0.50400001928E-02 0.  1.
        1   -1    0    0  501    0  0.00000000000E+00  0.00000000000E+00 -0.18050983987E+04  0.18050983987E+04  0.50400001928E-02 0. -1.
    10030    2    1    2    0    0  0.00000000000E+00  0.00000000000E+00 -0.10149000707E+04  0.25952967268E+04  0.23886278376E+04 0.  0.
        4    1    3    3  502    0 -0.15138696096E+03  0.43050130689E+03  0.69173498127E+03  0.82870277204E+03  0.12699999809E+01 0.  1.
       -4    1    3    3    0  502  0.15138696096E+03 -0.43050130689E+03 -0.17066350520E+04  0.17665939547E+04  0.12699999809E+01 0. -1.
</event>
<event>
 5   0  0.1174210E-05  0.2404409E+04  0.7818609E-02  0.8437855E-01
       -2   -1    0    0    0  501  0.00000000000E+00  0.00000000000E+00  0.96660504146E+03  0.96660504147E+03  0.25500000920E-02 0. -1.
        2   -1    0    0  501    0  0.00000000000E+00  0.00000000000E+00 -0.14952288075E+04  0.14952288075E+04  0.25500000920E-02 0.  1.
    10030    2    1    2    0    0  0.00000000000E+00  0.00000000000E+00 -0.52862376603E+03  0.24618338490E+04  0.24044090363E+04 0.  0.
        3    1    3    3  502    0  0.10484448993E+04  0.52052323373E+03  0.16304111101E+02  0.11706609151E+04  0.10100000352E+00 0. -1.
       -3    1    3    3    0  502 -0.10484448993E+04 -0.52052323373E+03 -0.54492787713E+03  0.12911729339E+04  0.10100000352E+00 0.  1.
</event>
<event>
 5   0  0.5064437E-06  0.2426880E+04  0.7818609E-02  0.8429508E-01
       -1   -1    0    0    0  501  0.00000000000E+00  0.00000000000E+00  0.83909394540E+03  0.83909394541E+03  0.50400001928E-02 0. -1.
        1   -1    0    0  501    0  0.00000000000E+00  0.00000000000E+00 -0.17547934277E+04  0.17547934278E+04  0.50400001928E-02 0.  1.
    10030    2    1    2    0    0  0.00000000000E+00  0.00000000000E+00 -0.91569948235E+03  0.25938873732E+04  0.24268799234E+04 0.  0.
        2    1    3    3  502    0 -0.20921293686E+03  0.11929367676E+04 -0.37809319618E+03  0.12687878662E+04  0.25500000920E-02 0. -1.
       -2    1    3    3    0  502  0.20921293686E+03 -0.11929367676E+04 -0.53760628617E+03  0.13250995070E+04  0.25500000920E-02 0.  1.
</event>
<event>
 5   0  0.1154897E-05  0.2380026E+04  0.7818609E-02  0.8447020E-01
        2   -1    0    0  501    0  0.00000000000E+00  0.00000000000E+00  0.12945862437E+04  0.12945862437E+04  0.25500000920E-02 0.  1.
       -2   -1    0    0    0  501  0.00000000000E+00  0.00000000000E+00 -0.10938866919E+04  0.10938866919E+04  0.25500000920E-02 0. -1.
    10030    2    1    2    0    0  0.00000000000E+00  0.00000000000E+00  0.20069955177E+03  0.23884729356E+04  0.23800257675E+04 0.  0.
        4    1    3    3  502    0 -0.75871341137E+03  0.89159705312E+03 -0.11380325953E+03  0.11762415315E+04  0.12699999809E+01 0. -1.
       -4    1    3    3    0  502  0.75871341137E+03 -0.89159705312E+03  0.31450281130E+03  0.12122314040E+04  0.12699999809E+01 0.  1.
</event>
<event>
 5   0  0.5034479E-06  0.2292685E+04  0.7818609E-02  0.8480811E-01
       -1   -1    0    0    0  501  0.00000000000E+00  0.00000000000E+00  0.62097033188E+03  0.62097033190E+03  0.50400001928E-02 0. -1.
        1   -1    0    0  501    0  0.00000000000E+00  0.00000000000E+00 -0.21162062191E+04  0.21162062191E+04  0.50400001928E-02 0.  1.
    10030    2    1    2    0    0  0.00000000000E+00  0.00000000000E+00 -0.14952358872E+04  0.27371765510E+04  0.22926851316E+04 0.  0.
        4    1    3    3  502    0 -0.40945698357E+03 -0.10161492265E+04 -0.34472245018E+03  0.11484987821E+04  0.12699999809E+01 0.  1.
       -4    1    3    3    0  502  0.40945698357E+03  0.10161492265E+04 -0.11505134370E+04  0.15886777689E+04  0.12699999809E+01 0. -1.
</event>
<event>
 5   0  0.5196696E-06  0.2405612E+04  0.7818609E-02  0.8437406E-01
       -1   -1    0    0    0  501  0.00000000000E+00  0.00000000000E+00  0.80098331869E+03  0.80098331871E+03  0.50400001928E-02 0.  1.
        1   -1    0    0  501    0  0.00000000000E+00  0.00000000000E+00 -0.18062072174E+04  0.18062072174E+04  0.50400001928E-02 0. -1.
    10030    2    1    2    0    0  0.00000000000E+00  0.00000000000E+00 -0.10052238987E+04  0.26071905361E+04  0.24056116489E+04 0.  0.
        1    1    3    3  502    0 -0.43409450567E+03  0.11154850939E+04 -0.63083375566E+03  0.13530322472E+04  0.50400001928E-02 0. -1.
       -1    1    3    3    0  502  0.43409450567E+03 -0.11154850939E+04 -0.37439014307E+03  0.12541582890E+04  0.50400001928E-02 0.  1.
</event>
<event>
 5   0  0.5042742E-06  0.2403335E+04  0.7818609E-02  0.8438256E-01
       -1   -1    0    0    0  501  0.00000000000E+00  0.00000000000E+00  0.70929513933E+03  0.70929513935E+03  0.50400001928E-02 0. -1.
        1   -1    0    0  501    0  0.00000000000E+00  0.00000000000E+00 -0.20358309782E+04  0.20358309782E+04  0.50400001928E-02 0.  1.
    10030    2    1    2    0    0  0.00000000000E+00  0.00000000000E+00 -0.13265358388E+04  0.27451261175E+04  0.24033351971E+04 0.  0.
        5    1    3    3  502    0  0.11069594328E+04  0.16700542096E+03 -0.16442846426E+03  0.11315073161E+04  0.46999998093E+01 0. -1.
       -5    1    3    3    0  502 -0.11069594328E+04 -0.16700542096E+03 -0.11621073746E+04  0.16136188015E+04  0.46999998093E+01 0.  1.
</event>
<event>
 5   0  0.5104174E-06  0.2347902E+04  0.7818609E-02  0.8459270E-01
        1   -1    0    0  501    0  0.00000000000E+00  0.00000000000E+00  0.10372659053E+04  0.10372659053E+04  0.50400001928E-02 0. -1.
       -1   -1    0    0    0  501  0.00000000000E+00  0.00000000000E+00 -0.13286472485E+04  0.13286472485E+04  0.50400001928E-02 0.  1.
    10030    2    1    2    0    0  0.00000000000E+00  0.00000000000E+00 -0.29138134320E+03  0.23659131539E+04  0.23479016088E+04 0.  0.
        3    1    3    3  502    0 -0.31020645497E+03 -0.11022067686E+04  0.11528001034E+03  0.11508159264E+04  0.10100000352E+00 0. -1.
       -3    1    3    3    0  502  0.31020645497E+03  0.11022067686E+04 -0.40666135355E+03  0.12150972275E+04  0.10100000352E+00 0.  1.
</event>
<event>
 5   0  0.1169371E-05  0.2417536E+04  0.7818609E-02  0.8432968E-01
       -2   -1    0    0    0  501  0.00000000000E+00  0.00000000000E+00  0.15730288691E+04  0.15730288691E+04  0.25500000920E-02 0.  1.
        2   -1    0    0  501    0  0.00000000000E+00  0.00000000000E+00 -0.92885738731E+03  0.92885738731E+03  0.25500000920E-02 0. -1.
    10030    2    1    2    0    0  0.00000000000E+00  0.00000000000E+00  0.64417148174E+03  0.25018862564E+04  0.24175355100E+04 0.  0.
        2    1    3    3  502    0 -0.34487026586E+03  0.11385035078E+04  0.54403009417E+03  0.13080881013E+04  0.25500000920E-02 0.  1.
       -2    1    3    3    0  502  0.34487026586E+03 -0.11385035078E+04  0.10014138757E+03  0.11937981550E+04  0.25500000920E-02 0. -1.
</event>
<event>
 5   0  0.5034479E-06  0.2402041E+04  0.7818609E-02  0.8438740E-01
       -1   -1    0    0    0  501  0.00000000000E+00  0.00000000000E+00  0.86069369631E+03  0.86069369633E+03  0.50400001928E-02 0.  1.
        1   -1    0    0  501    0  0.00000000000E+00  0.00000000000E+00 -0.16759162033E+04  0.16759162033E+04  0.50400001928E-02 0. -1.
    10030    2    1    2    0    0  0.00000000000E+00  0.00000000000E+00 -0.81522250695E+03  0.25366098996E+04  0.24020412251E+04 0.  0.
        4    1    3    3  502    0  0.35142234436E+03  0.11154707437E+04 -0.11903240896E+03  0.11755607052E+04  0.12699999809E+01 0. -1.
       -4    1    3    3    0  502 -0.35142234436E+03 -0.11154707437E+04 -0.69619009799E+03  0.13610491944E+04  0.12699999809E+01 0.  1.
</event>
<event>
 5   0  0.1174210E-05  0.2397473E+04  0.7818609E-02  0.8440450E-01
       -2   -1    0    0    0  501  0.00000000000E+00  0.00000000000E+00  0.10415028321E+04  0.10415028321E+04  0.25500000920E-02 0. -1.
        2   -1    0    0  501    0  0.00000000000E+00  0.00000000000E+00 -0.13797073722E+04  0.13797073722E+04  0.25500000920E-02 0.  1.
    10030    2    1    2    0    0  0.00000000000E+00  0.00000000000E+00 -0.33820454008E+03  0.24212102043E+04  0.23974729493E+04 0.  0.
        3    1    3    3  502    0  0.13951751871E+03  0.66042153963E+03 -0.11695402323E+04  0.13503503669E+04  0.10100000352E+00 0.  1.
       -3    1    3    3    0  502 -0.13951751871E+03 -0.66042153963E+03  0.83133569225E+03  0.10708598374E+04  0.10100000352E+00 0. -1.
</event>
<event>
 5   0  0.1154897E-05  0.2439893E+04  0.7818609E-02  0.8424717E-01
       -2   -1    0    0    0  501  0.00000000000E+00  0.00000000000E+00  0.97238082976E+03  0.97238082977E+03  0.25500000920E-02 0. -1.
        2   -1    0    0  501    0  0.00000000000E+00  0.00000000000E+00 -0.15305417093E+04  0.15305417093E+04  0.25500000920E-02 0.  1.
    10030    2    1    2    0    0  0.00000000000E+00  0.00000000000E+00 -0.55816087952E+03  0.25029225391E+04  0.24398929626E+04 0.  0.
        4    1    3    3  502    0 -0.10757773894E+04 -0.52244650959E+03 -0.52617728965E+03  0.13065647707E+04  0.12699999809E+01 0.  1.
       -4    1    3    3    0  502  0.10757773894E+04  0.52244650959E+03 -0.31983589871E+02  0.11963577684E+04  0.12699999809E+01 0. -1.
</event>
<event>
 5   0  0.5196696E-06  0.2398919E+04  0.7818609E-02  0.8439908E-01
       -1   -1    0    0    0  501  0.00000000000E+00  0.00000000000E+00  0.63627496661E+03  0.63627496663E+03  0.50400001928E-02 0. -1.
        1   -1    0    0  501    0  0.00000000000E+00  0.00000000000E+00 -0.22611350141E+04  0.22611350141E+04  0.50400001928E-02 0.  1.
    10030    2    1    2    0    0  0.00000000000E+00  0.00000000000E+00 -0.16248600475E+04  0.28974099807E+04  0.23989194281E+04 0.  0.
        1    1    3    3  502    0 -0.60634403685E+02  0.11209559169E+04 -0.30216589491E+03  0.11625501824E+04  0.50400001928E-02 0. -1.
       -1    1    3    3    0  502  0.60634403685E+02 -0.11209559169E+04 -0.13226941526E+04  0.17348597983E+04  0.50400001928E-02 0.  1.
</event>
<event>
 5   0  0.1198313E-05  0.2382873E+04  0.7818609E-02  0.8445943E-01
       -2   -1    0    0    0  501  0.00000000000E+00  0.00000000000E+00  0.11801920986E+04  0.11801920986E+04  0.25500000920E-02 0.  1.
        2   -1    0    0  501    0  0.00000000000E+00  0.00000000000E+00 -0.12027883852E+04  0.12027883852E+04  0.25500000920E-02 0. -1.
    10030    2    1    2    0    0  0.00000000000E+00  0.00000000000E+00 -0.22596286580E+02  0.23829804838E+04  0.23828733483E+04 0.  0.
        5    1    3    3  502    0 -0.11869669375E+04  0.42906342170E+02  0.82342563561E+02  0.11906023067E+04  0.46999998093E+01 0. -1.
       -5    1    3    3    0  502  0.11869669375E+04 -0.42906342170E+02 -0.10493885014E+03  0.11923781771E+04  0.46999998093E+01 0.  1.
</event>
<event>
 5   0  0.1168435E-05  0.2408010E+04  0.7818609E-02  0.8436511E-01
        2   -1    0    0  501    0  0.00000000000E+00  0.00000000000E+00  0.12608191833E+04  0.12608191833E+04  0.25500000920E-02 0.  1.
       -2   -1    0    0    0  501  0.00000000000E+00  0.00000000000E+00 -0.11497511680E+04  0.11497511680E+04  0.25500000920E-02 0. -1.
    10030    2    1    2    0    0  0.00000000000E+00  0.00000000000E+00  0.11106801529E+03  0.24105703514E+04  0.24080102398E+04 0.  0.
        1    1    3    3  502    0  0.74834024064E+03 -0.81750572060E+03  0.52645907145E+03  0.12269832407E+04  0.50400001928E-02 0.  1.
       -1    1    3    3    0  502 -0.74834024064E+03  0.81750572060E+03 -0.41539105616E+03  0.11835871107E+04  0.50400001928E-02 0. -1.
</event>
<event>
 5   0  0.1174210E-05  0.2415288E+04  0.7818609E-02  0.8433802E-01
        2   -1    0    0  501    0  0.00000000000E+00  0.00000000000E+00  0.14754057655E+04  0.14754057655E+04  0.25500000920E-02 0.  1.
       -2   -1    0    0    0  501  0.00000000000E+00  0.00000000000E+00 -0.98847691669E+03  0.98847691669E+03  0.25500000920E-02 0. -1.
    10030    2    1    2    0    0  0.00000000000E+00  0.00000000000E+00  0.48692884885E+03  0.24638826822E+04  0.24152884234E+04 0.  0.
        3    1    3    3  502    0 -0.83281492182E+03  0.20451828615E+02 -0.64842896307E+03  0.10556794502E+04  0.10100000352E+00 0. -1.
       -3    1    3    3    0  502  0.83281492182E+03 -0.20451828615E+02  0.11353578119E+04  0.14082032320E+04  0.10100000352E+00 0.  1.
</event>
<event>
 5   0  0.5196696E-06  0.2393974E+04  0.7818609E-02  0.8441763E-01
        1   -1    0    0  501    0  0.00000000000E+00  0.00000000000E+00  0.17393471732E+04  0.17393471732E+04  0.50400001928E-02 0.  1.
       -1   -1    0    0    0  501  0.00000000000E+00  0.00000000000E+00 -0.82374442333E+03  0.82374442334E+03  0.50400001928E-02 0. -1.
    10030    2    1    2    0    0  0.00000000000E+00  0.00000000000E+00  0.91560274991E+03  0.25630915966E+04  0.23939737126E+04 0.  0.
        1    1    3    3  502    0  0.19988729667E+03  0.11591533546E+04  0.69524797639E+03  0.13663678786E+04  0.50400001928E-02 0. -1.
       -1    1    3    3    0  502 -0.19988729667E+03 -0.11591533546E+04  0.22035477353E+03  0.11967237180E+04  0.50400001928E-02 0.  1.
</event>
<event>
 5   0  0.5064437E-06  0.2400902E+04  0.7818609E-02  0.8439166E-01
       -1   -1    0    0    0  501  0.00000000000E+00  0.00000000000E+00  0.15840044254E+04  0.15840044254E+04  0.50400001928E-02 0. -1.
        1   -1    0    0  501    0  0.00000000000E+00  0.00000000000E+00 -0.90977213257E+03  0.90977213259E+03  0.50400001928E-02 0.  1.
    10030    2    1    2    0    0  0.00000000000E+00  0.00000000000E+00  0.67423229279E+03  0.24937765580E+04  0.24009024004E+04 0.  0.
        2    1    3    3  502    0  0.13359486375E+03 -0.75515184389E+03  0.12964124239E+04  0.15062493378E+04  0.25500000920E-02 0. -1.
       -2    1    3    3    0  502 -0.13359486375E+03  0.75515184389E+03 -0.62218013108E+03  0.98752722012E+03  0.25500000920E-02 0.  1.
</event>
<event>
 5   0  0.1168435E-05  0.2397571E+04  0.7818609E-02  0.8440413E-01
       -2   -1    0    0    0  501  0.00000000000E+00  0.00000000000E+00  0.78580931874E+03  0.78580931874E+03  0.25500000920E-02 0.  1.
        2   -1    0    0  501    0  0.00000000000E+00  0.00000000000E+00 -0.18287987568E+04  0.18287987568E+04  0.25500000920E-02 0. -1.
    10030    2    1    2    0    0  0.00000000000E+00  0.00000000000E+00 -0.10429894380E+04  0.26146080755E+04  0.23975713588E+04 0.  0.
        1    1    3    3  502    0 -0.65443029904E+03 -0.97198914443E+03 -0.79747517135E+03  0.14173949916E+04  0.50400001928E-02 0. -1.
       -1    1    3    3    0  502  0.65443029904E+03  0.97198914443E+03 -0.24551426668E+03  0.11972130839E+04  0.50400001928E-02 0.  1.
</event>
<event>
 5   0  0.1174210E-05  0.2397926E+04  0.7818609E-02  0.8440280E-01
       -2   -1    0    0    0  501  0.00000000000E+00  0.00000000000E+00  0.92555910309E+03  0.92555910309E+03  0.25500000920E-02 0.  1.
        2   -1    0    0  501    0  0.00000000000E+00  0.00000000000E+00 -0.15531288424E+04  0.15531288424E+04  0.25500000920E-02 0. -1.
    10030    2    1    2    0    0  0.00000000000E+00  0.00000000000E+00 -0.62756973928E+03  0.24786879455E+04  0.23979262193E+04 0.  0.
        3    1    3    3  502    0  0.58765633148E+03  0.10434414032E+04 -0.37408130443E+03  0.12546102018E+04  0.10100000352E+00 0. -1.
       -3    1    3    3    0  502 -0.58765633148E+03 -0.10434414032E+04 -0.25348843486E+03  0.12240777437E+04  0.10100000352E+00 0.  1.
</event>
<event>
 5   0  0.5042742E-06  0.2407666E+04  0.7818609E-02  0.8436639E-01
        1   -1    0    0  501    0  0.00000000000E+00  0.00000000000E+00  0.13326850080E+04  0.13326850080E+04  0.50400001928E-02 0. -1.
       -1   -1    0    0    0  501  0.00000000000E+00  0.00000000000E+00 -0.10874389506E+04  0.10874389506E+04  0.50400001928E-02 0.  1.
    10030    2    1    2    0    0  0.00000000000E+00  0.00000000000E+00  0.24524605743E+03  0.24201239587E+04  0.24076657465E+04 0.  0.
        5    1    3    3  502    0 -0.29091897366E+03 -0.54875388994E+03  0.11591848782E+04  0.13151031719E+04  0.46999998093E+01 0. -1.
       -5    1    3    3    0  502  0.29091897366E+03  0.54875388994E+03 -0.91393882079E+03  0.11050207867E+04  0.46999998093E+01 0.  1.
</event>
<event>
 5   0  0.1174210E-05  0.2400208E+04  0.7818609E-02  0.8439426E-01
       -2   -1    0    0    0  501  0.00000000000E+00  0.00000000000E+00  0.12197249691E+04  0.12197249691E+04  0.25500000920E-02 0.  1.
        2   -1    0    0  501    0  0.00000000000E+00  0.00000000000E+00 -0.11807987168E+04  0.11807987168E+04  0.25500000920E-02 0. -1.
    10030    2    1    2    0    0  0.00000000000E+00  0.00000000000E+00  0.38926252348E+02  0.24005236859E+04  0.24002080563E+04 0.  0.
        3    1    3    3  502    0  0.51207133582E+03 -0.10849644799E+04 -0.10284565863E+02  0.11997794623E+04  0.10100000352E+00 0.  1.
       -3    1    3    3    0  502 -0.51207133582E+03  0.10849644799E+04  0.49210818210E+02  0.12007442236E+04  0.10100000352E+00 0. -1.
</event>
<event>
 5   0  0.5034479E-06  0.2402363E+04  0.7818609E-02  0.8438619E-01
       -1   -1    0    0    0  501  0.00000000000E+00  0.00000000000E+00  0.10921410171E+04  0.10921410171E+04  0.50400001928E-02 0. -1.
        1   -1    0    0  501    0  0.00000000000E+00  0.00000000000E+00 -0.13211090616E+04  0.13211090616E+04  0.50400001928E-02 0.  1.
    10030    2    1    2    0    0  0.00000000000E+00  0.00000000000E+00 -0.22896804454E+03  0.24132500788E+04  0.24023633316E+04 0.  0.
        4    1    3    3  502    0 -0.54189675451E+01 -0.11114566637E+04  0.34306940871E+03  0.11632125828E+04  0.12699999809E+01 0. -1.
       -4    1    3    3    0  502  0.54189675451E+01  0.11114566637E+04 -0.57203745324E+03  0.12500374960E+04  0.12699999809E+01 0.  1.
</event>
<event>
 5   0  0.5034479E-06  0.2399360E+04  0.7818609E-02  0.8439743E-01
       -1   -1    0    0    0  501  0.00000000000E+00  0.00000000000E+00  0.20905149191E+04  0.20905149191E+04  0.50400001928E-02 0. -1.
        1   -1    0    0  501    0  0.00000000000E+00  0.00000000000E+00 -0.68845801926E+03  0.68845801928E+03  0.50400001928E-02 0.  1.
    10030    2    1    2    0    0  0.00000000000E+00  0.00000000000E+00  0.14020568998E+04  0.27789729384E+04  0.23993597150E+04 0.  0.
        4    1    3    3  502    0 -0.10990018576E+04 -0.93287686122E+02  0.15442675500E+03  0.11137131188E+04  0.12699999809E+01 0.  1.
       -4    1    3    3    0  502  0.10990018576E+04  0.93287686122E+02  0.12476301448E+04  0.16652598196E+04  0.12699999809E+01 0. -1.
</event>
<event>
 5   0  0.1174210E-05  0.2407963E+04  0.7818609E-02  0.8436529E-01
        2   -1    0    0  501    0  0.00000000000E+00  0.00000000000E+00  0.13136496262E+04  0.13136496262E+04  0.25500000920E-02 0.  1.
       -2   -1    0    0    0  501  0.00000000000E+00  0.00000000000E+00 -0.11034684370E+04  0.11034684370E+04  0.25500000920E-02 0. -1.
    10030    2    1    2    0    0  0.00000000000E+00  0.00000000000E+00  0.21018118920E+03  0.24171180633E+04  0.24079625412E+04 0.  0.
        3    1    3    3  502    0 -0.28881491143E+03 -0.91064326776E+03  0.84060138023E+03  0.12725155814E+04  0.10100000352E+00 0.  1.
       -3    1    3    3    0  502  0.28881491143E+03  0.91064326776E+03 -0.63042019102E+03  0.11446024819E+04  0.10100000352E+00 0. -1.
</event>
<event>
 5   0  0.5104174E-06  0.2398227E+04  0.7818609E-02  0.8440168E-01
        1   -1    0    0  501    0  0.00000000000E+00  0.00000000000E+00  0.81703458972E+03  0.81703458973E+03  0.50400001928E-02 0.  1.
       -1   -1    0    0    0  501  0.00000000000E+00  0.00000000000E+00 -0.17598675023E+04  0.17598675023E+04  0.50400001928E-02 0. -1.
    10030    2    1    2    0    0  0.00000000000E+00  0.00000000000E+00 -0.94283291255E+03  0.25769020920E+04  0.23982265303E+04 0.  0.
        3    1    3    3  502    0 -0.35928118664E+03  0.91823823898E+03  0.26179179229E+03  0.10201859572E+04  0.10100000352E+00 0.  1.
       -3    1    3    3    0  502  0.35928118664E+03 -0.91823823898E+03 -0.12046247048E+04  0.15567161348E+04  0.10100000352E+00 0. -1.
</event>
<event>
 5   0  0.5196696E-06  0.2397930E+04  0.7818609E-02  0.8440279E-01
       -1   -1    0    0    0  501  0.00000000000E+00  0.00000000000E+00  0.26426367779E+04  0.26426367779E+04  0.50400001928E-02 0. -1.
        1   -1    0    0  501    0  0.00000000000E+00  0.00000000000E+00 -0.54397091923E+03  0.54397091925E+03  0.50400001928E-02 0.  1.
    10030    2    1    2    0    0  0.00000000000E+00  0.00000000000E+00  0.20986658587E+04  0.31866076972E+04  0.23979304054E+04 0.  0.
        1    1    3    3  502    0 -0.43322296389E+03  0.39078239342E+03  0.24412712500E+04  0.25100195879E+04  0.50400001928E-02 0. -1.
       -1    1    3    3    0  502  0.43322296389E+03 -0.39078239342E+03 -0.34260539132E+03  0.67658810929E+03  0.50400001928E-02 0.  1.
</event>
<event>
 5   0  0.5034479E-06  0.2404376E+04  0.7818609E-02  0.8437867E-01
        1   -1    0    0  501    0  0.00000000000E+00  0.00000000000E+00  0.19295683589E+04  0.19295683589E+04  0.50400001928E-02 0.  1.
       -1   -1    0    0    0  501  0.00000000000E+00  0.00000000000E+00 -0.74900464006E+03  0.74900464008E+03  0.50400001928E-02 0. -1.
    10030    2    1    2    0    0  0.00000000000E+00  0.00000000000E+00  0.11805637188E+04  0.26785729990E+04  0.24043757228E+04 0.  0.
        4    1    3    3  502    0 -0.46453729387E+03 -0.10656836901E+04  0.24912800319E+03  0.11889251446E+04  0.12699999809E+01 0. -1.
       -4    1    3    3    0  502  0.46453729387E+03  0.10656836901E+04  0.93143571562E+03  0.14896478543E+04  0.12699999809E+01 0.  1.
</event>
<event>
 5   0  0.1169371E-05  0.2389489E+04  0.7818609E-02  0.8443449E-01
       -2   -1    0    0    0  501  0.00000000000E+00  0.00000000000E+00  0.11148513212E+04  0.11148513212E+04  0.25500000920E-02 0.  1.
        2   -1    0    0  501    0  0.00000000000E+00  0.00000000000E+00 -0.12803629047E+04  0.12803629047E+04  0.25500000920E-02 0. -1.
    10030    2    1    2    0    0  0.00000000000E+00  0.00000000000E+00 -0.16551158345E+03  0.23952142259E+04  0.23894888792E+04 0.  0.
        2    1    3    3  502    0  0.46171453569E+03  0.58473641927E+03  0.85346134750E+03  0.11329136173E+04  0.25500000920E-02 0.  1.
       -2    1    3    3    0  502 -0.46171453569E+03 -0.58473641927E+03 -0.10189729310E+04  0.12623006086E+04  0.25500000920E-02 0. -1.
</event>
<event>
 5   0  0.1169371E-05  0.2395063E+04  0.7818609E-02  0.8441354E-01
       -2   -1    0    0    0  501  0.00000000000E+00  0.00000000000E+00  0.10402391697E+04  0.10402391697E+04  0.25500000920E-02 0. -1.
        2   -1    0    0  501    0  0.00000000000E+00  0.00000000000E+00 -0.13786078282E+04  0.13786078282E+04  0.25500000920E-02 0.  1.
    10030    2    1    2    0    0  0.00000000000E+00  0.00000000000E+00 -0.33836865851E+03  0.24188469979E+04  0.23950631412E+04 0.  0.
        2    1    3    3  502    0  0.12629160946E+03  0.50351661814E+03  0.92070008138E+03  0.10569613026E+04  0.25500000920E-02 0. -1.
       -2    1    3    3    0  502 -0.12629160946E+03 -0.50351661814E+03 -0.12590687399E+04  0.13618856953E+04  0.25500000920E-02 0.  1.
</event>
<event>
 5   0  0.1169371E-05  0.2399364E+04  0.7818609E-02  0.8439742E-01
        2   -1    0    0  501    0  0.00000000000E+00  0.00000000000E+00  0.12926523771E+04  0.12926523771E+04  0.25500000920E-02 0.  1.
       -2   -1    0    0    0  501  0.00000000000E+00  0.00000000000E+00 -0.11133980198E+04  0.11133980198E+04  0.25500000920E-02 0. -1.
    10030    2    1    2    0    0  0.00000000000E+00  0.00000000000E+00  0.17925435731E+03  0.24060503970E+04  0.23993637465E+04 0.  0.
        2    1    3    3  502    0  0.10777200326E+03  0.11513222317E+04  0.41001547378E+03  0.12268946062E+04  0.25500000920E-02 0.  1.
       -2    1    3    3    0  502 -0.10777200326E+03 -0.11513222317E+04 -0.23076111648E+03  0.11791557908E+04  0.25500000920E-02 0. -1.
</event>
<event>
 5   0  0.5064437E-06  0.2416133E+04  0.7818609E-02  0.8433488E-01
        1   -1    0    0  501    0  0.00000000000E+00  0.00000000000E+00  0.86333026615E+03  0.86333026616E+03  0.50400001928E-02 0.  1.
       -1   -1    0    0    0  501  0.00000000000E+00  0.00000000000E+00 -0.16904599537E+04  0.16904599537E+04  0.50400001928E-02 0. -1.
    10030    2    1    2    0    0  0.00000000000E+00  0.00000000000E+00 -0.82712968754E+03  0.25537902199E+04  0.24161334746E+04 0.  0.
        2    1    3    3  502    0 -0.96820271600E+03  0.62727008608E+03 -0.34612058826E+02  0.11541586783E+04  0.25500000920E-02 0.  1.
       -2    1    3    3    0  502  0.96820271600E+03 -0.62727008608E+03 -0.79251762871E+03  0.13996315415E+04  0.25500000920E-02 0. -1.
</event>
<event>
 5   0  0.5034479E-06  0.2401961E+04  0.7818609E-02  0.8438770E-01
       -1   -1    0    0    0  501  0.00000000000E+00  0.00000000000E+00  0.56596813786E+03  0.56596813788E+03  0.50400001928E-02 0.  1.
        1   -1    0    0  501    0  0.00000000000E+00  0.00000000000E+00 -0.25484732950E+04  0.25484732950E+04  0.50400001928E-02 0. -1.
    10030    2    1    2    0    0  0.00000000000E+00  0.00000000000E+00 -0.19825051571E+04  0.31144414329E+04  0.24019614361E+04 0.  0.
        4    1    3    3  502    0 -0.83493339121E+03  0.83668200386E+03 -0.71557877119E+03  0.13817398938E+04  0.12699999809E+01 0. -1.
       -4    1    3    3    0  502  0.83493339121E+03 -0.83668200386E+03 -0.12669263859E+04  0.17327015391E+04  0.12699999809E+01 0.  1.
</event>
<event>
 5   0  0.5104174E-06  0.2411442E+04  0.7818609E-02  0.8435232E-01
        1   -1    0    0  501    0  0.00000000000E+00  0.00000000000E+00  0.86388880888E+03  0.86388880890E+03  0.50400001928E-02 0. -1.
       -1   -1    0    0    0  501  0.00000000000E+00  0.00000000000E+00 -0.16828133609E+04  0.16828133609E+04  0.50400001928E-02 0.  1.
    10030    2    1    2    0    0  0.00000000000E+00  0.00000000000E+00 -0.81892455203E+03  0.25467021698E+04  0.24114424148E+04 0.  0.
        3    1    3    3  502    0 -0.90480197518E+03 -0.83520273758E+02  0.42753307794E+03  0.10042045575E+04  0.10100000352E+00 0. -1.
       -3    1    3    3    0  502  0.90480197518E+03  0.83520273758E+02 -0.12464576300E+04  0.15424976123E+04  0.10100000352E+00 0.  1.
</event>
<event>
 5   0  0.1198313E-05  0.2390072E+04  0.7818609E-02  0.8443230E-01
       -2   -1    0    0    0  501  0.00000000000E+00  0.00000000000E+00  0.12343123106E+04  0.12343123106E+04  0.25500000920E-02 0. -1.
        2   -1    0    0  501    0  0.00000000000E+00  0.00000000000E+00 -0.11570099159E+04  0.11570099159E+04  0.25500000920E-02 0.  1.
    10030    2    1    2    0    0  0.00000000000E+00  0.00000000000E+00  0.77302394620E+02  0.23913222265E+04  0.23900724530E+04 0.  0.
        5    1    3    3  502    0  0.75518439823E+03  0.34853309015E+03 -0.81988298392E+03  0.11679079534E+04  0.46999998093E+01 0.  1.
       -5    1    3    3    0  502 -0.75518439823E+03 -0.34853309015E+03  0.89718537854E+03  0.12234142731E+04  0.46999998093E+01 0. -1.
</event>
<event>
 5   0  0.5034479E-06  0.2395152E+04  0.7818609E-02  0.8441321E-01
       -1   -1    0    0    0  501  0.00000000000E+00  0.00000000000E+00  0.88577439113E+03  0.88577439114E+03  0.50400001928E-02 0. -1.
        1   -1    0    0  501    0  0.00000000000E+00  0.00000000000E+00 -0.16191355654E+04  0.16191355654E+04  0.50400001928E-02 0.  1.
    10030    2    1    2    0    0  0.00000000000E+00  0.00000000000E+00 -0.73336117428E+03  0.25049099566E+04  0.23951524541E+04 0.  0.
        4    1    3    3  502    0  0.93507814267E+03  0.30178528396E+03 -0.10827015873E+04  0.14620840710E+04  0.12699999809E+01 0.  1.
       -4    1    3    3    0  502 -0.93507814267E+03 -0.30178528396E+03  0.34934041306E+03  0.10428258856E+04  0.12699999809E+01 0. -1.
</event>
<event>
 5   0  0.1198313E-05  0.2403825E+04  0.7818609E-02  0.8438073E-01
        2   -1    0    0  501    0  0.00000000000E+00  0.00000000000E+00  0.14246249396E+04  0.14246249396E+04  0.25500000920E-02 0.  1.
       -2   -1    0    0    0  501  0.00000000000E+00  0.00000000000E+00 -0.10140170450E+04  0.10140170450E+04  0.25500000920E-02 0. -1.
    10030    2    1    2    0    0  0.00000000000E+00  0.00000000000E+00  0.41060789457E+03  0.24386419846E+04  0.24038252611E+04 0.  0.
        5    1    3    3  502    0 -0.89392564251E+03  0.69923101036E+03  0.60669205804E+03  0.12869049706E+04  0.46999998093E+01 0.  1.
       -5    1    3    3    0  502  0.89392564251E+03 -0.69923101036E+03 -0.19608416347E+03  0.11517370140E+04  0.46999998093E+01 0. -1.
</event>
<event>
 5   0  0.5034479E-06  0.2402629E+04  0.7818609E-02  0.8438520E-01
        1   -1    0    0  501    0  0.00000000000E+00  0.00000000000E+00  0.11135929069E+04  0.11135929069E+04  0.50400001928E-02 0. -1.
       -1   -1    0    0    0  501  0.00000000000E+00  0.00000000000E+00 -0.12959461445E+04  0.12959461445E+04  0.50400001928E-02 0.  1.
    10030    2    1    2    0    0  0.00000000000E+00  0.00000000000E+00 -0.18235323759E+03  0.24095390514E+04  0.24026289221E+04 0.  0.
        4    1    3    3  502    0  0.40967445990E+02 -0.86498045840E+03 -0.92620889681E+03  0.12679645336E+04  0.12699999809E+01 0.  1.
       -4    1    3    3    0  502 -0.40967445990E+02  0.86498045840E+03  0.74385565923E+03  0.11415745178E+04  0.12699999809E+01 0. -1.
</event>
<event>
 5   0  0.5042742E-06  0.2403363E+04  0.7818609E-02  0.8438246E-01
        1   -1    0    0  501    0  0.00000000000E+00  0.00000000000E+00  0.24848734437E+04  0.24848734437E+04  0.50400001928E-02 0.  1.
       -1   -1    0    0    0  501  0.00000000000E+00  0.00000000000E+00 -0.58113135817E+03  0.58113135820E+03  0.50400001928E-02 0. -1.
    10030    2    1    2    0    0  0.00000000000E+00  0.00000000000E+00  0.19037420856E+04  0.30660048019E+04  0.24033625438E+04 0.  0.
        5    1    3    3  502    0  0.76753167796E+03  0.27031962098E+03 -0.17613646286E+03  0.83260057513E+03  0.46999998093E+01 0. -1.
       -5    1    3    3    0  502 -0.76753167796E+03 -0.27031962098E+03  0.20798785484E+04  0.22334042268E+04  0.46999998093E+01 0.  1.
</event>
<event>
 5   0  0.5104174E-06  0.2396009E+04  0.7818609E-02  0.8440999E-01
        1   -1    0    0  501    0  0.00000000000E+00  0.00000000000E+00  0.12903884647E+04  0.12903884647E+04  0.50400001928E-02 0. -1.
       -1   -1    0    0    0  501  0.00000000000E+00  0.00000000000E+00 -0.11122345046E+04  0.11122345046E+04  0.50400001928E-02 0.  1.
    10030    2    1    2    0    0  0.00000000000E+00  0.00000000000E+00  0.17815396010E+03  0.24026229693E+04  0.23960088271E+04 0.  0.
        3    1    3    3  502    0 -0.19454342784E+03  0.55792243126E+03  0.11341102440E+04  0.12788004693E+04  0.10100000352E+00 0. -1.
       -3    1    3    3    0  502  0.19454342784E+03 -0.55792243126E+03 -0.95595628389E+03  0.11238225000E+04  0.10100000352E+00 0.  1.
</event>
<event>
 5   0  0.5104174E-06  0.2400599E+04  0.7818609E-02  0.8439279E-01
        1   -1    0    0  501    0  0.00000000000E+00  0.00000000000E+00  0.81962994555E+03  0.81962994557E+03  0.50400001928E-02 0.  1.
       -1   -1    0    0    0  501  0.00000000000E+00  0.00000000000E+00 -0.17577671795E+04  0.17577671795E+04  0.50400001928E-02 0. -1.
    10030    2    1    2    0    0  0.00000000000E+00  0.00000000000E+00 -0.93813723397E+03  0.25773971251E+04  0.24005987734E+04 0.  0.
        3    1    3    3  502    0 -0.32821164263E+03  0.11247330421E+04 -0.18915464477E+03  0.11868137125E+04  0.10100000352E+00 0.  1.
       -3    1    3    3    0  502  0.32821164263E+03 -0.11247330421E+04 -0.74898258920E+03  0.13905834126E+04  0.10100000352E+00 0. -1.
</event>
<event>
 5   0  0.1154897E-05  0.2397604E+04  0.7818609E-02  0.8440401E-01
       -2   -1    0    0    0  501  0.00000000000E+00  0.00000000000E+00  0.74523798290E+03  0.74523798291E+03  0.25500000920E-02 0. -1.
        2   -1    0    0  501    0  0.00000000000E+00  0.00000000000E+00 -0.19284126145E+04  0.19284126145E+04  0.25500000920E-02 0.  1.
    10030    2    1    2    0    0  0.00000000000E+00  0.00000000000E+00 -0.11831746316E+04  0.26736505974E+04  0.23976040766E+04 0.  0.
        4    1    3    3  502    0  0.53873515103E+02 -0.11766858001E+04 -0.84002184034E+03  0.14467654036E+04  0.12699999809E+01 0.  1.
       -4    1    3    3    0  502 -0.53873515103E+02  0.11766858001E+04 -0.34315279128E+03  0.12268851939E+04  0.12699999809E+01 0. -1.
</event>
<event>
 5   0  0.1169371E-05  0.2398408E+04  0.7818609E-02  0.8440100E-01
        2   -1    0    0  501    0  0.00000000000E+00  0.00000000000E+00  0.23389946020E+04  0.23389946020E+04  0.25500000920E-02 0.  1.
       -2   -1    0    0    0  501  0.00000000000E+00  0.00000000000E+00 -0.61483283962E+03  0.61483283962E+03  0.25500000920E-02 0. -1.
    10030    2    1    2    0    0  0.00000000000E+00  0.00000000000E+00  0.17241617624E+04  0.29538274416E+04  0.23984083831E+04 0.  0.
        2    1    3    3  502    0  0.11049874199E+03 -0.99440694762E+03  0.16762607630E+04  0.19521540142E+04  0.25500000920E-02 0.  1.
       -2    1    3    3    0  502 -0.11049874199E+03  0.99440694762E+03  0.47900999341E+02  0.10016734274E+04  0.25500000920E-02 0. -1.
</event>
<event>
 5   0  0.5104174E-06  0.2419930E+04  0.7818609E-02  0.8432080E-01
       -1   -1    0    0    0  501  0.00000000000E+00  0.00000000000E+00  0.11767630747E+04  0.11767630748E+04  0.50400001928E-02 0.  1.
        1   -1    0    0  501    0  0.00000000000E+00  0.00000000000E+00 -0.12441037629E+04  0.12441037630E+04  0.50400001928E-02 0. -1.
    10030    2    1    2    0    0  0.00000000000E+00  0.00000000000E+00 -0.67340688205E+02  0.24208668377E+04  0.24199300564E+04 0.  0.
        3    1    3    3  502    0 -0.63398185682E+03  0.84326060821E+03  0.55900638972E+03  0.11939470684E+04  0.10100000352E+00 0.  1.
       -3    1    3    3    0  502  0.63398185682E+03 -0.84326060821E+03 -0.62634707793E+03  0.12269197693E+04  0.10100000352E+00 0. -1.
</event>
<event>
 5   0  0.1174210E-05  0.2392528E+04  0.7818609E-02  0.8442306E-01
        2   -1    0    0  501    0  0.00000000000E+00  0.00000000000E+00  0.10034097739E+04  0.10034097739E+04  0.25500000920E-02 0. -1.
       -2   -1    0    0    0  501  0.00000000000E+00  0.00000000000E+00 -0.14261850402E+04  0.14261850402E+04  0.25500000920E-02 0.  1.
    10030    2    1    2    0    0  0.00000000000E+00  0.00000000000E+00 -0.42277526633E+03  0.24295948140E+04  0.23925283770E+04 0.  0.
        3    1    3    3  502    0 -0.32700024750E+03  0.12239236278E+03  0.95051470575E+03  0.10126140767E+04  0.10100000352E+00 0. -1.
       -3    1    3    3    0  502  0.32700024750E+03 -0.12239236278E+03 -0.13732899721E+04  0.14169807373E+04  0.10100000352E+00 0.  1.
</event>
<event>
 5   0  0.5196696E-06  0.2474575E+04  0.7818609E-02  0.8412100E-01
        1   -1    0    0  501    0  0.00000000000E+00  0.00000000000E+00  0.18848577040E+04  0.18848577040E+04  0.50400001928E-02 0.  1.
       -1   -1    0    0    0  501  0.00000000000E+00  0.00000000000E+00 -0.81219921712E+03  0.81219921713E+03  0.50400001928E-02 0. -1.
    10030    2    1    2    0    0  0.00000000000E+00  0.00000000000E+00  0.10726584868E+04  0.26970569211E+04  0.24745746718E+04 0.  0.
        1    1    3    3  502    0 -0.59716645754E+03 -0.91873539487E+03 -0.89962094147E+02  0.10994433511E+04  0.50400001928E-02 0. -1.
       -1    1    3    3    0  502  0.59716645754E+03  0.91873539487E+03  0.11626205810E+04  0.15976135700E+04  0.50400001928E-02 0.  1.
</event>
<event>
 5   0  0.5034479E-06  0.2318894E+04  0.7818609E-02  0.8470509E-01
       -1   -1    0    0    0  501  0.00000000000E+00  0.00000000000E+00  0.11703756282E+04  0.11703756282E+04  0.50400001928E-02 0. -1.
        1   -1    0    0  501    0  0.00000000000E+00  0.00000000000E+00 -0.11486203531E+04  0.11486203531E+04  0.50400001928E-02 0.  1.
    10030    2    1    2    0    0  0.00000000000E+00  0.00000000000E+00  0.21755275066E+02  0.23189959814E+04  0.23188939324E+04 0.  0.
        4    1    3    3  502    0 -0.29647851518E+03 -0.49158162154E+03  0.10182767494E+04  0.11689487379E+04  0.12699999809E+01 0. -1.
       -4    1    3    3    0  502  0.29647851518E+03  0.49158162154E+03 -0.99652147430E+03  0.11500472435E+04  0.12699999809E+01 0.  1.
</event>
<event>
 5   0  0.5042742E-06  0.2411403E+04  0.7818609E-02  0.8435247E-01
        1   -1    0    0  501    0  0.00000000000E+00  0.00000000000E+00  0.16585311012E+04  0.16585311012E+04  0.50400001928E-02 0.  1.
       -1   -1    0    0    0  501  0.00000000000E+00  0.00000000000E+00 -0.87650853209E+03  0.87650853211E+03  0.50400001928E-02 0. -1.
    10030    2    1    2    0    0  0.00000000000E+00  0.00000000000E+00  0.78202256908E+03  0.25350396333E+04  0.24114034594E+04 0.  0.
        5    1    3    3  502    0  0.11468427258E+04  0.19882304297E+03  0.72164531873E+03  0.13695155699E+04  0.46999998093E+01 0.  1.
       -5    1    3    3    0  502 -0.11468427258E+04 -0.19882304297E+03  0.60377250353E+02  0.11655240634E+04  0.46999998093E+01 0. -1.
</event>
<event>
 5   0  0.1174210E-05  0.2394178E+04  0.7818609E-02  0.8441686E-01
       -2   -1    0    0    0  501  0.00000000000E+00  0.00000000000E+00  0.22343393638E+04  0.22343393638E+04  0.25500000920E-02 0. -1.
        2   -1    0    0  501    0  0.00000000000E+00  0.00000000000E+00 -0.64136284632E+03  0.64136284632E+03  0.25500000920E-02 0.  1.
    10030    2    1    2    0    0  0.00000000000E+00  0.00000000000E+00  0.15929765175E+04  0.28757022101E+04  0.23941781504E+04 0.  0.
        3    1    3    3  502    0  0.11139236490E+04  0.35715569964E+03  0.11018574386E+04  0.16070083742E+04  0.10100000352E+00 0. -1.
       -3    1    3    3    0  502 -0.11139236490E+04 -0.35715569964E+03  0.49111907886E+03  0.12686938359E+04  0.10100000352E+00 0.  1.
</event>
<event>
 5   0  0.5196696E-06  0.2397323E+04  0.7818609E-02  0.8440506E-01
        1   -1    0    0  501    0  0.00000000000E+00  0.00000000000E+00  0.14661121107E+04  0.14661121107E+04  0.50400001928E-02 0. -1.
       -1   -1    0    0    0  501  0.00000000000E+00  0.00000000000E+00 -0.97999984162E+03  0.97999984163E+03  0.50400001928E-02 0.  1.
    10030    2    1    2    0    0  0.00000000000E+00  0.00000000000E+00  0.48611226907E+03  0.24461119523E+04  0.23973232042E+04 0.  0.
        1    1    3    3  502    0  0.11596521135E+04  0.21864875190E+03  0.28565430650E+02  0.11804305507E+04  0.50400001928E-02 0.  1.
       -1    1    3    3    0  502 -0.11596521135E+04 -0.21864875190E+03  0.45754683842E+03  0.12656814016E+04  0.50400001928E-02 0. -1.
</event>
<event>
 5   0  0.1168435E-05  0.2404874E+04  0.7818609E-02  0.8437681E-01
        2   -1    0    0  501    0  0.00000000000E+00  0.00000000000E+00  0.14648573441E+04  0.14648573441E+04  0.25500000920E-02 0.  1.
       -2   -1    0    0    0  501  0.00000000000E+00  0.00000000000E+00 -0.98702804350E+03  0.98702804350E+03  0.25500000920E-02 0. -1.
    10030    2    1    2    0    0  0.00000000000E+00  0.00000000000E+00  0.47782930058E+03  0.24518853876E+04  0.24048744486E+04 0.  0.
        1    1    3    3  502    0 -0.77585189775E+03 -0.53094775016E+03  0.10032383131E+04  0.13748959210E+04  0.50400001928E-02 0.  1.
       -1    1    3    3    0  502  0.77585189775E+03  0.53094775016E+03 -0.52540901254E+03  0.10769894666E+04  0.50400001928E-02 0. -1.
</event>
<event>
 5   0  0.5034479E-06  0.2391550E+04  0.7818609E-02  0.8442674E-01
        1   -1    0    0  501    0  0.00000000000E+00  0.00000000000E+00  0.18553933753E+04  0.18553933753E+04  0.50400001928E-02 0. -1.
       -1   -1    0    0    0  501  0.00000000000E+00  0.00000000000E+00 -0.77066010852E+03  0.77066010854E+03  0.50400001928E-02 0.  1.
    10030    2    1    2    0    0  0.00000000000E+00  0.00000000000E+00  0.10847332668E+04  0.26260534839E+04  0.23915498406E+04 0.  0.
        4    1    3    3  502    0 -0.32047812286E+03  0.51568825196E+03  0.16735421709E+04  0.17802768355E+04  0.12699999809E+01 0. -1.
       -4    1    3    3    0  502  0.32047812286E+03 -0.51568825196E+03 -0.58880890409E+03  0.84577664835E+03  0.12699999809E+01 0.  1.
</event>
<event>
 5   0  0.5042742E-06  0.2412926E+04  0.7818609E-02  0.8434680E-01
       -1   -1    0    0    0  501  0.00000000000E+00  0.00000000000E+00  0.11970025969E+04  0.11970025969E+04  0.50400001928E-02 0.  1.
        1   -1    0    0  501    0  0.00000000000E+00  0.00000000000E+00 -0.12159979032E+04  0.12159979032E+04  0.50400001928E-02 0. -1.
    10030    2    1    2    0    0  0.00000000000E+00  0.00000000000E+00 -0.18995306299E+02  0.24130005001E+04  0.24129257327E+04 0.  0.
        5    1    3    3  502    0  0.72209713375E+02 -0.57831445334E+03 -0.10658772546E+04  0.12148161431E+04  0.46999998093E+01 0. -1.
       -5    1    3    3    0  502 -0.72209713375E+02  0.57831445334E+03  0.10468819483E+04  0.11981843570E+04  0.46999998093E+01 0.  1.
</event>
<event>
 5   0  0.5064437E-06  0.2399772E+04  0.7818609E-02  0.8439589E-01
       -1   -1    0    0    0  501  0.00000000000E+00  0.00000000000E+00  0.65272045435E+03  0.65272045437E+03  0.50400001928E-02 0. -1.
        1   -1    0    0  501    0  0.00000000000E+00  0.00000000000E+00 -0.22057326788E+04  0.22057326788E+04  0.50400001928E-02 0.  1.
    10030    2    1    2    0    0  0.00000000000E+00  0.00000000000E+00 -0.15530122245E+04  0.28584531332E+04  0.23997723528E+04 0.  0.
        2    1    3    3  502    0  0.61248244468E+02 -0.67816593190E+02 -0.22015818834E+04  0.22034775304E+04  0.25500000920E-02 0.  1.
       -2    1    3    3    0  502 -0.61248244468E+02  0.67816593190E+02  0.64856965892E+03  0.65497560278E+03  0.25500000920E-02 0. -1.
</event>
<event>
 5   0  0.5034479E-06  0.2397476E+04  0.7818609E-02  0.8440449E-01
       -1   -1    0    0    0  501  0.00000000000E+00  0.00000000000E+00  0.82888228530E+03  0.82888228531E+03  0.50400001928E-02 0.  1.
        1   -1    0    0  501    0  0.00000000000E+00  0.00000000000E+00 -0.17336274977E+04  0.17336274977E+04  0.50400001928E-02 0. -1.
    10030    2    1    2    0    0  0.00000000000E+00  0.00000000000E+00 -0.90474521238E+03  0.25625097830E+04  0.23974762749E+04 0.  0.
        4    1    3    3  502    0 -0.82502396366E+03 -0.68420671757E+03 -0.10261377916E+04  0.14838341394E+04  0.12699999809E+01 0. -1.
       -4    1    3    3    0  502  0.82502396366E+03  0.68420671757E+03  0.12139257918E+03  0.10786756436E+04  0.12699999809E+01 0.  1.
</event>
<event>
 5   0  0.5042742E-06  0.2406392E+04  0.7818609E-02  0.8437114E-01
       -1   -1    0    0    0  501  0.00000000000E+00  0.00000000000E+00  0.10017622405E+04  0.10017622405E+04  0.50400001928E-02 0. -1.
        1   -1    0    0  501    0  0.00000000000E+00  0.00000000000E+00 -0.14451344668E+04  0.14451344668E+04  0.50400001928E-02 0.  1.
    10030    2    1    2    0    0  0.00000000000E+00  0.00000000000E+00 -0.44337222629E+03  0.24468967073E+04  0.24063924379E+04 0.  0.
        5    1    3    3  502    0  0.10266873495E+04 -0.58296556325E+03 -0.45737032038E+03  0.12661538064E+04  0.46999998093E+01 0.  1.
       -5    1    3    3    0  502 -0.10266873495E+04  0.58296556325E+03  0.13998094089E+02  0.11807429009E+04  0.46999998093E+01 0. -1.
</event>
<event>
 5   0  0.1169371E-05  0.2376915E+04  0.7818609E-02  0.8448197E-01
        2   -1    0    0  501    0  0.00000000000E+00  0.00000000000E+00  0.17149236247E+04  0.17149236248E+04  0.25500000920E-02 0. -1.
       -2   -1    0    0    0  501  0.00000000000E+00  0.00000000000E+00 -0.82361139339E+03  0.82361139340E+03  0.25500000920E-02 0.  1.
    10030    2    1    2    0    0  0.00000000000E+00  0.00000000000E+00  0.89131223136E+03  0.25385350181E+04  0.23769145009E+04 0.  0.
        2    1    3    3  502    0 -0.58154995252E+03  0.72912079423E+03 -0.34105404322E+03  0.99304347350E+03  0.25500000920E-02 0.  1.
       -2    1    3    3    0  502  0.58154995252E+03 -0.72912079423E+03  0.12323662746E+04  0.15454915446E+04  0.25500000920E-02 0. -1.
</event>
<event>
 5   0  0.5196696E-06  0.2397585E+04  0.7818609E-02  0.8440408E-01
       -1   -1    0    0    0  501  0.00000000000E+00  0.00000000000E+00  0.13833201505E+04  0.13833201505E+04  0.50400001928E-02 0. -1.
        1   -1    0    0  501    0  0.00000000000E+00  0.00000000000E+00 -0.10388794703E+04  0.10388794704E+04  0.50400001928E-02 0.  1.
    10030    2    1    2    0    0  0.00000000000E+00  0.00000000000E+00  0.34444068017E+03  0.24221996209E+04  0.23975845389E+04 0.  0.
        1    1    3    3  502    0  0.52644109233E+03  0.27767320497E+03  0.12235095644E+04  0.13605948283E+04  0.50400001928E-02 0. -1.
       -1    1    3    3    0  502 -0.52644109233E+03 -0.27767320497E+03 -0.87906888423E+03  0.10616047926E+04  0.50400001928E-02 0.  1.
</event>
<event>
 5   0  0.5196696E-06  0.2401211E+04  0.7818609E-02  0.8439050E-01
       -1   -1    0    0    0  501  0.00000000000E+00  0.00000000000E+00  0.84602592852E+03  0.84602592854E+03  0.50400001928E-02 0.  1.
        1   -1    0    0  501    0  0.00000000000E+00  0.00000000000E+00 -0.17037943102E+04  0.17037943102E+04  0.50400001928E-02 0. -1.
    10030    2    1    2    0    0  0.00000000000E+00  0.00000000000E+00 -0.85776838167E+03  0.25498202387E+04  0.24012114970E+04 0.  0.
        1    1    3    3  502    0 -0.29235024922E+03 -0.11404713817E+04 -0.67862127145E+03  0.13589225404E+04  0.50400001928E-02 0. -1.
       -1    1    3    3    0  502  0.29235024922E+03  0.11404713817E+04 -0.17914711022E+03  0.11908976983E+04  0.50400001928E-02 0.  1.
</event>
<event>
 5   0  0.5196696E-06  0.2394066E+04  0.7818609E-02  0.8441728E-01
       -1   -1    0    0    0  501  0.00000000000E+00  0.00000000000E+00  0.62994674157E+03  0.62994674159E+03  0.50400001928E-02 0.  1.
        1   -1    0    0  501    0  0.00000000000E+00  0.00000000000E+00 -0.22746177545E+04  0.22746177545E+04  0.50400001928E-02 0. -1.
    10030    2    1    2    0    0  0.00000000000E+00  0.00000000000E+00 -0.16446710129E+04  0.29045644961E+04  0.23940660332E+04 0.  0.
        1    1    3    3  502    0 -0.49667469577E+03 -0.10574972965E+04 -0.50619117005E+03  0.12732697225E+04  0.50400001928E-02 0.  1.
       -1    1    3    3    0  502  0.49667469577E+03  0.10574972965E+04 -0.11384798429E+04  0.16312947736E+04  0.50400001928E-02 0. -1.
</event>
<event>
 5   0  0.1154897E-05  0.2397889E+04  0.7818609E-02  0.8440294E-01
       -2   -1    0    0    0  501  0.00000000000E+00  0.00000000000E+00  0.68520103997E+03  0.68520103997E+03  0.25500000920E-02 0.  1.
        2   -1    0    0  501    0  0.00000000000E+00  0.00000000000E+00 -0.20978778096E+04  0.20978778096E+04  0.25500000920E-02 0. -1.
    10030    2    1    2    0    0  0.00000000000E+00  0.00000000000E+00 -0.14126767697E+04  0.27830788496E+04  0.23978891191E+04 0.  0.
        4    1    3    3  502    0 -0.69270515112E+03  0.96274074673E+03 -0.50279206169E+03  0.12882203391E+04  0.12699999809E+01 0. -1.
       -4    1    3    3    0  502  0.69270515112E+03 -0.96274074673E+03 -0.90988470797E+03  0.14948585105E+04  0.12699999809E+01 0.  1.
</event>
<event>
 5   0  0.5104174E-06  0.2344212E+04  0.7818609E-02  0.8460690E-01
        1   -1    0    0  501    0  0.00000000000E+00  0.00000000000E+00  0.11870933866E+04  0.11870933866E+04  0.50400001928E-02 0. -1.
       -1   -1    0    0    0  501  0.00000000000E+00  0.00000000000E+00 -0.11573080311E+04  0.11573080311E+04  0.50400001928E-02 0.  1.
    10030    2    1    2    0    0  0.00000000000E+00  0.00000000000E+00  0.29785355492E+02  0.23444014177E+04  0.23442122003E+04 0.  0.
        3    1    3    3  502    0  0.52156610192E+03  0.84389194707E+03  0.63916087942E+03  0.11801319659E+04  0.10100000352E+00 0. -1.
       -3    1    3    3    0  502 -0.52156610192E+03 -0.84389194707E+03 -0.60937552392E+03  0.11642694518E+04  0.10100000352E+00 0.  1.
</event>
<event>
 5   0  0.1154897E-05  0.2398318E+04  0.7818609E-02  0.8440134E-01
       -2   -1    0    0    0  501  0.00000000000E+00  0.00000000000E+00  0.77007147934E+03  0.77007147934E+03  0.25500000920E-02 0.  1.
        2   -1    0    0  501    0  0.00000000000E+00  0.00000000000E+00 -0.18673356162E+04  0.18673356162E+04  0.25500000920E-02 0. -1.
    10030    2    1    2    0    0  0.00000000000E+00  0.00000000000E+00 -0.10972641369E+04  0.26374070956E+04  0.23983176607E+04 0.  0.
        4    1    3    3  502    0 -0.16333924424E+03  0.10103681743E+04  0.13852642972E+03  0.10328188326E+04  0.12699999809E+01 0.  1.
       -4    1    3    3    0  502  0.16333924424E+03 -0.10103681743E+04 -0.12357905666E+04  0.16045882630E+04  0.12699999809E+01 0. -1.
</event>
<event>
 5   0  0.1174210E-05  0.2385473E+04  0.7818609E-02  0.8444962E-01
       -2   -1    0    0    0  501  0.00000000000E+00  0.00000000000E+00  0.63221102046E+03  0.63221102046E+03  0.25500000920E-02 0. -1.
        2   -1    0    0  501    0  0.00000000000E+00  0.00000000000E+00 -0.22502300439E+04  0.22502300439E+04  0.25500000920E-02 0.  1.
    10030    2    1    2    0    0  0.00000000000E+00  0.00000000000E+00 -0.16180190234E+04  0.28824410643E+04  0.23854728943E+04 0.  0.
        3    1    3    3  502    0  0.45924408761E+03 -0.64931776295E+03 -0.18830666909E+04  0.20441278976E+04  0.10100000352E+00 0.  1.
       -3    1    3    3    0  502 -0.45924408761E+03  0.64931776295E+03  0.26504766747E+03  0.83831316673E+03  0.10100000352E+00 0. -1.
</event>
<event>
 5   0  0.1168435E-05  0.2396611E+04  0.7818609E-02  0.8440773E-01
       -2   -1    0    0    0  501  0.00000000000E+00  0.00000000000E+00  0.67545493722E+03  0.67545493723E+03  0.25500000920E-02 0.  1.
        2   -1    0    0  501    0  0.00000000000E+00  0.00000000000E+00 -0.21258804624E+04  0.21258804624E+04  0.25500000920E-02 0. -1.
    10030    2    1    2    0    0  0.00000000000E+00  0.00000000000E+00 -0.14504255252E+04  0.28013353997E+04  0.23966113196E+04 0.  0.
        1    1    3    3  502    0  0.34965179502E+02  0.61243789517E+03 -0.19284337184E+04  0.20236500057E+04  0.50400001928E-02 0. -1.
       -1    1    3    3    0  502 -0.34965179502E+02 -0.61243789517E+03  0.47800819320E+03  0.77768539398E+03  0.50400001928E-02 0.  1.
</event>
<event>
 5   0  0.1154897E-05  0.2338667E+04  0.7818609E-02  0.8462829E-01
       -2   -1    0    0    0  501  0.00000000000E+00  0.00000000000E+00  0.64036567001E+03  0.64036567001E+03  0.25500000920E-02 0.  1.
        2   -1    0    0  501    0  0.00000000000E+00  0.00000000000E+00 -0.21352503781E+04  0.21352503781E+04  0.25500000920E-02 0. -1.
    10030    2    1    2    0    0  0.00000000000E+00  0.00000000000E+00 -0.14948847081E+04  0.27756160481E+04  0.23386671751E+04 0.  0.
        4    1    3    3  502    0 -0.20731838354E+03 -0.51777904621E+03  0.47232520889E+03  0.73086850301E+03  0.12699999809E+01 0.  1.
       -4    1    3    3    0  502  0.20731838354E+03  0.51777904621E+03 -0.19672099170E+04  0.20447475451E+04  0.12699999809E+01 0. -1.
</event>
<event>
 5   0  0.5104174E-06  0.2391645E+04  0.7818609E-02  0.8442638E-01
        1   -1    0    0  501    0  0.00000000000E+00  0.00000000000E+00  0.23054370613E+04  0.23054370613E+04  0.50400001928E-02 0.  1.
       -1   -1    0    0    0  501  0.00000000000E+00  0.00000000000E+00 -0.62026910575E+03  0.62026910577E+03  0.50400001928E-02 0. -1.
    10030    2    1    2    0    0  0.00000000000E+00  0.00000000000E+00  0.16851679555E+04  0.29257061670E+04  0.23916449439E+04 0.  0.
        3    1    3    3  502    0 -0.51700588448E+03 -0.76615310690E+03 -0.85600429058E+02  0.92823117350E+03  0.10100000352E+00 0. -1.
       -3    1    3    3    0  502  0.51700588448E+03  0.76615310690E+03  0.17707683846E+04  0.19974749935E+04  0.10100000352E+00 0.  1.
</event>
<event>
 5   0  0.1174210E-05  0.2396955E+04  0.7818609E-02  0.8440644E-01
       -2   -1    0    0    0  501  0.00000000000E+00  0.00000000000E+00  0.93246636168E+03  0.93246636168E+03  0.25500000920E-02 0. -1.
        2   -1    0    0  501    0  0.00000000000E+00  0.00000000000E+00 -0.15403753923E+04  0.15403753923E+04  0.25500000920E-02 0.  1.
    10030    2    1    2    0    0  0.00000000000E+00  0.00000000000E+00 -0.60790903065E+03  0.24728417540E+04  0.23969549330E+04 0.  0.
        3    1    3    3  502    0 -0.61570279923E+03 -0.52874901504E+03  0.60582822817E+03  0.10127651802E+04  0.10100000352E+00 0. -1.
       -3    1    3    3    0  502  0.61570279923E+03  0.52874901504E+03 -0.12137372588E+04  0.14600765739E+04  0.10100000352E+00 0.  1.
</event>
<event>
 5   0  0.5104174E-06  0.2407338E+04  0.7818609E-02  0.8436761E-01
        1   -1    0    0  501    0  0.00000000000E+00  0.00000000000E+00  0.15650907835E+04  0.15650907835E+04  0.50400001928E-02 0.  1.
       -1   -1    0    0    0  501  0.00000000000E+00  0.00000000000E+00 -0.92570952918E+03  0.92570952919E+03  0.50400001928E-02 0. -1.
    10030    2    1    2    0    0  0.00000000000E+00  0.00000000000E+00  0.63938125433E+03  0.24908003127E+04  0.24073383247E+04 0.  0.
        3    1    3    3  502    0 -0.63852868431E+03 -0.92187996304E+03  0.77215955378E+03  0.13615476244E+04  0.10100000352E+00 0.  1.
       -3    1    3    3    0  502  0.63852868431E+03  0.92187996304E+03 -0.13277829945E+03  0.11292526883E+04  0.10100000352E+00 0. -1.
</event>
<event>
 5   0  0.1154897E-05  0.2394090E+04  0.7818609E-02  0.8441720E-01
       -2   -1    0    0    0  501  0.00000000000E+00  0.00000000000E+00  0.10531567419E+04  0.10531567419E+04  0.25500000920E-02 0. -1.
        2   -1    0    0  501    0  0.00000000000E+00  0.00000000000E+00 -0.13605919386E+04  0.13605919386E+04  0.25500000920E-02 0.  1.
    10030    2    1    2    0    0  0.00000000000E+00  0.00000000000E+00 -0.30743519671E+03  0.24137486804E+04  0.23940898672E+04 0.  0.
        4    1    3    3  502    0  0.65400474161E+03 -0.90404511994E+03  0.28331055956E+03  0.11512107830E+04  0.12699999809E+01 0. -1.
       -4    1    3    3    0  502 -0.65400474161E+03  0.90404511994E+03 -0.59074575627E+03  0.12625378974E+04  0.12699999809E+01 0.  1.
</event>
<event>
 5   0  0.1169371E-05  0.2396835E+04  0.7818609E-02  0.8440690E-01
        2   -1    0    0  501    0  0.00000000000E+00  0.00000000000E+00  0.18014845236E+04  0.18014845236E+04  0.25500000920E-02 0. -1.
       -2   -1    0    0    0  501  0.00000000000E+00  0.00000000000E+00 -0.79723363263E+03  0.79723363264E+03  0.25500000920E-02 0.  1.
    10030    2    1    2    0    0  0.00000000000E+00  0.00000000000E+00  0.10042508910E+04  0.25987181562E+04  0.23968346216E+04 0.  0.
        2    1    3    3  502    0 -0.36469224688E+03  0.80647291624E+03  0.13781431117E+04  0.16378881024E+04  0.25500000920E-02 0. -1.
       -2    1    3    3    0  502  0.36469224688E+03 -0.80647291624E+03 -0.37389222078E+03  0.96083005382E+03  0.25500000920E-02 0.  1.
</event>
<event>
 5   0  0.1168435E-05  0.2440690E+04  0.7818609E-02  0.8424425E-01
        2   -1    0    0  501    0  0.00000000000E+00  0.00000000000E+00  0.10121147727E+04  0.10121147727E+04  0.25500000920E-02 0. -1.
       -2   -1    0    0    0  501  0.00000000000E+00  0.00000000000E+00 -0.14714155391E+04  0.14714155391E+04  0.25500000920E-02 0.  1.
    10030    2    1    2    0    0  0.00000000000E+00  0.00000000000E+00 -0.45930076637E+03  0.24835303119E+04  0.24406895779E+04 0.  0.
        1    1    3    3  502    0  0.63346161513E+02  0.95433025587E+02 -0.14659334702E+04  0.14704016926E+04  0.50400001928E-02 0.  1.
       -1    1    3    3    0  502 -0.63346161513E+02 -0.95433025587E+02  0.10066327039E+04  0.10131286192E+04  0.50400001928E-02 0. -1.
</event>
<event>
 5   0  0.1174210E-05  0.2408708E+04  0.7818609E-02  0.8436251E-01
       -2   -1    0    0    0  501  0.00000000000E+00  0.00000000000E+00  0.10117467031E+04  0.10117467031E+04  0.25500000920E-02 0. -1.
        2   -1    0    0  501    0  0.00000000000E+00  0.00000000000E+00 -0.14336276580E+04  0.14336276580E+04  0.25500000920E-02 0.  1.
    10030    2    1    2    0    0  0.00000000000E+00  0.00000000000E+00 -0.42188095487E+03  0.24453743611E+04  0.24087075842E+04 0.  0.
        3    1    3    3  502    0 -0.92358708275E+03  0.74045899012E+03  0.14190554043E+02  0.11838471175E+04  0.10100000352E+00 0.  1.
       -3    1    3    3    0  502  0.92358708275E+03 -0.74045899012E+03 -0.43607150892E+03  0.12615272437E+04  0.10100000352E+00 0. -1.
</event>
<event>
 5   0  0.1169371E-05  0.2396441E+04  0.7818609E-02  0.8440837E-01
        2   -1    0    0  501    0  0.00000000000E+00  0.00000000000E+00  0.13636586979E+04  0.13636586979E+04  0.25500000920E-02 0.  1.
       -2   -1    0    0    0  501  0.00000000000E+00  0.00000000000E+00 -0.10528535169E+04  0.10528535169E+04  0.25500000920E-02 0. -1.
    10030    2    1    2    0    0  0.00000000000E+00  0.00000000000E+00  0.31080518104E+03  0.24165122148E+04  0.23964414084E+04 0.  0.
        2    1    3    3  502    0 -0.54856323203E+03  0.10068930523E+04  0.50613402646E+03  0.12533662239E+04  0.25500000920E-02 0.  1.
       -2    1    3    3    0  502  0.54856323203E+03 -0.10068930523E+04 -0.19532884542E+03  0.11631459909E+04  0.25500000920E-02 0. -1.
</event>
<event>
 5   0  0.5064437E-06  0.2433853E+04  0.7818609E-02  0.8426937E-01
        1   -1    0    0  501    0  0.00000000000E+00  0.00000000000E+00  0.13179072084E+04  0.13179072084E+04  0.50400001928E-02 0.  1.
       -1   -1    0    0    0  501  0.00000000000E+00  0.00000000000E+00 -0.11236832565E+04  0.11236832565E+04  0.50400001928E-02 0. -1.
    10030    2    1    2    0    0  0.00000000000E+00  0.00000000000E+00  0.19422395195E+03  0.24415904649E+04  0.24338531293E+04 0.  0.
        2    1    3    3  502    0 -0.18054203390E+03 -0.87475644921E+03  0.92624779899E+03  0.12867514354E+04  0.25500000920E-02 0.  1.
       -2    1    3    3    0  502  0.18054203390E+03  0.87475644921E+03 -0.73202384704E+03  0.11548390295E+04  0.25500000920E-02 0. -1.
</event>
<event>
 5   0  0.5064437E-06  0.2400353E+04  0.7818609E-02  0.8439371E-01
        1   -1    0    0  501    0  0.00000000000E+00  0.00000000000E+00  0.82039927971E+03  0.82039927972E+03  0.50400001928E-02 0. -1.
       -1   -1    0    0    0  501  0.00000000000E+00  0.00000000000E+00 -0.17557598075E+04  0.17557598075E+04  0.50400001928E-02 0.  1.
    10030    2    1    2    0    0  0.00000000000E+00  0.00000000000E+00 -0.93536052780E+03  0.25761590872E+04  0.24003533752E+04 0.  0.
        2    1    3    3  502    0 -0.42859265217E+03 -0.33155963349E+03  0.68164104220E+03  0.87078008847E+03  0.25500000920E-02 0. -1.
       -2    1    3    3    0  502  0.42859265217E+03  0.33155963349E+03 -0.16170015700E+04  0.17053789988E+04  0.25500000920E-02 0.  1.
</event>
<event>
 5   0  0.5034479E-06  0.2397987E+04  0.7818609E-02  0.8440258E-01
       -1   -1    0    0    0  501  0.00000000000E+00  0.00000000000E+00  0.13308375660E+04  0.13308375661E+04  0.50400001928E-02 0. -1.
        1   -1    0    0  501    0  0.00000000000E+00  0.00000000000E+00 -0.10802112016E+04  0.10802112016E+04  0.50400001928E-02 0.  1.
    10030    2    1    2    0    0  0.00000000000E+00  0.00000000000E+00  0.25062636448E+03  0.24110487676E+04  0.23979871946E+04 0.  0.
        4    1    3    3  502    0 -0.62956405660E+03  0.10137732344E+04  0.24212240592E+03  0.12176665982E+04  0.12699999809E+01 0.  1.
       -4    1    3    3    0  502  0.62956405660E+03 -0.10137732344E+04  0.85039585596E+01  0.11933821694E+04  0.12699999809E+01 0. -1.
</event>
<event>
 5   0  0.5042742E-06  0.2397213E+04  0.7818609E-02  0.8440548E-01
        1   -1    0    0  501    0  0.00000000000E+00  0.00000000000E+00  0.16707424726E+04  0.16707424726E+04  0.50400001928E-02 0.  1.
       -1   -1    0    0    0  501  0.00000000000E+00  0.00000000000E+00 -0.85989181684E+03  0.85989181686E+03  0.50400001928E-02 0. -1.
    10030    2    1    2    0    0  0.00000000000E+00  0.00000000000E+00  0.81085065580E+03  0.25306342895E+04  0.23972131989E+04 0.  0.
        5    1    3    3  502    0  0.86584985114E+03  0.48693961094E+03 -0.30259661006E+03  0.10384570034E+04  0.46999998093E+01 0. -1.
       -5    1    3    3    0  502 -0.86584985114E+03 -0.48693961094E+03  0.11134472659E+04  0.14921772861E+04  0.46999998093E+01 0.  1.
</event>
<event>
 5   0  0.5042742E-06  0.2400351E+04  0.7818609E-02  0.8439372E-01
        1   -1    0    0  501    0  0.00000000000E+00  0.00000000000E+00  0.11509504539E+04  0.11509504539E+04  0.50400001928E-02 0. -1.
       -1   -1    0    0    0  501  0.00000000000E+00  0.00000000000E+00 -0.12515062066E+04  0.12515062066E+04  0.50400001928E-02 0.  1.
    10030    2    1    2    0    0  0.00000000000E+00  0.00000000000E+00 -0.10055575274E+03  0.24024566605E+04  0.24003513381E+04 0.  0.
        5    1    3    3  502    0 -0.40308961633E+03 -0.53535558857E+03 -0.10467980235E+04  0.12429380665E+04  0.46999998093E+01 0.  1.
       -5    1    3    3    0  502  0.40308961633E+03  0.53535558857E+03  0.94624227079E+03  0.11595185941E+04  0.46999998093E+01 0. -1.
</event>
<event>
 5   0  0.1174210E-05  0.2383647E+04  0.7818609E-02  0.8445651E-01
       -2   -1    0    0    0  501  0.00000000000E+00  0.00000000000E+00  0.84043344954E+03  0.84043344954E+03  0.25500000920E-02 0.  1.
        2   -1    0    0  501    0  0.00000000000E+00  0.00000000000E+00 -0.16901318509E+04  0.16901318509E+04  0.25500000920E-02 0. -1.
    10030    2    1    2    0    0  0.00000000000E+00  0.00000000000E+00 -0.84969840141E+03  0.25305653005E+04  0.23836470726E+04 0.  0.
        3    1    3    3  502    0 -0.67483494821E+03  0.95652709010E+03 -0.18722992271E+03  0.11854962402E+04  0.10100000352E+00 0.  1.
       -3    1    3    3    0  502  0.67483494821E+03 -0.95652709010E+03 -0.66246847870E+03  0.13450690603E+04  0.10100000352E+00 0. -1.
</event>
<event>
 5   0  0.1174210E-05  0.2400180E+04  0.7818609E-02  0.8439436E-01
        2   -1    0    0  501    0  0.00000000000E+00  0.00000000000E+00  0.26142397614E+04  0.26142397614E+04  0.25500000920E-02 0. -1.
       -2   -1    0    0    0  501  0.00000000000E+00  0.00000000000E+00 -0.55091175846E+03  0.55091175847E+03  0.25500000920E-02 0.  1.
    10030    2    1    2    0    0  0.00000000000E+00  0.00000000000E+00  0.20633280029E+04  0.31651515198E+04  0.24001795133E+04 0.  0.
        3    1    3    3  502    0  0.26861791519E+03  0.52548290009E+03  0.24096591629E+04  0.24808758844E+04  0.10100000352E+00 0. -1.
       -3    1    3    3    0  502 -0.26861791519E+03 -0.52548290009E+03 -0.34633115995E+03  0.68427563540E+03  0.10100000352E+00 0.  1.
</event>
<event>
 5   0  0.5042742E-06  0.2406563E+04  0.7818609E-02  0.8437050E-01
        1   -1    0    0  501    0  0.00000000000E+00  0.00000000000E+00  0.15916692508E+04  0.15916692508E+04  0.50400001928E-02 0.  1.
       -1   -1    0    0    0  501  0.00000000000E+00  0.00000000000E+00 -0.90966559331E+03  0.90966559332E+03  0.50400001928E-02 0. -1.
    10030    2    1    2    0    0  0.00000000000E+00  0.00000000000E+00  0.68200365748E+03  0.25013348441E+04  0.24065633201E+04 0.  0.
        5    1    3    3  502    0  0.45565801665E+03  0.10463209261E+04  0.73740380767E+03  0.13587487532E+04  0.46999998093E+01 0.  1.
       -5    1    3    3    0  502 -0.45565801665E+03 -0.10463209261E+04 -0.55400150181E+02  0.11425860910E+04  0.46999998093E+01 0. -1.
</event>
<event>
 5   0  0.1168435E-05  0.2402815E+04  0.7818609E-02  0.8438450E-01
        2   -1    0    0  501    0  0.00000000000E+00  0.00000000000E+00  0.97121034566E+03  0.97121034567E+03  0.25500000920E-02 0.  1.
       -2   -1    0    0    0  501  0.00000000000E+00  0.00000000000E+00 -0.14861662583E+04  0.14861662583E+04  0.25500000920E-02 0. -1.
    10030    2    1    2    0    0  0.00000000000E+00  0.00000000000E+00 -0.51495591265E+03  0.24573766040E+04  0.24028150536E+04 0.  0.
        1    1    3    3  502    0 -0.97313171046E+03  0.21596667776E+03 -0.94334267706E+03  0.13724147836E+04  0.50400001928E-02 0. -1.
       -1    1    3    3    0  502  0.97313171046E+03 -0.21596667776E+03  0.42838676441E+03  0.10849618204E+04  0.50400001928E-02 0.  1.
</event>
<event>
 5   0  0.5064437E-06  0.2415933E+04  0.7818609E-02  0.8433562E-01
       -1   -1    0    0    0  501  0.00000000000E+00  0.00000000000E+00  0.13745983865E+04  0.13745983866E+04  0.50400001928E-02 0.  1.
        1   -1    0    0  501    0  0.00000000000E+00  0.00000000000E+00 -0.10615343965E+04  0.10615343965E+04  0.50400001928E-02 0. -1.
    10030    2    1    2    0    0  0.00000000000E+00  0.00000000000E+00  0.31306399002E+03  0.24361327831E+04  0.24159333341E+04 0.  0.
        2    1    3    3  502    0 -0.24614713083E+03 -0.19897341220E+03 -0.10189784159E+04  0.10670032056E+04  0.25500000920E-02 0. -1.
       -2    1    3    3    0  502  0.24614713083E+03  0.19897341220E+03  0.13320424059E+04  0.13691295775E+04  0.25500000920E-02 0.  1.
</event>
<event>
 5   0  0.1174210E-05  0.2403082E+04  0.7818609E-02  0.8438351E-01
       -2   -1    0    0    0  501  0.00000000000E+00  0.00000000000E+00  0.83897229657E+03  0.83897229657E+03  0.25500000920E-02 0. -1.
        2   -1    0    0  501    0  0.00000000000E+00  0.00000000000E+00 -0.17207964557E+04  0.17207964557E+04  0.25500000920E-02 0.  1.
    10030    2    1    2    0    0  0.00000000000E+00  0.00000000000E+00 -0.88182415916E+03  0.25597687523E+04  0.24030818167E+04 0.  0.
        3    1    3    3  502    0  0.10331868481E+04  0.11071095267E+03 -0.10835466945E+04  0.15012679400E+04  0.10100000352E+00 0.  1.
       -3    1    3    3    0  502 -0.10331868481E+04 -0.11071095267E+03  0.20172253537E+03  0.10585008123E+04  0.10100000352E+00 0. -1.
</event>
<event>
 5   0  0.1154897E-05  0.2403177E+04  0.7818609E-02  0.8438315E-01
       -2   -1    0    0    0  501  0.00000000000E+00  0.00000000000E+00  0.13882575570E+04  0.13882575570E+04  0.25500000920E-02 0.  1.
        2   -1    0    0  501    0  0.00000000000E+00  0.00000000000E+00 -0.10400197402E+04  0.10400197402E+04  0.25500000920E-02 0. -1.
    10030    2    1    2    0    0  0.00000000000E+00  0.00000000000E+00  0.34823781671E+03  0.24282772972E+04  0.24031772833E+04 0.  0.
        4    1    3    3  502    0  0.95139732612E+01  0.68651883165E+03  0.11705294204E+04  0.13570332931E+04  0.12699999809E+01 0.  1.
       -4    1    3    3    0  502 -0.95139732612E+01 -0.68651883165E+03 -0.82229160364E+03  0.10712440041E+04  0.12699999809E+01 0. -1.
</event>
<event>
 5   0  0.1198313E-05  0.2429660E+04  0.7818609E-02  0.8428482E-01
        2   -1    0    0  501    0  0.00000000000E+00  0.00000000000E+00  0.21614514486E+04  0.21614514486E+04  0.25500000920E-02 0.  1.
       -2   -1    0    0    0  501  0.00000000000E+00  0.00000000000E+00 -0.68278719708E+03  0.68278719708E+03  0.25500000920E-02 0. -1.
    10030    2    1    2    0    0  0.00000000000E+00  0.00000000000E+00  0.14786642515E+04  0.28442386457E+04  0.24296595450E+04 0.  0.
        5    1    3    3  502    0  0.11256718184E+04 -0.40222463680E+03  0.48590278239E+03  0.12903663453E+04  0.46999998093E+01 0.  1.
       -5    1    3    3    0  502 -0.11256718184E+04  0.40222463680E+03  0.99276146910E+03  0.15538723003E+04  0.46999998093E+01 0. -1.
</event>
<event>
 5   0  0.5196696E-06  0.2403187E+04  0.7818609E-02  0.8438312E-01
       -1   -1    0    0    0  501  0.00000000000E+00  0.00000000000E+00  0.17109064278E+04  0.17109064278E+04  0.50400001928E-02 0.  1.
        1   -1    0    0  501    0  0.00000000000E+00  0.00000000000E+00 -0.84389561893E+03  0.84389561894E+03  0.50400001928E-02 0. -1.
    10030    2    1    2    0    0  0.00000000000E+00  0.00000000000E+00  0.86701080891E+03  0.25548020468E+04  0.24031865836E+04 0.  0.
        1    1    3    3  502    0  0.79929789041E+03  0.86795035033E+03  0.19199099345E+03  0.11954394463E+04  0.50400001928E-02 0.  1.
       -1    1    3    3    0  502 -0.79929789041E+03 -0.86795035033E+03  0.67501981546E+03  0.13593626005E+04  0.50400001928E-02 0. -1.
</event>
<event>
 5   0  0.5104174E-06  0.2398034E+04  0.7818609E-02  0.8440240E-01
        1   -1    0    0  501    0  0.00000000000E+00  0.00000000000E+00  0.15295599713E+04  0.15295599713E+04  0.50400001928E-02 0.  1.
       -1   -1    0    0    0  501  0.00000000000E+00  0.00000000000E+00 -0.93990556475E+03  0.93990556476E+03  0.50400001928E-02 0. -1.
    10030    2    1    2    0    0  0.00000000000E+00  0.00000000000E+00  0.58965440657E+03  0.24694655361E+04  0.23980341354E+04 0.  0.
        3    1    3    3  502    0 -0.10520985257E+04 -0.31927851220E+02 -0.29648177578E+03  0.10935411053E+04  0.10100000352E+00 0. -1.
       -3    1    3    3    0  502  0.10520985257E+04  0.31927851220E+02  0.88613618235E+03  0.13759244308E+04  0.10100000352E+00 0.  1.
</event>
<event>
 5   0  0.5034479E-06  0.2383858E+04  0.7818609E-02  0.8445572E-01
       -1   -1    0    0    0  501  0.00000000000E+00  0.00000000000E+00  0.93905702229E+03  0.93905702230E+03  0.50400001928E-02 0. -1.
        1   -1    0    0  501    0  0.00000000000E+00  0.00000000000E+00 -0.15128952335E+04  0.15128952335E+04  0.50400001928E-02 0.  1.
    10030    2    1    2    0    0  0.00000000000E+00  0.00000000000E+00 -0.57383821121E+03  0.24519522558E+04  0.23838581275E+04 0.  0.
        4    1    3    3  502    0  0.93385208831E+03  0.14217585213E+01 -0.10487596327E+04  0.14042720977E+04  0.12699999809E+01 0.  1.
       -4    1    3    3    0  502 -0.93385208831E+03 -0.14217585213E+01  0.47492142150E+03  0.10476801581E+04  0.12699999809E+01 0. -1.
</event>
<event>
 5   0  0.5042742E-06  0.2422325E+04  0.7818609E-02  0.8431192E-01
        1   -1    0    0  501    0  0.00000000000E+00  0.00000000000E+00  0.14560872857E+04  0.14560872857E+04  0.50400001928E-02 0. -1.
       -1   -1    0    0    0  501  0.00000000000E+00  0.00000000000E+00 -0.10074359240E+04  0.10074359240E+04  0.50400001928E-02 0.  1.
    10030    2    1    2    0    0  0.00000000000E+00  0.00000000000E+00  0.44865136168E+03  0.24635232097E+04  0.24223250319E+04 0.  0.
        5    1    3    3  502    0  0.32270649712E+03 -0.29120416477E+03  0.13740182284E+04  0.14411410517E+04  0.46999998093E+01 0. -1.
       -5    1    3    3    0  502 -0.32270649712E+03  0.29120416477E+03 -0.92536686675E+03  0.10223821580E+04  0.46999998093E+01 0.  1.
</event>
<event>
 5   0  0.1174210E-05  0.2400288E+04  0.7818609E-02  0.8439396E-01
       -2   -1    0    0    0  501  0.00000000000E+00  0.00000000000E+00  0.89533664198E+03  0.89533664199E+03  0.25500000920E-02 0. -1.
        2   -1    0    0  501    0  0.00000000000E+00  0.00000000000E+00 -0.16087196277E+04  0.16087196277E+04  0.25500000920E-02 0.  1.
    10030    2    1    2    0    0  0.00000000000E+00  0.00000000000E+00 -0.71338298574E+03  0.25040562697E+04  0.24002880072E+04 0.  0.
        3    1    3    3  502    0 -0.29131722818E+03 -0.96389688338E+03 -0.10379007032E+04  0.14460984783E+04  0.10100000352E+00 0.  1.
       -3    1    3    3    0  502  0.29131722818E+03  0.96389688338E+03  0.32451771742E+03  0.10579577914E+04  0.10100000352E+00 0. -1.
</event>
<event>
 5   0  0.5064437E-06  0.2400686E+04  0.7818609E-02  0.8439247E-01
        1   -1    0    0  501    0  0.00000000000E+00  0.00000000000E+00  0.18781543458E+04  0.18781543458E+04  0.50400001928E-02 0.  1.
       -1   -1    0    0    0  501  0.00000000000E+00  0.00000000000E+00 -0.76714832198E+03  0.76714832200E+03  0.50400001928E-02 0. -1.
    10030    2    1    2    0    0  0.00000000000E+00  0.00000000000E+00  0.11110060238E+04  0.26453026678E+04  0.24006856977E+04 0.  0.
        2    1    3    3  502    0  0.66428222827E+03 -0.66603048632E+03 -0.26609630125E+03  0.97758617474E+03  0.25500000920E-02 0. -1.
       -2    1    3    3    0  502 -0.66428222827E+03  0.66603048632E+03  0.13771023250E+04  0.16677164930E+04  0.25500000920E-02 0.  1.
</event>
<event>
 5   0  0.5034479E-06  0.2398632E+04  0.7818609E-02  0.8440016E-01
       -1   -1    0    0    0  501  0.00000000000E+00  0.00000000000E+00  0.13159006776E+04  0.13159006776E+04  0.50400001928E-02 0. -1.
        1   -1    0    0  501    0  0.00000000000E+00  0.00000000000E+00 -0.10930601511E+04  0.10930601511E+04  0.50400001928E-02 0.  1.
    10030    2    1    2    0    0  0.00000000000E+00  0.00000000000E+00  0.22284052655E+03  0.24089608288E+04  0.23986317713E+04 0.  0.
        4    1    3    3  502    0  0.11585996204E+04  0.87104863810E+02  0.41005007950E+03  0.12321051166E+04  0.12699999809E+01 0. -1.
       -4    1    3    3    0  502 -0.11585996204E+04 -0.87104863810E+02 -0.18720955295E+03  0.11768557122E+04  0.12699999809E+01 0.  1.
</event>
<event>
 5   0  0.5104174E-06  0.2441058E+04  0.7818609E-02  0.8424290E-01
        1   -1    0    0  501    0  0.00000000000E+00  0.00000000000E+00  0.71663092154E+03  0.71663092156E+03  0.50400001928E-02 0. -1.
       -1   -1    0    0    0  501  0.00000000000E+00  0.00000000000E+00 -0.20787424660E+04  0.20787424660E+04  0.50400001928E-02 0.  1.
    10030    2    1    2    0    0  0.00000000000E+00  0.00000000000E+00 -0.13621115445E+04  0.27953733876E+04  0.24410580731E+04 0.  0.
        3    1    3    3  502    0  0.44767301116E+03  0.59389618876E+03 -0.17892891155E+04  0.19376995012E+04  0.10100000352E+00 0.  1.
       -3    1    3    3    0  502 -0.44767301116E+03 -0.59389618876E+03  0.42717757103E+03  0.85767388636E+03  0.10100000352E+00 0. -1.
</event>
<event>
 5   0  0.5034479E-06  0.2428013E+04  0.7818609E-02  0.8429090E-01
       -1   -1    0    0    0  501  0.00000000000E+00  0.00000000000E+00  0.75534475125E+03  0.75534475127E+03  0.50400001928E-02 0. -1.
        1   -1    0    0  501    0  0.00000000000E+00  0.00000000000E+00 -0.19511776474E+04  0.19511776474E+04  0.50400001928E-02 0.  1.
    10030    2    1    2    0    0  0.00000000000E+00  0.00000000000E+00 -0.11958328962E+04  0.27065223987E+04  0.24280130105E+04 0.  0.
        4    1    3    3  502    0  0.86646855270E+03  0.16328518945E+03 -0.15281326042E+04  0.17642620765E+04  0.12699999809E+01 0.  1.
       -4    1    3    3    0  502 -0.86646855270E+03 -0.16328518945E+03  0.33229970798E+03  0.94226032217E+03  0.12699999809E+01 0. -1.
</event>
<event>
 5   0  0.1169371E-05  0.2409511E+04  0.7818609E-02  0.8435951E-01
        2   -1    0    0  501    0  0.00000000000E+00  0.00000000000E+00  0.15647448376E+04  0.15647448376E+04  0.25500000920E-02 0. -1.
       -2   -1    0    0    0  501  0.00000000000E+00  0.00000000000E+00 -0.92758626603E+03  0.92758626604E+03  0.25500000920E-02 0.  1.
    10030    2    1    2    0    0  0.00000000000E+00  0.00000000000E+00  0.63715857160E+03  0.24923311037E+04  0.24095110054E+04 0.  0.
        2    1    3    3  502    0 -0.30078421632E+03 -0.49579663544E+02 -0.88703306613E+03  0.93795359600E+03  0.25500000920E-02 0.  1.
       -2    1    3    3    0  502  0.30078421632E+03  0.49579663544E+02  0.15241916377E+04  0.15543775077E+04  0.25500000920E-02 0. -1.
</event>
<event>
 5   0  0.1198313E-05  0.2402392E+04  0.7818609E-02  0.8438609E-01
       -2   -1    0    0    0  501  0.00000000000E+00  0.00000000000E+00  0.11432812090E+04  0.11432812090E+04  0.25500000920E-02 0.  1.
        2   -1    0    0  501    0  0.00000000000E+00  0.00000000000E+00 -0.12620446273E+04  0.12620446273E+04  0.25500000920E-02 0. -1.
    10030    2    1    2    0    0  0.00000000000E+00  0.00000000000E+00 -0.11876341823E+03  0.24053258363E+04  0.24023920641E+04 0.  0.
        5    1    3    3  502    0 -0.27912091486E+03 -0.11347312674E+04 -0.33779733054E+03  0.12164097421E+04  0.46999998093E+01 0. -1.
       -5    1    3    3    0  502  0.27912091486E+03  0.11347312674E+04  0.21903391230E+03  0.11889160942E+04  0.46999998093E+01 0.  1.
</event>
<event>
 5   0  0.1174210E-05  0.2400905E+04  0.7818609E-02  0.8439165E-01
        2   -1    0    0  501    0  0.00000000000E+00  0.00000000000E+00  0.15571856158E+04  0.15571856158E+04  0.25500000920E-02 0. -1.
       -2   -1    0    0    0  501  0.00000000000E+00  0.00000000000E+00 -0.92544250275E+03  0.92544250275E+03  0.25500000920E-02 0.  1.
    10030    2    1    2    0    0  0.00000000000E+00  0.00000000000E+00  0.63174311303E+03  0.24826281185E+04  0.24009046241E+04 0.  0.
        3    1    3    3  502    0  0.10354836499E+04 -0.60714360348E+03  0.29998639341E+03  0.12372718339E+04  0.10100000352E+00 0.  1.
       -3    1    3    3    0  502 -0.10354836499E+04  0.60714360348E+03  0.33175671962E+03  0.12453562846E+04  0.10100000352E+00 0. -1.
</event>
<event>
 5   0  0.1198313E-05  0.2419512E+04  0.7818609E-02  0.8432235E-01
        2   -1    0    0  501    0  0.00000000000E+00  0.00000000000E+00  0.12226174579E+04  0.12226174580E+04  0.25500000920E-02 0. -1.
       -2   -1    0    0    0  501  0.00000000000E+00  0.00000000000E+00 -0.11970294759E+04  0.11970294759E+04  0.25500000920E-02 0.  1.
    10030    2    1    2    0    0  0.00000000000E+00  0.00000000000E+00  0.25587982063E+02  0.24196469338E+04  0.24195116325E+04 0.  0.
        5    1    3    3  502    0  0.19135576030E+03  0.11318324251E+04 -0.36909825727E+03  0.12057849223E+04  0.46999998093E+01 0.  1.
       -5    1    3    3    0  502 -0.19135576030E+03 -0.11318324251E+04  0.39468623933E+03  0.12138620115E+04  0.46999998093E+01 0. -1.
</event>
<event>
 5   0  0.5034479E-06  0.2378938E+04  0.7818609E-02  0.8447431E-01
       -1   -1    0    0    0  501  0.00000000000E+00  0.00000000000E+00  0.59398937970E+03  0.59398937972E+03  0.50400001928E-02 0. -1.
        1   -1    0    0  501    0  0.00000000000E+00  0.00000000000E+00 -0.23819230347E+04  0.23819230347E+04  0.50400001928E-02 0.  1.
    10030    2    1    2    0    0  0.00000000000E+00  0.00000000000E+00 -0.17879336550E+04  0.29759124144E+04  0.23789384069E+04 0.  0.
        4    1    3    3  502    0 -0.84837776524E+03 -0.67250552992E+02 -0.19335042828E+04  0.21125122233E+04  0.12699999809E+01 0.  1.
       -4    1    3    3    0  502  0.84837776524E+03  0.67250552992E+02  0.14557062774E+03  0.86340019110E+03  0.12699999809E+01 0. -1.
</event>
<event>
 5   0  0.5042742E-06  0.2335735E+04  0.7818609E-02  0.8463963E-01
       -1   -1    0    0    0  501  0.00000000000E+00  0.00000000000E+00  0.88996236588E+03  0.88996236590E+03  0.50400001928E-02 0.  1.
        1   -1    0    0  501    0  0.00000000000E+00  0.00000000000E+00 -0.15325535623E+04  0.15325535623E+04  0.50400001928E-02 0. -1.
    10030    2    1    2    0    0  0.00000000000E+00  0.00000000000E+00 -0.64259119644E+03  0.24225159282E+04  0.23357354252E+04 0.  0.
        5    1    3    3  502    0  0.63673964213E+03 -0.38432754769E+03 -0.12551644741E+04  0.14589739487E+04  0.46999998093E+01 0. -1.
       -5    1    3    3    0  502 -0.63673964213E+03  0.38432754769E+03  0.61257327771E+03  0.96354197954E+03  0.46999998093E+01 0.  1.
</event>
<event>
 5   0  0.5104174E-06  0.2398707E+04  0.7818609E-02  0.8439988E-01
       -1   -1    0    0    0  501  0.00000000000E+00  0.00000000000E+00  0.12146258842E+04  0.12146258842E+04  0.50400001928E-02 0.  1.
        1   -1    0    0  501    0  0.00000000000E+00  0.00000000000E+00 -0.11842729493E+04  0.11842729493E+04  0.50400001928E-02 0. -1.
    10030    2    1    2    0    0  0.00000000000E+00  0.00000000000E+00  0.30352934974E+02  0.23988988335E+04  0.23987068001E+04 0.  0.
        3    1    3    3  502    0  0.67322373597E+03  0.95406474262E+03 -0.25866809038E+03  0.11959844995E+04  0.10100000352E+00 0. -1.
       -3    1    3    3    0  502 -0.67322373597E+03 -0.95406474262E+03  0.28902102535E+03  0.12029143341E+04  0.10100000352E+00 0.  1.
</event>
<event>
 5   0  0.5042742E-06  0.2398741E+04  0.7818609E-02  0.8439975E-01
       -1   -1    0    0    0  501  0.00000000000E+00  0.00000000000E+00  0.19847519915E+04  0.19847519915E+04  0.50400001928E-02 0. -1.
        1   -1    0    0  501    0  0.00000000000E+00  0.00000000000E+00 -0.72477038626E+03  0.72477038628E+03  0.50400001928E-02 0.  1.
    10030    2    1    2    0    0  0.00000000000E+00  0.00000000000E+00  0.12599816053E+04  0.27095223778E+04  0.23987408927E+04 0.  0.
        5    1    3    3  502    0 -0.10591557706E+04  0.16240955486E+03  0.12385707483E+04  0.16377629250E+04  0.46999998093E+01 0. -1.
       -5    1    3    3    0  502  0.10591557706E+04 -0.16240955486E+03  0.21410856952E+02  0.10717594528E+04  0.46999998093E+01 0.  1.
</event>
<event>
 5   0  0.1169371E-05  0.2361832E+04  0.7818609E-02  0.8453933E-01
        2   -1    0    0  501    0  0.00000000000E+00  0.00000000000E+00  0.14423089729E+04  0.14423089729E+04  0.25500000920E-02 0.  1.
       -2   -1    0    0    0  501  0.00000000000E+00  0.00000000000E+00 -0.96689590705E+03  0.96689590706E+03  0.25500000920E-02 0. -1.
    10030    2    1    2    0    0  0.00000000000E+00  0.00000000000E+00  0.47541306582E+03  0.24092048799E+04  0.23618320369E+04 0.  0.
        2    1    3    3  502    0 -0.16387985308E+03  0.57533312054E+03  0.12763125183E+04  0.14095525710E+04  0.25500000920E-02 0.  1.
       -2    1    3    3    0  502  0.16387985308E+03 -0.57533312054E+03 -0.80089945250E+03  0.99965230898E+03  0.25500000920E-02 0. -1.
</event>
<event>
 5   0  0.1174210E-05  0.2416890E+04  0.7818609E-02  0.8433207E-01
        2   -1    0    0  501    0  0.00000000000E+00  0.00000000000E+00  0.19545998426E+04  0.19545998426E+04  0.25500000920E-02 0. -1.
       -2   -1    0    0    0  501  0.00000000000E+00  0.00000000000E+00 -0.74712934024E+03  0.74712934024E+03  0.25500000920E-02 0.  1.
    10030    2    1    2    0    0  0.00000000000E+00  0.00000000000E+00  0.12074705024E+04  0.27017291829E+04  0.24168896465E+04 0.  0.
        3    1    3    3  502    0 -0.68767590953E+03  0.61233626183E+03  0.14785835075E+04  0.17418562091E+04  0.10100000352E+00 0. -1.
       -3    1    3    3    0  502  0.68767590953E+03 -0.61233626183E+03 -0.27111300514E+03  0.95987297381E+03  0.10100000352E+00 0.  1.
</event>
<event>
 5   0  0.1174210E-05  0.2400017E+04  0.7818609E-02  0.8439497E-01
       -2   -1    0    0    0  501  0.00000000000E+00  0.00000000000E+00  0.59490542563E+03  0.59490542563E+03  0.25500000920E-02 0.  1.
        2   -1    0    0  501    0  0.00000000000E+00  0.00000000000E+00 -0.24205874478E+04  0.24205874478E+04  0.25500000920E-02 0. -1.
    10030    2    1    2    0    0  0.00000000000E+00  0.00000000000E+00 -0.18256820222E+04  0.30154928735E+04  0.24000171715E+04 0.  0.
        3    1    3    3  502    0  0.95768098938E+03  0.48134547343E+03 -0.15908265689E+04  0.19182219697E+04  0.10100000352E+00 0. -1.
       -3    1    3    3    0  502 -0.95768098938E+03 -0.48134547343E+03 -0.23485545325E+03  0.10972709038E+04  0.10100000352E+00 0.  1.
</event>
<event>
 5   0  0.5064437E-06  0.2407138E+04  0.7818609E-02  0.8436836E-01
       -1   -1    0    0    0  501  0.00000000000E+00  0.00000000000E+00  0.11497993117E+04  0.11497993117E+04  0.50400001928E-02 0.  1.
        1   -1    0    0  501    0  0.00000000000E+00  0.00000000000E+00 -0.12598533875E+04  0.12598533875E+04  0.50400001928E-02 0. -1.
    10030    2    1    2    0    0  0.00000000000E+00  0.00000000000E+00 -0.11005407585E+03  0.24096526992E+04  0.24071381828E+04 0.  0.
        2    1    3    3  502    0 -0.93735455055E+03  0.39956296395E+03  0.58618438106E+03  0.11755408305E+04  0.25500000920E-02 0.  1.
       -2    1    3    3    0  502  0.93735455055E+03 -0.39956296395E+03 -0.69623845690E+03  0.12341118687E+04  0.25500000920E-02 0. -1.
</event>
<event>
 5   0  0.1154897E-05  0.2392910E+04  0.7818609E-02  0.8442163E-01
       -2   -1    0    0    0  501  0.00000000000E+00  0.00000000000E+00  0.93125355010E+03  0.93125355010E+03  0.25500000920E-02 0.  1.
        2   -1    0    0  501    0  0.00000000000E+00  0.00000000000E+00 -0.15371805264E+04  0.15371805264E+04  0.25500000920E-02 0. -1.
    10030    2    1    2    0    0  0.00000000000E+00  0.00000000000E+00 -0.60592697631E+03  0.24684340765E+04  0.23929102134E+04 0.  0.
        4    1    3    3  502    0  0.21615296931E+03  0.58257404448E+02 -0.15153827855E+04  0.15318298309E+04  0.12699999809E+01 0. -1.
       -4    1    3    3    0  502 -0.21615296931E+03 -0.58257404448E+02  0.90945580915E+03  0.93660424567E+03  0.12699999809E+01 0.  1.
</event>
<event>
 5   0  0.1174210E-05  0.2393009E+04  0.7818609E-02  0.8442125E-01
       -2   -1    0    0    0  501  0.00000000000E+00  0.00000000000E+00  0.67816580430E+03  0.67816580431E+03  0.25500000920E-02 0. -1.
        2   -1    0    0  501    0  0.00000000000E+00  0.00000000000E+00 -0.21110228960E+04  0.21110228960E+04  0.25500000920E-02 0.  1.
    10030    2    1    2    0    0  0.00000000000E+00  0.00000000000E+00 -0.14328570917E+04  0.27891887003E+04  0.23930094360E+04 0.  0.
        3    1    3    3  502    0  0.10001500874E+04  0.17004193066E+03  0.22950892211E+02  0.10147616514E+04  0.10100000352E+00 0. -1.
       -3    1    3    3    0  502 -0.10001500874E+04 -0.17004193066E+03 -0.14558079839E+04  0.17744270489E+04  0.10100000352E+00 0.  1.
</event>
<event>
 5   0  0.1174210E-05  0.2394538E+04  0.7818609E-02  0.8441551E-01
        2   -1    0    0  501    0  0.00000000000E+00  0.00000000000E+00  0.92324894747E+03  0.92324894747E+03  0.25500000920E-02 0.  1.
       -2   -1    0    0    0  501  0.00000000000E+00  0.00000000000E+00 -0.15526176267E+04  0.15526176267E+04  0.25500000920E-02 0. -1.
    10030    2    1    2    0    0  0.00000000000E+00  0.00000000000E+00 -0.62936867921E+03  0.24758665741E+04  0.23945376085E+04 0.  0.
        3    1    3    3  502    0 -0.34095785584E+03  0.95926986838E+03 -0.96616529463E+03  0.14035406395E+04  0.10100000352E+00 0. -1.
       -3    1    3    3    0  502  0.34095785584E+03 -0.95926986838E+03  0.33679661542E+03  0.10723259347E+04  0.10100000352E+00 0.  1.
</event>
<event>
 5   0  0.1174210E-05  0.2395930E+04  0.7818609E-02  0.8441029E-01
        2   -1    0    0  501    0  0.00000000000E+00  0.00000000000E+00  0.13433553608E+04  0.13433553608E+04  0.25500000920E-02 0.  1.
       -2   -1    0    0    0  501  0.00000000000E+00  0.00000000000E+00 -0.10683101479E+04  0.10683101479E+04  0.25500000920E-02 0. -1.
    10030    2    1    2    0    0  0.00000000000E+00  0.00000000000E+00  0.27504521286E+03  0.24116655087E+04  0.23959300192E+04 0.  0.
        3    1    3    3  502    0 -0.18852664336E+03  0.61904508518E+03 -0.87724582450E+03  0.10901006190E+04  0.10100000352E+00 0. -1.
       -3    1    3    3    0  502  0.18852664336E+03 -0.61904508518E+03  0.11522910374E+04  0.13215648897E+04  0.10100000352E+00 0.  1.
</event>
<event>
 5   0  0.1198313E-05  0.2559691E+04  0.7818609E-02  0.8382024E-01
       -2   -1    0    0    0  501  0.00000000000E+00  0.00000000000E+00  0.11059553363E+04  0.11059553364E+04  0.25500000920E-02 0. -1.
        2   -1    0    0  501    0  0.00000000000E+00  0.00000000000E+00 -0.14810762239E+04  0.14810762239E+04  0.25500000920E-02 0.  1.
    10030    2    1    2    0    0  0.00000000000E+00  0.00000000000E+00 -0.37512088758E+03  0.25870315603E+04  0.25596907262E+04 0.  0.
        5    1    3    3  502    0 -0.95581343248E+01  0.57754947968E+03 -0.13418307532E+04  0.14608855601E+04  0.46999998093E+01 0.  1.
       -5    1    3    3    0  502  0.95581343248E+01 -0.57754947968E+03  0.96670986564E+03  0.11261460002E+04  0.46999998093E+01 0. -1.
</event>
<event>
 5   0  0.5104174E-06  0.2404980E+04  0.7818609E-02  0.8437641E-01
       -1   -1    0    0    0  501  0.00000000000E+00  0.00000000000E+00  0.17200685429E+04  0.17200685429E+04  0.50400001928E-02 0. -1.
        1   -1    0    0  501    0  0.00000000000E+00  0.00000000000E+00 -0.84065403569E+03  0.84065403571E+03  0.50400001928E-02 0.  1.
    10030    2    1    2    0    0  0.00000000000E+00  0.00000000000E+00  0.87941450722E+03  0.25607225786E+04  0.24049803012E+04 0.  0.
        3    1    3    3  502    0  0.58103209548E+03  0.32745172805E+03 -0.62566816014E+03  0.91448542197E+03  0.10100000352E+00 0. -1.
       -3    1    3    3    0  502 -0.58103209548E+03 -0.32745172805E+03  0.15050826674E+04  0.16462371567E+04  0.10100000352E+00 0.  1.
</event>
<event>
 5   0  0.5064437E-06  0.2383561E+04  0.7818609E-02  0.8445684E-01
        1   -1    0    0  501    0  0.00000000000E+00  0.00000000000E+00  0.17187445664E+04  0.17187445664E+04  0.50400001928E-02 0. -1.
       -1   -1    0    0    0  501  0.00000000000E+00  0.00000000000E+00 -0.82638291524E+03  0.82638291526E+03  0.50400001928E-02 0.  1.
    10030    2    1    2    0    0  0.00000000000E+00  0.00000000000E+00  0.89236165117E+03  0.25451274817E+04  0.23835613232E+04 0.  0.
        2    1    3    3  502    0 -0.10548538449E+04 -0.47354962418E+03  0.13786073579E+03  0.11644618770E+04  0.25500000920E-02 0.  1.
       -2    1    3    3    0  502  0.10548538449E+04  0.47354962418E+03  0.75450091538E+03  0.13806656047E+04  0.25500000920E-02 0. -1.
</event>
<event>
 5   0  0.5034479E-06  0.2399248E+04  0.7818609E-02  0.8439785E-01
       -1   -1    0    0    0  501  0.00000000000E+00  0.00000000000E+00  0.10071411440E+04  0.10071411440E+04  0.50400001928E-02 0. -1.
        1   -1    0    0  501    0  0.00000000000E+00  0.00000000000E+00 -0.14288937251E+04  0.14288937251E+04  0.50400001928E-02 0.  1.
    10030    2    1    2    0    0  0.00000000000E+00  0.00000000000E+00 -0.42175258113E+03  0.24360348691E+04  0.23992479329E+04 0.  0.
        4    1    3    3  502    0  0.36082054218E+03 -0.82699630921E+03 -0.10135555065E+04  0.13569859015E+04  0.12699999809E+01 0.  1.
       -4    1    3    3    0  502 -0.36082054218E+03  0.82699630921E+03  0.59180292539E+03  0.10790489676E+04  0.12699999809E+01 0. -1.
</event>
<event>
 5   0  0.1174210E-05  0.2387933E+04  0.7818609E-02  0.8444035E-01
        2   -1    0    0  501    0  0.00000000000E+00  0.00000000000E+00  0.17509671356E+04  0.17509671356E+04  0.25500000920E-02 0.  1.
       -2   -1    0    0    0  501  0.00000000000E+00  0.00000000000E+00 -0.81415356151E+03  0.81415356151E+03  0.25500000920E-02 0. -1.
    10030    2    1    2    0    0  0.00000000000E+00  0.00000000000E+00  0.93681357409E+03  0.25651206971E+04  0.23879331059E+04 0.  0.
        3    1    3    3  502    0  0.36742396038E+03 -0.66640663073E+03  0.14567057594E+04  0.16434992680E+04  0.10100000352E+00 0.  1.
       -3    1    3    3    0  502 -0.36742396038E+03  0.66640663073E+03 -0.51989218530E+03  0.92162142915E+03  0.10100000352E+00 0. -1.
</event>
<event>
 5   0  0.1174210E-05  0.2390662E+04  0.7818609E-02  0.8443008E-01
        2   -1    0    0  501    0  0.00000000000E+00  0.00000000000E+00  0.91050912192E+03  0.91050912193E+03  0.25500000920E-02 0.  1.
       -2   -1    0    0    0  501  0.00000000000E+00  0.00000000000E+00 -0.15692501575E+04  0.15692501575E+04  0.25500000920E-02 0. -1.
    10030    2    1    2    0    0  0.00000000000E+00  0.00000000000E+00 -0.65874103561E+03  0.24797592795E+04  0.23906623208E+04 0.  0.
        3    1    3    3  502    0  0.11770603367E+03  0.79224676120E+03 -0.12497423634E+04  0.14843738161E+04  0.10100000352E+00 0. -1.
       -3    1    3    3    0  502 -0.11770603367E+03 -0.79224676120E+03  0.59100132776E+03  0.99538546333E+03  0.10100000352E+00 0.  1.
</event>
<event>
 5   0  0.1168435E-05  0.2402126E+04  0.7818609E-02  0.8438708E-01
        2   -1    0    0  501    0  0.00000000000E+00  0.00000000000E+00  0.15122234171E+04  0.15122234171E+04  0.25500000920E-02 0. -1.
       -2   -1    0    0    0  501  0.00000000000E+00  0.00000000000E+00 -0.95392774136E+03  0.95392774136E+03  0.25500000920E-02 0.  1.
    10030    2    1    2    0    0  0.00000000000E+00  0.00000000000E+00  0.55829567570E+03  0.24661511584E+04  0.24021256159E+04 0.  0.
        1    1    3    3  502    0 -0.82449927374E+02 -0.63934769650E+03 -0.76126750302E+03  0.99754282050E+03  0.50400001928E-02 0.  1.
       -1    1    3    3    0  502  0.82449927374E+02  0.63934769650E+03  0.13195631787E+04  0.14686083379E+04  0.50400001928E-02 0. -1.
</event>
<event>
 5   0  0.5196696E-06  0.2398056E+04  0.7818609E-02  0.8440232E-01
        1   -1    0    0  501    0  0.00000000000E+00  0.00000000000E+00  0.16028210944E+04  0.16028210944E+04  0.50400001928E-02 0.  1.
       -1   -1    0    0    0  501  0.00000000000E+00  0.00000000000E+00 -0.89696112274E+03  0.89696112275E+03  0.50400001928E-02 0. -1.
    10030    2    1    2    0    0  0.00000000000E+00  0.00000000000E+00  0.70585997168E+03  0.24997822172E+04  0.23980560531E+04 0.  0.
        1    1    3    3  502    0 -0.46596299419E+03  0.10957776775E+04  0.20618187658E+03  0.12084540524E+04  0.50400001928E-02 0. -1.
       -1    1    3    3    0  502  0.46596299419E+03 -0.10957776775E+04  0.49967809511E+03  0.12913281648E+04  0.50400001928E-02 0.  1.
</event>
<event>
 5   0  0.1169371E-05  0.2387673E+04  0.7818609E-02  0.8444133E-01
        2   -1    0    0  501    0  0.00000000000E+00  0.00000000000E+00  0.18554114225E+04  0.18554114225E+04  0.25500000920E-02 0. -1.
       -2   -1    0    0    0  501  0.00000000000E+00  0.00000000000E+00 -0.76815625188E+03  0.76815625188E+03  0.25500000920E-02 0.  1.
    10030    2    1    2    0    0  0.00000000000E+00  0.00000000000E+00  0.10872551707E+04  0.26235676744E+04  0.23876732474E+04 0.  0.
        2    1    3    3  502    0  0.62794835880E+03 -0.25105675849E+03 -0.53738812371E+03  0.86379085015E+03  0.25500000920E-02 0.  1.
       -2    1    3    3    0  502 -0.62794835880E+03  0.25105675849E+03  0.16246432944E+04  0.17597768243E+04  0.25500000920E-02 0. -1.
</event>
<event>
 5   0  0.1174210E-05  0.2403211E+04  0.7818609E-02  0.8438302E-01
        2   -1    0    0  501    0  0.00000000000E+00  0.00000000000E+00  0.15080161769E+04  0.15080161769E+04  0.25500000920E-02 0.  1.
       -2   -1    0    0    0  501  0.00000000000E+00  0.00000000000E+00 -0.95745371262E+03  0.95745371262E+03  0.25500000920E-02 0. -1.
    10030    2    1    2    0    0  0.00000000000E+00  0.00000000000E+00  0.55056246423E+03  0.24654698895E+04  0.24032109248E+04 0.  0.
        3    1    3    3  502    0 -0.10681419674E+04  0.43073426198E+03 -0.76226774206E+02  0.11542399224E+04  0.10100000352E+00 0.  1.
       -3    1    3    3    0  502  0.10681419674E+04 -0.43073426198E+03  0.62678923844E+03  0.13112299671E+04  0.10100000352E+00 0. -1.
</event>
<event>
 5   0  0.5196696E-06  0.2397807E+04  0.7818609E-02  0.8440325E-01
       -1   -1    0    0    0  501  0.00000000000E+00  0.00000000000E+00  0.10892153759E+04  0.10892153760E+04  0.50400001928E-02 0.  1.
        1   -1    0    0  501    0  0.00000000000E+00  0.00000000000E+00 -0.13196374269E+04  0.13196374269E+04  0.50400001928E-02 0. -1.
    10030    2    1    2    0    0  0.00000000000E+00  0.00000000000E+00 -0.23042205090E+03  0.24088528028E+04  0.23978068113E+04 0.  0.
        1    1    3    3  502    0 -0.10505273955E+04  0.37012540458E+02 -0.69440111026E+03  0.12598296071E+04  0.50400001928E-02 0. -1.
       -1    1    3    3    0  502  0.10505273955E+04 -0.37012540458E+02  0.46397905936E+03  0.11490231958E+04  0.50400001928E-02 0.  1.
</event>
<event>
 5   0  0.1154897E-05  0.2398084E+04  0.7818609E-02  0.8440221E-01
        2   -1    0    0  501    0  0.00000000000E+00  0.00000000000E+00  0.14539879185E+04  0.14539879185E+04  0.25500000920E-02 0.  1.
       -2   -1    0    0    0  501  0.00000000000E+00  0.00000000000E+00 -0.98879857913E+03  0.98879857913E+03  0.25500000920E-02 0. -1.
    10030    2    1    2    0    0  0.00000000000E+00  0.00000000000E+00  0.46518933940E+03  0.24427864977E+04  0.23980835581E+04 0.  0.
        4    1    3    3  502    0  0.44714280609E+03  0.10998669144E+04  0.40321525143E+03  0.12538851902E+04  0.12699999809E+01 0.  1.
       -4    1    3    3    0  502 -0.44714280609E+03 -0.10998669144E+04  0.61974087970E+02  0.11889013074E+04  0.12699999809E+01 0. -1.
</event>
<event>
 5   0  0.4067750E-06  0.2399009E+04  0.7818609E-02  0.8439875E-01
       -3   -1    0    0    0  501  0.00000000000E+00  0.00000000000E+00  0.15054734409E+04  0.15054734443E+04  0.10100000352E+00 0.  1.
        3   -1    0    0  501    0  0.00000000000E+00  0.00000000000E+00 -0.95571986928E+03  0.95571987461E+03  0.10100000352E+00 0. -1.
    10030    2    1    2    0    0  0.00000000000E+00  0.00000000000E+00  0.54975357166E+03  0.24611933189E+04  0.23990088711E+04 0.  0.
        2    1    3    3  502    0  0.47309745448E+03  0.89621177390E+03 -0.38346884505E+03  0.10835428465E+04  0.25500000920E-02 0. -1.
       -2    1    3    3    0  502 -0.47309745448E+03 -0.89621177390E+03  0.93322241670E+03  0.13776504724E+04  0.25500000920E-02 0.  1.
</event>
<event>
 5   0  0.1198313E-05  0.2390379E+04  0.7818609E-02  0.8443114E-01
       -2   -1    0    0    0  501  0.00000000000E+00  0.00000000000E+00  0.95687698930E+03  0.95687698931E+03  0.25500000920E-02 0. -1.
        2   -1    0    0  501    0  0.00000000000E+00  0.00000000000E+00 -0.14928547140E+04  0.14928547140E+04  0.25500000920E-02 0.  1.
    10030    2    1    2    0    0  0.00000000000E+00  0.00000000000E+00 -0.53597772468E+03  0.24497317033E+04  0.23903793207E+04 0.  0.
        5    1    3    3  502    0  0.54284317877E+03 -0.74087249750E+03 -0.10517561119E+04  0.13963465842E+04  0.46999998093E+01 0.  1.
       -5    1    3    3    0  502 -0.54284317877E+03  0.74087249750E+03  0.51577838726E+03  0.10533851191E+04  0.46999998093E+01 0. -1.
</event>
<event>
 5   0  0.1154897E-05  0.2397430E+04  0.7818609E-02  0.8440466E-01
       -2   -1    0    0    0  501  0.00000000000E+00  0.00000000000E+00  0.12412990160E+04  0.12412990160E+04  0.25500000920E-02 0.  1.
        2   -1    0    0  501    0  0.00000000000E+00  0.00000000000E+00 -0.11575919188E+04  0.11575919188E+04  0.25500000920E-02 0. -1.
    10030    2    1    2    0    0  0.00000000000E+00  0.00000000000E+00  0.83707097252E+02  0.23988909348E+04  0.23974300488E+04 0.  0.
        4    1    3    3  502    0  0.10613794274E+04  0.38153606890E+03  0.44808127429E+03  0.12136204110E+04  0.12699999809E+01 0.  1.
       -4    1    3    3    0  502 -0.10613794274E+04 -0.38153606890E+03 -0.36437417704E+03  0.11852705238E+04  0.12699999809E+01 0. -1.
</event>
<event>
 5   0  0.1174210E-05  0.2392599E+04  0.7818609E-02  0.8442279E-01
        2   -1    0    0  501    0  0.00000000000E+00  0.00000000000E+00  0.14352748283E+04  0.14352748283E+04  0.25500000920E-02 0.  1.
       -2   -1    0    0    0  501  0.00000000000E+00  0.00000000000E+00 -0.99711429480E+03  0.99711429481E+03  0.25500000920E-02 0. -1.
    10030    2    1    2    0    0  0.00000000000E+00  0.00000000000E+00  0.43816053348E+03  0.24323891231E+04  0.23925994636E+04 0.  0.
        3    1    3    3  502    0 -0.40416004783E+03  0.11253614599E+03  0.13580344375E+04  0.14213610632E+04  0.10100000352E+00 0.  1.
       -3    1    3    3    0  502  0.40416004783E+03 -0.11253614599E+03 -0.91987390400E+03  0.10110280599E+04  0.10100000352E+00 0. -1.
</event>
<event>
 5   0  0.1174210E-05  0.2402992E+04  0.7818609E-02  0.8438384E-01
       -2   -1    0    0    0  501  0.00000000000E+00  0.00000000000E+00  0.10617279118E+04  0.10617279118E+04  0.25500000920E-02 0.  1.
        2   -1    0    0  501    0  0.00000000000E+00  0.00000000000E+00 -0.13596633457E+04  0.13596633457E+04  0.25500000920E-02 0. -1.
    10030    2    1    2    0    0  0.00000000000E+00  0.00000000000E+00 -0.29793543387E+03  0.24213912575E+04  0.24029919058E+04 0.  0.
        3    1    3    3  502    0  0.81634122226E+03  0.26551874951E+03  0.69811116063E+03  0.11064684362E+04  0.10100000352E+00 0.  1.
       -3    1    3    3    0  502 -0.81634122226E+03 -0.26551874951E+03 -0.99604659450E+03  0.13149228214E+04  0.10100000352E+00 0. -1.
</event>
<event>
 5   0  0.1169371E-05  0.2406325E+04  0.7818609E-02  0.8437139E-01
        2   -1    0    0  501    0  0.00000000000E+00  0.00000000000E+00  0.15856029992E+04  0.15856029992E+04  0.25500000920E-02 0. -1.
       -2   -1    0    0    0  501  0.00000000000E+00  0.00000000000E+00 -0.91296500441E+03  0.91296500441E+03  0.25500000920E-02 0.  1.
    10030    2    1    2    0    0  0.00000000000E+00  0.00000000000E+00  0.67263799478E+03  0.24985680036E+04  0.24063250397E+04 0.  0.
        2    1    3    3  502    0  0.30163980133E+03 -0.25843045551E+03 -0.84292220776E+03  0.93182118372E+03  0.25500000920E-02 0.  1.
       -2    1    3    3    0  502 -0.30163980133E+03  0.25843045551E+03  0.15155602025E+04  0.15667468199E+04  0.25500000920E-02 0. -1.
</event>
<event>
 5   0  0.1174210E-05  0.2395349E+04  0.7818609E-02  0.8441247E-01
       -2   -1    0    0    0  501  0.00000000000E+00  0.00000000000E+00  0.12549481464E+04  0.12549481464E+04  0.25500000920E-02 0. -1.
        2   -1    0    0  501    0  0.00000000000E+00  0.00000000000E+00 -0.11430144762E+04  0.11430144762E+04  0.25500000920E-02 0.  1.
    10030    2    1    2    0    0  0.00000000000E+00  0.00000000000E+00  0.11193367022E+03  0.23979626226E+04  0.23953487414E+04 0.  0.
        3    1    3    3  502    0  0.19010815380E+03  0.11788502902E+04  0.14877598952E+03  0.12033135178E+04  0.10100000352E+00 0. -1.
       -3    1    3    3    0  502 -0.19010815380E+03 -0.11788502902E+04 -0.36842319303E+02  0.11946491048E+04  0.10100000352E+00 0.  1.
</event>
<event>
 5   0  0.5042742E-06  0.2394264E+04  0.7818609E-02  0.8441654E-01
        1   -1    0    0  501    0  0.00000000000E+00  0.00000000000E+00  0.15888174250E+04  0.15888174250E+04  0.50400001928E-02 0. -1.
       -1   -1    0    0    0  501  0.00000000000E+00  0.00000000000E+00 -0.90200768357E+03  0.90200768359E+03  0.50400001928E-02 0.  1.
    10030    2    1    2    0    0  0.00000000000E+00  0.00000000000E+00  0.68680974144E+03  0.24908251086E+04  0.23942644175E+04 0.  0.
        5    1    3    3  502    0  0.98897360269E+03 -0.32810696509E+03 -0.26975513772E+03  0.10763423673E+04  0.46999998093E+01 0.  1.
       -5    1    3    3    0  502 -0.98897360269E+03  0.32810696509E+03  0.95656487916E+03  0.14144827413E+04  0.46999998093E+01 0. -1.
</event>
<event>
 5   0  0.1168435E-05  0.2398578E+04  0.7818609E-02  0.8440036E-01
       -2   -1    0    0    0  501  0.00000000000E+00  0.00000000000E+00  0.12421451799E+04  0.12421451799E+04  0.25500000920E-02 0.  1.
        2   -1    0    0  501    0  0.00000000000E+00  0.00000000000E+00 -0.11579114336E+04  0.11579114336E+04  0.25500000920E-02 0. -1.
    10030    2    1    2    0    0  0.00000000000E+00  0.00000000000E+00  0.84233746267E+02  0.24000566136E+04  0.23985780004E+04 0.  0.
        1    1    3    3  502    0 -0.30728539295E+03 -0.97625890005E+03  0.66763290651E+03  0.12219817718E+04  0.50400001928E-02 0.  1.
       -1    1    3    3    0  502  0.30728539295E+03  0.97625890005E+03 -0.58339916024E+03  0.11780748418E+04  0.50400001928E-02 0. -1.
</event>
<event>
 5   0  0.5104174E-06  0.2397417E+04  0.7818609E-02  0.8440471E-01
        1   -1    0    0  501    0  0.00000000000E+00  0.00000000000E+00  0.15288480417E+04  0.15288480417E+04  0.50400001928E-02 0.  1.
       -1   -1    0    0    0  501  0.00000000000E+00  0.00000000000E+00 -0.93985945718E+03  0.93985945719E+03  0.50400001928E-02 0. -1.
    10030    2    1    2    0    0  0.00000000000E+00  0.00000000000E+00  0.58898858450E+03  0.24687074989E+04  0.23974171857E+04 0.  0.
        3    1    3    3  502    0  0.56105751845E+03  0.82967601278E+03  0.97267900559E+03  0.13961562532E+04  0.10100000352E+00 0.  1.
       -3    1    3    3    0  502 -0.56105751845E+03 -0.82967601278E+03 -0.38369042109E+03  0.10725512457E+04  0.10100000352E+00 0. -1.
</event>
<event>
 5   0  0.1154897E-05  0.2393870E+04  0.7818609E-02  0.8441802E-01
        2   -1    0    0  501    0  0.00000000000E+00  0.00000000000E+00  0.97456176320E+03  0.97456176320E+03  0.25500000920E-02 0.  1.
       -2   -1    0    0    0  501  0.00000000000E+00  0.00000000000E+00 -0.14700482909E+04  0.14700482909E+04  0.25500000920E-02 0. -1.
    10030    2    1    2    0    0  0.00000000000E+00  0.00000000000E+00 -0.49548652766E+03  0.24446100541E+04  0.23938695489E+04 0.  0.
        4    1    3    3  502    0 -0.49468659216E+03 -0.10700874210E+04 -0.45913164988E+03  0.12651503459E+04  0.12699999809E+01 0.  1.
       -4    1    3    3    0  502  0.49468659216E+03  0.10700874210E+04 -0.36354877778E+02  0.11794597081E+04  0.12699999809E+01 0. -1.
</event>
<event>
 5   0  0.1154897E-05  0.2404092E+04  0.7818609E-02  0.8437973E-01
       -2   -1    0    0    0  501  0.00000000000E+00  0.00000000000E+00  0.88657817431E+03  0.88657817432E+03  0.25500000920E-02 0.  1.
        2   -1    0    0  501    0  0.00000000000E+00  0.00000000000E+00 -0.16297657148E+04  0.16297657148E+04  0.25500000920E-02 0. -1.
    10030    2    1    2    0    0  0.00000000000E+00  0.00000000000E+00 -0.74318754051E+03  0.25163438891E+04  0.24040921047E+04 0.  0.
        4    1    3    3  502    0 -0.10016248527E+04  0.26890066414E+03 -0.10077148908E+04  0.14460466199E+04  0.12699999809E+01 0. -1.
       -4    1    3    3    0  502  0.10016248527E+04 -0.26890066414E+03  0.26452735032E+03  0.10702972693E+04  0.12699999809E+01 0.  1.
</event>
<event>
 5   0  0.4067750E-06  0.2385342E+04  0.7818609E-02  0.8445012E-01
        3   -1    0    0  501    0  0.00000000000E+00  0.00000000000E+00  0.66433648842E+03  0.66433649610E+03  0.10100000352E+00 0.  1.
       -3   -1    0    0    0  501  0.00000000000E+00  0.00000000000E+00 -0.21411796623E+04  0.21411796646E+04  0.10100000352E+00 0. -1.
    10030    2    1    2    0    0  0.00000000000E+00  0.00000000000E+00 -0.14768431738E+04  0.28055161607E+04  0.23853417298E+04 0.  0.
        5    1    3    3  502    0  0.72866562434E+03 -0.12742682925E+03 -0.18387652732E+04  0.19819866319E+04  0.46999998093E+01 0. -1.
       -5    1    3    3    0  502 -0.72866562434E+03  0.12742682925E+03  0.36192209938E+03  0.82352952887E+03  0.46999998093E+01 0.  1.
</event>
<event>
 5   0  0.1154897E-05  0.2393236E+04  0.7818609E-02  0.8442040E-01
       -2   -1    0    0    0  501  0.00000000000E+00  0.00000000000E+00  0.12312733243E+04  0.12312733243E+04  0.25500000920E-02 0.  1.
        2   -1    0    0  501    0  0.00000000000E+00  0.00000000000E+00 -0.11629378288E+04  0.11629378288E+04  0.25500000920E-02 0. -1.
    10030    2    1    2    0    0  0.00000000000E+00  0.00000000000E+00  0.68335495523E+02  0.23942111531E+04  0.23932357397E+04 0.  0.
        4    1    3    3  502    0 -0.75595808303E+03  0.90473502858E+03 -0.17054854130E+03  0.11912625710E+04  0.12699999809E+01 0. -1.
       -4    1    3    3    0  502  0.75595808303E+03 -0.90473502858E+03  0.23888403682E+03  0.12029485821E+04  0.12699999809E+01 0.  1.
</event>
<event>
 5   0  0.1168435E-05  0.2396958E+04  0.7818609E-02  0.8440643E-01
        2   -1    0    0  501    0  0.00000000000E+00  0.00000000000E+00  0.24837367118E+04  0.24837367118E+04  0.25500000920E-02 0. -1.
       -2   -1    0    0    0  501  0.00000000000E+00  0.00000000000E+00 -0.57830282738E+03  0.57830282739E+03  0.25500000920E-02 0.  1.
    10030    2    1    2    0    0  0.00000000000E+00  0.00000000000E+00  0.19054338844E+04  0.30620395392E+04  0.23969580413E+04 0.  0.
        1    1    3    3  502    0  0.41415188938E+03 -0.10370680539E+04  0.39687842080E+03  0.11851347673E+04  0.50400001928E-02 0.  1.
       -1    1    3    3    0  502 -0.41415188938E+03  0.10370680539E+04  0.15085554636E+04  0.18769047719E+04  0.50400001928E-02 0. -1.
</event>
<event>
 5   0  0.5034479E-06  0.2405345E+04  0.7818609E-02  0.8437505E-01
        1   -1    0    0  501    0  0.00000000000E+00  0.00000000000E+00  0.10619761066E+04  0.10619761066E+04  0.50400001928E-02 0. -1.
       -1   -1    0    0    0  501  0.00000000000E+00  0.00000000000E+00 -0.13620095554E+04  0.13620095554E+04  0.50400001928E-02 0.  1.
    10030    2    1    2    0    0  0.00000000000E+00  0.00000000000E+00 -0.30003344883E+03  0.24239856620E+04  0.24053453846E+04 0.  0.
        4    1    3    3  502    0 -0.63057460242E+03  0.40154247386E+03  0.79938778783E+03  0.10944784766E+04  0.12699999809E+01 0. -1.
       -4    1    3    3    0  502  0.63057460242E+03 -0.40154247386E+03 -0.10994212367E+04  0.13295071854E+04  0.12699999809E+01 0.  1.
</event>
<event>
 5   0  0.5042742E-06  0.2399244E+04  0.7818609E-02  0.8439787E-01
        1   -1    0    0  501    0  0.00000000000E+00  0.00000000000E+00  0.65478353913E+03  0.65478353915E+03  0.50400001928E-02 0. -1.
       -1   -1    0    0    0  501  0.00000000000E+00  0.00000000000E+00 -0.21978145554E+04  0.21978145554E+04  0.50400001928E-02 0.  1.
    10030    2    1    2    0    0  0.00000000000E+00  0.00000000000E+00 -0.15430310163E+04  0.28525980946E+04  0.23992438750E+04 0.  0.
        5    1    3    3  502    0  0.30750282961E+03  0.74208557274E+03  0.28780573269E+03  0.85328964440E+03  0.46999998093E+01 0. -1.
       -5    1    3    3    0  502 -0.30750282961E+03 -0.74208557274E+03 -0.18308367490E+04  0.19993084501E+04  0.46999998093E+01 0.  1.
</event>
<event>
 5   0  0.1154897E-05  0.2402580E+04  0.7818609E-02  0.8438538E-01
       -2   -1    0    0    0  501  0.00000000000E+00  0.00000000000E+00  0.67122615938E+03  0.67122615938E+03  0.25500000920E-02 0. -1.
        2   -1    0    0  501    0  0.00000000000E+00  0.00000000000E+00 -0.21499430559E+04  0.21499430559E+04  0.25500000920E-02 0.  1.
    10030    2    1    2    0    0  0.00000000000E+00  0.00000000000E+00 -0.14787168965E+04  0.28211692153E+04  0.24025802965E+04 0.  0.
        4    1    3    3  502    0 -0.37528683986E+03  0.63879776891E+03 -0.18497266215E+04  0.19925844999E+04  0.12699999809E+01 0.  1.
       -4    1    3    3    0  502  0.37528683986E+03 -0.63879776891E+03  0.37100972499E+03  0.82858471545E+03  0.12699999809E+01 0. -1.
</event>
<event>
 5   0  0.1168435E-05  0.2401841E+04  0.7818609E-02  0.8438815E-01
       -2   -1    0    0    0  501  0.00000000000E+00  0.00000000000E+00  0.17405236320E+04  0.17405236320E+04  0.25500000920E-02 0.  1.
        2   -1    0    0  501    0  0.00000000000E+00  0.00000000000E+00 -0.82860701316E+03  0.82860701317E+03  0.25500000920E-02 0. -1.
    10030    2    1    2    0    0  0.00000000000E+00  0.00000000000E+00  0.91191661888E+03  0.25691306452E+04  0.24018410340E+04 0.  0.
        1    1    3    3  502    0 -0.70740068668E+02  0.74873588691E+03 -0.54552285804E+03  0.92908814132E+03  0.50400001928E-02 0. -1.
       -1    1    3    3    0  502  0.70740068668E+02 -0.74873588691E+03  0.14574394769E+04  0.16400425039E+04  0.50400001928E-02 0.  1.
</event>
<event>
 5   0  0.1169371E-05  0.2401205E+04  0.7818609E-02  0.8439052E-01
       -2   -1    0    0    0  501  0.00000000000E+00  0.00000000000E+00  0.67195381269E+03  0.67195381269E+03  0.25500000920E-02 0.  1.
        2   -1    0    0  501    0  0.00000000000E+00  0.00000000000E+00 -0.21451574611E+04  0.21451574611E+04  0.25500000920E-02 0. -1.
    10030    2    1    2    0    0  0.00000000000E+00  0.00000000000E+00 -0.14732036484E+04  0.28171112738E+04  0.24012053097E+04 0.  0.
        2    1    3    3  502    0 -0.87887332251E+03  0.60931612833E+03 -0.96410856454E+02  0.10737688366E+04  0.25500000920E-02 0.  1.
       -2    1    3    3    0  502  0.87887332251E+03 -0.60931612833E+03 -0.13767927920E+04  0.17433424372E+04  0.25500000920E-02 0. -1.
</event>
<event>
 5   0  0.1198313E-05  0.2391117E+04  0.7818609E-02  0.8442837E-01
        2   -1    0    0  501    0  0.00000000000E+00  0.00000000000E+00  0.74136849092E+03  0.74136849093E+03  0.25500000920E-02 0.  1.
       -2   -1    0    0    0  501  0.00000000000E+00  0.00000000000E+00 -0.19280024231E+04  0.19280024231E+04  0.25500000920E-02 0. -1.
    10030    2    1    2    0    0  0.00000000000E+00  0.00000000000E+00 -0.11866339322E+04  0.26693709140E+04  0.23911171004E+04 0.  0.
        5    1    3    3  502    0  0.27578694488E+03 -0.45825848500E+03  0.60035273084E+03  0.80405520300E+03  0.46999998093E+01 0.  1.
       -5    1    3    3    0  502 -0.27578694488E+03  0.45825848500E+03 -0.17869866630E+04  0.18653157110E+04  0.46999998093E+01 0. -1.
</event>
<event>
 5   0  0.1169371E-05  0.2399198E+04  0.7818609E-02  0.8439804E-01
        2   -1    0    0  501    0  0.00000000000E+00  0.00000000000E+00  0.16937646036E+04  0.16937646036E+04  0.25500000920E-02 0.  1.
       -2   -1    0    0    0  501  0.00000000000E+00  0.00000000000E+00 -0.84960882648E+03  0.84960882648E+03  0.25500000920E-02 0. -1.
    10030    2    1    2    0    0  0.00000000000E+00  0.00000000000E+00  0.84415577712E+03  0.25433734301E+04  0.23991976635E+04 0.  0.
        2    1    3    3  502    0  0.11749142617E+04  0.24152630299E+03  0.40437465549E+03  0.12658109414E+04  0.25500000920E-02 0.  1.
       -2    1    3    3    0  502 -0.11749142617E+04 -0.24152630299E+03  0.43978112163E+03  0.12775624886E+04  0.25500000920E-02 0. -1.
</event>
<event>
 5   0  0.5104174E-06  0.2399686E+04  0.7818609E-02  0.8439621E-01
        1   -1    0    0  501    0  0.00000000000E+00  0.00000000000E+00  0.14543903908E+04  0.14543903908E+04  0.50400001928E-02 0. -1.
       -1   -1    0    0    0  501  0.00000000000E+00  0.00000000000E+00 -0.98984681850E+03  0.98984681851E+03  0.50400001928E-02 0.  1.
    10030    2    1    2    0    0  0.00000000000E+00  0.00000000000E+00  0.46454357228E+03  0.24442372093E+04  0.23996863972E+04 0.  0.
        3    1    3    3  502    0  0.70519778413E+03 -0.46138677805E+03  0.11022016689E+04  0.13874545769E+04  0.10100000352E+00 0. -1.
       -3    1    3    3    0  502 -0.70519778413E+03  0.46138677805E+03 -0.63765809666E+03  0.10567826324E+04  0.10100000352E+00 0.  1.
</event>
<event>
 5   0  0.1168435E-05  0.2398377E+04  0.7818609E-02  0.8440111E-01
        2   -1    0    0  501    0  0.00000000000E+00  0.00000000000E+00  0.89196504210E+03  0.89196504210E+03  0.25500000920E-02 0.  1.
       -2   -1    0    0    0  501  0.00000000000E+00  0.00000000000E+00 -0.16122305447E+04  0.16122305447E+04  0.25500000920E-02 0. -1.
    10030    2    1    2    0    0  0.00000000000E+00  0.00000000000E+00 -0.72026550257E+03  0.25041955868E+04  0.23983771894E+04 0.  0.
        1    1    3    3  502    0 -0.53579027449E+02 -0.38070250529E+03  0.82587461846E+03  0.91097420115E+03  0.50400001928E-02 0.  1.
       -1    1    3    3    0  502  0.53579027449E+02  0.38070250529E+03 -0.15461401210E+04  0.15932213856E+04  0.50400001928E-02 0. -1.
</event>
<event>
 5   0  0.5064437E-06  0.2408816E+04  0.7818609E-02  0.8436210E-01
        1   -1    0    0  501    0  0.00000000000E+00  0.00000000000E+00  0.20309875864E+04  0.20309875864E+04  0.50400001928E-02 0. -1.
       -1   -1    0    0    0  501  0.00000000000E+00  0.00000000000E+00 -0.71423342818E+03  0.71423342820E+03  0.50400001928E-02 0.  1.
    10030    2    1    2    0    0  0.00000000000E+00  0.00000000000E+00  0.13167541582E+04  0.27452210146E+04  0.24088164949E+04 0.  0.
        2    1    3    3  502    0  0.10548439256E+04  0.35790430783E+03  0.13636007887E+03  0.11222233610E+04  0.25500000920E-02 0.  1.
       -2    1    3    3    0  502 -0.10548439256E+04 -0.35790430783E+03  0.11803940794E+04  0.16229976536E+04  0.25500000920E-02 0. -1.
</event>
<event>
 5   0  0.5034479E-06  0.2398166E+04  0.7818609E-02  0.8440190E-01
        1   -1    0    0  501    0  0.00000000000E+00  0.00000000000E+00  0.13073367861E+04  0.13073367861E+04  0.50400001928E-02 0.  1.
       -1   -1    0    0    0  501  0.00000000000E+00  0.00000000000E+00 -0.10997933052E+04  0.10997933052E+04  0.50400001928E-02 0. -1.
    10030    2    1    2    0    0  0.00000000000E+00  0.00000000000E+00  0.20754348089E+03  0.24071300913E+04  0.23981661702E+04 0.  0.
        4    1    3    3  502    0  0.41398861166E+03 -0.29099229345E+03 -0.98736816537E+03  0.11094866346E+04  0.12699999809E+01 0. -1.
       -4    1    3    3    0  502 -0.41398861166E+03  0.29099229345E+03  0.11949116463E+04  0.12976434567E+04  0.12699999809E+01 0.  1.
</event>
<event>
 5   0  0.1174210E-05  0.2396272E+04  0.7818609E-02  0.8440901E-01
       -2   -1    0    0    0  501  0.00000000000E+00  0.00000000000E+00  0.96954365015E+03  0.96954365015E+03  0.25500000920E-02 0.  1.
        2   -1    0    0  501    0  0.00000000000E+00  0.00000000000E+00 -0.14806238442E+04  0.14806238442E+04  0.25500000920E-02 0. -1.
    10030    2    1    2    0    0  0.00000000000E+00  0.00000000000E+00 -0.51108019407E+03  0.24501674944E+04  0.23962716427E+04 0.  0.
        3    1    3    3  502    0 -0.11558790359E+04 -0.14262479207E+03 -0.54316982074E+03  0.12850804027E+04  0.10100000352E+00 0. -1.
       -3    1    3    3    0  502  0.11558790359E+04  0.14262479207E+03  0.32089626665E+02  0.11650870917E+04  0.10100000352E+00 0.  1.
</event>
<event>
 5   0  0.1198313E-05  0.2405982E+04  0.7818609E-02  0.8437267E-01
        2   -1    0    0  501    0  0.00000000000E+00  0.00000000000E+00  0.22143502567E+04  0.22143502567E+04  0.25500000920E-02 0. -1.
       -2   -1    0    0    0  501  0.00000000000E+00  0.00000000000E+00 -0.65354930393E+03  0.65354930394E+03  0.25500000920E-02 0.  1.
    10030    2    1    2    0    0  0.00000000000E+00  0.00000000000E+00  0.15608009528E+04  0.28678995607E+04  0.24059817696E+04 0.  0.
        5    1    3    3  502    0  0.11444233531E+04 -0.37007216019E+03  0.80723380651E+03  0.14485533208E+04  0.46999998093E+01 0.  1.
       -5    1    3    3    0  502 -0.11444233531E+04  0.37007216019E+03  0.75356714630E+03  0.14193462399E+04  0.46999998093E+01 0. -1.
</event>
<event>
 5   0  0.1198313E-05  0.2428118E+04  0.7818609E-02  0.8429051E-01
       -2   -1    0    0    0  501  0.00000000000E+00  0.00000000000E+00  0.95746937150E+03  0.95746937150E+03  0.25500000920E-02 0. -1.
        2   -1    0    0  501    0  0.00000000000E+00  0.00000000000E+00 -0.15394111242E+04  0.15394111243E+04  0.25500000920E-02 0.  1.
    10030    2    1    2    0    0  0.00000000000E+00  0.00000000000E+00 -0.58194175275E+03  0.24968804958E+04  0.24281177909E+04 0.  0.
        5    1    3    3  502    0 -0.84740948621E+03 -0.69800291986E+03 -0.82392013096E+03  0.13726534106E+04  0.46999998093E+01 0.  1.
       -5    1    3    3    0  502  0.84740948621E+03  0.69800291986E+03  0.24197837821E+03  0.11242270851E+04  0.46999998093E+01 0. -1.
</event>
<event>
 5   0  0.1168435E-05  0.2411239E+04  0.7818609E-02  0.8435308E-01
       -2   -1    0    0    0  501  0.00000000000E+00  0.00000000000E+00  0.94372835113E+03  0.94372835113E+03  0.25500000920E-02 0. -1.
        2   -1    0    0  501    0  0.00000000000E+00  0.00000000000E+00 -0.15401873664E+04  0.15401873664E+04  0.25500000920E-02 0.  1.
    10030    2    1    2    0    0  0.00000000000E+00  0.00000000000E+00 -0.59645901529E+03  0.24839157175E+04  0.24112390871E+04 0.  0.
        1    1    3    3  502    0 -0.35494188429E+03  0.11067454062E+04  0.31816648403E+02  0.11627043624E+04  0.50400001928E-02 0.  1.
       -1    1    3    3    0  502  0.35494188429E+03 -0.11067454062E+04 -0.62827566369E+03  0.13212113551E+04  0.50400001928E-02 0. -1.
</event>
<event>
 5   0  0.5034479E-06  0.2388958E+04  0.7818609E-02  0.8443649E-01
        1   -1    0    0  501    0  0.00000000000E+00  0.00000000000E+00  0.16358369226E+04  0.16358369226E+04  0.50400001928E-02 0.  1.
       -1   -1    0    0    0  501  0.00000000000E+00  0.00000000000E+00 -0.87220176782E+03  0.87220176783E+03  0.50400001928E-02 0. -1.
    10030    2    1    2    0    0  0.00000000000E+00  0.00000000000E+00  0.76363515476E+03  0.25080386904E+04  0.23889578111E+04 0.  0.
        4    1    3    3  502    0  0.19041160096E+03 -0.27420021129E+02  0.16194657015E+04  0.16308522946E+04  0.12699999809E+01 0.  1.
       -4    1    3    3    0  502 -0.19041160096E+03  0.27420021129E+02 -0.85583054679E+03  0.87718639584E+03  0.12699999809E+01 0. -1.
</event>
<event>
 5   0  0.4067750E-06  0.2414227E+04  0.7818609E-02  0.8434196E-01
        3   -1    0    0  501    0  0.00000000000E+00  0.00000000000E+00  0.23951687359E+04  0.23951687381E+04  0.10100000352E+00 0.  1.
       -3   -1    0    0    0  501  0.00000000000E+00  0.00000000000E+00 -0.60835937072E+03  0.60835937910E+03  0.10100000352E+00 0. -1.
    10030    2    1    2    0    0  0.00000000000E+00  0.00000000000E+00  0.17868093652E+04  0.30035281172E+04  0.24142272973E+04 0.  0.
        2    1    3    3  502    0  0.10169495466E+04 -0.64537676804E+03  0.79367661503E+03  0.14424354829E+04  0.25500000920E-02 0.  1.
       -2    1    3    3    0  502 -0.10169495466E+04  0.64537676804E+03  0.99313275018E+03  0.15610926342E+04  0.25500000920E-02 0. -1.
</event>
<event>
 5   0  0.1198313E-05  0.2404117E+04  0.7818609E-02  0.8437964E-01
       -2   -1    0    0    0  501  0.00000000000E+00  0.00000000000E+00  0.64387843407E+03  0.64387843408E+03  0.25500000920E-02 0.  1.
        2   -1    0    0  501    0  0.00000000000E+00  0.00000000000E+00 -0.22441264137E+04  0.22441264137E+04  0.25500000920E-02 0. -1.
    10030    2    1    2    0    0  0.00000000000E+00  0.00000000000E+00 -0.16002479796E+04  0.28880048478E+04  0.24041169698E+04 0.  0.
        5    1    3    3  502    0  0.16139926952E+03  0.28576545512E+03  0.58900404624E+03  0.67428441775E+03  0.46999998093E+01 0.  1.
       -5    1    3    3    0  502 -0.16139926952E+03 -0.28576545512E+03 -0.21892520258E+04  0.22137204300E+04  0.46999998093E+01 0. -1.
</event>
<event>
 5   0  0.1169371E-05  0.2403904E+04  0.7818609E-02  0.8438043E-01
        2   -1    0    0  501    0  0.00000000000E+00  0.00000000000E+00  0.15017954646E+04  0.15017954646E+04  0.25500000920E-02 0.  1.
       -2   -1    0    0    0  501  0.00000000000E+00  0.00000000000E+00 -0.96197410498E+03  0.96197410498E+03  0.25500000920E-02 0. -1.
    10030    2    1    2    0    0  0.00000000000E+00  0.00000000000E+00  0.53982135962E+03  0.24637695696E+04  0.24039037817E+04 0.  0.
        2    1    3    3  502    0  0.91687962848E+03  0.53565364071E+03 -0.30722495390E+03  0.11054321545E+04  0.25500000920E-02 0. -1.
       -2    1    3    3    0  502 -0.91687962848E+03 -0.53565364071E+03  0.84704631351E+03  0.13583374151E+04  0.25500000920E-02 0.  1.
</event>
<event>
 5   0  0.1174210E-05  0.2369399E+04  0.7818609E-02  0.8451050E-01
       -2   -1    0    0    0  501  0.00000000000E+00  0.00000000000E+00  0.70127505450E+03  0.70127505451E+03  0.25500000920E-02 0.  1.
        2   -1    0    0  501    0  0.00000000000E+00  0.00000000000E+00 -0.20013729282E+04  0.20013729282E+04  0.25500000920E-02 0. -1.
    10030    2    1    2    0    0  0.00000000000E+00  0.00000000000E+00 -0.13000978737E+04  0.27026479827E+04  0.23693990034E+04 0.  0.
        3    1    3    3  502    0  0.11656013419E+04  0.12397346388E+03 -0.45407996039E+03  0.12570539084E+04  0.10100000352E+00 0.  1.
       -3    1    3    3    0  502 -0.11656013419E+04 -0.12397346388E+03 -0.84601791333E+03  0.14455940744E+04  0.10100000352E+00 0. -1.
</event>
<event>
 5   0  0.5196696E-06  0.2410102E+04  0.7818609E-02  0.8435731E-01
       -1   -1    0    0    0  501  0.00000000000E+00  0.00000000000E+00  0.72954007573E+03  0.72954007575E+03  0.50400001928E-02 0. -1.
        1   -1    0    0  501    0  0.00000000000E+00  0.00000000000E+00 -0.19904979480E+04  0.19904979480E+04  0.50400001928E-02 0.  1.
    10030    2    1    2    0    0  0.00000000000E+00  0.00000000000E+00 -0.12609578723E+04  0.27200380238E+04  0.24101020923E+04 0.  0.
        1    1    3    3  502    0  0.58438112100E+03 -0.10199450793E+04 -0.92984229133E+03  0.14987981672E+04  0.50400001928E-02 0. -1.
       -1    1    3    3    0  502 -0.58438112100E+03  0.10199450793E+04 -0.33111558096E+03  0.12212398566E+04  0.50400001928E-02 0.  1.
</event>
<event>
 5   0  0.1174210E-05  0.2388442E+04  0.7818609E-02  0.8443844E-01
       -2   -1    0    0    0  501  0.00000000000E+00  0.00000000000E+00  0.54452483217E+03  0.54452483218E+03  0.25500000920E-02 0. -1.
        2   -1    0    0  501    0  0.00000000000E+00  0.00000000000E+00 -0.26190971140E+04  0.26190971140E+04  0.25500000920E-02 0.  1.
    10030    2    1    2    0    0  0.00000000000E+00  0.00000000000E+00 -0.20745722819E+04  0.31636219462E+04  0.23884416815E+04 0.  0.
        3    1    3    3  502    0  0.10766283629E+04  0.51094637476E+03 -0.11396166943E+04  0.16489151130E+04  0.10100000352E+00 0.  1.
       -3    1    3    3    0  502 -0.10766283629E+04 -0.51094637476E+03 -0.93495558759E+03  0.15147068332E+04  0.10100000352E+00 0. -1.
</event>
<event>
 5   0  0.1198313E-05  0.2400108E+04  0.7818609E-02  0.8439463E-01
       -2   -1    0    0    0  501  0.00000000000E+00  0.00000000000E+00  0.19975256126E+04  0.19975256126E+04  0.25500000920E-02 0.  1.
        2   -1    0    0  501    0  0.00000000000E+00  0.00000000000E+00 -0.72095660931E+03  0.72095660932E+03  0.25500000920E-02 0. -1.
    10030    2    1    2    0    0  0.00000000000E+00  0.00000000000E+00  0.12765690033E+04  0.27184822219E+04  0.24001077415E+04 0.  0.
        5    1    3    3  502    0  0.95178028401E+03  0.39285057810E+03 -0.59826758133E+02  0.10314158311E+04  0.46999998093E+01 0. -1.
       -5    1    3    3    0  502 -0.95178028401E+03 -0.39285057810E+03  0.13363957614E+04  0.16870663908E+04  0.46999998093E+01 0.  1.
</event>
<event>
 5   0  0.5196696E-06  0.2408948E+04  0.7818609E-02  0.8436161E-01
        1   -1    0    0  501    0  0.00000000000E+00  0.00000000000E+00  0.74805524332E+03  0.74805524334E+03  0.50400001928E-02 0. -1.
       -1   -1    0    0    0  501  0.00000000000E+00  0.00000000000E+00 -0.19393717174E+04  0.19393717174E+04  0.50400001928E-02 0.  1.
    10030    2    1    2    0    0  0.00000000000E+00  0.00000000000E+00 -0.11913164741E+04  0.26874269607E+04  0.24089476391E+04 0.  0.
        1    1    3    3  502    0 -0.86888541998E+03 -0.56736910971E+03 -0.12778081716E+04  0.16461054957E+04  0.50400001928E-02 0.  1.
       -1    1    3    3    0  502  0.86888541998E+03  0.56736910971E+03  0.86491697503E+02  0.10413214650E+04  0.50400001928E-02 0. -1.
</event>
<event>
 5   0  0.5064437E-06  0.2408017E+04  0.7818609E-02  0.8436508E-01
        1   -1    0    0  501    0  0.00000000000E+00  0.00000000000E+00  0.74131868262E+03  0.74131868264E+03  0.50400001928E-02 0. -1.
       -1   -1    0    0    0  501  0.00000000000E+00  0.00000000000E+00 -0.19554834364E+04  0.19554834364E+04  0.50400001928E-02 0.  1.
    10030    2    1    2    0    0  0.00000000000E+00  0.00000000000E+00 -0.12141647538E+04  0.26968021191E+04  0.24080169476E+04 0.  0.
        2    1    3    3  502    0  0.13876699134E+03 -0.18329790826E+03  0.71650878055E+03  0.75248869338E+03  0.25500000920E-02 0. -1.
       -2    1    3    3    0  502 -0.13876699134E+03  0.18329790826E+03 -0.19306735344E+04  0.19443134257E+04  0.25500000920E-02 0.  1.
</event>
<event>
 5   0  0.1154897E-05  0.2394383E+04  0.7818609E-02  0.8441609E-01
       -2   -1    0    0    0  501  0.00000000000E+00  0.00000000000E+00  0.10773554401E+04  0.10773554401E+04  0.25500000920E-02 0. -1.
        2   -1    0    0  501    0  0.00000000000E+00  0.00000000000E+00 -0.13303576210E+04  0.13303576210E+04  0.25500000920E-02 0.  1.
    10030    2    1    2    0    0  0.00000000000E+00  0.00000000000E+00 -0.25300218081E+03  0.24077130611E+04  0.23943834449E+04 0.  0.
        4    1    3    3  502    0 -0.11462839295E+04  0.19552120301E+03  0.15981374074E+03  0.11737706047E+04  0.12699999809E+01 0. -1.
       -4    1    3    3    0  502  0.11462839295E+04 -0.19552120301E+03 -0.41281592156E+03  0.12339424564E+04  0.12699999809E+01 0.  1.
</event>
<event>
 5   0  0.1154897E-05  0.2385351E+04  0.7818609E-02  0.8445008E-01
        2   -1    0    0  501    0  0.00000000000E+00  0.00000000000E+00  0.11705818924E+04  0.11705818925E+04  0.25500000920E-02 0. -1.
       -2   -1    0    0    0  501  0.00000000000E+00  0.00000000000E+00 -0.12151858910E+04  0.12151858910E+04  0.25500000920E-02 0.  1.
    10030    2    1    2    0    0  0.00000000000E+00  0.00000000000E+00 -0.44603998543E+02  0.23857677834E+04  0.23853507918E+04 0.  0.
        4    1    3    3  502    0 -0.86699488985E+03  0.16422732955E+03  0.78022360758E+03  0.11778799793E+04  0.12699999809E+01 0. -1.
       -4    1    3    3    0  502  0.86699488985E+03 -0.16422732955E+03 -0.82482760612E+03  0.12078878042E+04  0.12699999809E+01 0.  1.
</event>
<event>
 5   0  0.1169371E-05  0.2417876E+04  0.7818609E-02  0.8432841E-01
        2   -1    0    0  501    0  0.00000000000E+00  0.00000000000E+00  0.18405226062E+04  0.18405226062E+04  0.25500000920E-02 0. -1.
       -2   -1    0    0    0  501  0.00000000000E+00  0.00000000000E+00 -0.79408461320E+03  0.79408461321E+03  0.25500000920E-02 0.  1.
    10030    2    1    2    0    0  0.00000000000E+00  0.00000000000E+00  0.10464379930E+04  0.26346072195E+04  0.24178756642E+04 0.  0.
        2    1    3    3  502    0 -0.85117197545E+03 -0.84997663918E+03  0.39166290297E+03  0.12650509272E+04  0.25500000920E-02 0. -1.
       -2    1    3    3    0  502  0.85117197545E+03  0.84997663918E+03  0.65477509008E+03  0.13695562922E+04  0.25500000920E-02 0.  1.
</event>
<event>
 5   0  0.1168435E-05  0.2399220E+04  0.7818609E-02  0.8439796E-01
       -2   -1    0    0    0  501  0.00000000000E+00  0.00000000000E+00  0.50660232904E+03  0.50660232904E+03  0.25500000920E-02 0.  1.
        2   -1    0    0  501    0  0.00000000000E+00  0.00000000000E+00 -0.28406177570E+04  0.28406177570E+04  0.25500000920E-02 0. -1.
    10030    2    1    2    0    0  0.00000000000E+00  0.00000000000E+00 -0.23340154280E+04  0.33472200860E+04  0.23992195161E+04 0.  0.
        1    1    3    3  502    0  0.77758984527E+02 -0.10380251457E+04 -0.33515419678E+03  0.10935588683E+04  0.50400001928E-02 0.  1.
       -1    1    3    3    0  502 -0.77758984527E+02  0.10380251457E+04 -0.19988612312E+04  0.22536612177E+04  0.50400001928E-02 0. -1.
</event>
<event>
 5   0  0.1154897E-05  0.2394110E+04  0.7818609E-02  0.8441712E-01
        2   -1    0    0  501    0  0.00000000000E+00  0.00000000000E+00  0.12784774576E+04  0.12784774576E+04  0.25500000920E-02 0. -1.
       -2   -1    0    0    0  501  0.00000000000E+00  0.00000000000E+00 -0.11208176525E+04  0.11208176525E+04  0.25500000920E-02 0.  1.
    10030    2    1    2    0    0  0.00000000000E+00  0.00000000000E+00  0.15765980511E+03  0.23992951100E+04  0.23941095236E+04 0.  0.
        4    1    3    3  502    0  0.19460745840E+03  0.10603283444E+04  0.60031284913E+03  0.12339146610E+04  0.12699999809E+01 0. -1.
       -4    1    3    3    0  502 -0.19460745840E+03 -0.10603283444E+04 -0.44265304401E+03  0.11653804491E+04  0.12699999809E+01 0.  1.
</event>
<event>
 5   0  0.1174210E-05  0.2395904E+04  0.7818609E-02  0.8441039E-01
        2   -1    0    0  501    0  0.00000000000E+00  0.00000000000E+00  0.75830907509E+03  0.75830907510E+03  0.25500000920E-02 0. -1.
       -2   -1    0    0    0  501  0.00000000000E+00  0.00000000000E+00 -0.18924849004E+04  0.18924849004E+04  0.25500000920E-02 0.  1.
    10030    2    1    2    0    0  0.00000000000E+00  0.00000000000E+00 -0.11341758253E+04  0.26507939755E+04  0.23959035660E+04 0.  0.
        3    1    3    3  502    0 -0.59079888995E+03  0.88678335624E+03 -0.11727373656E+04  0.15845317883E+04  0.10100000352E+00 0.  1.
       -3    1    3    3    0  502  0.59079888995E+03 -0.88678335624E+03  0.38561540277E+02  0.10662621872E+04  0.10100000352E+00 0. -1.
</event>
<event>
 5   0  0.5104174E-06  0.2400809E+04  0.7818609E-02  0.8439201E-01
       -1   -1    0    0    0  501  0.00000000000E+00  0.00000000000E+00  0.14713501779E+04  0.14713501779E+04  0.50400001928E-02 0.  1.
        1   -1    0    0  501    0  0.00000000000E+00  0.00000000000E+00 -0.97935258483E+03  0.97935258484E+03  0.50400001928E-02 0. -1.
    10030    2    1    2    0    0  0.00000000000E+00  0.00000000000E+00  0.49199759303E+03  0.24507027627E+04  0.24008086970E+04 0.  0.
        3    1    3    3  502    0  0.11623879397E+04 -0.18458395851E+03  0.49695975488E+01  0.11769628997E+04  0.10100000352E+00 0. -1.
       -3    1    3    3    0  502 -0.11623879397E+04  0.18458395851E+03  0.48702799549E+03  0.12737398630E+04  0.10100000352E+00 0.  1.
</event>
<event>
 5   0  0.5104174E-06  0.2384695E+04  0.7818609E-02  0.8445256E-01
       -1   -1    0    0    0  501  0.00000000000E+00  0.00000000000E+00  0.11634848810E+04  0.11634848810E+04  0.50400001928E-02 0.  1.
        1   -1    0    0  501    0  0.00000000000E+00  0.00000000000E+00 -0.12219258098E+04  0.12219258098E+04  0.50400001928E-02 0. -1.
    10030    2    1    2    0    0  0.00000000000E+00  0.00000000000E+00 -0.58440928786E+02  0.23854106909E+04  0.23846947021E+04 0.  0.
        3    1    3    3  502    0 -0.63319464189E+03 -0.30929125600E+03  0.93288724832E+03  0.11691343652E+04  0.10100000352E+00 0.  1.
       -3    1    3    3    0  502  0.63319464189E+03  0.30929125600E+03 -0.99132817711E+03  0.12162763257E+04  0.10100000352E+00 0. -1.
</event>
<event>
 5   0  0.5034479E-06  0.2392380E+04  0.7818609E-02  0.8442362E-01
       -1   -1    0    0    0  501  0.00000000000E+00  0.00000000000E+00  0.10187600208E+04  0.10187600208E+04  0.50400001928E-02 0. -1.
        1   -1    0    0  501    0  0.00000000000E+00  0.00000000000E+00 -0.14045219948E+04  0.14045219948E+04  0.50400001928E-02 0.  1.
    10030    2    1    2    0    0  0.00000000000E+00  0.00000000000E+00 -0.38576197404E+03  0.24232820156E+04  0.23923802846E+04 0.  0.
        4    1    3    3  502    0 -0.66665507996E+03 -0.85156563328E+03 -0.71063525406E+03  0.12940622476E+04  0.12699999809E+01 0.  1.
       -4    1    3    3    0  502  0.66665507996E+03  0.85156563328E+03  0.32487328002E+03  0.11292197680E+04  0.12699999809E+01 0. -1.
</event>
<event>
 5   0  0.5196696E-06  0.2390365E+04  0.7818609E-02  0.8443119E-01
       -1   -1    0    0    0  501  0.00000000000E+00  0.00000000000E+00  0.11692815820E+04  0.11692815820E+04  0.50400001928E-02 0.  1.
        1   -1    0    0  501    0  0.00000000000E+00  0.00000000000E+00 -0.12216573770E+04  0.12216573770E+04  0.50400001928E-02 0. -1.
    10030    2    1    2    0    0  0.00000000000E+00  0.00000000000E+00 -0.52375795000E+02  0.23909389591E+04  0.23903652194E+04 0.  0.
        1    1    3    3  502    0  0.73568073306E+03  0.58886050822E+03  0.70916107801E+03  0.11793609599E+04  0.50400001928E-02 0.  1.
       -1    1    3    3    0  502 -0.73568073306E+03 -0.58886050822E+03 -0.76153687301E+03  0.12115779992E+04  0.50400001928E-02 0. -1.
</event>
<event>
 5   0  0.1168435E-05  0.2457279E+04  0.7818609E-02  0.8418365E-01
        2   -1    0    0  501    0  0.00000000000E+00  0.00000000000E+00  0.13441352711E+04  0.13441352711E+04  0.25500000920E-02 0. -1.
       -2   -1    0    0    0  501  0.00000000000E+00  0.00000000000E+00 -0.11230680038E+04  0.11230680038E+04  0.25500000920E-02 0.  1.
    10030    2    1    2    0    0  0.00000000000E+00  0.00000000000E+00  0.22106726728E+03  0.24672032749E+04  0.24572792399E+04 0.  0.
        1    1    3    3  502    0 -0.10305749268E+04  0.11197490542E+03  0.77269102351E+03  0.12929325107E+04  0.50400001928E-02 0. -1.
       -1    1    3    3    0  502  0.10305749268E+04 -0.11197490542E+03 -0.55162375623E+03  0.11742707642E+04  0.50400001928E-02 0.  1.
</event>
<event>
 5   0  0.1154897E-05  0.2463731E+04  0.7818609E-02  0.8416021E-01
       -2   -1    0    0    0  501  0.00000000000E+00  0.00000000000E+00  0.11653536868E+04  0.11653536868E+04  0.25500000920E-02 0.  1.
        2   -1    0    0  501    0  0.00000000000E+00  0.00000000000E+00 -0.13021739246E+04  0.13021739246E+04  0.25500000920E-02 0. -1.
    10030    2    1    2    0    0  0.00000000000E+00  0.00000000000E+00 -0.13682023789E+03  0.24675276114E+04  0.24637314658E+04 0.  0.
        4    1    3    3  502    0 -0.29977570602E+03  0.86978378213E+03 -0.88888068318E+03  0.12792575125E+04  0.12699999809E+01 0. -1.
       -4    1    3    3    0  502  0.29977570602E+03 -0.86978378213E+03  0.75206044529E+03  0.11882700989E+04  0.12699999809E+01 0.  1.
</event>
<event>
 5   0  0.1169371E-05  0.2400924E+04  0.7818609E-02  0.8439158E-01
       -2   -1    0    0    0  501  0.00000000000E+00  0.00000000000E+00  0.10049025046E+04  0.10049025046E+04  0.25500000920E-02 0.  1.
        2   -1    0    0  501    0  0.00000000000E+00  0.00000000000E+00 -0.14340781133E+04  0.14340781133E+04  0.25500000920E-02 0. -1.
    10030    2    1    2    0    0  0.00000000000E+00  0.00000000000E+00 -0.42917560866E+03  0.24389806179E+04  0.24009237287E+04 0.  0.
        2    1    3    3  502    0  0.59526907886E+03 -0.10405584929E+04 -0.27884737702E+03  0.12307977548E+04  0.25500000920E-02 0. -1.
       -2    1    3    3    0  502 -0.59526907886E+03  0.10405584929E+04 -0.15032823163E+03  0.12081828631E+04  0.25500000920E-02 0.  1.
</event>
<event>
 5   0  0.5042742E-06  0.2256226E+04  0.7818609E-02  0.8495383E-01
       -1   -1    0    0    0  501  0.00000000000E+00  0.00000000000E+00  0.77185087019E+03  0.77185087021E+03  0.50400001928E-02 0. -1.
        1   -1    0    0  501    0  0.00000000000E+00  0.00000000000E+00 -0.16488142878E+04  0.16488142878E+04  0.50400001928E-02 0.  1.
    10030    2    1    2    0    0  0.00000000000E+00  0.00000000000E+00 -0.87696341758E+03  0.24206651580E+04  0.22562258245E+04 0.  0.
        5    1    3    3  502    0 -0.68224157141E+03 -0.88237949287E+03 -0.61982589532E+03  0.12760303138E+04  0.46999998093E+01 0.  1.
       -5    1    3    3    0  502  0.68224157141E+03  0.88237949287E+03 -0.25713752226E+03  0.11446348442E+04  0.46999998093E+01 0. -1.
</event>
<event>
 5   0  0.5104174E-06  0.2392238E+04  0.7818609E-02  0.8442415E-01
        1   -1    0    0  501    0  0.00000000000E+00  0.00000000000E+00  0.13546528346E+04  0.13546528346E+04  0.50400001928E-02 0.  1.
       -1   -1    0    0    0  501  0.00000000000E+00  0.00000000000E+00 -0.10561378333E+04  0.10561378333E+04  0.50400001928E-02 0. -1.
    10030    2    1    2    0    0  0.00000000000E+00  0.00000000000E+00  0.29851500127E+03  0.24107906679E+04  0.23922375380E+04 0.  0.
        3    1    3    3  502    0  0.39354667286E+03  0.11025473348E+03 -0.98358929579E+03  0.10651211213E+04  0.10100000352E+00 0. -1.
       -3    1    3    3    0  502 -0.39354667286E+03 -0.11025473348E+03  0.12821042971E+04  0.13456695466E+04  0.10100000352E+00 0.  1.
</event>
<event>
 5   0  0.1168435E-05  0.2409727E+04  0.7818609E-02  0.8435871E-01
        2   -1    0    0  501    0  0.00000000000E+00  0.00000000000E+00  0.98526158669E+03  0.98526158669E+03  0.25500000920E-02 0. -1.
       -2   -1    0    0    0  501  0.00000000000E+00  0.00000000000E+00 -0.14734115903E+04  0.14734115903E+04  0.25500000920E-02 0.  1.
    10030    2    1    2    0    0  0.00000000000E+00  0.00000000000E+00 -0.48815000363E+03  0.24586731770E+04  0.24097268238E+04 0.  0.
        1    1    3    3  502    0  0.42718291540E+03  0.47870375439E+03 -0.12846198235E+04  0.14359284866E+04  0.50400001928E-02 0.  1.
       -1    1    3    3    0  502 -0.42718291540E+03 -0.47870375439E+03  0.79646981990E+03  0.10227446904E+04  0.50400001928E-02 0. -1.
</event>
<event>
 5   0  0.5034479E-06  0.2358914E+04  0.7818609E-02  0.8455048E-01
        1   -1    0    0  501    0  0.00000000000E+00  0.00000000000E+00  0.19814406844E+04  0.19814406844E+04  0.50400001928E-02 0. -1.
       -1   -1    0    0    0  501  0.00000000000E+00  0.00000000000E+00 -0.70207455289E+03  0.70207455290E+03  0.50400001928E-02 0.  1.
    10030    2    1    2    0    0  0.00000000000E+00  0.00000000000E+00  0.12793661315E+04  0.26835152373E+04  0.23589142270E+04 0.  0.
        4    1    3    3  502    0  0.90793931807E+03 -0.51492016684E+03  0.14909535244E+02  0.10438967816E+04  0.12699999809E+01 0.  1.
       -4    1    3    3    0  502 -0.90793931807E+03  0.51492016684E+03  0.12644565963E+04  0.16396184557E+04  0.12699999809E+01 0. -1.
</event>
<event>
 5   0  0.5104174E-06  0.2406414E+04  0.7818609E-02  0.8437106E-01
        1   -1    0    0  501    0  0.00000000000E+00  0.00000000000E+00  0.21708031354E+04  0.21708031354E+04  0.50400001928E-02 0. -1.
       -1   -1    0    0    0  501  0.00000000000E+00  0.00000000000E+00 -0.66689904436E+03  0.66689904438E+03  0.50400001928E-02 0.  1.
    10030    2    1    2    0    0  0.00000000000E+00  0.00000000000E+00  0.15039040911E+04  0.28377021798E+04  0.24064135443E+04 0.  0.
        3    1    3    3  502    0 -0.33312276920E+01 -0.58818292043E+03  0.19897090031E+04  0.20748282271E+04  0.10100000352E+00 0. -1.
       -3    1    3    3    0  502  0.33312276920E+01  0.58818292043E+03 -0.48580491201E+03  0.76287395269E+03  0.10100000352E+00 0.  1.
</event>
<event>
 5   0  0.5196696E-06  0.2331880E+04  0.7818609E-02  0.8465456E-01
        1   -1    0    0  501    0  0.00000000000E+00  0.00000000000E+00  0.14330747928E+04  0.14330747928E+04  0.50400001928E-02 0.  1.
       -1   -1    0    0    0  501  0.00000000000E+00  0.00000000000E+00 -0.94860061184E+03  0.94860061185E+03  0.50400001928E-02 0. -1.
    10030    2    1    2    0    0  0.00000000000E+00  0.00000000000E+00  0.48447418096E+03  0.23816754047E+04  0.23318796069E+04 0.  0.
        1    1    3    3  502    0 -0.10187518509E+04 -0.56241092889E+03  0.16820306805E+03  0.11757778951E+04  0.50400001928E-02 0.  1.
       -1    1    3    3    0  502  0.10187518509E+04  0.56241092889E+03  0.31627111291E+03  0.12058975095E+04  0.50400001928E-02 0. -1.
</event>
<event>
 5   0  0.5042742E-06  0.2401071E+04  0.7818609E-02  0.8439103E-01
       -1   -1    0    0    0  501  0.00000000000E+00  0.00000000000E+00  0.99017791317E+03  0.99017791318E+03  0.50400001928E-02 0.  1.
        1   -1    0    0  501    0  0.00000000000E+00  0.00000000000E+00 -0.14555824687E+04  0.14555824687E+04  0.50400001928E-02 0. -1.
    10030    2    1    2    0    0  0.00000000000E+00  0.00000000000E+00 -0.46540455556E+03  0.24457603819E+04  0.24010711038E+04 0.  0.
        5    1    3    3  502    0  0.32133290172E+03 -0.72602802284E+03  0.68455336441E+03  0.10483353101E+04  0.46999998093E+01 0.  1.
       -5    1    3    3    0  502 -0.32133290172E+03  0.72602802284E+03 -0.11499579200E+04  0.13974250718E+04  0.46999998093E+01 0. -1.
</event>
<event>
 5   0  0.5104174E-06  0.2400946E+04  0.7818609E-02  0.8439150E-01
       -1   -1    0    0    0  501  0.00000000000E+00  0.00000000000E+00  0.11356245954E+04  0.11356245954E+04  0.50400001928E-02 0. -1.
        1   -1    0    0  501    0  0.00000000000E+00  0.00000000000E+00 -0.12690243909E+04  0.12690243909E+04  0.50400001928E-02 0.  1.
    10030    2    1    2    0    0  0.00000000000E+00  0.00000000000E+00 -0.13339979550E+03  0.24046489863E+04  0.24009459056E+04 0.  0.
        3    1    3    3  502    0  0.50114942660E+03 -0.10908623245E+04 -0.64711519159E+02  0.12022141863E+04  0.10100000352E+00 0. -1.
       -3    1    3    3    0  502 -0.50114942660E+03  0.10908623245E+04 -0.68688276338E+02  0.12024348000E+04  0.10100000352E+00 0.  1.
</event>
<event>
 5   0  0.1154897E-05  0.2396932E+04  0.7818609E-02  0.8440653E-01
       -2   -1    0    0    0  501  0.00000000000E+00  0.00000000000E+00  0.13358650801E+04  0.13358650801E+04  0.25500000920E-02 0.  1.
        2   -1    0    0  501    0  0.00000000000E+00  0.00000000000E+00 -0.10751989481E+04  0.10751989481E+04  0.25500000920E-02 0. -1.
    10030    2    1    2    0    0  0.00000000000E+00  0.00000000000E+00  0.26066613193E+03  0.24110640282E+04  0.23969319798E+04 0.  0.
        4    1    3    3  502    0  0.10261324103E+04  0.51790066251E+03  0.47167179234E+03  0.12424349932E+04  0.12699999809E+01 0.  1.
       -4    1    3    3    0  502 -0.10261324103E+04 -0.51790066251E+03 -0.21100566041E+03  0.11686290350E+04  0.12699999809E+01 0. -1.
</event>
<event>
 5   0  0.1168435E-05  0.2403220E+04  0.7818609E-02  0.8438299E-01
        2   -1    0    0  501    0  0.00000000000E+00  0.00000000000E+00  0.11426267652E+04  0.11426267652E+04  0.25500000920E-02 0.  1.
       -2   -1    0    0    0  501  0.00000000000E+00  0.00000000000E+00 -0.12636378642E+04  0.12636378642E+04  0.25500000920E-02 0. -1.
    10030    2    1    2    0    0  0.00000000000E+00  0.00000000000E+00 -0.12101109900E+03  0.24062646293E+04  0.24032198777E+04 0.  0.
        1    1    3    3  502    0 -0.51177351392E+03 -0.75709053139E+03 -0.84173008438E+03  0.12424201130E+04  0.50400001928E-02 0. -1.
       -1    1    3    3    0  502  0.51177351392E+03  0.75709053139E+03  0.72071898538E+03  0.11638445163E+04  0.50400001928E-02 0.  1.
</event>
<event>
 5   0  0.5034479E-06  0.2394908E+04  0.7818609E-02  0.8441412E-01
       -1   -1    0    0    0  501  0.00000000000E+00  0.00000000000E+00  0.82933127818E+03  0.82933127819E+03  0.50400001928E-02 0.  1.
        1   -1    0    0  501    0  0.00000000000E+00  0.00000000000E+00 -0.17289788096E+04  0.17289788096E+04  0.50400001928E-02 0. -1.
    10030    2    1    2    0    0  0.00000000000E+00  0.00000000000E+00 -0.89964753137E+03  0.25583100878E+04  0.23949081035E+04 0.  0.
        4    1    3    3  502    0  0.99492758005E+03  0.26553157193E+03  0.20302640372E+03  0.10495757423E+04  0.12699999809E+01 0.  1.
       -4    1    3    3    0  502 -0.99492758005E+03 -0.26553157193E+03 -0.11026739351E+04  0.15087343455E+04  0.12699999809E+01 0. -1.
</event>
<event>
 5   0  0.1198313E-05  0.2422303E+04  0.7818609E-02  0.8431201E-01
       -2   -1    0    0    0  501  0.00000000000E+00  0.00000000000E+00  0.79363942204E+03  0.79363942205E+03  0.25500000920E-02 0.  1.
        2   -1    0    0  501    0  0.00000000000E+00  0.00000000000E+00 -0.18483050409E+04  0.18483050409E+04  0.25500000920E-02 0. -1.
    10030    2    1    2    0    0  0.00000000000E+00  0.00000000000E+00 -0.10546656188E+04  0.26419444629E+04  0.24223028253E+04 0.  0.
        5    1    3    3  502    0 -0.17608317895E+03  0.11780384911E+04 -0.28816477298E+03  0.12254962256E+04  0.46999998093E+01 0.  1.
       -5    1    3    3    0  502  0.17608317895E+03 -0.11780384911E+04 -0.76650084587E+03  0.14164482374E+04  0.46999998093E+01 0. -1.
</event>
<event>
 5   0  0.5034479E-06  0.2393553E+04  0.7818609E-02  0.8441921E-01
       -1   -1    0    0    0  501  0.00000000000E+00  0.00000000000E+00  0.77365551006E+03  0.77365551008E+03  0.50400001928E-02 0. -1.
        1   -1    0    0  501    0  0.00000000000E+00  0.00000000000E+00 -0.18513075992E+04  0.18513075992E+04  0.50400001928E-02 0.  1.
    10030    2    1    2    0    0  0.00000000000E+00  0.00000000000E+00 -0.10776520892E+04  0.26249631093E+04  0.23935532791E+04 0.  0.
        4    1    3    3  502    0  0.66646546867E+03  0.39869342611E+03  0.45977967720E+03  0.90251406273E+03  0.12699999809E+01 0. -1.
       -4    1    3    3    0  502 -0.66646546867E+03 -0.39869342611E+03 -0.15374317663E+04  0.17224490466E+04  0.12699999809E+01 0.  1.
</event>
<event>
 5   0  0.5196696E-06  0.2403594E+04  0.7818609E-02  0.8438159E-01
       -1   -1    0    0    0  501  0.00000000000E+00  0.00000000000E+00  0.78616354219E+03  0.78616354221E+03  0.50400001928E-02 0.  1.
        1   -1    0    0  501    0  0.00000000000E+00  0.00000000000E+00 -0.18371695184E+04  0.18371695184E+04  0.50400001928E-02 0. -1.
    10030    2    1    2    0    0  0.00000000000E+00  0.00000000000E+00 -0.10510059762E+04  0.26233330606E+04  0.24035937229E+04 0.  0.
        1    1    3    3  502    0  0.21350152239E+03  0.11215424008E+03  0.75948227643E+03  0.79685306165E+03  0.50400001928E-02 0.  1.
       -1    1    3    3    0  502 -0.21350152239E+03 -0.11215424008E+03 -0.18104882526E+04  0.18264799989E+04  0.50400001928E-02 0. -1.
</event>
<event>
 5   0  0.5196696E-06  0.2405648E+04  0.7818609E-02  0.8437392E-01
       -1   -1    0    0    0  501  0.00000000000E+00  0.00000000000E+00  0.11226680163E+04  0.11226680163E+04  0.50400001928E-02 0. -1.
        1   -1    0    0  501    0  0.00000000000E+00  0.00000000000E+00 -0.12887031503E+04  0.12887031503E+04  0.50400001928E-02 0.  1.
    10030    2    1    2    0    0  0.00000000000E+00  0.00000000000E+00 -0.16603513395E+03  0.24113711666E+04  0.24056481948E+04 0.  0.
        1    1    3    3  502    0  0.74143298061E+03 -0.16076898689E+03 -0.10186277464E+04  0.12701070890E+04  0.50400001928E-02 0.  1.
       -1    1    3    3    0  502 -0.74143298061E+03  0.16076898689E+03  0.85259261244E+03  0.11412640775E+04  0.50400001928E-02 0. -1.
</event>
<event>
 5   0  0.5104174E-06  0.2372476E+04  0.7818609E-02  0.8449881E-01
        1   -1    0    0  501    0  0.00000000000E+00  0.00000000000E+00  0.16324371477E+04  0.16324371477E+04  0.50400001928E-02 0. -1.
       -1   -1    0    0    0  501  0.00000000000E+00  0.00000000000E+00 -0.86199951596E+03  0.86199951597E+03  0.50400001928E-02 0.  1.
    10030    2    1    2    0    0  0.00000000000E+00  0.00000000000E+00  0.77043763175E+03  0.24944366637E+04  0.23724755267E+04 0.  0.
        3    1    3    3  502    0  0.73915969265E+03  0.33402266814E+03 -0.52485967227E+03  0.96612932873E+03  0.10100000352E+00 0.  1.
       -3    1    3    3    0  502 -0.73915969265E+03 -0.33402266814E+03  0.12952973040E+04  0.15283073350E+04  0.10100000352E+00 0. -1.
</event>
<event>
 5   0  0.1198313E-05  0.2432219E+04  0.7818609E-02  0.8427539E-01
       -2   -1    0    0    0  501  0.00000000000E+00  0.00000000000E+00  0.14220221866E+04  0.14220221866E+04  0.25500000920E-02 0.  1.
        2   -1    0    0  501    0  0.00000000000E+00  0.00000000000E+00 -0.10400133208E+04  0.10400133208E+04  0.25500000920E-02 0. -1.
    10030    2    1    2    0    0  0.00000000000E+00  0.00000000000E+00  0.38200886576E+03  0.24620355074E+04  0.24322187538E+04 0.  0.
        5    1    3    3  502    0 -0.67924456146E+03  0.77244454987E+03 -0.46568273254E+03  0.11291263234E+04  0.46999998093E+01 0. -1.
       -5    1    3    3    0  502  0.67924456146E+03 -0.77244454987E+03  0.84769159830E+03  0.13329091840E+04  0.46999998093E+01 0.  1.
</event>
<event>
 5   0  0.1168435E-05  0.2431941E+04  0.7818609E-02  0.8427641E-01
        2   -1    0    0  501    0  0.00000000000E+00  0.00000000000E+00  0.14913912458E+04  0.14913912458E+04  0.25500000920E-02 0. -1.
       -2   -1    0    0    0  501  0.00000000000E+00  0.00000000000E+00 -0.99141273810E+03  0.99141273810E+03  0.25500000920E-02 0.  1.
    10030    2    1    2    0    0  0.00000000000E+00  0.00000000000E+00  0.49997850772E+03  0.24828039839E+04  0.24319410179E+04 0.  0.
        1    1    3    3  502    0 -0.79394148821E+03 -0.54375786819E+03 -0.50890713492E+03  0.10885780532E+04  0.50400001928E-02 0.  1.
       -1    1    3    3    0  502  0.79394148821E+03  0.54375786819E+03  0.10088856426E+04  0.13942259307E+04  0.50400001928E-02 0. -1.
</event>
<event>
 5   0  0.5034479E-06  0.2404273E+04  0.7818609E-02  0.8437906E-01
        1   -1    0    0  501    0  0.00000000000E+00  0.00000000000E+00  0.14429701126E+04  0.14429701126E+04  0.50400001928E-02 0. -1.
       -1   -1    0    0    0  501  0.00000000000E+00  0.00000000000E+00 -0.10014980387E+04  0.10014980387E+04  0.50400001928E-02 0.  1.
    10030    2    1    2    0    0  0.00000000000E+00  0.00000000000E+00  0.44147207386E+03  0.24444681513E+04  0.24042726449E+04 0.  0.
        4    1    3    3  502    0  0.23632455920E+03 -0.22476176229E+03 -0.95565718894E+03  0.10097769173E+04  0.12699999809E+01 0.  1.
       -4    1    3    3    0  502 -0.23632455920E+03  0.22476176229E+03  0.13971292628E+04  0.14346912340E+04  0.12699999809E+01 0. -1.
</event>
<event>
 5   0  0.5104174E-06  0.2399788E+04  0.7818609E-02  0.8439583E-01
       -1   -1    0    0    0  501  0.00000000000E+00  0.00000000000E+00  0.18407767468E+04  0.18407767468E+04  0.50400001928E-02 0. -1.
        1   -1    0    0  501    0  0.00000000000E+00  0.00000000000E+00 -0.78213994015E+03  0.78213994017E+03  0.50400001928E-02 0.  1.
    10030    2    1    2    0    0  0.00000000000E+00  0.00000000000E+00  0.10586368067E+04  0.26229166870E+04  0.23997875028E+04 0.  0.
        3    1    3    3  502    0 -0.51169844442E+03 -0.38393052061E+03 -0.58020685872E+03  0.86364225915E+03  0.10100000352E+00 0.  1.
       -3    1    3    3    0  502  0.51169844442E+03  0.38393052061E+03  0.16388436654E+04  0.17592744278E+04  0.10100000352E+00 0. -1.
</event>
<event>
 5   0  0.1198313E-05  0.2405963E+04  0.7818609E-02  0.8437274E-01
       -2   -1    0    0    0  501  0.00000000000E+00  0.00000000000E+00  0.81195107697E+03  0.81195107697E+03  0.25500000920E-02 0.  1.
        2   -1    0    0  501    0  0.00000000000E+00  0.00000000000E+00 -0.17823297955E+04  0.17823297955E+04  0.25500000920E-02 0. -1.
    10030    2    1    2    0    0  0.00000000000E+00  0.00000000000E+00 -0.97037871853E+03  0.25942808725E+04  0.24059630895E+04 0.  0.
        5    1    3    3  502    0  0.38684343976E+03  0.10521160862E+04 -0.95587224636E+03  0.14731971854E+04  0.46999998093E+01 0.  1.
       -5    1    3    3    0  502 -0.38684343976E+03 -0.10521160862E+04 -0.14506472165E+02  0.11210836871E+04  0.46999998093E+01 0. -1.
</event>
<event>
 5   0  0.5104174E-06  0.2364470E+04  0.7818609E-02  0.8452926E-01
        1   -1    0    0  501    0  0.00000000000E+00  0.00000000000E+00  0.19767708695E+04  0.19767708696E+04  0.50400001928E-02 0.  1.
       -1   -1    0    0    0  501  0.00000000000E+00  0.00000000000E+00 -0.70705191791E+03  0.70705191793E+03  0.50400001928E-02 0. -1.
    10030    2    1    2    0    0  0.00000000000E+00  0.00000000000E+00  0.12697189516E+04  0.26838227875E+04  0.23644700333E+04 0.  0.
        3    1    3    3  502    0  0.74921573719E+03 -0.61387420805E+02  0.16705615153E+04  0.18319029513E+04  0.10100000352E+00 0.  1.
       -3    1    3    3    0  502 -0.74921573719E+03  0.61387420805E+02 -0.40084256367E+03  0.85191983621E+03  0.10100000352E+00 0. -1.
</event>
<event>
 5   0  0.5104174E-06  0.2398428E+04  0.7818609E-02  0.8440092E-01
        1   -1    0    0  501    0  0.00000000000E+00  0.00000000000E+00  0.17485489090E+04  0.17485489090E+04  0.50400001928E-02 0. -1.
       -1   -1    0    0    0  501  0.00000000000E+00  0.00000000000E+00 -0.82246138128E+03  0.82246138130E+03  0.50400001928E-02 0.  1.
    10030    2    1    2    0    0  0.00000000000E+00  0.00000000000E+00  0.92608752773E+03  0.25710102903E+04  0.23984277775E+04 0.  0.
        3    1    3    3  502    0 -0.67791466203E+03 -0.61066166813E+03  0.12972697621E+04  0.15859964715E+04  0.10100000352E+00 0. -1.
       -3    1    3    3    0  502  0.67791466203E+03  0.61066166813E+03 -0.37118223434E+03  0.98501381879E+03  0.10100000352E+00 0.  1.
</event>
<event>
 5   0  0.1154897E-05  0.2399501E+04  0.7818609E-02  0.8439691E-01
        2   -1    0    0  501    0  0.00000000000E+00  0.00000000000E+00  0.86634980227E+03  0.86634980227E+03  0.25500000920E-02 0.  1.
       -2   -1    0    0    0  501  0.00000000000E+00  0.00000000000E+00 -0.16614545619E+04  0.16614545619E+04  0.25500000920E-02 0. -1.
    10030    2    1    2    0    0  0.00000000000E+00  0.00000000000E+00 -0.79510475963E+03  0.25278043642E+04  0.23995006407E+04 0.  0.
        4    1    3    3  502    0  0.14531172572E+03  0.11717149024E+04 -0.62193900492E+03  0.13344815656E+04  0.12699999809E+01 0.  1.
       -4    1    3    3    0  502 -0.14531172572E+03 -0.11717149024E+04 -0.17316575471E+03  0.11933227986E+04  0.12699999809E+01 0. -1.
</event>
<event>
 5   0  0.1169371E-05  0.2320168E+04  0.7818609E-02  0.8470012E-01
       -2   -1    0    0    0  501  0.00000000000E+00  0.00000000000E+00  0.10147110957E+04  0.10147110957E+04  0.25500000920E-02 0. -1.
        2   -1    0    0  501    0  0.00000000000E+00  0.00000000000E+00 -0.13262833809E+04  0.13262833809E+04  0.25500000920E-02 0.  1.
    10030    2    1    2    0    0  0.00000000000E+00  0.00000000000E+00 -0.31157228517E+03  0.23409944766E+04  0.23201676342E+04 0.  0.
        2    1    3    3  502    0  0.37992202809E+03  0.30868137124E+03  0.90540073223E+03  0.10292596477E+04  0.25500000920E-02 0. -1.
       -2    1    3    3    0  502 -0.37992202809E+03 -0.30868137124E+03 -0.12169730174E+04  0.13117348289E+04  0.25500000920E-02 0.  1.
</event>
<event>
 5   0  0.5064437E-06  0.2401375E+04  0.7818609E-02  0.8438989E-01
       -1   -1    0    0    0  501  0.00000000000E+00  0.00000000000E+00  0.11340153693E+04  0.11340153694E+04  0.50400001928E-02 0. -1.
        1   -1    0    0  501    0  0.00000000000E+00  0.00000000000E+00 -0.12712792738E+04  0.12712792739E+04  0.50400001928E-02 0.  1.
    10030    2    1    2    0    0  0.00000000000E+00  0.00000000000E+00 -0.13726390450E+03  0.24052946432E+04  0.24013748023E+04 0.  0.
        2    1    3    3  502    0 -0.67708301915E+03  0.31175757893E+03  0.87418878250E+03  0.11488429964E+04  0.25500000920E-02 0. -1.
       -2    1    3    3    0  502  0.67708301915E+03 -0.31175757893E+03 -0.10114526870E+04  0.12564516469E+04  0.25500000920E-02 0.  1.
</event>
<event>
 5   0  0.1169371E-05  0.2404223E+04  0.7818609E-02  0.8437924E-01
        2   -1    0    0  501    0  0.00000000000E+00  0.00000000000E+00  0.18369936640E+04  0.18369936640E+04  0.25500000920E-02 0.  1.
       -2   -1    0    0    0  501  0.00000000000E+00  0.00000000000E+00 -0.78665032692E+03  0.78665032693E+03  0.25500000920E-02 0. -1.
    10030    2    1    2    0    0  0.00000000000E+00  0.00000000000E+00  0.10503433371E+04  0.26236439910E+04  0.24042226739E+04 0.  0.
        2    1    3    3  502    0  0.48822640943E+03 -0.52549102177E+03 -0.52752625237E+03  0.89038743689E+03  0.25500000920E-02 0. -1.
       -2    1    3    3    0  502 -0.48822640943E+03  0.52549102177E+03  0.15778695895E+04  0.17332565541E+04  0.25500000920E-02 0.  1.
</event>
<event>
 5   0  0.5064437E-06  0.2404022E+04  0.7818609E-02  0.8437999E-01
       -1   -1    0    0    0  501  0.00000000000E+00  0.00000000000E+00  0.70560183594E+03  0.70560183595E+03  0.50400001928E-02 0.  1.
        1   -1    0    0  501    0  0.00000000000E+00  0.00000000000E+00 -0.20476568738E+04  0.20476568738E+04  0.50400001928E-02 0. -1.
    10030    2    1    2    0    0  0.00000000000E+00  0.00000000000E+00 -0.13420550378E+04  0.27532587097E+04  0.24040220045E+04 0.  0.
        2    1    3    3  502    0 -0.98693334538E+03 -0.56699642479E+03 -0.22848986191E+03  0.11609177365E+04  0.25500000920E-02 0.  1.
       -2    1    3    3    0  502  0.98693334538E+03  0.56699642479E+03 -0.11135651759E+04  0.15923409732E+04  0.25500000920E-02 0. -1.
</event>
<event>
 5   0  0.4067750E-06  0.2375956E+04  0.7818609E-02  0.8448561E-01
        3   -1    0    0  501    0  0.00000000000E+00  0.00000000000E+00  0.91281932277E+03  0.91281932836E+03  0.10100000352E+00 0. -1.
       -3   -1    0    0    0  501  0.00000000000E+00  0.00000000000E+00 -0.15460798847E+04  0.15460798880E+04  0.10100000352E+00 0.  1.
    10030    2    1    2    0    0  0.00000000000E+00  0.00000000000E+00 -0.63326056192E+03  0.24588992163E+04  0.23759558954E+04 0.  0.
        5    1    3    3  502    0  0.78731411189E+02 -0.48499760208E+03  0.80272282957E+03  0.94117338479E+03  0.46999998093E+01 0. -1.
       -5    1    3    3    0  502 -0.78731411189E+02  0.48499760208E+03 -0.14359833915E+04  0.15177258316E+04  0.46999998093E+01 0.  1.
</event>
<event>
 5   0  0.5196696E-06  0.2392064E+04  0.7818609E-02  0.8442481E-01
       -1   -1    0    0    0  501  0.00000000000E+00  0.00000000000E+00  0.77432593564E+03  0.77432593565E+03  0.50400001928E-02 0. -1.
        1   -1    0    0  501    0  0.00000000000E+00  0.00000000000E+00 -0.18474036207E+04  0.18474036207E+04  0.50400001928E-02 0.  1.
    10030    2    1    2    0    0  0.00000000000E+00  0.00000000000E+00 -0.10730776850E+04  0.26217295563E+04  0.23920639934E+04 0.  0.
        1    1    3    3  502    0 -0.87516145532E+03 -0.79571030468E+03 -0.34223212883E+03  0.12313347603E+04  0.50400001928E-02 0. -1.
       -1    1    3    3    0  502  0.87516145532E+03  0.79571030468E+03 -0.73084555621E+03  0.13903947961E+04  0.50400001928E-02 0.  1.
</event>
<event>
 5   0  0.1169371E-05  0.2402550E+04  0.7818609E-02  0.8438549E-01
        2   -1    0    0  501    0  0.00000000000E+00  0.00000000000E+00  0.17249768272E+04  0.17249768272E+04  0.25500000920E-02 0. -1.
       -2   -1    0    0    0  501  0.00000000000E+00  0.00000000000E+00 -0.83656896480E+03  0.83656896480E+03  0.25500000920E-02 0.  1.
    10030    2    1    2    0    0  0.00000000000E+00  0.00000000000E+00  0.88840786244E+03  0.25615457921E+04  0.24025503771E+04 0.  0.
        2    1    3    3  502    0  0.31303738726E+03  0.43229149838E+03  0.15916181480E+04  0.16787247167E+04  0.25500000920E-02 0. -1.
       -2    1    3    3    0  502 -0.31303738726E+03 -0.43229149838E+03 -0.70321028555E+03  0.88282107536E+03  0.25500000920E-02 0.  1.
</event>
<event>
 5   0  0.1154897E-05  0.2394429E+04  0.7818609E-02  0.8441592E-01
        2   -1    0    0  501    0  0.00000000000E+00  0.00000000000E+00  0.19723824819E+04  0.19723824819E+04  0.25500000920E-02 0. -1.
       -2   -1    0    0    0  501  0.00000000000E+00  0.00000000000E+00 -0.72669614078E+03  0.72669614079E+03  0.25500000920E-02 0.  1.
    10030    2    1    2    0    0  0.00000000000E+00  0.00000000000E+00  0.12456863411E+04  0.26990786227E+04  0.23944291493E+04 0.  0.
        4    1    3    3  502    0  0.10605464351E+03  0.82451047323E+03  0.15940023244E+04  0.17977514097E+04  0.12699999809E+01 0. -1.
       -4    1    3    3    0  502 -0.10605464351E+03 -0.82451047323E+03 -0.34831598326E+03  0.90132721304E+03  0.12699999809E+01 0.  1.
</event>
<event>
 5   0  0.1168435E-05  0.2389694E+04  0.7818609E-02  0.8443372E-01
        2   -1    0    0  501    0  0.00000000000E+00  0.00000000000E+00  0.59077900225E+03  0.59077900225E+03  0.25500000920E-02 0. -1.
       -2   -1    0    0    0  501  0.00000000000E+00  0.00000000000E+00 -0.24165699600E+04  0.24165699600E+04  0.25500000920E-02 0.  1.
    10030    2    1    2    0    0  0.00000000000E+00  0.00000000000E+00 -0.18257909577E+04  0.30073489622E+04  0.23896935283E+04 0.  0.
        1    1    3    3  502    0  0.11524500146E+04 -0.17986959068E+03 -0.12390415156E+04  0.17016809288E+04  0.50400001928E-02 0.  1.
       -1    1    3    3    0  502 -0.11524500146E+04  0.17986959068E+03 -0.58674944207E+03  0.13056680335E+04  0.50400001928E-02 0. -1.
</event>
<event>
 5   0  0.1168435E-05  0.2366658E+04  0.7818609E-02  0.8452093E-01
       -2   -1    0    0    0  501  0.00000000000E+00  0.00000000000E+00  0.80979714534E+03  0.80979714535E+03  0.25500000920E-02 0. -1.
        2   -1    0    0  501    0  0.00000000000E+00  0.00000000000E+00 -0.17291579345E+04  0.17291579345E+04  0.25500000920E-02 0.  1.
    10030    2    1    2    0    0  0.00000000000E+00  0.00000000000E+00 -0.91936078919E+03  0.25389550799E+04  0.23666576932E+04 0.  0.
        1    1    3    3  502    0 -0.51546963428E+03  0.90244007328E+03  0.14733987517E+03  0.10496742678E+04  0.50400001928E-02 0. -1.
       -1    1    3    3    0  502  0.51546963428E+03 -0.90244007328E+03 -0.10667006644E+04  0.14892808120E+04  0.50400001928E-02 0.  1.
</event>
<event>
 5   0  0.5064437E-06  0.2402369E+04  0.7818609E-02  0.8438617E-01
       -1   -1    0    0    0  501  0.00000000000E+00  0.00000000000E+00  0.13180359194E+04  0.13180359194E+04  0.50400001928E-02 0. -1.
        1   -1    0    0  501    0  0.00000000000E+00  0.00000000000E+00 -0.10946926591E+04  0.10946926591E+04  0.50400001928E-02 0.  1.
    10030    2    1    2    0    0  0.00000000000E+00  0.00000000000E+00  0.22334326032E+03  0.24127285785E+04  0.24023690352E+04 0.  0.
        2    1    3    3  502    0  0.48577749235E+03  0.89422550840E+03  0.75256543969E+03  0.12656910259E+04  0.25500000920E-02 0. -1.
       -2    1    3    3    0  502 -0.48577749235E+03 -0.89422550840E+03 -0.52922217937E+03  0.11470375526E+04  0.25500000920E-02 0.  1.
</event>
<event>
 5   0  0.4067750E-06  0.2376663E+04  0.7818609E-02  0.8448293E-01
        4   -1    0    0  501    0  0.00000000000E+00  0.00000000000E+00  0.85185024347E+03  0.85185119017E+03  0.12699999809E+01 0. -1.
       -4   -1    0    0    0  501  0.00000000000E+00  0.00000000000E+00 -0.16577207169E+04  0.16577212034E+04  0.12699999809E+01 0.  1.
    10030    2    1    2    0    0  0.00000000000E+00  0.00000000000E+00 -0.80587047344E+03  0.25095723936E+04  0.23766628660E+04 0.  0.
        4    1    3    3  502    0  0.40682034873E+03 -0.39548959821E+03  0.69958928283E+03  0.90074502274E+03  0.12699999809E+01 0. -1.
       -4    1    3    3    0  502 -0.40682034873E+03  0.39548959821E+03 -0.15054597563E+04  0.16088273708E+04  0.12699999809E+01 0.  1.
</event>
<event>
 5   0  0.1168435E-05  0.2407806E+04  0.7818609E-02  0.8436587E-01
       -2   -1    0    0    0  501  0.00000000000E+00  0.00000000000E+00  0.64157255591E+03  0.64157255592E+03  0.25500000920E-02 0. -1.
        2   -1    0    0  501    0  0.00000000000E+00  0.00000000000E+00 -0.22591086619E+04  0.22591086619E+04  0.25500000920E-02 0.  1.
    10030    2    1    2    0    0  0.00000000000E+00  0.00000000000E+00 -0.16175361059E+04  0.29006812178E+04  0.24078057382E+04 0.  0.
        1    1    3    3  502    0  0.10398216719E+04  0.52343658134E+03 -0.43908607364E+03  0.12441911204E+04  0.50400001928E-02 0. -1.
       -1    1    3    3    0  502 -0.10398216719E+04 -0.52343658134E+03 -0.11784500323E+04  0.16564900974E+04  0.50400001928E-02 0.  1.
</event>
<event>
 5   0  0.1198313E-05  0.2402200E+04  0.7818609E-02  0.8438681E-01
        2   -1    0    0  501    0  0.00000000000E+00  0.00000000000E+00  0.14049005280E+04  0.14049005280E+04  0.25500000920E-02 0. -1.
       -2   -1    0    0    0  501  0.00000000000E+00  0.00000000000E+00 -0.10268631828E+04  0.10268631828E+04  0.25500000920E-02 0.  1.
    10030    2    1    2    0    0  0.00000000000E+00  0.00000000000E+00  0.37803734522E+03  0.24317637108E+04  0.24021995152E+04 0.  0.
        5    1    3    3  502    0  0.84039655503E+03  0.30924803675E+03 -0.62128106753E+03  0.10899142043E+04  0.46999998093E+01 0.  1.
       -5    1    3    3    0  502 -0.84039655503E+03 -0.30924803675E+03  0.99931841275E+03  0.13418495065E+04  0.46999998093E+01 0. -1.
</event>
<event>
 5   0  0.1154897E-05  0.2396960E+04  0.7818609E-02  0.8440643E-01
       -2   -1    0    0    0  501  0.00000000000E+00  0.00000000000E+00  0.18414423103E+04  0.18414423103E+04  0.25500000920E-02 0. -1.
        2   -1    0    0  501    0  0.00000000000E+00  0.00000000000E+00 -0.78001562426E+03  0.78001562427E+03  0.25500000920E-02 0.  1.
    10030    2    1    2    0    0  0.00000000000E+00  0.00000000000E+00  0.10614266860E+04  0.26214579345E+04  0.23969595518E+04 0.  0.
        4    1    3    3  502    0 -0.69744625564E+03 -0.12931691343E+03 -0.52578565929E+03  0.88295317884E+03  0.12699999809E+01 0.  1.
       -4    1    3    3    0  502  0.69744625564E+03  0.12931691343E+03  0.15872123453E+04  0.17385047557E+04  0.12699999809E+01 0. -1.
</event>
<event>
 5   0  0.5196696E-06  0.2398853E+04  0.7818609E-02  0.8439933E-01
       -1   -1    0    0    0  501  0.00000000000E+00  0.00000000000E+00  0.65658928286E+03  0.65658928288E+03  0.50400001928E-02 0. -1.
        1   -1    0    0  501    0  0.00000000000E+00  0.00000000000E+00 -0.21910566135E+04  0.21910566135E+04  0.50400001928E-02 0.  1.
    10030    2    1    2    0    0  0.00000000000E+00  0.00000000000E+00 -0.15344673306E+04  0.28476458964E+04  0.23988533015E+04 0.  0.
        1    1    3    3  502    0 -0.69994080518E+03  0.92275756060E+03 -0.39708796538E+03  0.12243682039E+04  0.50400001928E-02 0. -1.
       -1    1    3    3    0  502  0.69994080518E+03 -0.92275756060E+03 -0.11373793652E+04  0.16232776925E+04  0.50400001928E-02 0.  1.
</event>
<event>
 5   0  0.1174210E-05  0.2395570E+04  0.7818609E-02  0.8441164E-01
        2   -1    0    0  501    0  0.00000000000E+00  0.00000000000E+00  0.13342768940E+04  0.13342768940E+04  0.25500000920E-02 0.  1.
       -2   -1    0    0    0  501  0.00000000000E+00  0.00000000000E+00 -0.10752556632E+04  0.10752556632E+04  0.25500000920E-02 0. -1.
    10030    2    1    2    0    0  0.00000000000E+00  0.00000000000E+00  0.25902123085E+03  0.24095325572E+04  0.23955699000E+04 0.  0.
        3    1    3    3  502    0  0.74369481176E+03 -0.25775468988E+03  0.10376402855E+04  0.13023888918E+04  0.10100000352E+00 0.  1.
       -3    1    3    3    0  502 -0.74369481176E+03  0.25775468988E+03 -0.77861905468E+03  0.11071436653E+04  0.10100000352E+00 0. -1.
</event>
<event>
 5   0  0.1168435E-05  0.2403855E+04  0.7818609E-02  0.8438062E-01
       -2   -1    0    0    0  501  0.00000000000E+00  0.00000000000E+00  0.12141933205E+04  0.12141933205E+04  0.25500000920E-02 0. -1.
        2   -1    0    0  501    0  0.00000000000E+00  0.00000000000E+00 -0.11897851972E+04  0.11897851972E+04  0.25500000920E-02 0.  1.
    10030    2    1    2    0    0  0.00000000000E+00  0.00000000000E+00  0.24408123340E+02  0.24039785177E+04  0.24038546040E+04 0.  0.
        1    1    3    3  502    0 -0.88410014423E+03  0.79929074010E+03 -0.14314385394E+03  0.12004119773E+04  0.50400001928E-02 0.  1.
       -1    1    3    3    0  502  0.88410014423E+03 -0.79929074010E+03  0.16755197728E+03  0.12035665405E+04  0.50400001928E-02 0. -1.
</event>
<event>
 5   0  0.5034479E-06  0.2396429E+04  0.7818609E-02  0.8440842E-01
        1   -1    0    0  501    0  0.00000000000E+00  0.00000000000E+00  0.15463250929E+04  0.15463250929E+04  0.50400001928E-02 0. -1.
       -1   -1    0    0    0  501  0.00000000000E+00  0.00000000000E+00 -0.92847122559E+03  0.92847122560E+03  0.50400001928E-02 0.  1.
    10030    2    1    2    0    0  0.00000000000E+00  0.00000000000E+00  0.61785386735E+03  0.24747963186E+04  0.23964293056E+04 0.  0.
        4    1    3    3  502    0 -0.29896113462E+03 -0.45771998674E+03  0.14100170613E+04  0.15122946380E+04  0.12699999809E+01 0. -1.
       -4    1    3    3    0  502  0.29896113462E+03  0.45771998674E+03 -0.79216319392E+03  0.96250168051E+03  0.12699999809E+01 0.  1.
</event>
<event>
 5   0  0.1174210E-05  0.2403336E+04  0.7818609E-02  0.8438256E-01
       -2   -1    0    0    0  501  0.00000000000E+00  0.00000000000E+00  0.76853853276E+03  0.76853853277E+03  0.25500000920E-02 0. -1.
        2   -1    0    0  501    0  0.00000000000E+00  0.00000000000E+00 -0.18788988055E+04  0.18788988055E+04  0.25500000920E-02 0.  1.
    10030    2    1    2    0    0  0.00000000000E+00  0.00000000000E+00 -0.11103602728E+04  0.26474373383E+04  0.24033361240E+04 0.  0.
        3    1    3    3  502    0  0.29618927535E+03 -0.10749631516E+04 -0.10487171845E+04  0.15307127775E+04  0.10100000352E+00 0.  1.
       -3    1    3    3    0  502 -0.29618927535E+03  0.10749631516E+04 -0.61643088318E+02  0.11167245608E+04  0.10100000352E+00 0. -1.
</event>
<event>
 5   0  0.1168435E-05  0.2392454E+04  0.7818609E-02  0.8442334E-01
       -2   -1    0    0    0  501  0.00000000000E+00  0.00000000000E+00  0.13986954662E+04  0.13986954662E+04  0.25500000920E-02 0. -1.
        2   -1    0    0  501    0  0.00000000000E+00  0.00000000000E+00 -0.10230669449E+04  0.10230669450E+04  0.25500000920E-02 0.  1.
    10030    2    1    2    0    0  0.00000000000E+00  0.00000000000E+00  0.37562852124E+03  0.24217624111E+04  0.23924540518E+04 0.  0.
        1    1    3    3  502    0 -0.45260302937E+03 -0.94148737851E+03 -0.40217323137E+03  0.11193709368E+04  0.50400001928E-02 0.  1.
       -1    1    3    3    0  502  0.45260302937E+03  0.94148737851E+03  0.77780175260E+03  0.13023914743E+04  0.50400001928E-02 0. -1.
</event>
<event>
 5   0  0.5064437E-06  0.2405575E+04  0.7818609E-02  0.8437419E-01
        1   -1    0    0  501    0  0.00000000000E+00  0.00000000000E+00  0.26599654282E+04  0.26599654282E+04  0.50400001928E-02 0.  1.
       -1   -1    0    0    0  501  0.00000000000E+00  0.00000000000E+00 -0.54387832697E+03  0.54387832699E+03  0.50400001928E-02 0. -1.
    10030    2    1    2    0    0  0.00000000000E+00  0.00000000000E+00  0.21160871012E+04  0.32038437552E+04  0.24055748144E+04 0.  0.
        2    1    3    3  502    0  0.64846841415E+03 -0.23301803335E+03  0.23710315658E+04  0.24691292745E+04  0.25500000920E-02 0.  1.
       -2    1    3    3    0  502 -0.64846841415E+03  0.23301803335E+03 -0.25494446465E+03  0.73471448065E+03  0.25500000920E-02 0. -1.
</event>
<event>
 5   0  0.1198313E-05  0.2388470E+04  0.7818609E-02  0.8443833E-01
        2   -1    0    0  501    0  0.00000000000E+00  0.00000000000E+00  0.18022793133E+04  0.18022793133E+04  0.25500000920E-02 0.  1.
       -2   -1    0    0    0  501  0.00000000000E+00  0.00000000000E+00 -0.79132964264E+03  0.79132964265E+03  0.25500000920E-02 0. -1.
    10030    2    1    2    0    0  0.00000000000E+00  0.00000000000E+00  0.10109496707E+04  0.25936089560E+04  0.23884698407E+04 0.  0.
        5    1    3    3  502    0 -0.10095664608E+04  0.53095691955E+03  0.88944810865E+03  0.14464714713E+04  0.46999998093E+01 0.  1.
       -5    1    3    3    0  502  0.10095664608E+04 -0.53095691955E+03  0.12150156205E+03  0.11471374847E+04  0.46999998093E+01 0. -1.
</event>
<event>
 5   0  0.5196696E-06  0.2419786E+04  0.7818609E-02  0.8432133E-01
        1   -1    0    0  501    0  0.00000000000E+00  0.00000000000E+00  0.13595108617E+04  0.13595108617E+04  0.50400001928E-02 0. -1.
       -1   -1    0    0    0  501  0.00000000000E+00  0.00000000000E+00 -0.10767413385E+04  0.10767413385E+04  0.50400001928E-02 0.  1.
    10030    2    1    2    0    0  0.00000000000E+00  0.00000000000E+00  0.28276952320E+03  0.24362522003E+04  0.24197863914E+04 0.  0.
        1    1    3    3  502    0  0.51019867833E+03  0.10487462263E+03 -0.95808103226E+03  0.10905139349E+04  0.50400001928E-02 0.  1.
       -1    1    3    3    0  502 -0.51019867833E+03 -0.10487462263E+03  0.12408505555E+04  0.13457382654E+04  0.50400001928E-02 0. -1.
</event>
<event>
 5   0  0.1168435E-05  0.2400048E+04  0.7818609E-02  0.8439486E-01
        2   -1    0    0  501    0  0.00000000000E+00  0.00000000000E+00  0.95298442960E+03  0.95298442960E+03  0.25500000920E-02 0.  1.
       -2   -1    0    0    0  501  0.00000000000E+00  0.00000000000E+00 -0.15111031185E+04  0.15111031185E+04  0.25500000920E-02 0. -1.
    10030    2    1    2    0    0  0.00000000000E+00  0.00000000000E+00 -0.55811868891E+03  0.24640875481E+04  0.24000481191E+04 0.  0.
        1    1    3    3  502    0 -0.24156431560E+03  0.58667465556E+03  0.76670505441E+03  0.99517692424E+03  0.50400001928E-02 0.  1.
       -1    1    3    3    0  502  0.24156431560E+03 -0.58667465556E+03 -0.13248237433E+04  0.14689106239E+04  0.50400001928E-02 0. -1.
</event>
<event>
 5   0  0.1169371E-05  0.2401586E+04  0.7818609E-02  0.8438910E-01
       -2   -1    0    0    0  501  0.00000000000E+00  0.00000000000E+00  0.59557060605E+03  0.59557060605E+03  0.25500000920E-02 0.  1.
        2   -1    0    0  501    0  0.00000000000E+00  0.00000000000E+00 -0.24210460719E+04  0.24210460719E+04  0.25500000920E-02 0. -1.
    10030    2    1    2    0    0  0.00000000000E+00  0.00000000000E+00 -0.18254754659E+04  0.30166166780E+04  0.24015860395E+04 0.  0.
        2    1    3    3  502    0 -0.10923092401E+04  0.10629789407E+03 -0.30063837225E+03  0.11379025218E+04  0.25500000920E-02 0.  1.
       -2    1    3    3    0  502  0.10923092401E+04 -0.10629789407E+03 -0.15248370936E+04  0.18787141561E+04  0.25500000920E-02 0. -1.
</event>
<event>
 5   0  0.5042742E-06  0.2325620E+04  0.7818609E-02  0.8467888E-01
        1   -1    0    0  501    0  0.00000000000E+00  0.00000000000E+00  0.15217668894E+04  0.15217668894E+04  0.50400001928E-02 0. -1.
       -1   -1    0    0    0  501  0.00000000000E+00  0.00000000000E+00 -0.88852428130E+03  0.88852428132E+03  0.50400001928E-02 0.  1.
    10030    2    1    2    0    0  0.00000000000E+00  0.00000000000E+00  0.63324260814E+03  0.24102911708E+04  0.23256197727E+04 0.  0.
        5    1    3    3  502    0 -0.46980978670E+03  0.10104007225E+04 -0.27856000519E+02  0.11146429484E+04  0.46999998093E+01 0.  1.
       -5    1    3    3    0  502  0.46980978670E+03 -0.10104007225E+04  0.66109860866E+03  0.12956482223E+04  0.46999998093E+01 0. -1.
</event>
<event>
 5   0  0.5104174E-06  0.2451548E+04  0.7818609E-02  0.8420453E-01
       -1   -1    0    0    0  501  0.00000000000E+00  0.00000000000E+00  0.14571687477E+04  0.14571687478E+04  0.50400001928E-02 0.  1.
        1   -1    0    0  501    0  0.00000000000E+00  0.00000000000E+00 -0.10311238926E+04  0.10311238926E+04  0.50400001928E-02 0. -1.
    10030    2    1    2    0    0  0.00000000000E+00  0.00000000000E+00  0.42604485514E+03  0.24882926404E+04  0.24515476837E+04 0.  0.
        3    1    3    3  502    0 -0.11754693504E+04 -0.23656567966E+03 -0.45411231443E+02  0.11998973725E+04  0.10100000352E+00 0.  1.
       -3    1    3    3    0  502  0.11754693504E+04  0.23656567966E+03  0.47145608658E+03  0.12883952679E+04  0.10100000352E+00 0. -1.
</event>
<event>
 5   0  0.1174210E-05  0.2399875E+04  0.7818609E-02  0.8439550E-01
        2   -1    0    0  501    0  0.00000000000E+00  0.00000000000E+00  0.22552688356E+04  0.22552688356E+04  0.25500000920E-02 0.  1.
       -2   -1    0    0    0  501  0.00000000000E+00  0.00000000000E+00 -0.63843849509E+03  0.63843849509E+03  0.25500000920E-02 0. -1.
    10030    2    1    2    0    0  0.00000000000E+00  0.00000000000E+00  0.16168303405E+04  0.28937073307E+04  0.23998753646E+04 0.  0.
        3    1    3    3  502    0 -0.80307751634E+02 -0.11967770100E+04  0.84887395711E+03  0.14694596122E+04  0.10100000352E+00 0.  1.
       -3    1    3    3    0  502  0.80307751634E+02  0.11967770100E+04  0.76795638342E+03  0.14242477185E+04  0.10100000352E+00 0. -1.
</event>
<event>
 5   0  0.1198313E-05  0.2383781E+04  0.7818609E-02  0.8445601E-01
       -2   -1    0    0    0  501  0.00000000000E+00  0.00000000000E+00  0.11500486888E+04  0.11500486888E+04  0.25500000920E-02 0. -1.
        2   -1    0    0  501    0  0.00000000000E+00  0.00000000000E+00 -0.12352544696E+04  0.12352544696E+04  0.25500000920E-02 0.  1.
    10030    2    1    2    0    0  0.00000000000E+00  0.00000000000E+00 -0.85205780805E+02  0.23853031584E+04  0.23837808482E+04 0.  0.
        5    1    3    3  502    0 -0.28784356887E+02  0.16481372621E+03  0.11382306305E+04  0.11504708435E+04  0.46999998093E+01 0. -1.
       -5    1    3    3    0  502  0.28784356887E+02 -0.16481372621E+03 -0.12234364113E+04  0.12348323149E+04  0.46999998093E+01 0.  1.
</event>
<event>
 5   0  0.5042742E-06  0.2406014E+04  0.7818609E-02  0.8437255E-01
        1   -1    0    0  501    0  0.00000000000E+00  0.00000000000E+00  0.13469154120E+04  0.13469154120E+04  0.50400001928E-02 0.  1.
       -1   -1    0    0    0  501  0.00000000000E+00  0.00000000000E+00 -0.10744742782E+04  0.10744742782E+04  0.50400001928E-02 0. -1.
    10030    2    1    2    0    0  0.00000000000E+00  0.00000000000E+00  0.27244113375E+03  0.24213896902E+04  0.24060141023E+04 0.  0.
        5    1    3    3  502    0 -0.92142939812E+03  0.76301857347E+03  0.90230178104E+01  0.11963832931E+04  0.46999998093E+01 0.  1.
       -5    1    3    3    0  502  0.92142939812E+03 -0.76301857347E+03  0.26341811594E+03  0.12250063971E+04  0.46999998093E+01 0. -1.
</event>
<event>
 5   0  0.1168435E-05  0.2395126E+04  0.7818609E-02  0.8441330E-01
        2   -1    0    0  501    0  0.00000000000E+00  0.00000000000E+00  0.15771393064E+04  0.15771393064E+04  0.25500000920E-02 0. -1.
       -2   -1    0    0    0  501  0.00000000000E+00  0.00000000000E+00 -0.90934110182E+03  0.90934110183E+03  0.25500000920E-02 0.  1.
    10030    2    1    2    0    0  0.00000000000E+00  0.00000000000E+00  0.66779820456E+03  0.24864804082E+04  0.23951263805E+04 0.  0.
        1    1    3    3  502    0  0.11101943695E+04 -0.31511644963E+03  0.18111113805E+01  0.11540507766E+04  0.50400001928E-02 0. -1.
       -1    1    3    3    0  502 -0.11101943695E+04  0.31511644963E+03  0.66598709317E+03  0.13324296316E+04  0.50400001928E-02 0.  1.
</event>
<event>
 5   0  0.5196696E-06  0.2415161E+04  0.7818609E-02  0.8433849E-01
        1   -1    0    0  501    0  0.00000000000E+00  0.00000000000E+00  0.12418049516E+04  0.12418049516E+04  0.50400001928E-02 0. -1.
       -1   -1    0    0    0  501  0.00000000000E+00  0.00000000000E+00 -0.11742991223E+04  0.11742991224E+04  0.50400001928E-02 0.  1.
    10030    2    1    2    0    0  0.00000000000E+00  0.00000000000E+00  0.67505829244E+02  0.24161040740E+04  0.24151608351E+04 0.  0.
        1    1    3    3  502    0  0.58159919837E+03  0.15660012775E+03  0.10808083446E+04  0.12373067143E+04  0.50400001928E-02 0. -1.
       -1    1    3    3    0  502 -0.58159919837E+03 -0.15660012775E+03 -0.10133025153E+04  0.11787973597E+04  0.50400001928E-02 0.  1.
</event>
<event>
 5   0  0.1174210E-05  0.2562497E+04  0.7818609E-02  0.8381053E-01
        2   -1    0    0  501    0  0.00000000000E+00  0.00000000000E+00  0.27640510729E+04  0.27640510729E+04  0.25500000920E-02 0.  1.
       -2   -1    0    0    0  501  0.00000000000E+00  0.00000000000E+00 -0.59391004105E+03  0.59391004106E+03  0.25500000920E-02 0. -1.
    10030    2    1    2    0    0  0.00000000000E+00  0.00000000000E+00  0.21701410319E+04  0.33579611140E+04  0.25624969746E+04 0.  0.
        3    1    3    3  502    0  0.17097040762E+03 -0.39586808447E+01 -0.57888654018E+03  0.60361924095E+03  0.10100000352E+00 0. -1.
       -3    1    3    3    0  502 -0.17097040762E+03  0.39586808447E+01  0.27490275720E+04  0.27543418730E+04  0.10100000352E+00 0.  1.
</event>
<event>
 5   0  0.1154897E-05  0.2398672E+04  0.7818609E-02  0.8440001E-01
       -2   -1    0    0    0  501  0.00000000000E+00  0.00000000000E+00  0.16646663322E+04  0.16646663322E+04  0.25500000920E-02 0.  1.
        2   -1    0    0  501    0  0.00000000000E+00  0.00000000000E+00 -0.86408095543E+03  0.86408095544E+03  0.25500000920E-02 0. -1.
    10030    2    1    2    0    0  0.00000000000E+00  0.00000000000E+00  0.80058537678E+03  0.25287472877E+04  0.23986716948E+04 0.  0.
        4    1    3    3  502    0 -0.81871932207E+03  0.37669231269E+02 -0.52279504325E+03  0.97212991388E+03  0.12699999809E+01 0. -1.
       -4    1    3    3    0  502  0.81871932207E+03 -0.37669231269E+02  0.13233804200E+04  0.15566173738E+04  0.12699999809E+01 0.  1.
</event>
<event>
 5   0  0.1169371E-05  0.2406180E+04  0.7818609E-02  0.8437194E-01
        2   -1    0    0  501    0  0.00000000000E+00  0.00000000000E+00  0.19041072009E+04  0.19041072009E+04  0.25500000920E-02 0. -1.
       -2   -1    0    0    0  501  0.00000000000E+00  0.00000000000E+00 -0.76015954942E+03  0.76015954942E+03  0.25500000920E-02 0.  1.
    10030    2    1    2    0    0  0.00000000000E+00  0.00000000000E+00  0.11439476515E+04  0.26642667503E+04  0.24061797704E+04 0.  0.
        2    1    3    3  502    0 -0.10787607183E+04  0.38924152533E+03  0.97455326939E+03  0.15049876170E+04  0.25500000920E-02 0. -1.
       -2    1    3    3    0  502  0.10787607183E+04 -0.38924152533E+03  0.16939438208E+03  0.11592791333E+04  0.25500000920E-02 0.  1.
</event>
<event>
 5   0  0.1169371E-05  0.2406188E+04  0.7818609E-02  0.8437191E-01
        2   -1    0    0  501    0  0.00000000000E+00  0.00000000000E+00  0.19598574893E+04  0.19598574893E+04  0.25500000920E-02 0. -1.
       -2   -1    0    0    0  501  0.00000000000E+00  0.00000000000E+00 -0.73854094646E+03  0.73854094646E+03  0.25500000920E-02 0.  1.
    10030    2    1    2    0    0  0.00000000000E+00  0.00000000000E+00  0.12213165428E+04  0.26983984358E+04  0.24061878606E+04 0.  0.
        2    1    3    3  502    0  0.52406988844E+03 -0.52955339611E+03 -0.44870848115E+03  0.86972141998E+03  0.25500000920E-02 0.  1.
       -2    1    3    3    0  502 -0.52406988844E+03  0.52955339611E+03  0.16700250240E+04  0.18286770158E+04  0.25500000920E-02 0. -1.
</event>
<event>
 5   0  0.1168435E-05  0.2405487E+04  0.7818609E-02  0.8437452E-01
       -2   -1    0    0    0  501  0.00000000000E+00  0.00000000000E+00  0.96428710848E+03  0.96428710849E+03  0.25500000920E-02 0.  1.
        2   -1    0    0  501    0  0.00000000000E+00  0.00000000000E+00 -0.15001666297E+04  0.15001666297E+04  0.25500000920E-02 0. -1.
    10030    2    1    2    0    0  0.00000000000E+00  0.00000000000E+00 -0.53587952125E+03  0.24644537382E+04  0.24054865135E+04 0.  0.
        1    1    3    3  502    0 -0.61480749973E+03  0.80031004730E+03 -0.93827779524E+03  0.13779875379E+04  0.50400001928E-02 0. -1.
       -1    1    3    3    0  502  0.61480749973E+03 -0.80031004730E+03  0.40239827399E+03  0.10864662003E+04  0.50400001928E-02 0.  1.
</event>
<event>
 5   0  0.5042742E-06  0.2404695E+04  0.7818609E-02  0.8437748E-01
        1   -1    0    0  501    0  0.00000000000E+00  0.00000000000E+00  0.66868426700E+03  0.66868426701E+03  0.50400001928E-02 0.  1.
       -1   -1    0    0    0  501  0.00000000000E+00  0.00000000000E+00 -0.21619168696E+04  0.21619168696E+04  0.50400001928E-02 0. -1.
    10030    2    1    2    0    0  0.00000000000E+00  0.00000000000E+00 -0.14932326026E+04  0.28306011367E+04  0.24046952383E+04 0.  0.
        5    1    3    3  502    0  0.43451841914E+02  0.18973204600E+03 -0.21432371843E+04  0.21520627384E+04  0.46999998093E+01 0. -1.
       -5    1    3    3    0  502 -0.43451841914E+02 -0.18973204600E+03  0.65000458162E+03  0.67853839830E+03  0.46999998093E+01 0.  1.
</event>
<event>
 5   0  0.5196696E-06  0.2407758E+04  0.7818609E-02  0.8436605E-01
       -1   -1    0    0    0  501  0.00000000000E+00  0.00000000000E+00  0.51750009939E+03  0.51750009941E+03  0.50400001928E-02 0. -1.
        1   -1    0    0  501    0  0.00000000000E+00  0.00000000000E+00 -0.28006259065E+04  0.28006259065E+04  0.50400001928E-02 0.  1.
    10030    2    1    2    0    0  0.00000000000E+00  0.00000000000E+00 -0.22831258071E+04  0.33181260059E+04  0.24077576166E+04 0.  0.
        1    1    3    3  502    0  0.20902779236E+03 -0.93252148670E+03 -0.13259632307E+03  0.96481642091E+03  0.50400001928E-02 0. -1.
       -1    1    3    3    0  502 -0.20902779236E+03  0.93252148670E+03 -0.21505294841E+04  0.23533095850E+04  0.50400001928E-02 0.  1.
</event>
<event>
 5   0  0.1168435E-05  0.2402508E+04  0.7818609E-02  0.8438565E-01
        2   -1    0    0  501    0  0.00000000000E+00  0.00000000000E+00  0.17681515186E+04  0.17681515186E+04  0.25500000920E-02 0. -1.
       -2   -1    0    0    0  501  0.00000000000E+00  0.00000000000E+00 -0.81611276974E+03  0.81611276974E+03  0.25500000920E-02 0.  1.
    10030    2    1    2    0    0  0.00000000000E+00  0.00000000000E+00  0.95203874890E+03  0.25842642884E+04  0.24025078840E+04 0.  0.
        1    1    3    3  502    0 -0.82825283283E+03 -0.76417069619E+03  0.28553731899E+02  0.11272865313E+04  0.50400001928E-02 0. -1.
       -1    1    3    3    0  502  0.82825283283E+03  0.76417069619E+03  0.92348501700E+03  0.14569777571E+04  0.50400001928E-02 0.  1.
</event>
<event>
 5   0  0.5064437E-06  0.2388262E+04  0.7818609E-02  0.8443911E-01
       -1   -1    0    0    0  501  0.00000000000E+00  0.00000000000E+00  0.81537255429E+03  0.81537255431E+03  0.50400001928E-02 0.  1.
        1   -1    0    0  501    0  0.00000000000E+00  0.00000000000E+00 -0.17488304711E+04  0.17488304711E+04  0.50400001928E-02 0. -1.
    10030    2    1    2    0    0  0.00000000000E+00  0.00000000000E+00 -0.93345791683E+03  0.25642030254E+04  0.23882616007E+04 0.  0.
        2    1    3    3  502    0 -0.13140981960E+03  0.11519987660E+04 -0.16006776269E+03  0.11704663114E+04  0.25500000920E-02 0. -1.
       -2    1    3    3    0  502  0.13140981960E+03 -0.11519987660E+04 -0.77339015414E+03  0.13937367140E+04  0.25500000920E-02 0.  1.
</event>
<event>
 5   0  0.5104174E-06  0.2416907E+04  0.7818609E-02  0.8433201E-01
       -1   -1    0    0    0  501  0.00000000000E+00  0.00000000000E+00  0.13131691229E+04  0.13131691229E+04  0.50400001928E-02 0.  1.
        1   -1    0    0  501    0  0.00000000000E+00  0.00000000000E+00 -0.11120878868E+04  0.11120878868E+04  0.50400001928E-02 0. -1.
    10030    2    1    2    0    0  0.00000000000E+00  0.00000000000E+00  0.20108123611E+03  0.24252570097E+04  0.24169066800E+04 0.  0.
        3    1    3    3  502    0 -0.12711416195E+03 -0.69078994290E+03  0.10873051442E+04  0.12944424445E+04  0.10100000352E+00 0.  1.
       -3    1    3    3    0  502  0.12711416195E+03  0.69078994290E+03 -0.88622390809E+03  0.11308145652E+04  0.10100000352E+00 0. -1.
</event>
<event>
 5   0  0.5034479E-06  0.2398928E+04  0.7818609E-02  0.8439905E-01
       -1   -1    0    0    0  501  0.00000000000E+00  0.00000000000E+00  0.87848794168E+03  0.87848794170E+03  0.50400001928E-02 0.  1.
        1   -1    0    0  501    0  0.00000000000E+00  0.00000000000E+00 -0.16377166279E+04  0.16377166279E+04  0.50400001928E-02 0. -1.
    10030    2    1    2    0    0  0.00000000000E+00  0.00000000000E+00 -0.75922868621E+03  0.25162045696E+04  0.23989283520E+04 0.  0.
        4    1    3    3  502    0  0.34373933028E+03  0.10953894129E+04 -0.15244246267E+02  0.11481588274E+04  0.12699999809E+01 0.  1.
       -4    1    3    3    0  502 -0.34373933028E+03 -0.10953894129E+04 -0.74398443995E+03  0.13680457422E+04  0.12699999809E+01 0. -1.
</event>
<event>
 5   0  0.1168435E-05  0.2395906E+04  0.7818609E-02  0.8441038E-01
       -2   -1    0    0    0  501  0.00000000000E+00  0.00000000000E+00  0.95398905498E+03  0.95398905498E+03  0.25500000920E-02 0.  1.
        2   -1    0    0  501    0  0.00000000000E+00  0.00000000000E+00 -0.15043053915E+04  0.15043053915E+04  0.25500000920E-02 0. -1.
    10030    2    1    2    0    0  0.00000000000E+00  0.00000000000E+00 -0.55031633647E+03  0.24582944464E+04  0.23959055731E+04 0.  0.
        1    1    3    3  502    0 -0.44095676189E+03 -0.93868051617E+03 -0.89037739317E+03  0.13668708350E+04  0.50400001928E-02 0. -1.
       -1    1    3    3    0  502  0.44095676189E+03  0.93868051617E+03  0.34006105670E+03  0.10914236114E+04  0.50400001928E-02 0.  1.
</event>
<event>
 5   0  0.5064437E-06  0.2390829E+04  0.7818609E-02  0.8442945E-01
        1   -1    0    0  501    0  0.00000000000E+00  0.00000000000E+00  0.17418782178E+04  0.17418782178E+04  0.50400001928E-02 0. -1.
       -1   -1    0    0    0  501  0.00000000000E+00  0.00000000000E+00 -0.82038810076E+03  0.82038810078E+03  0.50400001928E-02 0.  1.
    10030    2    1    2    0    0  0.00000000000E+00  0.00000000000E+00  0.92149011700E+03  0.25622663185E+04  0.23908292811E+04 0.  0.
        2    1    3    3  502    0  0.75269070328E+03 -0.67372479025E+03  0.11457721643E+04  0.15274954142E+04  0.25500000920E-02 0. -1.
       -2    1    3    3    0  502 -0.75269070328E+03  0.67372479025E+03 -0.22428204730E+03  0.10347709044E+04  0.25500000920E-02 0.  1.
</event>
<event>
 5   0  0.5042742E-06  0.2411495E+04  0.7818609E-02  0.8435213E-01
       -1   -1    0    0    0  501  0.00000000000E+00  0.00000000000E+00  0.14931960833E+04  0.14931960833E+04  0.50400001928E-02 0.  1.
        1   -1    0    0  501    0  0.00000000000E+00  0.00000000000E+00 -0.97363430179E+03  0.97363430181E+03  0.50400001928E-02 0. -1.
    10030    2    1    2    0    0  0.00000000000E+00  0.00000000000E+00  0.51956178150E+03  0.24668303851E+04  0.24114949107E+04 0.  0.
        5    1    3    3  502    0 -0.10340397892E+04  0.54474209386E+03 -0.43368073283E+02  0.11695662077E+04  0.46999998093E+01 0. -1.
       -5    1    3    3    0  502  0.10340397892E+04 -0.54474209386E+03  0.56292985478E+03  0.12972641774E+04  0.46999998093E+01 0.  1.
</event>
<event>
 5   0  0.5042742E-06  0.2396750E+04  0.7818609E-02  0.8440721E-01
        1   -1    0    0  501    0  0.00000000000E+00  0.00000000000E+00  0.15760232420E+04  0.15760232420E+04  0.50400001928E-02 0. -1.
       -1   -1    0    0    0  501  0.00000000000E+00  0.00000000000E+00 -0.91121935491E+03  0.91121935493E+03  0.50400001928E-02 0.  1.
    10030    2    1    2    0    0  0.00000000000E+00  0.00000000000E+00  0.66480388712E+03  0.24872425970E+04  0.23967502014E+04 0.  0.
        5    1    3    3  502    0  0.11823750661E+03  0.73060928271E+03  0.13104897298E+04  0.15050499838E+04  0.46999998093E+01 0. -1.
       -5    1    3    3    0  502 -0.11823750661E+03 -0.73060928271E+03 -0.64568584264E+03  0.98219261316E+03  0.46999998093E+01 0.  1.
</event>
<event>
 5   0  0.1168435E-05  0.2395410E+04  0.7818609E-02  0.8441224E-01
       -2   -1    0    0    0  501  0.00000000000E+00  0.00000000000E+00  0.96928880255E+03  0.96928880255E+03  0.25500000920E-02 0. -1.
        2   -1    0    0  501    0  0.00000000000E+00  0.00000000000E+00 -0.14799485613E+04  0.14799485613E+04  0.25500000920E-02 0.  1.
    10030    2    1    2    0    0  0.00000000000E+00  0.00000000000E+00 -0.51065975875E+03  0.24492373639E+04  0.23954102520E+04 0.  0.
        1    1    3    3  502    0 -0.33355966723E+03  0.11290117399E+04 -0.48066356454E+03  0.12716001820E+04  0.50400001928E-02 0.  1.
       -1    1    3    3    0  502  0.33355966723E+03 -0.11290117399E+04 -0.29996194217E+02  0.11776371819E+04  0.50400001928E-02 0. -1.
</event>
<event>
 5   0  0.5042742E-06  0.2360697E+04  0.7818609E-02  0.8454366E-01
       -1   -1    0    0    0  501  0.00000000000E+00  0.00000000000E+00  0.59548474067E+03  0.59548474070E+03  0.50400001928E-02 0. -1.
        1   -1    0    0  501    0  0.00000000000E+00  0.00000000000E+00 -0.23396447344E+04  0.23396447344E+04  0.50400001928E-02 0.  1.
    10030    2    1    2    0    0  0.00000000000E+00  0.00000000000E+00 -0.17441599937E+04  0.29351294751E+04  0.23606971326E+04 0.  0.
        5    1    3    3  502    0 -0.71969746727E+03  0.74058669773E+03 -0.16134704700E+03  0.10452215367E+04  0.46999998093E+01 0. -1.
       -5    1    3    3    0  502  0.71969746727E+03 -0.74058669773E+03 -0.15828129467E+04  0.18899079384E+04  0.46999998093E+01 0.  1.
</event>
<event>
 5   0  0.1169371E-05  0.2387876E+04  0.7818609E-02  0.8444057E-01
        2   -1    0    0  501    0  0.00000000000E+00  0.00000000000E+00  0.14676704092E+04  0.14676704092E+04  0.25500000920E-02 0.  1.
       -2   -1    0    0    0  501  0.00000000000E+00  0.00000000000E+00 -0.97125862936E+03  0.97125862936E+03  0.25500000920E-02 0. -1.
    10030    2    1    2    0    0  0.00000000000E+00  0.00000000000E+00  0.49641177981E+03  0.24389290385E+04  0.23878756668E+04 0.  0.
        2    1    3    3  502    0  0.71162592121E+02 -0.46967398124E+03 -0.87058075712E+03  0.99175027998E+03  0.25500000920E-02 0. -1.
       -2    1    3    3    0  502 -0.71162592121E+02  0.46967398124E+03  0.13669925369E+04  0.14471787585E+04  0.25500000920E-02 0.  1.
</event>
<event>
 5   0  0.5064437E-06  0.2400536E+04  0.7818609E-02  0.8439303E-01
       -1   -1    0    0    0  501  0.00000000000E+00  0.00000000000E+00  0.80824448471E+03  0.80824448473E+03  0.50400001928E-02 0.  1.
        1   -1    0    0  501    0  0.00000000000E+00  0.00000000000E+00 -0.17824346002E+04  0.17824346002E+04  0.50400001928E-02 0. -1.
    10030    2    1    2    0    0  0.00000000000E+00  0.00000000000E+00 -0.97419011548E+03  0.25906790849E+04  0.24005357194E+04 0.  0.
        2    1    3    3  502    0 -0.10404798933E+04  0.56116087482E+03 -0.71125634538E+03  0.13796323875E+04  0.25500000920E-02 0. -1.
       -2    1    3    3    0  502  0.10404798933E+04 -0.56116087482E+03 -0.26293377009E+03  0.12110466974E+04  0.25500000920E-02 0.  1.
</event>
<event>
 5   0  0.1198313E-05  0.2397035E+04  0.7818609E-02  0.8440614E-01
       -2   -1    0    0    0  501  0.00000000000E+00  0.00000000000E+00  0.12946758480E+04  0.12946758480E+04  0.25500000920E-02 0.  1.
        2   -1    0    0  501    0  0.00000000000E+00  0.00000000000E+00 -0.11095014166E+04  0.11095014166E+04  0.25500000920E-02 0. -1.
    10030    2    1    2    0    0  0.00000000000E+00  0.00000000000E+00  0.18517443140E+03  0.24041772647E+04  0.23970354086E+04 0.  0.
        5    1    3    3  502    0 -0.37640770164E+03 -0.10022701224E+04  0.63288922329E+03  0.12437037489E+04  0.46999998093E+01 0.  1.
       -5    1    3    3    0  502  0.37640770164E+03  0.10022701224E+04 -0.44771479189E+03  0.11604735158E+04  0.46999998093E+01 0. -1.
</event>
<event>
 5   0  0.1154897E-05  0.2385109E+04  0.7818609E-02  0.8445100E-01
        2   -1    0    0  501    0  0.00000000000E+00  0.00000000000E+00  0.17679542172E+04  0.17679542172E+04  0.25500000920E-02 0. -1.
       -2   -1    0    0    0  501  0.00000000000E+00  0.00000000000E+00 -0.80442499579E+03  0.80442499580E+03  0.25500000920E-02 0.  1.
    10030    2    1    2    0    0  0.00000000000E+00  0.00000000000E+00  0.96352922137E+03  0.25723792130E+04  0.23851092752E+04 0.  0.
        4    1    3    3  502    0 -0.35308085550E+03 -0.21438588740E+03  0.16883334988E+04  0.17381308970E+04  0.12699999809E+01 0. -1.
       -4    1    3    3    0  502  0.35308085550E+03  0.21438588740E+03 -0.72480427739E+03  0.83424831594E+03  0.12699999809E+01 0.  1.
</event>
<event>
 5   0  0.1154897E-05  0.2401628E+04  0.7818609E-02  0.8438894E-01
       -2   -1    0    0    0  501  0.00000000000E+00  0.00000000000E+00  0.85956972240E+03  0.85956972240E+03  0.25500000920E-02 0.  1.
        2   -1    0    0  501    0  0.00000000000E+00  0.00000000000E+00 -0.16775302274E+04  0.16775302274E+04  0.25500000920E-02 0. -1.
    10030    2    1    2    0    0  0.00000000000E+00  0.00000000000E+00 -0.81796050497E+03  0.25370999498E+04  0.24016279411E+04 0.  0.
        4    1    3    3  502    0 -0.83264061637E+03  0.78130046507E+03 -0.80174796343E+03  0.13951782046E+04  0.12699999809E+01 0. -1.
       -4    1    3    3    0  502  0.83264061637E+03 -0.78130046507E+03 -0.16212541539E+02  0.11419217452E+04  0.12699999809E+01 0.  1.
</event>
<event>
 5   0  0.5042742E-06  0.2403359E+04  0.7818609E-02  0.8438247E-01
       -1   -1    0    0    0  501  0.00000000000E+00  0.00000000000E+00  0.88986246782E+03  0.88986246784E+03  0.50400001928E-02 0. -1.
        1   -1    0    0  501    0  0.00000000000E+00  0.00000000000E+00 -0.16227600871E+04  0.16227600871E+04  0.50400001928E-02 0.  1.
    10030    2    1    2    0    0  0.00000000000E+00  0.00000000000E+00 -0.73289761930E+03  0.25126225550E+04  0.24033587296E+04 0.  0.
        5    1    3    3  502    0  0.39808736806E+03  0.30032161541E+03  0.77657483202E+03  0.92290692110E+03  0.46999998093E+01 0. -1.
       -5    1    3    3    0  502 -0.39808736806E+03 -0.30032161541E+03 -0.15094724513E+04  0.15897156339E+04  0.46999998093E+01 0.  1.
</event>
<event>
 5   0  0.4067750E-06  0.2405403E+04  0.7818609E-02  0.8437484E-01
       -3   -1    0    0    0  501  0.00000000000E+00  0.00000000000E+00  0.69921589328E+03  0.69921590057E+03  0.10100000352E+00 0.  1.
        3   -1    0    0  501    0  0.00000000000E+00  0.00000000000E+00 -0.20687326665E+04  0.20687326690E+04  0.10100000352E+00 0. -1.
    10030    2    1    2    0    0  0.00000000000E+00  0.00000000000E+00 -0.13695167733E+04  0.27679485696E+04  0.24054028959E+04 0.  0.
        4    1    3    3  502    0 -0.11263619527E+04  0.21837285436E+03 -0.26968246445E+03  0.11786043426E+04  0.12699999809E+01 0.  1.
       -4    1    3    3    0  502  0.11263619527E+04 -0.21837285436E+03 -0.10998343088E+04  0.15893442269E+04  0.12699999809E+01 0. -1.
</event>
<event>
 5   0  0.5042742E-06  0.2374732E+04  0.7818609E-02  0.8449025E-01
        1   -1    0    0  501    0  0.00000000000E+00  0.00000000000E+00  0.17793664485E+04  0.17793664485E+04  0.50400001928E-02 0. -1.
       -1   -1    0    0    0  501  0.00000000000E+00  0.00000000000E+00 -0.79232554039E+03  0.79232554040E+03  0.50400001928E-02 0.  1.
    10030    2    1    2    0    0  0.00000000000E+00  0.00000000000E+00  0.98704090813E+03  0.25716919889E+04  0.23747315494E+04 0.  0.
        5    1    3    3  502    0  0.86264139572E+02 -0.46513727730E+03 -0.68585112221E+03  0.83319147881E+03  0.46999998093E+01 0.  1.
       -5    1    3    3    0  502 -0.86264139572E+02  0.46513727730E+03  0.16728920303E+04  0.17385005101E+04  0.46999998093E+01 0. -1.
</event>
<event>
 5   0  0.1154897E-05  0.2400273E+04  0.7818609E-02  0.8439402E-01
        2   -1    0    0  501    0  0.00000000000E+00  0.00000000000E+00  0.19076377037E+04  0.19076377037E+04  0.25500000920E-02 0.  1.
       -2   -1    0    0    0  501  0.00000000000E+00  0.00000000000E+00 -0.75503179347E+03  0.75503179347E+03  0.25500000920E-02 0. -1.
    10030    2    1    2    0    0  0.00000000000E+00  0.00000000000E+00  0.11526059102E+04  0.26626694971E+04  0.24002725818E+04 0.  0.
        4    1    3    3  502    0  0.22338263611E+03  0.11171064569E+04  0.99506026637E+03  0.15126047682E+04  0.12699999809E+01 0.  1.
       -4    1    3    3    0  502 -0.22338263611E+03 -0.11171064569E+04  0.15754564383E+03  0.11500647290E+04  0.12699999809E+01 0. -1.
</event>
<event>
 5   0  0.1198313E-05  0.2399414E+04  0.7818609E-02  0.8439723E-01
       -2   -1    0    0    0  501  0.00000000000E+00  0.00000000000E+00  0.96200770007E+03  0.96200770007E+03  0.25500000920E-02 0. -1.
        2   -1    0    0  501    0  0.00000000000E+00  0.00000000000E+00 -0.14961381999E+04  0.14961381999E+04  0.25500000920E-02 0.  1.
    10030    2    1    2    0    0  0.00000000000E+00  0.00000000000E+00 -0.53413049979E+03  0.24581458999E+04  0.23994136522E+04 0.  0.
        5    1    3    3  502    0 -0.10201343623E+03 -0.11893530876E+04 -0.14452610304E+03  0.12024464199E+04  0.46999998093E+01 0. -1.
       -5    1    3    3    0  502  0.10201343623E+03  0.11893530876E+04 -0.38960439675E+03  0.12556994800E+04  0.46999998093E+01 0.  1.
</event>
<event>
 5   0  0.5104174E-06  0.2403774E+04  0.7818609E-02  0.8438092E-01
       -1   -1    0    0    0  501  0.00000000000E+00  0.00000000000E+00  0.74887515049E+03  0.74887515051E+03  0.50400001928E-02 0. -1.
        1   -1    0    0  501    0  0.00000000000E+00  0.00000000000E+00 -0.19289365646E+04  0.19289365646E+04  0.50400001928E-02 0.  1.
    10030    2    1    2    0    0  0.00000000000E+00  0.00000000000E+00 -0.11800614141E+04  0.26778117151E+04  0.24037742491E+04 0.  0.
        3    1    3    3  502    0  0.11512174509E+03  0.61751925460E+03 -0.17315166978E+04  0.18419373309E+04  0.10100000352E+00 0.  1.
       -3    1    3    3    0  502 -0.11512174509E+03 -0.61751925460E+03  0.55145528372E+03  0.83587438419E+03  0.10100000352E+00 0. -1.
</event>
<event>
 5   0  0.1154897E-05  0.2398046E+04  0.7818609E-02  0.8440236E-01
        2   -1    0    0  501    0  0.00000000000E+00  0.00000000000E+00  0.20853457160E+04  0.20853457160E+04  0.25500000920E-02 0.  1.
       -2   -1    0    0    0  501  0.00000000000E+00  0.00000000000E+00 -0.68940874868E+03  0.68940874869E+03  0.25500000920E-02 0. -1.
    10030    2    1    2    0    0  0.00000000000E+00  0.00000000000E+00  0.13959369673E+04  0.27747544647E+04  0.23980455214E+04 0.  0.
        4    1    3    3  502    0 -0.75670262524E+03 -0.19585029923E+03  0.17500285053E+04  0.19166527033E+04  0.12699999809E+01 0.  1.
       -4    1    3    3    0  502  0.75670262524E+03  0.19585029923E+03 -0.35409153798E+03  0.85810176141E+03  0.12699999809E+01 0. -1.
</event>
<event>
 5   0  0.1168435E-05  0.2375849E+04  0.7818609E-02  0.8448601E-01
        2   -1    0    0  501    0  0.00000000000E+00  0.00000000000E+00  0.11350100810E+04  0.11350100810E+04  0.25500000920E-02 0.  1.
       -2   -1    0    0    0  501  0.00000000000E+00  0.00000000000E+00 -0.12433057067E+04  0.12433057067E+04  0.25500000920E-02 0. -1.
    10030    2    1    2    0    0  0.00000000000E+00  0.00000000000E+00 -0.10829562574E+03  0.23783157877E+04  0.23758489100E+04 0.  0.
        1    1    3    3  502    0 -0.61528149838E+03  0.55823364446E+03 -0.90412801701E+03  0.12278613909E+04  0.50400001928E-02 0. -1.
       -1    1    3    3    0  502  0.61528149838E+03 -0.55823364446E+03  0.79583239127E+03  0.11504543968E+04  0.50400001928E-02 0.  1.
</event>
<event>
 5   0  0.5104174E-06  0.2415204E+04  0.7818609E-02  0.8433833E-01
       -1   -1    0    0    0  501  0.00000000000E+00  0.00000000000E+00  0.13603073436E+04  0.13603073436E+04  0.50400001928E-02 0.  1.
        1   -1    0    0  501    0  0.00000000000E+00  0.00000000000E+00 -0.10720386088E+04  0.10720386088E+04  0.50400001928E-02 0. -1.
    10030    2    1    2    0    0  0.00000000000E+00  0.00000000000E+00  0.28826873484E+03  0.24323459524E+04  0.24152035046E+04 0.  0.
        3    1    3    3  502    0 -0.83232646346E+03 -0.68486337707E+03 -0.40424564372E+03  0.11511818873E+04  0.10100000352E+00 0. -1.
       -3    1    3    3    0  502  0.83232646346E+03  0.68486337707E+03  0.69251437856E+03  0.12811640651E+04  0.10100000352E+00 0.  1.
</event>
<event>
 5   0  0.1174210E-05  0.2395826E+04  0.7818609E-02  0.8441068E-01
       -2   -1    0    0    0  501  0.00000000000E+00  0.00000000000E+00  0.88641446796E+03  0.88641446797E+03  0.25500000920E-02 0.  1.
        2   -1    0    0  501    0  0.00000000000E+00  0.00000000000E+00 -0.16188759192E+04  0.16188759192E+04  0.25500000920E-02 0. -1.
    10030    2    1    2    0    0  0.00000000000E+00  0.00000000000E+00 -0.73246145122E+03  0.25052903872E+04  0.23958255668E+04 0.  0.
        3    1    3    3  502    0 -0.43989009306E+03  0.35273430181E+03  0.73897498117E+03  0.92952074460E+03  0.10100000352E+00 0.  1.
       -3    1    3    3    0  502  0.43989009306E+03 -0.35273430181E+03 -0.14714364324E+04  0.15757696426E+04  0.10100000352E+00 0. -1.
</event>
<event>
 5   0  0.5104174E-06  0.2396541E+04  0.7818609E-02  0.8440800E-01
        1   -1    0    0  501    0  0.00000000000E+00  0.00000000000E+00  0.14880800734E+04  0.14880800734E+04  0.50400001928E-02 0.  1.
       -1   -1    0    0    0  501  0.00000000000E+00  0.00000000000E+00 -0.96490252469E+03  0.96490252470E+03  0.50400001928E-02 0. -1.
    10030    2    1    2    0    0  0.00000000000E+00  0.00000000000E+00  0.52317754873E+03  0.24529825981E+04  0.23965410239E+04 0.  0.
        3    1    3    3  502    0  0.86957408777E+02 -0.29381371516E+03  0.14473030582E+04  0.14793830615E+04  0.10100000352E+00 0.  1.
       -3    1    3    3    0  502 -0.86957408777E+02  0.29381371516E+03 -0.92412550950E+03  0.97359953660E+03  0.10100000352E+00 0. -1.
</event>
<event>
 5   0  0.5042742E-06  0.2399776E+04  0.7818609E-02  0.8439587E-01
        1   -1    0    0  501    0  0.00000000000E+00  0.00000000000E+00  0.14475215977E+04  0.14475215977E+04  0.50400001928E-02 0.  1.
       -1   -1    0    0    0  501  0.00000000000E+00  0.00000000000E+00 -0.99461837933E+03  0.99461837934E+03  0.50400001928E-02 0. -1.
    10030    2    1    2    0    0  0.00000000000E+00  0.00000000000E+00  0.45290321833E+03  0.24421399770E+04  0.23997763109E+04 0.  0.
        5    1    3    3  502    0  0.60854404912E+03 -0.27192996572E+03  0.12417807238E+04  0.14093662484E+04  0.46999998093E+01 0.  1.
       -5    1    3    3    0  502 -0.60854404912E+03  0.27192996572E+03 -0.78887750548E+03  0.10327737287E+04  0.46999998093E+01 0. -1.
</event>
<event>
 5   0  0.5196696E-06  0.2416412E+04  0.7818609E-02  0.8433385E-01
        1   -1    0    0  501    0  0.00000000000E+00  0.00000000000E+00  0.15226654003E+04  0.15226654003E+04  0.50400001928E-02 0.  1.
       -1   -1    0    0    0  501  0.00000000000E+00  0.00000000000E+00 -0.95868852210E+03  0.95868852211E+03  0.50400001928E-02 0. -1.
    10030    2    1    2    0    0  0.00000000000E+00  0.00000000000E+00  0.56397687819E+03  0.24813539224E+04  0.24164120860E+04 0.  0.
        1    1    3    3  502    0 -0.10633788824E+04 -0.17081397880E+03 -0.28027599290E+03  0.11128821568E+04  0.50400001928E-02 0. -1.
       -1    1    3    3    0  502  0.10633788824E+04  0.17081397880E+03  0.84425287109E+03  0.13684717656E+04  0.50400001928E-02 0.  1.
</event>
<event>
 5   0  0.5196696E-06  0.2403353E+04  0.7818609E-02  0.8438249E-01
       -1   -1    0    0    0  501  0.00000000000E+00  0.00000000000E+00  0.11491211950E+04  0.11491211950E+04  0.50400001928E-02 0. -1.
        1   -1    0    0  501    0  0.00000000000E+00  0.00000000000E+00 -0.12566354042E+04  0.12566354042E+04  0.50400001928E-02 0.  1.
    10030    2    1    2    0    0  0.00000000000E+00  0.00000000000E+00 -0.10751420915E+03  0.24057565992E+04  0.24033529723E+04 0.  0.
        1    1    3    3  502    0  0.11356033679E+04 -0.31641480100E+03 -0.28704176915E+03  0.12133038831E+04  0.50400001928E-02 0.  1.
       -1    1    3    3    0  502 -0.11356033679E+04  0.31641480100E+03  0.17952756000E+03  0.11924527161E+04  0.50400001928E-02 0. -1.
</event>
<event>
 5   0  0.1174210E-05  0.2404751E+04  0.7818609E-02  0.8437727E-01
       -2   -1    0    0    0  501  0.00000000000E+00  0.00000000000E+00  0.11490369421E+04  0.11490369421E+04  0.25500000920E-02 0.  1.
        2   -1    0    0  501    0  0.00000000000E+00  0.00000000000E+00 -0.12581899687E+04  0.12581899687E+04  0.25500000920E-02 0. -1.
    10030    2    1    2    0    0  0.00000000000E+00  0.00000000000E+00 -0.10915302661E+03  0.24072269107E+04  0.24047509261E+04 0.  0.
        3    1    3    3  502    0 -0.55632535168E+03 -0.81465227795E+03 -0.74270739540E+03  0.12348159848E+04  0.10100000352E+00 0. -1.
       -3    1    3    3    0  502  0.55632535168E+03  0.81465227795E+03  0.63355436879E+03  0.11724109260E+04  0.10100000352E+00 0.  1.
</event>
<event>
 5   0  0.5196696E-06  0.2394095E+04  0.7818609E-02  0.8441718E-01
       -1   -1    0    0    0  501  0.00000000000E+00  0.00000000000E+00  0.81472283686E+03  0.81472283688E+03  0.50400001928E-02 0.  1.
        1   -1    0    0  501    0  0.00000000000E+00  0.00000000000E+00 -0.17587853012E+04  0.17587853012E+04  0.50400001928E-02 0. -1.
    10030    2    1    2    0    0  0.00000000000E+00  0.00000000000E+00 -0.94406246436E+03  0.25735081381E+04  0.23940948603E+04 0.  0.
        1    1    3    3  502    0  0.96802843956E+03 -0.70416138868E+03 -0.47254557805E+03  0.12869427510E+04  0.50400001928E-02 0.  1.
       -1    1    3    3    0  502 -0.96802843956E+03  0.70416138868E+03 -0.47151688631E+03  0.12865653871E+04  0.50400001928E-02 0. -1.
</event>
<event>
 5   0  0.5064437E-06  0.2406845E+04  0.7818609E-02  0.8436945E-01
       -1   -1    0    0    0  501  0.00000000000E+00  0.00000000000E+00  0.10146774469E+04  0.10146774469E+04  0.50400001928E-02 0. -1.
        1   -1    0    0  501    0  0.00000000000E+00  0.00000000000E+00 -0.14272768304E+04  0.14272768304E+04  0.50400001928E-02 0.  1.
    10030    2    1    2    0    0  0.00000000000E+00  0.00000000000E+00 -0.41259938347E+03  0.24419542773E+04  0.24068449142E+04 0.  0.
        2    1    3    3  502    0 -0.32158157378E+03 -0.43885472597E+03  0.88277243067E+03  0.10369644851E+04  0.25500000920E-02 0. -1.
       -2    1    3    3    0  502  0.32158157378E+03  0.43885472597E+03 -0.12953718141E+04  0.14049897921E+04  0.25500000920E-02 0.  1.
</event>
<event>
 5   0  0.5042742E-06  0.2428488E+04  0.7818609E-02  0.8428915E-01
       -1   -1    0    0    0  501  0.00000000000E+00  0.00000000000E+00  0.11467615498E+04  0.11467615498E+04  0.50400001928E-02 0.  1.
        1   -1    0    0  501    0  0.00000000000E+00  0.00000000000E+00 -0.12856972552E+04  0.12856972552E+04  0.50400001928E-02 0. -1.
    10030    2    1    2    0    0  0.00000000000E+00  0.00000000000E+00 -0.13893570542E+03  0.24324588050E+04  0.24284877409E+04 0.  0.
        5    1    3    3  502    0  0.17786351479E+03  0.53564563637E+03  0.10073782255E+04  0.11547227619E+04  0.46999998093E+01 0.  1.
       -5    1    3    3    0  502 -0.17786351479E+03 -0.53564563637E+03 -0.11463139309E+04  0.12777360431E+04  0.46999998093E+01 0. -1.
</event>
<event>
 5   0  0.1154897E-05  0.2396358E+04  0.7818609E-02  0.8440868E-01
        2   -1    0    0  501    0  0.00000000000E+00  0.00000000000E+00  0.16494759806E+04  0.16494759806E+04  0.25500000920E-02 0.  1.
       -2   -1    0    0    0  501  0.00000000000E+00  0.00000000000E+00 -0.87035703403E+03  0.87035703403E+03  0.25500000920E-02 0. -1.
    10030    2    1    2    0    0  0.00000000000E+00  0.00000000000E+00  0.77911894655E+03  0.25198330146E+04  0.23963580886E+04 0.  0.
        4    1    3    3  502    0  0.13474057267E+03  0.11314339081E+04 -0.12096509312E+00  0.11394293913E+04  0.12699999809E+01 0. -1.
       -4    1    3    3    0  502 -0.13474057267E+03 -0.11314339081E+04  0.77923991164E+03  0.13804036233E+04  0.12699999809E+01 0.  1.
</event>
<event>
 5   0  0.1174210E-05  0.2389644E+04  0.7818609E-02  0.8443391E-01
        2   -1    0    0  501    0  0.00000000000E+00  0.00000000000E+00  0.10178403128E+04  0.10178403128E+04  0.25500000920E-02 0. -1.
       -2   -1    0    0    0  501  0.00000000000E+00  0.00000000000E+00 -0.14025770468E+04  0.14025770468E+04  0.25500000920E-02 0.  1.
    10030    2    1    2    0    0  0.00000000000E+00  0.00000000000E+00 -0.38473673399E+03  0.24204173596E+04  0.23896438731E+04 0.  0.
        3    1    3    3  502    0  0.42160386038E+03  0.63510150995E+03  0.73953194221E+03  0.10620787385E+04  0.10100000352E+00 0. -1.
       -3    1    3    3    0  502 -0.42160386038E+03 -0.63510150995E+03 -0.11242686762E+04  0.13583386211E+04  0.10100000352E+00 0.  1.
</event>
<event>
 5   0  0.5034479E-06  0.2399010E+04  0.7818609E-02  0.8439874E-01
       -1   -1    0    0    0  501  0.00000000000E+00  0.00000000000E+00  0.17910430966E+04  0.17910430966E+04  0.50400001928E-02 0. -1.
        1   -1    0    0  501    0  0.00000000000E+00  0.00000000000E+00 -0.80333783408E+03  0.80333783410E+03  0.50400001928E-02 0.  1.
    10030    2    1    2    0    0  0.00000000000E+00  0.00000000000E+00  0.98770526255E+03  0.25943809307E+04  0.23990103643E+04 0.  0.
        4    1    3    3  502    0 -0.72828924751E+03 -0.46532079362E+03 -0.40568173692E+03  0.95472925669E+03  0.12699999809E+01 0.  1.
       -4    1    3    3    0  502  0.72828924751E+03  0.46532079362E+03  0.13933869995E+04  0.16396516740E+04  0.12699999809E+01 0. -1.
</event>
<event>
 5   0  0.5064437E-06  0.2398828E+04  0.7818609E-02  0.8439942E-01
       -1   -1    0    0    0  501  0.00000000000E+00  0.00000000000E+00  0.20212475479E+04  0.20212475479E+04  0.50400001928E-02 0.  1.
        1   -1    0    0  501    0  0.00000000000E+00  0.00000000000E+00 -0.71173569651E+03  0.71173569652E+03  0.50400001928E-02 0. -1.
    10030    2    1    2    0    0  0.00000000000E+00  0.00000000000E+00  0.13095118514E+04  0.27329832445E+04  0.23988280734E+04 0.  0.
        2    1    3    3  502    0 -0.73636217057E+03 -0.62490210904E+02 -0.42154116844E+03  0.85078271574E+03  0.25500000920E-02 0. -1.
       -2    1    3    3    0  502  0.73636217057E+03  0.62490210904E+02  0.17310530199E+04  0.18822005287E+04  0.25500000920E-02 0.  1.
</event>
<event>
 5   0  0.5034479E-06  0.2339713E+04  0.7818609E-02  0.8462425E-01
        1   -1    0    0  501    0  0.00000000000E+00  0.00000000000E+00  0.12045948074E+04  0.12045948074E+04  0.50400001928E-02 0. -1.
       -1   -1    0    0    0  501  0.00000000000E+00  0.00000000000E+00 -0.11361204172E+04  0.11361204172E+04  0.50400001928E-02 0.  1.
    10030    2    1    2    0    0  0.00000000000E+00  0.00000000000E+00  0.68474390207E+02  0.23407152246E+04  0.23397134484E+04 0.  0.
        4    1    3    3  502    0 -0.26283313910E+03 -0.74160970245E+03 -0.83186838850E+03  0.11450208900E+04  0.12699999809E+01 0.  1.
       -4    1    3    3    0  502  0.26283313910E+03  0.74160970245E+03  0.90034277871E+03  0.11956943346E+04  0.12699999809E+01 0. -1.
</event>
<event>
 5   0  0.5196696E-06  0.2369594E+04  0.7818609E-02  0.8450976E-01
        1   -1    0    0  501    0  0.00000000000E+00  0.00000000000E+00  0.13320544376E+04  0.13320544376E+04  0.50400001928E-02 0. -1.
       -1   -1    0    0    0  501  0.00000000000E+00  0.00000000000E+00 -0.10538188398E+04  0.10538188398E+04  0.50400001928E-02 0.  1.
    10030    2    1    2    0    0  0.00000000000E+00  0.00000000000E+00  0.27823559784E+03  0.23858732774E+04  0.23695941104E+04 0.  0.
        1    1    3    3  502    0 -0.23833886652E+03  0.95997588471E+03 -0.51757835114E+03  0.11163540944E+04  0.50400001928E-02 0.  1.
       -1    1    3    3    0  502  0.23833886652E+03 -0.95997588471E+03  0.79581394898E+03  0.12695191830E+04  0.50400001928E-02 0. -1.
</event>
<event>
 5   0  0.5196696E-06  0.2398809E+04  0.7818609E-02  0.8439949E-01
        1   -1    0    0  501    0  0.00000000000E+00  0.00000000000E+00  0.15172326907E+04  0.15172326908E+04  0.50400001928E-02 0.  1.
       -1   -1    0    0    0  501  0.00000000000E+00  0.00000000000E+00 -0.94815483837E+03  0.94815483838E+03  0.50400001928E-02 0. -1.
    10030    2    1    2    0    0  0.00000000000E+00  0.00000000000E+00  0.56907785238E+03  0.24653875291E+04  0.23988093019E+04 0.  0.
        1    1    3    3  502    0 -0.63599197723E+03 -0.36871843220E+03 -0.68946265518E+03  0.10078679627E+04  0.50400001928E-02 0. -1.
       -1    1    3    3    0  502  0.63599197723E+03  0.36871843220E+03  0.12585405076E+04  0.14575195664E+04  0.50400001928E-02 0.  1.
</event>
<event>
 5   0  0.1154897E-05  0.2430409E+04  0.7818609E-02  0.8428206E-01
        2   -1    0    0  501    0  0.00000000000E+00  0.00000000000E+00  0.15349332085E+04  0.15349332085E+04  0.25500000920E-02 0.  1.
       -2   -1    0    0    0  501  0.00000000000E+00  0.00000000000E+00 -0.96207584419E+03  0.96207584420E+03  0.25500000920E-02 0. -1.
    10030    2    1    2    0    0  0.00000000000E+00  0.00000000000E+00  0.57285736427E+03  0.24970090527E+04  0.24304091526E+04 0.  0.
        4    1    3    3  502    0  0.25944235725E+03 -0.14758314118E+03  0.14966853269E+04  0.15261584783E+04  0.12699999809E+01 0.  1.
       -4    1    3    3    0  502 -0.25944235725E+03  0.14758314118E+03 -0.92382796262E+03  0.97085057435E+03  0.12699999809E+01 0. -1.
</event>
<event>
 5   0  0.1154897E-05  0.2399987E+04  0.7818609E-02  0.8439508E-01
        2   -1    0    0  501    0  0.00000000000E+00  0.00000000000E+00  0.21123717393E+04  0.21123717393E+04  0.25500000920E-02 0. -1.
       -2   -1    0    0    0  501  0.00000000000E+00  0.00000000000E+00 -0.68169078999E+03  0.68169078999E+03  0.25500000920E-02 0.  1.
    10030    2    1    2    0    0  0.00000000000E+00  0.00000000000E+00  0.14306809493E+04  0.27940625293E+04  0.23999869664E+04 0.  0.
        4    1    3    3  502    0  0.10061999997E+04 -0.35870797046E+03  0.78881366002E+02  0.10711366534E+04  0.12699999809E+01 0.  1.
       -4    1    3    3    0  502 -0.10061999997E+04  0.35870797046E+03  0.13517995833E+04  0.17229258759E+04  0.12699999809E+01 0. -1.
</event>
<event>
 5   0  0.5196696E-06  0.2421720E+04  0.7818609E-02  0.8431417E-01
       -1   -1    0    0    0  501  0.00000000000E+00  0.00000000000E+00  0.80067785040E+03  0.80067785042E+03  0.50400001928E-02 0. -1.
        1   -1    0    0  501    0  0.00000000000E+00  0.00000000000E+00 -0.18311755142E+04  0.18311755142E+04  0.50400001928E-02 0.  1.
    10030    2    1    2    0    0  0.00000000000E+00  0.00000000000E+00 -0.10304976638E+04  0.26318533647E+04  0.24217197811E+04 0.  0.
        1    1    3    3  502    0 -0.37222382373E+03 -0.26500424247E+03 -0.17338881681E+04  0.17930828210E+04  0.50400001928E-02 0.  1.
       -1    1    3    3    0  502  0.37222382373E+03  0.26500424247E+03  0.70339050424E+03  0.83877054368E+03  0.50400001928E-02 0. -1.
</event>
<event>
 5   0  0.5034479E-06  0.2415601E+04  0.7818609E-02  0.8433686E-01
       -1   -1    0    0    0  501  0.00000000000E+00  0.00000000000E+00  0.12618714704E+04  0.12618714704E+04  0.50400001928E-02 0. -1.
        1   -1    0    0  501    0  0.00000000000E+00  0.00000000000E+00 -0.11560465188E+04  0.11560465188E+04  0.50400001928E-02 0.  1.
    10030    2    1    2    0    0  0.00000000000E+00  0.00000000000E+00  0.10582495165E+03  0.24179179892E+04  0.24156010603E+04 0.  0.
        4    1    3    3  502    0 -0.12094182236E+03 -0.10474189415E+03 -0.11453918753E+04  0.11565128403E+04  0.12699999809E+01 0.  1.
       -4    1    3    3    0  502  0.12094182236E+03  0.10474189415E+03  0.12512168270E+04  0.12614051489E+04  0.12699999809E+01 0. -1.
</event>
<event>
 5   0  0.1154897E-05  0.2399959E+04  0.7818609E-02  0.8439519E-01
       -2   -1    0    0    0  501  0.00000000000E+00  0.00000000000E+00  0.67651499352E+03  0.67651499353E+03  0.25500000920E-02 0. -1.
        2   -1    0    0  501    0  0.00000000000E+00  0.00000000000E+00 -0.21284828487E+04  0.21284828487E+04  0.25500000920E-02 0.  1.
    10030    2    1    2    0    0  0.00000000000E+00  0.00000000000E+00 -0.14519678551E+04  0.28049978422E+04  0.23999588001E+04 0.  0.
        4    1    3    3  502    0  0.41497258980E+03  0.84723005816E+03  0.14075744905E+03  0.95384238431E+03  0.12699999809E+01 0. -1.
       -4    1    3    3    0  502 -0.41497258980E+03 -0.84723005816E+03 -0.15927253042E+04  0.18511554579E+04  0.12699999809E+01 0.  1.
</event>
<event>
 5   0  0.1154897E-05  0.2398396E+04  0.7818609E-02  0.8440104E-01
       -2   -1    0    0    0  501  0.00000000000E+00  0.00000000000E+00  0.98903996568E+03  0.98903996568E+03  0.25500000920E-02 0. -1.
        2   -1    0    0  501    0  0.00000000000E+00  0.00000000000E+00 -0.14540117836E+04  0.14540117836E+04  0.25500000920E-02 0.  1.
    10030    2    1    2    0    0  0.00000000000E+00  0.00000000000E+00 -0.46497181790E+03  0.24430517493E+04  0.23983959344E+04 0.  0.
        4    1    3    3  502    0 -0.62525341759E+03 -0.75626818361E+03 -0.93466157696E+03  0.13551668820E+04  0.12699999809E+01 0.  1.
       -4    1    3    3    0  502  0.62525341759E+03  0.75626818361E+03  0.46968975906E+03  0.10878848673E+04  0.12699999809E+01 0. -1.
</event>
<event>
 5   0  0.1198313E-05  0.2393153E+04  0.7818609E-02  0.8442072E-01
       -2   -1    0    0    0  501  0.00000000000E+00  0.00000000000E+00  0.84216963179E+03  0.84216963180E+03  0.25500000920E-02 0.  1.
        2   -1    0    0  501    0  0.00000000000E+00  0.00000000000E+00 -0.17001264126E+04  0.17001264126E+04  0.25500000920E-02 0. -1.
    10030    2    1    2    0    0  0.00000000000E+00  0.00000000000E+00 -0.85795678079E+03  0.25422960444E+04  0.23931525943E+04 0.  0.
        5    1    3    3  502    0  0.81835821450E+03  0.87088292452E+03 -0.36501370774E+03  0.12495616561E+04  0.46999998093E+01 0. -1.
       -5    1    3    3    0  502 -0.81835821450E+03 -0.87088292452E+03 -0.49294307306E+03  0.12927343883E+04  0.46999998093E+01 0.  1.
</event>
<event>
 5   0  0.1168435E-05  0.2388515E+04  0.7818609E-02  0.8443816E-01
       -2   -1    0    0    0  501  0.00000000000E+00  0.00000000000E+00  0.98712111778E+03  0.98712111778E+03  0.25500000920E-02 0.  1.
        2   -1    0    0  501    0  0.00000000000E+00  0.00000000000E+00 -0.14448587130E+04  0.14448587130E+04  0.25500000920E-02 0. -1.
    10030    2    1    2    0    0  0.00000000000E+00  0.00000000000E+00 -0.45773759520E+03  0.24319798308E+04  0.23885146412E+04 0.  0.
        1    1    3    3  502    0  0.11421350484E+04 -0.69396049894E+02  0.11935219579E+03  0.11504491415E+04  0.50400001928E-02 0.  1.
       -1    1    3    3    0  502 -0.11421350484E+04  0.69396049894E+02 -0.57708979099E+03  0.12815306892E+04  0.50400001928E-02 0. -1.
</event>
<event>
 5   0  0.5042742E-06  0.2396151E+04  0.7818609E-02  0.8440946E-01
        1   -1    0    0  501    0  0.00000000000E+00  0.00000000000E+00  0.75962844152E+03  0.75962844153E+03  0.50400001928E-02 0. -1.
       -1   -1    0    0    0  501  0.00000000000E+00  0.00000000000E+00 -0.18895886247E+04  0.18895886248E+04  0.50400001928E-02 0.  1.
    10030    2    1    2    0    0  0.00000000000E+00  0.00000000000E+00 -0.11299601832E+04  0.26492170663E+04  0.23961512992E+04 0.  0.
        5    1    3    3  502    0  0.45435898849E+03  0.83008700490E+03  0.24738373685E+03  0.97811416991E+03  0.46999998093E+01 0. -1.
       -5    1    3    3    0  502 -0.45435898849E+03 -0.83008700490E+03 -0.13773439201E+04  0.16711028964E+04  0.46999998093E+01 0.  1.
</event>
<event>
 5   0  0.1198313E-05  0.2410506E+04  0.7818609E-02  0.8435581E-01
       -2   -1    0    0    0  501  0.00000000000E+00  0.00000000000E+00  0.10205650055E+04  0.10205650055E+04  0.25500000920E-02 0. -1.
        2   -1    0    0  501    0  0.00000000000E+00  0.00000000000E+00 -0.14233635042E+04  0.14233635042E+04  0.25500000920E-02 0.  1.
    10030    2    1    2    0    0  0.00000000000E+00  0.00000000000E+00 -0.40279849871E+03  0.24439285096E+04  0.24105061563E+04 0.  0.
        5    1    3    3  502    0  0.44817405294E+02  0.10215754219E+04  0.44540226517E+03  0.11153610224E+04  0.46999998093E+01 0. -1.
       -5    1    3    3    0  502 -0.44817405294E+02 -0.10215754219E+04 -0.84820076388E+03  0.13285674873E+04  0.46999998093E+01 0.  1.
</event>
<event>
 5   0  0.5064437E-06  0.2405711E+04  0.7818609E-02  0.8437368E-01
        1   -1    0    0  501    0  0.00000000000E+00  0.00000000000E+00  0.87005622838E+03  0.87005622840E+03  0.50400001928E-02 0. -1.
       -1   -1    0    0    0  501  0.00000000000E+00  0.00000000000E+00 -0.16629519196E+04  0.16629519197E+04  0.50400001928E-02 0.  1.
    10030    2    1    2    0    0  0.00000000000E+00  0.00000000000E+00 -0.79289569126E+03  0.25330081480E+04  0.24057112671E+04 0.  0.
        2    1    3    3  502    0 -0.44842064766E+03 -0.38860966931E+03 -0.14981220092E+04  0.16113559838E+04  0.25500000920E-02 0.  1.
       -2    1    3    3    0  502  0.44842064766E+03  0.38860966931E+03  0.70522631790E+03  0.92165216421E+03  0.25500000920E-02 0. -1.
</event>
<event>
 5   0  0.1198313E-05  0.2404771E+04  0.7818609E-02  0.8437720E-01
       -2   -1    0    0    0  501  0.00000000000E+00  0.00000000000E+00  0.59652982977E+03  0.59652982978E+03  0.25500000920E-02 0.  1.
        2   -1    0    0  501    0  0.00000000000E+00  0.00000000000E+00 -0.24235681872E+04  0.24235681872E+04  0.25500000920E-02 0. -1.
    10030    2    1    2    0    0  0.00000000000E+00  0.00000000000E+00 -0.18270383574E+04  0.30200980170E+04  0.24047708566E+04 0.  0.
        5    1    3    3  502    0 -0.54626175368E+03 -0.59180928102E+03 -0.20347503450E+04  0.21883489632E+04  0.46999998093E+01 0. -1.
       -5    1    3    3    0  502  0.54626175368E+03  0.59180928102E+03  0.20771198752E+03  0.83174905374E+03  0.46999998093E+01 0.  1.
</event>
<event>
 5   0  0.5104174E-06  0.2420485E+04  0.7818609E-02  0.8431874E-01
        1   -1    0    0  501    0  0.00000000000E+00  0.00000000000E+00  0.98829953646E+03  0.98829953648E+03  0.50400001928E-02 0.  1.
       -1   -1    0    0    0  501  0.00000000000E+00  0.00000000000E+00 -0.14820268386E+04  0.14820268386E+04  0.50400001928E-02 0. -1.
    10030    2    1    2    0    0  0.00000000000E+00  0.00000000000E+00 -0.49372730210E+03  0.24703263750E+04  0.24204846107E+04 0.  0.
        3    1    3    3  502    0 -0.73504710470E+03 -0.82920586296E+02 -0.12244585287E+04  0.14305484153E+04  0.10100000352E+00 0. -1.
       -3    1    3    3    0  502  0.73504710470E+03  0.82920586296E+02  0.73073122664E+03  0.10397779597E+04  0.10100000352E+00 0.  1.
</event>
<event>
 5   0  0.5034479E-06  0.2391804E+04  0.7818609E-02  0.8442578E-01
       -1   -1    0    0    0  501  0.00000000000E+00  0.00000000000E+00  0.70937914929E+03  0.70937914931E+03  0.50400001928E-02 0.  1.
        1   -1    0    0  501    0  0.00000000000E+00  0.00000000000E+00 -0.20161028402E+04  0.20161028402E+04  0.50400001928E-02 0. -1.
    10030    2    1    2    0    0  0.00000000000E+00  0.00000000000E+00 -0.13067236909E+04  0.27254819895E+04  0.23918037693E+04 0.  0.
        4    1    3    3  502    0 -0.88722792318E+03  0.48661688875E+03 -0.13796237216E+04  0.17109449466E+04  0.12699999809E+01 0. -1.
       -4    1    3    3    0  502  0.88722792318E+03 -0.48661688875E+03  0.72900030722E+02  0.10145370429E+04  0.12699999809E+01 0.  1.
</event>
<event>
 5   0  0.5104174E-06  0.2404058E+04  0.7818609E-02  0.8437986E-01
        1   -1    0    0  501    0  0.00000000000E+00  0.00000000000E+00  0.17502472285E+04  0.17502472285E+04  0.50400001928E-02 0. -1.
       -1   -1    0    0    0  501  0.00000000000E+00  0.00000000000E+00 -0.82552559008E+03  0.82552559009E+03  0.50400001928E-02 0.  1.
    10030    2    1    2    0    0  0.00000000000E+00  0.00000000000E+00  0.92472163841E+03  0.25757728186E+04  0.24040581325E+04 0.  0.
        3    1    3    3  502    0  0.39292479000E+03 -0.90789140210E+03 -0.26921059296E+03  0.10252468201E+04  0.10100000352E+00 0.  1.
       -3    1    3    3    0  502 -0.39292479000E+03  0.90789140210E+03  0.11939322314E+04  0.15505259985E+04  0.10100000352E+00 0. -1.
</event>
<event>
 5   0  0.5104174E-06  0.2397761E+04  0.7818609E-02  0.8440342E-01
        1   -1    0    0  501    0  0.00000000000E+00  0.00000000000E+00  0.23300033489E+04  0.23300033489E+04  0.50400001928E-02 0.  1.
       -1   -1    0    0    0  501  0.00000000000E+00  0.00000000000E+00 -0.61687245745E+03  0.61687245747E+03  0.50400001928E-02 0. -1.
    10030    2    1    2    0    0  0.00000000000E+00  0.00000000000E+00  0.17131308914E+04  0.29468758064E+04  0.23977613657E+04 0.  0.
        3    1    3    3  502    0 -0.62945910665E+03 -0.93299450009E+03  0.34891180406E+03  0.11783195498E+04  0.10100000352E+00 0. -1.
       -3    1    3    3    0  502  0.62945910665E+03  0.93299450009E+03  0.13642190874E+04  0.17685562566E+04  0.10100000352E+00 0.  1.
</event>
<event>
 5   0  0.1169371E-05  0.2399915E+04  0.7818609E-02  0.8439535E-01
        2   -1    0    0  501    0  0.00000000000E+00  0.00000000000E+00  0.14577849901E+04  0.14577849901E+04  0.25500000920E-02 0.  1.
       -2   -1    0    0    0  501  0.00000000000E+00  0.00000000000E+00 -0.98773034424E+03  0.98773034424E+03  0.25500000920E-02 0. -1.
    10030    2    1    2    0    0  0.00000000000E+00  0.00000000000E+00  0.47005464586E+03  0.24455153343E+04  0.23999153903E+04 0.  0.
        2    1    3    3  502    0 -0.95619154259E+03 -0.70053872163E+03  0.44821350430E+02  0.11861980105E+04  0.25500000920E-02 0.  1.
       -2    1    3    3    0  502  0.95619154259E+03  0.70053872163E+03  0.42523329543E+03  0.12593173239E+04  0.25500000920E-02 0. -1.
</event>
<event>
 5   0  0.5042742E-06  0.2404281E+04  0.7818609E-02  0.8437903E-01
        1   -1    0    0  501    0  0.00000000000E+00  0.00000000000E+00  0.21206086099E+04  0.21206086099E+04  0.50400001928E-02 0. -1.
       -1   -1    0    0    0  501  0.00000000000E+00  0.00000000000E+00 -0.68147502923E+03  0.68147502925E+03  0.50400001928E-02 0.  1.
    10030    2    1    2    0    0  0.00000000000E+00  0.00000000000E+00  0.14391335806E+04  0.28020836391E+04  0.24042810272E+04 0.  0.
        5    1    3    3  502    0  0.12615311029E+03 -0.26748515558E+03  0.20775389489E+04  0.20984882868E+04  0.46999998093E+01 0. -1.
       -5    1    3    3    0  502 -0.12615311029E+03  0.26748515558E+03 -0.63840536822E+03  0.70359535235E+03  0.46999998093E+01 0.  1.
</event>
<event>
 5   0  0.5064437E-06  0.2402325E+04  0.7818609E-02  0.8438634E-01
       -1   -1    0    0    0  501  0.00000000000E+00  0.00000000000E+00  0.89465398611E+03  0.89465398613E+03  0.50400001928E-02 0.  1.
        1   -1    0    0  501    0  0.00000000000E+00  0.00000000000E+00 -0.16126807826E+04  0.16126807826E+04  0.50400001928E-02 0. -1.
    10030    2    1    2    0    0  0.00000000000E+00  0.00000000000E+00 -0.71802679645E+03  0.25073347687E+04  0.24023249493E+04 0.  0.
        2    1    3    3  502    0  0.75923170314E+03 -0.86178961276E+03 -0.72606350032E+03  0.13587797181E+04  0.25500000920E-02 0. -1.
       -2    1    3    3    0  502 -0.75923170314E+03  0.86178961276E+03  0.80367038695E+01  0.11485550506E+04  0.25500000920E-02 0.  1.
</event>
<event>
 5   0  0.5104174E-06  0.2388323E+04  0.7818609E-02  0.8443888E-01
       -1   -1    0    0    0  501  0.00000000000E+00  0.00000000000E+00  0.13748989278E+04  0.13748989278E+04  0.50400001928E-02 0. -1.
        1   -1    0    0  501    0  0.00000000000E+00  0.00000000000E+00 -0.10371828003E+04  0.10371828003E+04  0.50400001928E-02 0.  1.
    10030    2    1    2    0    0  0.00000000000E+00  0.00000000000E+00  0.33771612750E+03  0.24120817282E+04  0.23883228594E+04 0.  0.
        3    1    3    3  502    0 -0.84476652152E+03  0.82406759933E+03 -0.15450172159E+02  0.11802358248E+04  0.10100000352E+00 0. -1.
       -3    1    3    3    0  502  0.84476652152E+03 -0.82406759933E+03  0.35316629966E+03  0.12318459033E+04  0.10100000352E+00 0.  1.
</event>
<event>
 5   0  0.1168435E-05  0.2399675E+04  0.7818609E-02  0.8439625E-01
        2   -1    0    0  501    0  0.00000000000E+00  0.00000000000E+00  0.13108591838E+04  0.13108591838E+04  0.25500000920E-02 0.  1.
       -2   -1    0    0    0  501  0.00000000000E+00  0.00000000000E+00 -0.10982187969E+04  0.10982187969E+04  0.25500000920E-02 0. -1.
    10030    2    1    2    0    0  0.00000000000E+00  0.00000000000E+00  0.21264038694E+03  0.24090779807E+04  0.23996751411E+04 0.  0.
        1    1    3    3  502    0 -0.31866483382E+03  0.20064647243E+03  0.12499960291E+04  0.13054870187E+04  0.50400001928E-02 0.  1.
       -1    1    3    3    0  502  0.31866483382E+03 -0.20064647243E+03 -0.10373556421E+04  0.11035909620E+04  0.50400001928E-02 0. -1.
</event>
<event>
 5   0  0.1169371E-05  0.2309888E+04  0.7818609E-02  0.8474033E-01
        2   -1    0    0  501    0  0.00000000000E+00  0.00000000000E+00  0.16104111017E+04  0.16104111017E+04  0.25500000920E-02 0.  1.
       -2   -1    0    0    0  501  0.00000000000E+00  0.00000000000E+00 -0.82829522384E+03  0.82829522385E+03  0.25500000920E-02 0. -1.
    10030    2    1    2    0    0  0.00000000000E+00  0.00000000000E+00  0.78211587784E+03  0.24387063255E+04  0.23098881566E+04 0.  0.
        2    1    3    3  502    0  0.78456050987E+03  0.84634774840E+03  0.34318471410E+03  0.12039997728E+04  0.25500000920E-02 0. -1.
       -2    1    3    3    0  502 -0.78456050987E+03 -0.84634774840E+03  0.43893116373E+03  0.12347065527E+04  0.25500000920E-02 0.  1.
</event>
<event>
 5   0  0.5104174E-06  0.2403898E+04  0.7818609E-02  0.8438046E-01
       -1   -1    0    0    0  501  0.00000000000E+00  0.00000000000E+00  0.11656929101E+04  0.11656929101E+04  0.50400001928E-02 0. -1.
        1   -1    0    0  501    0  0.00000000000E+00  0.00000000000E+00 -0.12393322513E+04  0.12393322513E+04  0.50400001928E-02 0.  1.
    10030    2    1    2    0    0  0.00000000000E+00  0.00000000000E+00 -0.73639341136E+02  0.24050251614E+04  0.24038975175E+04 0.  0.
        3    1    3    3  502    0  0.59609295861E+03 -0.95693827303E+02 -0.10766323176E+04  0.12343505504E+04  0.10100000352E+00 0.  1.
       -3    1    3    3    0  502 -0.59609295861E+03  0.95693827303E+02  0.10029929764E+04  0.11706746110E+04  0.10100000352E+00 0. -1.
</event>
<event>
 5   0  0.1168435E-05  0.2392871E+04  0.7818609E-02  0.8442177E-01
        2   -1    0    0  501    0  0.00000000000E+00  0.00000000000E+00  0.18689140318E+04  0.18689140318E+04  0.25500000920E-02 0.  1.
       -2   -1    0    0    0  501  0.00000000000E+00  0.00000000000E+00 -0.76593053457E+03  0.76593053458E+03  0.25500000920E-02 0. -1.
    10030    2    1    2    0    0  0.00000000000E+00  0.00000000000E+00  0.11029834973E+04  0.26348445664E+04  0.23928713492E+04 0.  0.
        1    1    3    3  502    0 -0.39688165502E+03  0.11126458533E+04  0.34267733645E+03  0.12300095935E+04  0.50400001928E-02 0.  1.
       -1    1    3    3    0  502  0.39688165502E+03 -0.11126458533E+04  0.76030616080E+03  0.14048349729E+04  0.50400001928E-02 0. -1.
</event>
<event>
 5   0  0.5196696E-06  0.2404013E+04  0.7818609E-02  0.8438003E-01
        1   -1    0    0  501    0  0.00000000000E+00  0.00000000000E+00  0.86246854679E+03  0.86246854680E+03  0.50400001928E-02 0. -1.
       -1   -1    0    0    0  501  0.00000000000E+00  0.00000000000E+00 -0.16752146389E+04  0.16752146389E+04  0.50400001928E-02 0.  1.
    10030    2    1    2    0    0  0.00000000000E+00  0.00000000000E+00 -0.81274609215E+03  0.25376831857E+04  0.24040132572E+04 0.  0.
        1    1    3    3  502    0 -0.33716785735E+03 -0.33764943599E+03  0.75820645045E+03  0.89586066282E+03  0.50400001928E-02 0. -1.
       -1    1    3    3    0  502  0.33716785735E+03  0.33764943599E+03 -0.15709525426E+04  0.16418225229E+04  0.50400001928E-02 0.  1.
</event>
<event>
 5   0  0.5104174E-06  0.2402499E+04  0.7818609E-02  0.8438569E-01
       -1   -1    0    0    0  501  0.00000000000E+00  0.00000000000E+00  0.11769107899E+04  0.11769107899E+04  0.50400001928E-02 0. -1.
        1   -1    0    0  501    0  0.00000000000E+00  0.00000000000E+00 -0.12260913886E+04  0.12260913886E+04  0.50400001928E-02 0.  1.
    10030    2    1    2    0    0  0.00000000000E+00  0.00000000000E+00 -0.49180598728E+02  0.24030021785E+04  0.24024988530E+04 0.  0.
        3    1    3    3  502    0  0.52774133319E+03 -0.76458644227E+03 -0.78625941071E+03  0.12170896490E+04  0.10100000352E+00 0.  1.
       -3    1    3    3    0  502 -0.52774133319E+03  0.76458644227E+03  0.73707881198E+03  0.11859125295E+04  0.10100000352E+00 0. -1.
</event>
<event>
 5   0  0.1154897E-05  0.2395231E+04  0.7818609E-02  0.8441291E-01
        2   -1    0    0  501    0  0.00000000000E+00  0.00000000000E+00  0.24979017936E+04  0.24979017936E+04  0.25500000920E-02 0.  1.
       -2   -1    0    0    0  501  0.00000000000E+00  0.00000000000E+00 -0.57419518900E+03  0.57419518900E+03  0.25500000920E-02 0. -1.
    10030    2    1    2    0    0  0.00000000000E+00  0.00000000000E+00  0.19237066046E+04  0.30720969826E+04  0.23952312561E+04 0.  0.
        4    1    3    3  502    0  0.10840737740E+04 -0.10793016064E+03  0.15998258446E+04  0.19355384814E+04  0.12699999809E+01 0.  1.
       -4    1    3    3    0  502 -0.10840737740E+04  0.10793016064E+03  0.32388076004E+03  0.11365585012E+04  0.12699999809E+01 0. -1.
</event>
<event>
 5   0  0.1198313E-05  0.2395509E+04  0.7818609E-02  0.8441187E-01
        2   -1    0    0  501    0  0.00000000000E+00  0.00000000000E+00  0.20780084601E+04  0.20780084601E+04  0.25500000920E-02 0. -1.
       -2   -1    0    0    0  501  0.00000000000E+00  0.00000000000E+00 -0.69038005279E+03  0.69038005279E+03  0.25500000920E-02 0.  1.
    10030    2    1    2    0    0  0.00000000000E+00  0.00000000000E+00  0.13876284073E+04  0.27683885129E+04  0.23955087897E+04 0.  0.
        5    1    3    3  502    0 -0.37862934849E+03  0.18722962420E+03  0.19890681610E+04  0.20334279812E+04  0.46999998093E+01 0. -1.
       -5    1    3    3    0  502  0.37862934849E+03 -0.18722962420E+03 -0.60143975372E+03  0.73496053164E+03  0.46999998093E+01 0.  1.
</event>
<event>
 5   0  0.1168435E-05  0.2399650E+04  0.7818609E-02  0.8439634E-01
       -2   -1    0    0    0  501  0.00000000000E+00  0.00000000000E+00  0.88698494974E+03  0.88698494974E+03  0.25500000920E-02 0. -1.
        2   -1    0    0  501    0  0.00000000000E+00  0.00000000000E+00 -0.16230045720E+04  0.16230045720E+04  0.25500000920E-02 0.  1.
    10030    2    1    2    0    0  0.00000000000E+00  0.00000000000E+00 -0.73601962228E+03  0.25099895218E+04  0.23996504985E+04 0.  0.
        1    1    3    3  502    0 -0.46094014046E+03 -0.53404674956E+03 -0.13831554719E+04  0.15526721493E+04  0.50400001928E-02 0.  1.
       -1    1    3    3    0  502  0.46094014046E+03  0.53404674956E+03  0.64713584958E+03  0.95731737247E+03  0.50400001928E-02 0. -1.
</event>
<event>
 5   0  0.1198313E-05  0.2366637E+04  0.7818609E-02  0.8452101E-01
        2   -1    0    0  501    0  0.00000000000E+00  0.00000000000E+00  0.12133690674E+04  0.12133690674E+04  0.25500000920E-02 0. -1.
       -2   -1    0    0    0  501  0.00000000000E+00  0.00000000000E+00 -0.11540123304E+04  0.11540123304E+04  0.25500000920E-02 0.  1.
    10030    2    1    2    0    0  0.00000000000E+00  0.00000000000E+00  0.59356737038E+02  0.23673813978E+04  0.23666371628E+04 0.  0.
        5    1    3    3  502    0  0.64248964181E+03  0.75700722475E+01  0.10236560456E+04  0.12086124422E+04  0.46999998093E+01 0. -1.
       -5    1    3    3    0  502 -0.64248964181E+03 -0.75700722475E+01 -0.96429930856E+03  0.11587689555E+04  0.46999998093E+01 0.  1.
</event>
<event>
 5   0  0.1154897E-05  0.2401697E+04  0.7818609E-02  0.8438869E-01
       -2   -1    0    0    0  501  0.00000000000E+00  0.00000000000E+00  0.94051020368E+03  0.94051020368E+03  0.25500000920E-02 0.  1.
        2   -1    0    0  501    0  0.00000000000E+00  0.00000000000E+00 -0.15332498105E+04  0.15332498105E+04  0.25500000920E-02 0. -1.
    10030    2    1    2    0    0  0.00000000000E+00  0.00000000000E+00 -0.59273960681E+03  0.24737600142E+04  0.24016969764E+04 0.  0.
        4    1    3    3  502    0  0.77872573507E+02  0.66355625247E+03  0.73139999723E+03  0.99061526676E+03  0.12699999809E+01 0.  1.
       -4    1    3    3    0  502 -0.77872573507E+02 -0.66355625247E+03 -0.13241396040E+04  0.14831447474E+04  0.12699999809E+01 0. -1.
</event>
<event>
 5   0  0.5104174E-06  0.2398747E+04  0.7818609E-02  0.8439973E-01
        1   -1    0    0  501    0  0.00000000000E+00  0.00000000000E+00  0.11528192818E+04  0.11528192818E+04  0.50400001928E-02 0. -1.
       -1   -1    0    0    0  501  0.00000000000E+00  0.00000000000E+00 -0.12478081446E+04  0.12478081446E+04  0.50400001928E-02 0.  1.
    10030    2    1    2    0    0  0.00000000000E+00  0.00000000000E+00 -0.94988862798E+02  0.24006274264E+04  0.23987474141E+04 0.  0.
        3    1    3    3  502    0  0.57041153028E+03  0.27105450832E+03 -0.10679294931E+04  0.12406906434E+04  0.10100000352E+00 0.  1.
       -3    1    3    3    0  502 -0.57041153028E+03 -0.27105450832E+03  0.97294063026E+03  0.11599367830E+04  0.10100000352E+00 0. -1.
</event>
<event>
 5   0  0.5104174E-06  0.2321198E+04  0.7818609E-02  0.8469610E-01
        1   -1    0    0  501    0  0.00000000000E+00  0.00000000000E+00  0.12955227998E+04  0.12955227998E+04  0.50400001928E-02 0. -1.
       -1   -1    0    0    0  501  0.00000000000E+00  0.00000000000E+00 -0.10397270771E+04  0.10397270771E+04  0.50400001928E-02 0.  1.
    10030    2    1    2    0    0  0.00000000000E+00  0.00000000000E+00  0.25579572267E+03  0.23352498769E+04  0.23211980820E+04 0.  0.
        3    1    3    3  502    0  0.11223919783E+04 -0.13163409574E+02  0.42473160121E+03  0.12001391468E+04  0.10100000352E+00 0.  1.
       -3    1    3    3    0  502 -0.11223919783E+04  0.13163409574E+02 -0.16893587853E+03  0.11351107301E+04  0.10100000352E+00 0. -1.
</event>
<event>
 5   0  0.1174210E-05  0.2402003E+04  0.7818609E-02  0.8438754E-01
        2   -1    0    0  501    0  0.00000000000E+00  0.00000000000E+00  0.75933972434E+03  0.75933972435E+03  0.25500000920E-02 0.  1.
       -2   -1    0    0    0  501  0.00000000000E+00  0.00000000000E+00 -0.18995517303E+04  0.18995517303E+04  0.25500000920E-02 0. -1.
    10030    2    1    2    0    0  0.00000000000E+00  0.00000000000E+00 -0.11402120059E+04  0.26588914546E+04  0.24020034032E+04 0.  0.
        3    1    3    3  502    0  0.66703699534E+01 -0.30729365740E+03 -0.18552768086E+04  0.18805653225E+04  0.10100000352E+00 0. -1.
       -3    1    3    3    0  502 -0.66703699534E+01  0.30729365740E+03  0.71506480264E+03  0.77832613208E+03  0.10100000352E+00 0.  1.
</event>
<event>
 5   0  0.1154897E-05  0.2396497E+04  0.7818609E-02  0.8440816E-01
       -2   -1    0    0    0  501  0.00000000000E+00  0.00000000000E+00  0.83330851826E+03  0.83330851827E+03  0.25500000920E-02 0.  1.
        2   -1    0    0  501    0  0.00000000000E+00  0.00000000000E+00 -0.17230112113E+04  0.17230112113E+04  0.25500000920E-02 0. -1.
    10030    2    1    2    0    0  0.00000000000E+00  0.00000000000E+00 -0.88970269300E+03  0.25563197295E+04  0.23964973769E+04 0.  0.
        4    1    3    3  502    0 -0.57738112537E+03  0.42088385574E+02 -0.15639397451E+04  0.16676479051E+04  0.12699999809E+01 0. -1.
       -4    1    3    3    0  502  0.57738112537E+03 -0.42088385574E+02  0.67423705214E+03  0.88867182442E+03  0.12699999809E+01 0.  1.
</event>
<event>
 5   0  0.5064437E-06  0.2400698E+04  0.7818609E-02  0.8439242E-01
       -1   -1    0    0    0  501  0.00000000000E+00  0.00000000000E+00  0.84537826859E+03  0.84537826861E+03  0.50400001928E-02 0. -1.
        1   -1    0    0  501    0  0.00000000000E+00  0.00000000000E+00 -0.17043710716E+04  0.17043710716E+04  0.50400001928E-02 0.  1.
    10030    2    1    2    0    0  0.00000000000E+00  0.00000000000E+00 -0.85899280297E+03  0.25497493402E+04  0.24006984530E+04 0.  0.
        2    1    3    3  502    0 -0.73488795674E+03  0.94903134472E+03 -0.41798545666E+03  0.12709967129E+04  0.25500000920E-02 0. -1.
       -2    1    3    3    0  502  0.73488795674E+03 -0.94903134472E+03 -0.44100734631E+03  0.12787526273E+04  0.25500000920E-02 0.  1.
</event>
<event>
 5   0  0.5196696E-06  0.2419329E+04  0.7818609E-02  0.8432302E-01
        1   -1    0    0  501    0  0.00000000000E+00  0.00000000000E+00  0.17065747750E+04  0.17065747750E+04  0.50400001928E-02 0.  1.
       -1   -1    0    0    0  501  0.00000000000E+00  0.00000000000E+00 -0.85744145077E+03  0.85744145078E+03  0.50400001928E-02 0. -1.
    10030    2    1    2    0    0  0.00000000000E+00  0.00000000000E+00  0.84913332422E+03  0.25640162258E+04  0.24193287920E+04 0.  0.
        1    1    3    3  502    0 -0.10954922409E+04  0.18949495840E+03  0.92981280826E+03  0.14493320695E+04  0.50400001928E-02 0.  1.
       -1    1    3    3    0  502  0.10954922409E+04 -0.18949495840E+03 -0.80679484033E+02  0.11146841563E+04  0.50400001928E-02 0. -1.
</event>
<event>
 5   0  0.5064437E-06  0.2394369E+04  0.7818609E-02  0.8441615E-01
        1   -1    0    0  501    0  0.00000000000E+00  0.00000000000E+00  0.11217604993E+04  0.11217604993E+04  0.50400001928E-02 0.  1.
       -1   -1    0    0    0  501  0.00000000000E+00  0.00000000000E+00 -0.12776793039E+04  0.12776793039E+04  0.50400001928E-02 0. -1.
    10030    2    1    2    0    0  0.00000000000E+00  0.00000000000E+00 -0.15591880458E+03  0.23994398032E+04  0.23943685379E+04 0.  0.
        2    1    3    3  502    0 -0.11512596823E+04  0.19688858887E+03  0.18543983824E+03  0.11826038670E+04  0.25500000920E-02 0.  1.
       -2    1    3    3    0  502  0.11512596823E+04 -0.19688858887E+03 -0.34135864281E+03  0.12168359362E+04  0.25500000920E-02 0. -1.
</event>
<event>
 5   0  0.1154897E-05  0.2400996E+04  0.7818609E-02  0.8439131E-01
        2   -1    0    0  501    0  0.00000000000E+00  0.00000000000E+00  0.13201054713E+04  0.13201054713E+04  0.25500000920E-02 0. -1.
       -2   -1    0    0    0  501  0.00000000000E+00  0.00000000000E+00 -0.10917271229E+04  0.10917271229E+04  0.25500000920E-02 0.  1.
    10030    2    1    2    0    0  0.00000000000E+00  0.00000000000E+00  0.22837834844E+03  0.24118325942E+04  0.24009955836E+04 0.  0.
        4    1    3    3  502    0  0.66980262020E+03 -0.95221293928E+03  0.40851044993E+03  0.12337858130E+04  0.12699999809E+01 0. -1.
       -4    1    3    3    0  502 -0.66980262020E+03  0.95221293928E+03 -0.18013210149E+03  0.11780467812E+04  0.12699999809E+01 0.  1.
</event>
<event>
 5   0  0.1154897E-05  0.2401284E+04  0.7818609E-02  0.8439023E-01
        2   -1    0    0  501    0  0.00000000000E+00  0.00000000000E+00  0.92730581363E+03  0.92730581364E+03  0.25500000920E-02 0.  1.
       -2   -1    0    0    0  501  0.00000000000E+00  0.00000000000E+00 -0.15545472547E+04  0.15545472547E+04  0.25500000920E-02 0. -1.
    10030    2    1    2    0    0  0.00000000000E+00  0.00000000000E+00 -0.62724144109E+03  0.24818530684E+04  0.24012835792E+04 0.  0.
        4    1    3    3  502    0  0.41223178147E+03 -0.59875257593E+03 -0.13012447444E+04  0.14905298342E+04  0.12699999809E+01 0. -1.
       -4    1    3    3    0  502 -0.41223178147E+03  0.59875257593E+03  0.67400330332E+03  0.99132323418E+03  0.12699999809E+01 0.  1.
</event>
<event>
 5   0  0.1198313E-05  0.2444072E+04  0.7818609E-02  0.8423185E-01
        2   -1    0    0  501    0  0.00000000000E+00  0.00000000000E+00  0.10157218046E+04  0.10157218046E+04  0.25500000920E-02 0.  1.
       -2   -1    0    0    0  501  0.00000000000E+00  0.00000000000E+00 -0.14702573410E+04  0.14702573410E+04  0.25500000920E-02 0. -1.
    10030    2    1    2    0    0  0.00000000000E+00  0.00000000000E+00 -0.45453553640E+03  0.24859791455E+04  0.24440723717E+04 0.  0.
        5    1    3    3  502    0 -0.10089916423E+03 -0.12177676568E+04 -0.21247039976E+03  0.12402840272E+04  0.46999998093E+01 0.  1.
       -5    1    3    3    0  502  0.10089916423E+03  0.12177676568E+04 -0.24206513664E+03  0.12456951183E+04  0.46999998093E+01 0. -1.
</event>
<event>
 5   0  0.5104174E-06  0.2402340E+04  0.7818609E-02  0.8438628E-01
        1   -1    0    0  501    0  0.00000000000E+00  0.00000000000E+00  0.82546785847E+03  0.82546785849E+03  0.50400001928E-02 0. -1.
       -1   -1    0    0    0  501  0.00000000000E+00  0.00000000000E+00 -0.17478681343E+04  0.17478681343E+04  0.50400001928E-02 0.  1.
    10030    2    1    2    0    0  0.00000000000E+00  0.00000000000E+00 -0.92240027587E+03  0.25733359928E+04  0.24023396644E+04 0.  0.
        3    1    3    3  502    0  0.16626184245E+03 -0.91166345415E+03 -0.12798190631E+04  0.15800981293E+04  0.10100000352E+00 0.  1.
       -3    1    3    3    0  502 -0.16626184245E+03  0.91166345415E+03  0.35741878719E+03  0.99323786352E+03  0.10100000352E+00 0. -1.
</event>
<event>
 5   0  0.5064437E-06  0.2396236E+04  0.7818609E-02  0.8440914E-01
        1   -1    0    0  501    0  0.00000000000E+00  0.00000000000E+00  0.16382356936E+04  0.16382356936E+04  0.50400001928E-02 0.  1.
       -1   -1    0    0    0  501  0.00000000000E+00  0.00000000000E+00 -0.87623947736E+03  0.87623947737E+03  0.50400001928E-02 0. -1.
    10030    2    1    2    0    0  0.00000000000E+00  0.00000000000E+00  0.76199621623E+03  0.25144751710E+04  0.23962360384E+04 0.  0.
        2    1    3    3  502    0  0.84226951350E+03  0.66660730765E+03  0.93794517047E+03  0.14260169630E+04  0.25500000920E-02 0.  1.
       -2    1    3    3    0  502 -0.84226951350E+03 -0.66660730765E+03 -0.17594895424E+03  0.10884582080E+04  0.25500000920E-02 0. -1.
</event>
<event>
 5   0  0.1168435E-05  0.2396341E+04  0.7818609E-02  0.8440875E-01
        2   -1    0    0  501    0  0.00000000000E+00  0.00000000000E+00  0.17845142482E+04  0.17845142482E+04  0.25500000920E-02 0. -1.
       -2   -1    0    0    0  501  0.00000000000E+00  0.00000000000E+00 -0.80448352742E+03  0.80448352743E+03  0.25500000920E-02 0.  1.
    10030    2    1    2    0    0  0.00000000000E+00  0.00000000000E+00  0.98003072081E+03  0.25889977757E+04  0.23963408081E+04 0.  0.
        1    1    3    3  502    0  0.11823236930E+04  0.58882513943E+02  0.29005197585E+03  0.12188054045E+04  0.50400001928E-02 0.  1.
       -1    1    3    3    0  502 -0.11823236930E+04 -0.58882513943E+02  0.68997874497E+03  0.13701923711E+04  0.50400001928E-02 0. -1.
</event>
<event>
 5   0  0.5034479E-06  0.2396812E+04  0.7818609E-02  0.8440698E-01
       -1   -1    0    0    0  501  0.00000000000E+00  0.00000000000E+00  0.10326452167E+04  0.10326452167E+04  0.50400001928E-02 0.  1.
        1   -1    0    0  501    0  0.00000000000E+00  0.00000000000E+00 -0.13907744021E+04  0.13907744021E+04  0.50400001928E-02 0. -1.
    10030    2    1    2    0    0  0.00000000000E+00  0.00000000000E+00 -0.35812918538E+03  0.24234196188E+04  0.23968116604E+04 0.  0.
        4    1    3    3  502    0  0.56510548722E+02  0.48267840624E+03 -0.12866720798E+04  0.13753903227E+04  0.12699999809E+01 0. -1.
       -4    1    3    3    0  502 -0.56510548722E+02 -0.48267840624E+03  0.92854289439E+03  0.10480292961E+04  0.12699999809E+01 0.  1.
</event>
<event>
 5   0  0.1154897E-05  0.2336069E+04  0.7818609E-02  0.8463834E-01
       -2   -1    0    0    0  501  0.00000000000E+00  0.00000000000E+00  0.78455231762E+03  0.78455231763E+03  0.25500000920E-02 0.  1.
        2   -1    0    0  501    0  0.00000000000E+00  0.00000000000E+00 -0.17389596876E+04  0.17389596876E+04  0.25500000920E-02 0. -1.
    10030    2    1    2    0    0  0.00000000000E+00  0.00000000000E+00 -0.95440736996E+03  0.25235120052E+04  0.23360692226E+04 0.  0.
        4    1    3    3  502    0 -0.26103895966E+03 -0.65325321916E+03  0.53004106764E+03  0.88080999828E+03  0.12699999809E+01 0.  1.
       -4    1    3    3    0  502  0.26103895966E+03  0.65325321916E+03 -0.14844484376E+04  0.16427020069E+04  0.12699999809E+01 0. -1.
</event>
<event>
 5   0  0.1169371E-05  0.2401845E+04  0.7818609E-02  0.8438813E-01
       -2   -1    0    0    0  501  0.00000000000E+00  0.00000000000E+00  0.96712590849E+03  0.96712590849E+03  0.25500000920E-02 0.  1.
        2   -1    0    0  501    0  0.00000000000E+00  0.00000000000E+00 -0.14912373496E+04  0.14912373496E+04  0.25500000920E-02 0. -1.
    10030    2    1    2    0    0  0.00000000000E+00  0.00000000000E+00 -0.52411144110E+03  0.24583632581E+04  0.24018445216E+04 0.  0.
        2    1    3    3  502    0 -0.27802312730E+02  0.83464619071E+03  0.62127442793E+03  0.10408598114E+04  0.25500000920E-02 0.  1.
       -2    1    3    3    0  502  0.27802312730E+02 -0.83464619071E+03 -0.11453858690E+04  0.14175034466E+04  0.25500000920E-02 0. -1.
</event>
<event>
 5   0  0.5034479E-06  0.2390751E+04  0.7818609E-02  0.8442975E-01
        1   -1    0    0  501    0  0.00000000000E+00  0.00000000000E+00  0.15840284823E+04  0.15840284823E+04  0.50400001928E-02 0.  1.
       -1   -1    0    0    0  501  0.00000000000E+00  0.00000000000E+00 -0.90208107429E+03  0.90208107430E+03  0.50400001928E-02 0. -1.
    10030    2    1    2    0    0  0.00000000000E+00  0.00000000000E+00  0.68194740804E+03  0.24861095566E+04  0.23907506060E+04 0.  0.
        4    1    3    3  502    0  0.48257879715E+03 -0.25574913859E+03 -0.76474932091E+03  0.93975159168E+03  0.12699999809E+01 0. -1.
       -4    1    3    3    0  502 -0.48257879715E+03  0.25574913859E+03  0.14466967289E+04  0.15463579650E+04  0.12699999809E+01 0.  1.
</event>
<event>
 5   0  0.1154897E-05  0.2457749E+04  0.7818609E-02  0.8418194E-01
        2   -1    0    0  501    0  0.00000000000E+00  0.00000000000E+00  0.17198536482E+04  0.17198536482E+04  0.25500000920E-02 0.  1.
       -2   -1    0    0    0  501  0.00000000000E+00  0.00000000000E+00 -0.87805844578E+03  0.87805844578E+03  0.25500000920E-02 0. -1.
    10030    2    1    2    0    0  0.00000000000E+00  0.00000000000E+00  0.84179520242E+03  0.25979120940E+04  0.24577485806E+04 0.  0.
        4    1    3    3  502    0 -0.36020294577E+03  0.68280981908E+03 -0.58974340744E+03  0.97148047365E+03  0.12699999809E+01 0. -1.
       -4    1    3    3    0  502  0.36020294577E+03 -0.68280981908E+03  0.14315386099E+04  0.16264316203E+04  0.12699999809E+01 0.  1.
</event>
<event>
 5   0  0.5104174E-06  0.2400387E+04  0.7818609E-02  0.8439359E-01
        1   -1    0    0  501    0  0.00000000000E+00  0.00000000000E+00  0.17081405351E+04  0.17081405351E+04  0.50400001928E-02 0.  1.
       -1   -1    0    0    0  501  0.00000000000E+00  0.00000000000E+00 -0.84329420482E+03  0.84329420484E+03  0.50400001928E-02 0. -1.
    10030    2    1    2    0    0  0.00000000000E+00  0.00000000000E+00  0.86484633025E+03  0.25514347399E+04  0.24003874806E+04 0.  0.
        3    1    3    3  502    0 -0.48714373492E+03  0.22667555386E+03  0.15731634546E+04  0.16623880685E+04  0.10100000352E+00 0.  1.
       -3    1    3    3    0  502  0.48714373492E+03 -0.22667555386E+03 -0.70831712433E+03  0.88904667145E+03  0.10100000352E+00 0. -1.
</event>
<event>
 5   0  0.1198313E-05  0.2287953E+04  0.7818609E-02  0.8482686E-01
        2   -1    0    0  501    0  0.00000000000E+00  0.00000000000E+00  0.16963459715E+04  0.16963459715E+04  0.25500000920E-02 0.  1.
       -2   -1    0    0    0  501  0.00000000000E+00  0.00000000000E+00 -0.77147142692E+03  0.77147142693E+03  0.25500000920E-02 0. -1.
    10030    2    1    2    0    0  0.00000000000E+00  0.00000000000E+00  0.92487454458E+03  0.24678173984E+04  0.22879531876E+04 0.  0.
        5    1    3    3  502    0  0.19289216617E+03 -0.94468974662E+03 -0.20160183625E+03  0.98504390538E+03  0.46999998093E+01 0. -1.
       -5    1    3    3    0  502 -0.19289216617E+03  0.94468974662E+03  0.11264763808E+04  0.14827734931E+04  0.46999998093E+01 0.  1.
</event>
<event>
 5   0  0.1198313E-05  0.2396539E+04  0.7818609E-02  0.8440800E-01
        2   -1    0    0  501    0  0.00000000000E+00  0.00000000000E+00  0.22794161643E+04  0.22794161643E+04  0.25500000920E-02 0.  1.
       -2   -1    0    0    0  501  0.00000000000E+00  0.00000000000E+00 -0.62992004223E+03  0.62992004224E+03  0.25500000920E-02 0. -1.
    10030    2    1    2    0    0  0.00000000000E+00  0.00000000000E+00  0.16494961220E+04  0.29093362065E+04  0.23965391100E+04 0.  0.
        5    1    3    3  502    0 -0.11977794516E+04  0.33573015921E+02  0.81866917783E+03  0.14512215802E+04  0.46999998093E+01 0.  1.
       -5    1    3    3    0  502  0.11977794516E+04 -0.33573015921E+02  0.83082694422E+03  0.14581146263E+04  0.46999998093E+01 0. -1.
</event>
<event>
 5   0  0.1168435E-05  0.2385312E+04  0.7818609E-02  0.8445023E-01
       -2   -1    0    0    0  501  0.00000000000E+00  0.00000000000E+00  0.98338727446E+03  0.98338727446E+03  0.25500000920E-02 0.  1.
        2   -1    0    0  501    0  0.00000000000E+00  0.00000000000E+00 -0.14464584559E+04  0.14464584559E+04  0.25500000920E-02 0. -1.
    10030    2    1    2    0    0  0.00000000000E+00  0.00000000000E+00 -0.46307118144E+03  0.24298457304E+04  0.23853124228E+04 0.  0.
        1    1    3    3  502    0 -0.93169913222E+03  0.14225756843E+03 -0.97602109497E+03  0.13568042109E+04  0.50400001928E-02 0. -1.
       -1    1    3    3    0  502  0.93169913222E+03 -0.14225756843E+03  0.51294991353E+03  0.10730415195E+04  0.50400001928E-02 0.  1.
</event>
<event>
 5   0  0.5034479E-06  0.2399905E+04  0.7818609E-02  0.8439539E-01
        1   -1    0    0  501    0  0.00000000000E+00  0.00000000000E+00  0.16407202381E+04  0.16407202381E+04  0.50400001928E-02 0. -1.
       -1   -1    0    0    0  501  0.00000000000E+00  0.00000000000E+00 -0.87759379981E+03  0.87759379982E+03  0.50400001928E-02 0.  1.
    10030    2    1    2    0    0  0.00000000000E+00  0.00000000000E+00  0.76312643832E+03  0.25183140380E+04  0.23999049216E+04 0.  0.
        4    1    3    3  502    0  0.24005147797E+03 -0.92809971158E+03 -0.37577360134E+03  0.10296607204E+04  0.12699999809E+01 0.  1.
       -4    1    3    3    0  502 -0.24005147797E+03  0.92809971158E+03  0.11389000397E+04  0.14886533176E+04  0.12699999809E+01 0. -1.
</event>
<event>
 5   0  0.5104174E-06  0.2407944E+04  0.7818609E-02  0.8436536E-01
        1   -1    0    0  501    0  0.00000000000E+00  0.00000000000E+00  0.16184202746E+04  0.16184202746E+04  0.50400001928E-02 0. -1.
       -1   -1    0    0    0  501  0.00000000000E+00  0.00000000000E+00 -0.89565612226E+03  0.89565612228E+03  0.50400001928E-02 0.  1.
    10030    2    1    2    0    0  0.00000000000E+00  0.00000000000E+00  0.72276415238E+03  0.25140763969E+04  0.24079435437E+04 0.  0.
        3    1    3    3  502    0 -0.41995077383E+03 -0.11144578387E+04  0.54572314451E+03  0.13100338497E+04  0.10100000352E+00 0. -1.
       -3    1    3    3    0  502  0.41995077383E+03  0.11144578387E+04  0.17704100787E+03  0.12040425472E+04  0.10100000352E+00 0.  1.
</event>
<event>
 5   0  0.5104174E-06  0.2404538E+04  0.7818609E-02  0.8437806E-01
        1   -1    0    0  501    0  0.00000000000E+00  0.00000000000E+00  0.13339160716E+04  0.13339160717E+04  0.50400001928E-02 0. -1.
       -1   -1    0    0    0  501  0.00000000000E+00  0.00000000000E+00 -0.10836148715E+04  0.10836148715E+04  0.50400001928E-02 0.  1.
    10030    2    1    2    0    0  0.00000000000E+00  0.00000000000E+00  0.25030120013E+03  0.24175309432E+04  0.24045384527E+04 0.  0.
        3    1    3    3  502    0 -0.42423958269E+02  0.56245008300E+03 -0.94233085034E+03  0.10982428374E+04  0.10100000352E+00 0.  1.
       -3    1    3    3    0  502  0.42423958269E+02 -0.56245008300E+03  0.11926320505E+04  0.13192881058E+04  0.10100000352E+00 0. -1.
</event>
<event>
 5   0  0.1154897E-05  0.2391618E+04  0.7818609E-02  0.8442648E-01
       -2   -1    0    0    0  501  0.00000000000E+00  0.00000000000E+00  0.64951426822E+03  0.64951426823E+03  0.25500000920E-02 0.  1.
        2   -1    0    0  501    0  0.00000000000E+00  0.00000000000E+00 -0.22015828436E+04  0.22015828436E+04  0.25500000920E-02 0. -1.
    10030    2    1    2    0    0  0.00000000000E+00  0.00000000000E+00 -0.15520685754E+04  0.28510971118E+04  0.23916182552E+04 0.  0.
        4    1    3    3  502    0 -0.61567481544E+03 -0.32197113455E+03 -0.19362786576E+04  0.20571576368E+04  0.12699999809E+01 0. -1.
       -4    1    3    3    0  502  0.61567481544E+03  0.32197113455E+03  0.38421008221E+03  0.79393947504E+03  0.12699999809E+01 0.  1.
</event>
<event>
 5   0  0.5042742E-06  0.2395355E+04  0.7818609E-02  0.8441245E-01
       -1   -1    0    0    0  501  0.00000000000E+00  0.00000000000E+00  0.67324337744E+03  0.67324337746E+03  0.50400001928E-02 0.  1.
        1   -1    0    0  501    0  0.00000000000E+00  0.00000000000E+00 -0.21306279132E+04  0.21306279132E+04  0.50400001928E-02 0. -1.
    10030    2    1    2    0    0  0.00000000000E+00  0.00000000000E+00 -0.14573845358E+04  0.28038712907E+04  0.23953547816E+04 0.  0.
        5    1    3    3  502    0 -0.39343653468E+03 -0.54759480853E+03 -0.18873291244E+04  0.20041670826E+04  0.46999998093E+01 0. -1.
       -5    1    3    3    0  502  0.39343653468E+03  0.54759480853E+03  0.42994458863E+03  0.79970420809E+03  0.46999998093E+01 0.  1.
</event>
<event>
 5   0  0.5034479E-06  0.2401687E+04  0.7818609E-02  0.8438872E-01
       -1   -1    0    0    0  501  0.00000000000E+00  0.00000000000E+00  0.10954034359E+04  0.10954034359E+04  0.50400001928E-02 0.  1.
        1   -1    0    0  501    0  0.00000000000E+00  0.00000000000E+00 -0.13164324549E+04  0.13164324549E+04  0.50400001928E-02 0. -1.
    10030    2    1    2    0    0  0.00000000000E+00  0.00000000000E+00 -0.22102901900E+03  0.24118358908E+04  0.24016866025E+04 0.  0.
        4    1    3    3  502    0  0.11640059685E+04  0.17544912417E+03 -0.34885844912E+03  0.12277606119E+04  0.12699999809E+01 0. -1.
       -4    1    3    3    0  502 -0.11640059685E+04 -0.17544912417E+03  0.12782943012E+03  0.11840752788E+04  0.12699999809E+01 0.  1.
</event>
<event>
 5   0  0.5064437E-06  0.2400855E+04  0.7818609E-02  0.8439184E-01
       -1   -1    0    0    0  501  0.00000000000E+00  0.00000000000E+00  0.11738986733E+04  0.11738986733E+04  0.50400001928E-02 0.  1.
        1   -1    0    0  501    0  0.00000000000E+00  0.00000000000E+00 -0.12275555670E+04  0.12275555670E+04  0.50400001928E-02 0. -1.
    10030    2    1    2    0    0  0.00000000000E+00  0.00000000000E+00 -0.53656893642E+02  0.24014542403E+04  0.24008547241E+04 0.  0.
        2    1    3    3  502    0  0.82336878057E+03 -0.78216787683E+03  0.36224569553E+03  0.11920338419E+04  0.25500000920E-02 0. -1.
       -2    1    3    3    0  502 -0.82336878057E+03  0.78216787683E+03 -0.41590258917E+03  0.12094203984E+04  0.25500000920E-02 0.  1.
</event>
<event>
 5   0  0.1174210E-05  0.2400105E+04  0.7818609E-02  0.8439464E-01
        2   -1    0    0  501    0  0.00000000000E+00  0.00000000000E+00  0.88200581809E+03  0.88200581809E+03  0.25500000920E-02 0.  1.
       -2   -1    0    0    0  501  0.00000000000E+00  0.00000000000E+00 -0.16327848037E+04  0.16327848037E+04  0.25500000920E-02 0. -1.
    10030    2    1    2    0    0  0.00000000000E+00  0.00000000000E+00 -0.75077898559E+03  0.25147906218E+04  0.24001047448E+04 0.  0.
        3    1    3    3  502    0 -0.54560694829E+03  0.51625019438E+03 -0.13560190267E+04  0.15501576746E+04  0.10100000352E+00 0.  1.
       -3    1    3    3    0  502  0.54560694829E+03 -0.51625019438E+03  0.60524004109E+03  0.96463294717E+03  0.10100000352E+00 0. -1.
</event>
<event>
 5   0  0.1154897E-05  0.2412124E+04  0.7818609E-02  0.8434978E-01
       -2   -1    0    0    0  501  0.00000000000E+00  0.00000000000E+00  0.69094060042E+03  0.69094060043E+03  0.25500000920E-02 0.  1.
        2   -1    0    0  501    0  0.00000000000E+00  0.00000000000E+00 -0.21052252410E+04  0.21052252410E+04  0.25500000920E-02 0. -1.
    10030    2    1    2    0    0  0.00000000000E+00  0.00000000000E+00 -0.14142846405E+04  0.27961658414E+04  0.24121240366E+04 0.  0.
        4    1    3    3  502    0 -0.85834054093E+03  0.48412345813E+03  0.98873471841E+02  0.99040475728E+03  0.12699999809E+01 0. -1.
       -4    1    3    3    0  502  0.85834054093E+03 -0.48412345813E+03 -0.15131581124E+04  0.18057610841E+04  0.12699999809E+01 0.  1.
</event>
<event>
 5   0  0.1168435E-05  0.2442078E+04  0.7818609E-02  0.8423916E-01
        2   -1    0    0  501    0  0.00000000000E+00  0.00000000000E+00  0.29206376896E+04  0.29206376896E+04  0.25500000920E-02 0. -1.
       -2   -1    0    0    0  501  0.00000000000E+00  0.00000000000E+00 -0.51048310094E+03  0.51048310094E+03  0.25500000920E-02 0.  1.
    10030    2    1    2    0    0  0.00000000000E+00  0.00000000000E+00  0.24101545886E+04  0.34311207905E+04  0.24420779549E+04 0.  0.
        1    1    3    3  502    0 -0.98671806954E+03  0.36682055308E+03  0.20743245760E+04  0.23261539746E+04  0.50400001928E-02 0. -1.
       -1    1    3    3    0  502  0.98671806954E+03 -0.36682055308E+03  0.33583001268E+03  0.11049668160E+04  0.50400001928E-02 0.  1.
</event>
<event>
 5   0  0.1174210E-05  0.2400315E+04  0.7818609E-02  0.8439385E-01
        2   -1    0    0  501    0  0.00000000000E+00  0.00000000000E+00  0.10880885988E+04  0.10880885988E+04  0.25500000920E-02 0.  1.
       -2   -1    0    0    0  501  0.00000000000E+00  0.00000000000E+00 -0.13237694908E+04  0.13237694908E+04  0.25500000920E-02 0. -1.
    10030    2    1    2    0    0  0.00000000000E+00  0.00000000000E+00 -0.23568089193E+03  0.24118580896E+04  0.24003153879E+04 0.  0.
        3    1    3    3  502    0 -0.32543484148E+03 -0.45335405085E+03 -0.11854661374E+04  0.13102548243E+04  0.10100000352E+00 0. -1.
       -3    1    3    3    0  502  0.32543484148E+03  0.45335405085E+03  0.94978524545E+03  0.11016032653E+04  0.10100000352E+00 0.  1.
</event>
<event>
 5   0  0.5042742E-06  0.2393667E+04  0.7818609E-02  0.8441879E-01
       -1   -1    0    0    0  501  0.00000000000E+00  0.00000000000E+00  0.96312948401E+03  0.96312948402E+03  0.50400001928E-02 0. -1.
        1   -1    0    0  501    0  0.00000000000E+00  0.00000000000E+00 -0.14872454052E+04  0.14872454052E+04  0.50400001928E-02 0.  1.
    10030    2    1    2    0    0  0.00000000000E+00  0.00000000000E+00 -0.52411592123E+03  0.24503748893E+04  0.23936665597E+04 0.  0.
        5    1    3    3  502    0 -0.78954581125E+03 -0.88689069843E+03 -0.10874298103E+03  0.11923945760E+04  0.46999998093E+01 0. -1.
       -5    1    3    3    0  502  0.78954581125E+03  0.88689069843E+03 -0.41537294020E+03  0.12579803132E+04  0.46999998093E+01 0.  1.
</event>
<event>
 5   0  0.5034479E-06  0.2401365E+04  0.7818609E-02  0.8438993E-01
        1   -1    0    0  501    0  0.00000000000E+00  0.00000000000E+00  0.13439948271E+04  0.13439948271E+04  0.50400001928E-02 0. -1.
       -1   -1    0    0    0  501  0.00000000000E+00  0.00000000000E+00 -0.10726517694E+04  0.10726517694E+04  0.50400001928E-02 0.  1.
    10030    2    1    2    0    0  0.00000000000E+00  0.00000000000E+00  0.27134305769E+03  0.24166465965E+04  0.24013649696E+04 0.  0.
        4    1    3    3  502    0  0.10708847225E+04  0.52853855609E+02  0.67952634981E+03  0.12693877626E+04  0.12699999809E+01 0. -1.
       -4    1    3    3    0  502 -0.10708847225E+04 -0.52853855609E+02 -0.40818329212E+03  0.11472588338E+04  0.12699999809E+01 0.  1.
</event>
<event>
 5   0  0.5042742E-06  0.2398289E+04  0.7818609E-02  0.8440144E-01
       -1   -1    0    0    0  501  0.00000000000E+00  0.00000000000E+00  0.13833805395E+04  0.13833805395E+04  0.50400001928E-02 0.  1.
        1   -1    0    0  501    0  0.00000000000E+00  0.00000000000E+00 -0.10394448590E+04  0.10394448590E+04  0.50400001928E-02 0. -1.
    10030    2    1    2    0    0  0.00000000000E+00  0.00000000000E+00  0.34393568053E+03  0.24228253985E+04  0.23982892151E+04 0.  0.
        5    1    3    3  502    0  0.21123527139E+03 -0.40635393491E+03 -0.94760382602E+03  0.10524822855E+04  0.46999998093E+01 0. -1.
       -5    1    3    3    0  502 -0.21123527139E+03  0.40635393491E+03  0.12915395065E+04  0.13703431130E+04  0.46999998093E+01 0.  1.
</event>
<event>
 5   0  0.5196696E-06  0.2400634E+04  0.7818609E-02  0.8439266E-01
       -1   -1    0    0    0  501  0.00000000000E+00  0.00000000000E+00  0.84803597060E+03  0.84803597061E+03  0.50400001928E-02 0.  1.
        1   -1    0    0  501    0  0.00000000000E+00  0.00000000000E+00 -0.16989388814E+04  0.16989388814E+04  0.50400001928E-02 0. -1.
    10030    2    1    2    0    0  0.00000000000E+00  0.00000000000E+00 -0.85090291076E+03  0.25469748520E+04  0.24006343189E+04 0.  0.
        1    1    3    3  502    0 -0.18908509926E+03 -0.26365920701E+03 -0.16515327893E+04  0.16831012763E+04  0.50400001928E-02 0. -1.
       -1    1    3    3    0  502  0.18908509926E+03  0.26365920701E+03  0.80062987856E+03  0.86387357563E+03  0.50400001928E-02 0.  1.
</event>
<event>
 5   0  0.1154897E-05  0.2337986E+04  0.7818609E-02  0.8463093E-01
       -2   -1    0    0    0  501  0.00000000000E+00  0.00000000000E+00  0.87683550996E+03  0.87683550996E+03  0.25500000920E-02 0.  1.
        2   -1    0    0  501    0  0.00000000000E+00  0.00000000000E+00 -0.15584960960E+04  0.15584960960E+04  0.25500000920E-02 0. -1.
    10030    2    1    2    0    0  0.00000000000E+00  0.00000000000E+00 -0.68166058609E+03  0.24353316060E+04  0.23379860728E+04 0.  0.
        4    1    3    3  502    0  0.10110116452E+04 -0.24120002712E+02 -0.95160314190E+03  0.13886239498E+04  0.12699999809E+01 0. -1.
       -4    1    3    3    0  502 -0.10110116452E+04  0.24120002712E+02  0.26994255581E+03  0.10467076562E+04  0.12699999809E+01 0.  1.
</event>
<event>
 5   0  0.1168435E-05  0.2397219E+04  0.7818609E-02  0.8440545E-01
       -2   -1    0    0    0  501  0.00000000000E+00  0.00000000000E+00  0.71602430135E+03  0.71602430136E+03  0.25500000920E-02 0.  1.
        2   -1    0    0  501    0  0.00000000000E+00  0.00000000000E+00 -0.20064468013E+04  0.20064468013E+04  0.25500000920E-02 0. -1.
    10030    2    1    2    0    0  0.00000000000E+00  0.00000000000E+00 -0.12904224999E+04  0.27224711027E+04  0.23972189463E+04 0.  0.
        1    1    3    3  502    0  0.10770863634E+04 -0.23407360131E+03 -0.11040510987E+03  0.11077430990E+04  0.50400001928E-02 0.  1.
       -1    1    3    3    0  502 -0.10770863634E+04  0.23407360131E+03 -0.11800173901E+04  0.16147280037E+04  0.50400001928E-02 0. -1.
</event>
<event>
 5   0  0.1169371E-05  0.2411330E+04  0.7818609E-02  0.8435274E-01
        2   -1    0    0  501    0  0.00000000000E+00  0.00000000000E+00  0.12828318150E+04  0.12828318150E+04  0.25500000920E-02 0.  1.
       -2   -1    0    0    0  501  0.00000000000E+00  0.00000000000E+00 -0.11331397593E+04  0.11331397593E+04  0.25500000920E-02 0. -1.
    10030    2    1    2    0    0  0.00000000000E+00  0.00000000000E+00  0.14969205574E+03  0.24159715743E+04  0.24113297029E+04 0.  0.
        2    1    3    3  502    0  0.24532082434E+03 -0.10832261774E+04  0.54486151543E+03  0.12371076466E+04  0.25500000920E-02 0.  1.
       -2    1    3    3    0  502 -0.24532082434E+03  0.10832261774E+04 -0.39516945969E+03  0.11788639277E+04  0.25500000920E-02 0. -1.
</event>
<event>
 5   0  0.5104174E-06  0.2399838E+04  0.7818609E-02  0.8439564E-01
       -1   -1    0    0    0  501  0.00000000000E+00  0.00000000000E+00  0.10398218984E+04  0.10398218984E+04  0.50400001928E-02 0.  1.
        1   -1    0    0  501    0  0.00000000000E+00  0.00000000000E+00 -0.13846651000E+04  0.13846651000E+04  0.50400001928E-02 0. -1.
    10030    2    1    2    0    0  0.00000000000E+00  0.00000000000E+00 -0.34484320160E+03  0.24244869985E+04  0.23998375720E+04 0.  0.
        3    1    3    3  502    0  0.36359178291E+03  0.11260043847E+04  0.28924792490E+02  0.11836053028E+04  0.10100000352E+00 0.  1.
       -3    1    3    3    0  502 -0.36359178291E+03 -0.11260043847E+04 -0.37376799409E+03  0.12408816957E+04  0.10100000352E+00 0. -1.
</event>
<event>
 5   0  0.1174210E-05  0.2400901E+04  0.7818609E-02  0.8439166E-01
       -2   -1    0    0    0  501  0.00000000000E+00  0.00000000000E+00  0.96165455208E+03  0.96165455208E+03  0.25500000920E-02 0.  1.
        2   -1    0    0  501    0  0.00000000000E+00  0.00000000000E+00 -0.14985432656E+04  0.14985432656E+04  0.25500000920E-02 0. -1.
    10030    2    1    2    0    0  0.00000000000E+00  0.00000000000E+00 -0.53688871350E+03  0.24601978177E+04  0.24009006251E+04 0.  0.
        3    1    3    3  502    0 -0.86363178469E+03  0.63348166374E+03  0.28709130009E+03  0.11088644203E+04  0.10100000352E+00 0.  1.
       -3    1    3    3    0  502  0.86363178469E+03 -0.63348166374E+03 -0.82398001359E+03  0.13513333974E+04  0.10100000352E+00 0. -1.
</event>
<event>
 5   0  0.1198313E-05  0.2396463E+04  0.7818609E-02  0.8440829E-01
       -2   -1    0    0    0  501  0.00000000000E+00  0.00000000000E+00  0.91963205881E+03  0.91963205882E+03  0.25500000920E-02 0. -1.
        2   -1    0    0  501    0  0.00000000000E+00  0.00000000000E+00 -0.15612311161E+04  0.15612311161E+04  0.25500000920E-02 0.  1.
    10030    2    1    2    0    0  0.00000000000E+00  0.00000000000E+00 -0.64159905725E+03  0.24808631749E+04  0.23964625476E+04 0.  0.
        5    1    3    3  502    0 -0.15837634544E+03 -0.96956670564E+03  0.38935865694E+03  0.10567709862E+04  0.46999998093E+01 0. -1.
       -5    1    3    3    0  502  0.15837634544E+03  0.96956670564E+03 -0.10309577142E+04  0.14240921887E+04  0.46999998093E+01 0.  1.
</event>
<event>
 5   0  0.1168435E-05  0.2404006E+04  0.7818609E-02  0.8438005E-01
        2   -1    0    0  501    0  0.00000000000E+00  0.00000000000E+00  0.10339560796E+04  0.10339560796E+04  0.25500000920E-02 0.  1.
       -2   -1    0    0    0  501  0.00000000000E+00  0.00000000000E+00 -0.13973627171E+04  0.13973627171E+04  0.25500000920E-02 0. -1.
    10030    2    1    2    0    0  0.00000000000E+00  0.00000000000E+00 -0.36340663750E+03  0.24313187968E+04  0.24040063867E+04 0.  0.
        1    1    3    3  502    0 -0.10975008839E+04  0.16405092943E+03 -0.64889393932E+03  0.12854898841E+04  0.50400001928E-02 0.  1.
       -1    1    3    3    0  502  0.10975008839E+04 -0.16405092943E+03  0.28548730182E+03  0.11458289127E+04  0.50400001928E-02 0. -1.
</event>
<event>
 5   0  0.5104174E-06  0.2377583E+04  0.7818609E-02  0.8447944E-01
       -1   -1    0    0    0  501  0.00000000000E+00  0.00000000000E+00  0.11317452559E+04  0.11317452560E+04  0.50400001928E-02 0. -1.
        1   -1    0    0  501    0  0.00000000000E+00  0.00000000000E+00 -0.12487134892E+04  0.12487134892E+04  0.50400001928E-02 0.  1.
    10030    2    1    2    0    0  0.00000000000E+00  0.00000000000E+00 -0.11696823322E+03  0.23804587451E+04  0.23775832834E+04 0.  0.
        3    1    3    3  502    0 -0.55370174233E+03  0.95880195964E+03  0.37486580074E+03  0.11689359247E+04  0.10100000352E+00 0.  1.
       -3    1    3    3    0  502  0.55370174233E+03 -0.95880195964E+03 -0.49183403396E+03  0.12115228204E+04  0.10100000352E+00 0. -1.
</event>
<event>
 5   0  0.5034479E-06  0.2346939E+04  0.7818609E-02  0.8459640E-01
       -1   -1    0    0    0  501  0.00000000000E+00  0.00000000000E+00  0.76884115939E+03  0.76884115940E+03  0.50400001928E-02 0. -1.
        1   -1    0    0  501    0  0.00000000000E+00  0.00000000000E+00 -0.17910474020E+04  0.17910474020E+04  0.50400001928E-02 0.  1.
    10030    2    1    2    0    0  0.00000000000E+00  0.00000000000E+00 -0.10222062426E+04  0.25598885614E+04  0.23469392502E+04 0.  0.
        4    1    3    3  502    0  0.11591116382E+04 -0.11075217134E+03 -0.35220166893E+03  0.12164922777E+04  0.12699999809E+01 0. -1.
       -4    1    3    3    0  502 -0.11591116382E+04  0.11075217134E+03 -0.67000457366E+03  0.13433962837E+04  0.12699999809E+01 0.  1.
</event>
<event>
 5   0  0.5104174E-06  0.2405156E+04  0.7818609E-02  0.8437576E-01
       -1   -1    0    0    0  501  0.00000000000E+00  0.00000000000E+00  0.19386089673E+04  0.19386089673E+04  0.50400001928E-02 0.  1.
        1   -1    0    0  501    0  0.00000000000E+00  0.00000000000E+00 -0.74599565985E+03  0.74599565986E+03  0.50400001928E-02 0. -1.
    10030    2    1    2    0    0  0.00000000000E+00  0.00000000000E+00  0.11926133074E+04  0.26846046271E+04  0.24051560247E+04 0.  0.
        3    1    3    3  502    0  0.69125425375E+03 -0.20689071069E+03  0.16701447778E+04  0.18193459809E+04  0.10100000352E+00 0.  1.
       -3    1    3    3    0  502 -0.69125425375E+03  0.20689071069E+03 -0.47753147032E+03  0.86525864621E+03  0.10100000352E+00 0. -1.
</event>
<event>
 5   0  0.1154897E-05  0.2404472E+04  0.7818609E-02  0.8437831E-01
        2   -1    0    0  501    0  0.00000000000E+00  0.00000000000E+00  0.19179706562E+04  0.19179706562E+04  0.25500000920E-02 0.  1.
       -2   -1    0    0    0  501  0.00000000000E+00  0.00000000000E+00 -0.75359413902E+03  0.75359413903E+03  0.25500000920E-02 0. -1.
    10030    2    1    2    0    0  0.00000000000E+00  0.00000000000E+00  0.11643765172E+04  0.26715647952E+04  0.24044720379E+04 0.  0.
        4    1    3    3  502    0  0.33171063374E+03 -0.16414938963E+03 -0.68872252487E+03  0.78186782503E+03  0.12699999809E+01 0. -1.
       -4    1    3    3    0  502 -0.33171063374E+03  0.16414938963E+03  0.18530990420E+04  0.18896969702E+04  0.12699999809E+01 0.  1.
</event>
<event>
 5   0  0.1198313E-05  0.2408962E+04  0.7818609E-02  0.8436156E-01
       -2   -1    0    0    0  501  0.00000000000E+00  0.00000000000E+00  0.11134674430E+04  0.11134674430E+04  0.25500000920E-02 0.  1.
        2   -1    0    0  501    0  0.00000000000E+00  0.00000000000E+00 -0.13029343110E+04  0.13029343110E+04  0.25500000920E-02 0. -1.
    10030    2    1    2    0    0  0.00000000000E+00  0.00000000000E+00 -0.18946686798E+03  0.24164017540E+04  0.24089623788E+04 0.  0.
        5    1    3    3  502    0 -0.41535902722E+03 -0.90695182098E+03  0.58238314349E+03  0.11551090610E+04  0.46999998093E+01 0.  1.
       -5    1    3    3    0  502  0.41535902722E+03  0.90695182098E+03 -0.77185001147E+03  0.12612926929E+04  0.46999998093E+01 0. -1.
</event>
<event>
 5   0  0.1169371E-05  0.2394201E+04  0.7818609E-02  0.8441678E-01
        2   -1    0    0  501    0  0.00000000000E+00  0.00000000000E+00  0.12737167002E+04  0.12737167002E+04  0.25500000920E-02 0.  1.
       -2   -1    0    0    0  501  0.00000000000E+00  0.00000000000E+00 -0.11250933441E+04  0.11250933441E+04  0.25500000920E-02 0. -1.
    10030    2    1    2    0    0  0.00000000000E+00  0.00000000000E+00  0.14862335608E+03  0.23988100443E+04  0.23942014800E+04 0.  0.
        2    1    3    3  502    0  0.83048442127E+03 -0.58906343485E+03  0.70508691790E+03  0.12384860379E+04  0.25500000920E-02 0.  1.
       -2    1    3    3    0  502 -0.83048442127E+03  0.58906343485E+03 -0.55646356182E+03  0.11603240064E+04  0.25500000920E-02 0. -1.
</event>
<event>
 5   0  0.1174210E-05  0.2405040E+04  0.7818609E-02  0.8437619E-01
       -2   -1    0    0    0  501  0.00000000000E+00  0.00000000000E+00  0.82150762881E+03  0.82150762882E+03  0.25500000920E-02 0. -1.
        2   -1    0    0  501    0  0.00000000000E+00  0.00000000000E+00 -0.17602451865E+04  0.17602451865E+04  0.25500000920E-02 0.  1.
    10030    2    1    2    0    0  0.00000000000E+00  0.00000000000E+00 -0.93873755772E+03  0.25817528154E+04  0.24050404149E+04 0.  0.
        3    1    3    3  502    0 -0.39456842847E+03  0.50948421960E+03  0.62051134447E+03  0.89459083026E+03  0.10100000352E+00 0. -1.
       -3    1    3    3    0  502  0.39456842847E+03 -0.50948421960E+03 -0.15592489022E+04  0.16871619851E+04  0.10100000352E+00 0.  1.
</event>
<event>
 5   0  0.1169371E-05  0.2414553E+04  0.7818609E-02  0.8434075E-01
        2   -1    0    0  501    0  0.00000000000E+00  0.00000000000E+00  0.21227255124E+04  0.21227255124E+04  0.25500000920E-02 0. -1.
       -2   -1    0    0    0  501  0.00000000000E+00  0.00000000000E+00 -0.68662502570E+03  0.68662502571E+03  0.25500000920E-02 0.  1.
    10030    2    1    2    0    0  0.00000000000E+00  0.00000000000E+00  0.14361004867E+04  0.28093505381E+04  0.24145529271E+04 0.  0.
        2    1    3    3  502    0  0.10167936231E+04 -0.63476155837E+03  0.88555068821E+03  0.14902991409E+04  0.25500000920E-02 0. -1.
       -2    1    3    3    0  502 -0.10167936231E+04  0.63476155837E+03  0.55054979844E+03  0.13190513972E+04  0.25500000920E-02 0.  1.
</event>
<event>
 5   0  0.1174210E-05  0.2419222E+04  0.7818609E-02  0.8432342E-01
       -2   -1    0    0    0  501  0.00000000000E+00  0.00000000000E+00  0.16391051699E+04  0.16391051699E+04  0.25500000920E-02 0. -1.
        2   -1    0    0  501    0  0.00000000000E+00  0.00000000000E+00 -0.89265738590E+03  0.89265738590E+03  0.25500000920E-02 0.  1.
    10030    2    1    2    0    0  0.00000000000E+00  0.00000000000E+00  0.74644778404E+03  0.25317625558E+04  0.24192224670E+04 0.  0.
        3    1    3    3  502    0 -0.55760581656E+03  0.22676797945E+03 -0.72477933701E+03  0.94215341676E+03  0.10100000352E+00 0.  1.
       -3    1    3    3    0  502  0.55760581656E+03 -0.22676797945E+03  0.14712271210E+04  0.15896091391E+04  0.10100000352E+00 0. -1.
</event>
<event>
 5   0  0.1174210E-05  0.2383580E+04  0.7818609E-02  0.8445677E-01
        2   -1    0    0  501    0  0.00000000000E+00  0.00000000000E+00  0.78998727524E+03  0.78998727524E+03  0.25500000920E-02 0.  1.
       -2   -1    0    0    0  501  0.00000000000E+00  0.00000000000E+00 -0.17979573190E+04  0.17979573190E+04  0.25500000920E-02 0. -1.
    10030    2    1    2    0    0  0.00000000000E+00  0.00000000000E+00 -0.10079700438E+04  0.25879445943E+04  0.23835799995E+04 0.  0.
        3    1    3    3  502    0 -0.74695991471E+03  0.57974329783E+03  0.28368963523E+03  0.98718348087E+03  0.10100000352E+00 0.  1.
       -3    1    3    3    0  502  0.74695991471E+03 -0.57974329783E+03 -0.12916596790E+04  0.16007611134E+04  0.10100000352E+00 0. -1.
</event>
<event>
 5   0  0.1154897E-05  0.2395009E+04  0.7818609E-02  0.8441374E-01
       -2   -1    0    0    0  501  0.00000000000E+00  0.00000000000E+00  0.19286767953E+04  0.19286767953E+04  0.25500000920E-02 0. -1.
        2   -1    0    0  501    0  0.00000000000E+00  0.00000000000E+00 -0.74352397752E+03  0.74352397752E+03  0.25500000920E-02 0.  1.
    10030    2    1    2    0    0  0.00000000000E+00  0.00000000000E+00  0.11851528178E+04  0.26722007729E+04  0.23950093463E+04 0.  0.
        4    1    3    3  502    0  0.10616612304E+04  0.29635113518E+03  0.70359876408E+02  0.11044911446E+04  0.12699999809E+01 0.  1.
       -4    1    3    3    0  502 -0.10616612304E+04 -0.29635113518E+03  0.11147929414E+04  0.15677096283E+04  0.12699999809E+01 0. -1.
</event>
<event>
 5   0  0.5042742E-06  0.2412449E+04  0.7818609E-02  0.8434857E-01
        1   -1    0    0  501    0  0.00000000000E+00  0.00000000000E+00  0.69085215212E+03  0.69085215214E+03  0.50400001928E-02 0. -1.
       -1   -1    0    0    0  501  0.00000000000E+00  0.00000000000E+00 -0.21060629105E+04  0.21060629105E+04  0.50400001928E-02 0.  1.
    10030    2    1    2    0    0  0.00000000000E+00  0.00000000000E+00 -0.14152107584E+04  0.27969150627E+04  0.24124494559E+04 0.  0.
        5    1    3    3  502    0  0.83142330291E+03 -0.10933389836E+03  0.29759844444E+03  0.88983455433E+03  0.46999998093E+01 0. -1.
       -5    1    3    3    0  502 -0.83142330291E+03  0.10933389836E+03 -0.17128092028E+04  0.19070805083E+04  0.46999998093E+01 0.  1.
</event>
<event>
 5   0  0.5064437E-06  0.2392013E+04  0.7818609E-02  0.8442500E-01
        1   -1    0    0  501    0  0.00000000000E+00  0.00000000000E+00  0.15304120687E+04  0.15304120687E+04  0.50400001928E-02 0.  1.
       -1   -1    0    0    0  501  0.00000000000E+00  0.00000000000E+00 -0.93467106616E+03  0.93467106617E+03  0.50400001928E-02 0. -1.
    10030    2    1    2    0    0  0.00000000000E+00  0.00000000000E+00  0.59574100256E+03  0.24650831349E+04  0.23920132775E+04 0.  0.
        2    1    3    3  502    0 -0.11903992214E+04  0.51209920302E+02  0.19097576617E+03  0.12067081277E+04  0.25500000920E-02 0. -1.
       -2    1    3    3    0  502  0.11903992214E+04 -0.51209920302E+02  0.40476523639E+03  0.12583750072E+04  0.25500000920E-02 0.  1.
</event>
<event>
 5   0  0.5064437E-06  0.2399676E+04  0.7818609E-02  0.8439625E-01
        1   -1    0    0  501    0  0.00000000000E+00  0.00000000000E+00  0.18298145096E+04  0.18298145096E+04  0.50400001928E-02 0.  1.
       -1   -1    0    0    0  501  0.00000000000E+00  0.00000000000E+00 -0.78675233436E+03  0.78675233438E+03  0.50400001928E-02 0. -1.
    10030    2    1    2    0    0  0.00000000000E+00  0.00000000000E+00  0.10430621753E+04  0.26165668440E+04  0.23996756755E+04 0.  0.
        2    1    3    3  502    0  0.11180668807E+04  0.36985112125E+03  0.77195740005E+03  0.14081127899E+04  0.25500000920E-02 0.  1.
       -2    1    3    3    0  502 -0.11180668807E+04 -0.36985112125E+03  0.27110477522E+03  0.12084540541E+04  0.25500000920E-02 0. -1.
</event>
<event>
 5   0  0.5104174E-06  0.2390802E+04  0.7818609E-02  0.8442955E-01
        1   -1    0    0  501    0  0.00000000000E+00  0.00000000000E+00  0.10408997206E+04  0.10408997206E+04  0.50400001928E-02 0. -1.
       -1   -1    0    0    0  501  0.00000000000E+00  0.00000000000E+00 -0.13728351704E+04  0.13728351704E+04  0.50400001928E-02 0.  1.
    10030    2    1    2    0    0  0.00000000000E+00  0.00000000000E+00 -0.33193544974E+03  0.24137348910E+04  0.23908021627E+04 0.  0.
        3    1    3    3  502    0 -0.48607330231E+03  0.25331667412E+03 -0.12384886670E+04  0.13543599156E+04  0.10100000352E+00 0.  1.
       -3    1    3    3    0  502  0.48607330231E+03 -0.25331667412E+03  0.90655321722E+03  0.10593749754E+04  0.10100000352E+00 0. -1.
</event>
<event>
 5   0  0.1168435E-05  0.2384085E+04  0.7818609E-02  0.8445486E-01
       -2   -1    0    0    0  501  0.00000000000E+00  0.00000000000E+00  0.96326610549E+03  0.96326610549E+03  0.25500000920E-02 0. -1.
        2   -1    0    0  501    0  0.00000000000E+00  0.00000000000E+00 -0.14751538829E+04  0.14751538829E+04  0.25500000920E-02 0.  1.
    10030    2    1    2    0    0  0.00000000000E+00  0.00000000000E+00 -0.51188777743E+03  0.24384199884E+04  0.23840853473E+04 0.  0.
        1    1    3    3  502    0 -0.45588499279E+03 -0.10149074695E+04  0.18170702971E+03  0.11273356834E+04  0.50400001928E-02 0. -1.
       -1    1    3    3    0  502  0.45588499279E+03  0.10149074695E+04 -0.69359480714E+03  0.13110843050E+04  0.50400001928E-02 0.  1.
</event>
<event>
 5   0  0.5104174E-06  0.2467892E+04  0.7818609E-02  0.8414514E-01
       -1   -1    0    0    0  501  0.00000000000E+00  0.00000000000E+00  0.85172084565E+03  0.85172084567E+03  0.50400001928E-02 0.  1.
        1   -1    0    0  501    0  0.00000000000E+00  0.00000000000E+00 -0.17877012419E+04  0.17877012419E+04  0.50400001928E-02 0. -1.
    10030    2    1    2    0    0  0.00000000000E+00  0.00000000000E+00 -0.93598039622E+03  0.26394220875E+04  0.24678917428E+04 0.  0.
        3    1    3    3  502    0  0.95519931610E+03  0.53590275277E+02 -0.13014801786E+04  0.16152796403E+04  0.10100000352E+00 0. -1.
       -3    1    3    3    0  502 -0.95519931610E+03 -0.53590275277E+02  0.36549978235E+03  0.10241424472E+04  0.10100000352E+00 0.  1.
</event>
<event>
 5   0  0.1174210E-05  0.2400964E+04  0.7818609E-02  0.8439143E-01
        2   -1    0    0  501    0  0.00000000000E+00  0.00000000000E+00  0.20332353744E+04  0.20332353744E+04  0.25500000920E-02 0. -1.
       -2   -1    0    0    0  501  0.00000000000E+00  0.00000000000E+00 -0.70879977049E+03  0.70879977050E+03  0.25500000920E-02 0.  1.
    10030    2    1    2    0    0  0.00000000000E+00  0.00000000000E+00  0.13244356039E+04  0.27420351449E+04  0.24009637788E+04 0.  0.
        3    1    3    3  502    0  0.18034132534E+03 -0.48368184478E+03 -0.57557581190E+03  0.77314852780E+03  0.10100000352E+00 0.  1.
       -3    1    3    3    0  502 -0.18034132534E+03  0.48368184478E+03  0.19000114158E+04  0.19688866171E+04  0.10100000352E+00 0. -1.
</event>
<event>
 5   0  0.5196696E-06  0.2364264E+04  0.7818609E-02  0.8453005E-01
       -1   -1    0    0    0  501  0.00000000000E+00  0.00000000000E+00  0.73679744077E+03  0.73679744079E+03  0.50400001928E-02 0.  1.
        1   -1    0    0  501    0  0.00000000000E+00  0.00000000000E+00 -0.18966354652E+04  0.18966354652E+04  0.50400001928E-02 0. -1.
    10030    2    1    2    0    0  0.00000000000E+00  0.00000000000E+00 -0.11598380245E+04  0.26334329060E+04  0.23642640774E+04 0.  0.
        1    1    3    3  502    0  0.13828483195E+03  0.19102485325E+03  0.71033103910E+03  0.74845398953E+03  0.50400001928E-02 0.  1.
       -1    1    3    3    0  502 -0.13828483195E+03 -0.19102485325E+03 -0.18701690636E+04  0.18849789165E+04  0.50400001928E-02 0. -1.
</event>
<event>
 5   0  0.1154897E-05  0.2395129E+04  0.7818609E-02  0.8441329E-01
       -2   -1    0    0    0  501  0.00000000000E+00  0.00000000000E+00  0.79063498196E+03  0.79063498196E+03  0.25500000920E-02 0.  1.
        2   -1    0    0  501    0  0.00000000000E+00  0.00000000000E+00 -0.18139355857E+04  0.18139355857E+04  0.25500000920E-02 0. -1.
    10030    2    1    2    0    0  0.00000000000E+00  0.00000000000E+00 -0.10233006037E+04  0.26045705676E+04  0.23951291648E+04 0.  0.
        4    1    3    3  502    0  0.32823985630E+03 -0.11478885215E+04 -0.40981381701E+03  0.12622751041E+04  0.12699999809E+01 0.  1.
       -4    1    3    3    0  502 -0.32823985630E+03  0.11478885215E+04 -0.61348678669E+03  0.13422954635E+04  0.12699999809E+01 0. -1.
</event>
<event>
 5   0  0.1154897E-05  0.2409420E+04  0.7818609E-02  0.8435985E-01
       -2   -1    0    0    0  501  0.00000000000E+00  0.00000000000E+00  0.59538418491E+03  0.59538418492E+03  0.25500000920E-02 0. -1.
        2   -1    0    0  501    0  0.00000000000E+00  0.00000000000E+00 -0.24376300284E+04  0.24376300284E+04  0.25500000920E-02 0.  1.
    10030    2    1    2    0    0  0.00000000000E+00  0.00000000000E+00 -0.18422458435E+04  0.30330142133E+04  0.24094201523E+04 0.  0.
        4    1    3    3  502    0  0.16486404892E+03  0.68581158641E+03  0.30827415252E+03  0.76977415694E+03  0.12699999809E+01 0. -1.
       -4    1    3    3    0  502 -0.16486404892E+03 -0.68581158641E+03 -0.21505199960E+04  0.22632400564E+04  0.12699999809E+01 0.  1.
</event>
<event>
 5   0  0.5042742E-06  0.2399292E+04  0.7818609E-02  0.8439769E-01
       -1   -1    0    0    0  501  0.00000000000E+00  0.00000000000E+00  0.20760381890E+04  0.20760381890E+04  0.50400001928E-02 0. -1.
        1   -1    0    0  501    0  0.00000000000E+00  0.00000000000E+00 -0.69321967800E+03  0.69321967802E+03  0.50400001928E-02 0.  1.
    10030    2    1    2    0    0  0.00000000000E+00  0.00000000000E+00  0.13828185110E+04  0.27692578671E+04  0.23992919997E+04 0.  0.
        5    1    3    3  502    0  0.60742509707E+03  0.20948462622E+03  0.18606746415E+04  0.19684972108E+04  0.46999998093E+01 0. -1.
       -5    1    3    3    0  502 -0.60742509707E+03 -0.20948462622E+03 -0.47785613051E+03  0.80076065628E+03  0.46999998093E+01 0.  1.
</event>
<event>
 5   0  0.5104174E-06  0.2385023E+04  0.7818609E-02  0.8445132E-01
        1   -1    0    0  501    0  0.00000000000E+00  0.00000000000E+00  0.10352460184E+04  0.10352460185E+04  0.50400001928E-02 0. -1.
       -1   -1    0    0    0  501  0.00000000000E+00  0.00000000000E+00 -0.13736675082E+04  0.13736675082E+04  0.50400001928E-02 0.  1.
    10030    2    1    2    0    0  0.00000000000E+00  0.00000000000E+00 -0.33842148979E+03  0.24089135267E+04  0.23850231182E+04 0.  0.
        3    1    3    3  502    0  0.82467805951E+02  0.56937415075E+03  0.88580778705E+03  0.10562401755E+04  0.10100000352E+00 0. -1.
       -3    1    3    3    0  502 -0.82467805951E+02 -0.56937415075E+03 -0.12242292768E+04  0.13526733512E+04  0.10100000352E+00 0.  1.
</event>
<event>
 5   0  0.5064437E-06  0.2403907E+04  0.7818609E-02  0.8438042E-01
       -1   -1    0    0    0  501  0.00000000000E+00  0.00000000000E+00  0.16829311708E+04  0.16829311708E+04  0.50400001928E-02 0. -1.
        1   -1    0    0  501    0  0.00000000000E+00  0.00000000000E+00 -0.85843842924E+03  0.85843842925E+03  0.50400001928E-02 0.  1.
    10030    2    1    2    0    0  0.00000000000E+00  0.00000000000E+00  0.82449274155E+03  0.25413696001E+04  0.24039074781E+04 0.  0.
        2    1    3    3  502    0 -0.11694005111E+04 -0.14102105368E+03  0.66532695982E+03  0.13527913573E+04  0.25500000920E-02 0.  1.
       -2    1    3    3    0  502  0.11694005111E+04  0.14102105368E+03  0.15916578174E+03  0.11885782427E+04  0.25500000920E-02 0. -1.
</event>
<event>
 5   0  0.1154897E-05  0.2397477E+04  0.7818609E-02  0.8440449E-01
       -2   -1    0    0    0  501  0.00000000000E+00  0.00000000000E+00  0.10531773232E+04  0.10531773232E+04  0.25500000920E-02 0.  1.
        2   -1    0    0  501    0  0.00000000000E+00  0.00000000000E+00 -0.13644177469E+04  0.13644177469E+04  0.25500000920E-02 0. -1.
    10030    2    1    2    0    0  0.00000000000E+00  0.00000000000E+00 -0.31124042363E+03  0.24175950701E+04  0.23974768657E+04 0.  0.
        4    1    3    3  502    0 -0.86088593280E+03  0.82184166872E+03 -0.29973165645E+03  0.12273503968E+04  0.12699999809E+01 0.  1.
       -4    1    3    3    0  502  0.86088593280E+03 -0.82184166872E+03 -0.11508767178E+02  0.11902446733E+04  0.12699999809E+01 0. -1.
</event>
<event>
 5   0  0.5104174E-06  0.2409749E+04  0.7818609E-02  0.8435863E-01
        1   -1    0    0  501    0  0.00000000000E+00  0.00000000000E+00  0.15167671524E+04  0.15167671524E+04  0.50400001928E-02 0. -1.
       -1   -1    0    0    0  501  0.00000000000E+00  0.00000000000E+00 -0.95711619222E+03  0.95711619223E+03  0.50400001928E-02 0.  1.
    10030    2    1    2    0    0  0.00000000000E+00  0.00000000000E+00  0.55965096022E+03  0.24738833447E+04  0.24097488678E+04 0.  0.
        3    1    3    3  502    0 -0.31089915757E+03  0.13758307812E+03  0.14665026914E+04  0.15053961418E+04  0.10100000352E+00 0. -1.
       -3    1    3    3    0  502  0.31089915757E+03 -0.13758307812E+03 -0.90685173121E+03  0.96848720289E+03  0.10100000352E+00 0.  1.
</event>
<event>
 5   0  0.1169371E-05  0.2390216E+04  0.7818609E-02  0.8443176E-01
        2   -1    0    0  501    0  0.00000000000E+00  0.00000000000E+00  0.10848324792E+04  0.10848324792E+04  0.25500000920E-02 0.  1.
       -2   -1    0    0    0  501  0.00000000000E+00  0.00000000000E+00 -0.13165928322E+04  0.13165928322E+04  0.25500000920E-02 0. -1.
    10030    2    1    2    0    0  0.00000000000E+00  0.00000000000E+00 -0.23176035304E+03  0.24014253114E+04  0.23902156106E+04 0.  0.
        2    1    3    3  502    0  0.12215261146E+03 -0.10559303684E+04 -0.66467672959E+03  0.12536767359E+04  0.25500000920E-02 0.  1.
       -2    1    3    3    0  502 -0.12215261146E+03  0.10559303684E+04  0.43291637656E+03  0.11477485755E+04  0.25500000920E-02 0. -1.
</event>
<event>
 5   0  0.1154897E-05  0.2398865E+04  0.7818609E-02  0.8439928E-01
        2   -1    0    0  501    0  0.00000000000E+00  0.00000000000E+00  0.12032389510E+04  0.12032389510E+04  0.25500000920E-02 0. -1.
       -2   -1    0    0    0  501  0.00000000000E+00  0.00000000000E+00 -0.11956384853E+04  0.11956384853E+04  0.25500000920E-02 0.  1.
    10030    2    1    2    0    0  0.00000000000E+00  0.00000000000E+00  0.76004656426E+01  0.23988774363E+04  0.23988653958E+04 0.  0.
        4    1    3    3  502    0  0.73249365370E+03 -0.82692355329E+02  0.94998266373E+03  0.12024365483E+04  0.12699999809E+01 0. -1.
       -4    1    3    3    0  502 -0.73249365370E+03  0.82692355329E+02 -0.94238219809E+03  0.11964408880E+04  0.12699999809E+01 0.  1.
</event>
<event>
 5   0  0.5042742E-06  0.2387850E+04  0.7818609E-02  0.8444066E-01
        1   -1    0    0  501    0  0.00000000000E+00  0.00000000000E+00  0.16351332639E+04  0.16351332639E+04  0.50400001928E-02 0. -1.
       -1   -1    0    0    0  501  0.00000000000E+00  0.00000000000E+00 -0.87176836774E+03  0.87176836775E+03  0.50400001928E-02 0.  1.
    10030    2    1    2    0    0  0.00000000000E+00  0.00000000000E+00  0.76336489614E+03  0.25069016316E+04  0.23878504614E+04 0.  0.
        5    1    3    3  502    0  0.11509455888E+04  0.19408333170E+03  0.11797959334E+03  0.11731518923E+04  0.46999998093E+01 0. -1.
       -5    1    3    3    0  502 -0.11509455888E+04 -0.19408333170E+03  0.64538530280E+03  0.13337497393E+04  0.46999998093E+01 0.  1.
</event>
<event>
 5   0  0.5064437E-06  0.2402490E+04  0.7818609E-02  0.8438572E-01
       -1   -1    0    0    0  501  0.00000000000E+00  0.00000000000E+00  0.11941024991E+04  0.11941024991E+04  0.50400001928E-02 0. -1.
        1   -1    0    0  501    0  0.00000000000E+00  0.00000000000E+00 -0.12084297472E+04  0.12084297472E+04  0.50400001928E-02 0.  1.
    10030    2    1    2    0    0  0.00000000000E+00  0.00000000000E+00 -0.14327248134E+02  0.24025322463E+04  0.24024895264E+04 0.  0.
        2    1    3    3  502    0 -0.26842073304E+03 -0.48474825962E+03  0.10586688273E+04  0.11949101435E+04  0.25500000920E-02 0. -1.
       -2    1    3    3    0  502  0.26842073304E+03  0.48474825962E+03 -0.10729960755E+04  0.12076221028E+04  0.25500000920E-02 0.  1.
</event>
<event>
 5   0  0.1169371E-05  0.2401049E+04  0.7818609E-02  0.8439111E-01
        2   -1    0    0  501    0  0.00000000000E+00  0.00000000000E+00  0.97053609849E+03  0.97053609849E+03  0.25500000920E-02 0.  1.
       -2   -1    0    0    0  501  0.00000000000E+00  0.00000000000E+00 -0.14850135191E+04  0.14850135191E+04  0.25500000920E-02 0. -1.
    10030    2    1    2    0    0  0.00000000000E+00  0.00000000000E+00 -0.51447742066E+03  0.24555496176E+04  0.24010491266E+04 0.  0.
        2    1    3    3  502    0 -0.13687478738E+03  0.27254950310E+03  0.93025544117E+03  0.97897554867E+03  0.25500000920E-02 0.  1.
       -2    1    3    3    0  502  0.13687478738E+03 -0.27254950310E+03 -0.14447328618E+04  0.14765740690E+04  0.25500000920E-02 0. -1.
</event>
<event>
 5   0  0.1174210E-05  0.2401049E+04  0.7818609E-02  0.8439111E-01
        2   -1    0    0  501    0  0.00000000000E+00  0.00000000000E+00  0.22981488528E+04  0.22981488528E+04  0.25500000920E-02 0.  1.
       -2   -1    0    0    0  501  0.00000000000E+00  0.00000000000E+00 -0.62713897679E+03  0.62713897680E+03  0.25500000920E-02 0. -1.
    10030    2    1    2    0    0  0.00000000000E+00  0.00000000000E+00  0.16710098760E+04  0.29252878296E+04  0.24010487043E+04 0.  0.
        3    1    3    3  502    0 -0.61249376588E+03  0.31565249573E+03 -0.36223527845E+03  0.77845970895E+03  0.10100000352E+00 0. -1.
       -3    1    3    3    0  502  0.61249376588E+03 -0.31565249573E+03  0.20332451544E+04  0.21468281206E+04  0.10100000352E+00 0.  1.
</event>
<event>
 5   0  0.1198313E-05  0.2409432E+04  0.7818609E-02  0.8435981E-01
        2   -1    0    0  501    0  0.00000000000E+00  0.00000000000E+00  0.24188343912E+04  0.24188343912E+04  0.25500000920E-02 0.  1.
       -2   -1    0    0    0  501  0.00000000000E+00  0.00000000000E+00 -0.60001636432E+03  0.60001636432E+03  0.25500000920E-02 0. -1.
    10030    2    1    2    0    0  0.00000000000E+00  0.00000000000E+00  0.18188180269E+04  0.30188507556E+04  0.24094316486E+04 0.  0.
        5    1    3    3  502    0  0.79946673769E+03 -0.87249117020E+03  0.62665107214E+03  0.13390674229E+04  0.46999998093E+01 0. -1.
       -5    1    3    3    0  502 -0.79946673769E+03  0.87249117020E+03  0.11921669548E+04  0.16797833327E+04  0.46999998093E+01 0.  1.
</event>
<event>
 5   0  0.5064437E-06  0.2398249E+04  0.7818609E-02  0.8440159E-01
        1   -1    0    0  501    0  0.00000000000E+00  0.00000000000E+00  0.19904845688E+04  0.19904845688E+04  0.50400001928E-02 0. -1.
       -1   -1    0    0    0  501  0.00000000000E+00  0.00000000000E+00 -0.72238685053E+03  0.72238685055E+03  0.50400001928E-02 0.  1.
    10030    2    1    2    0    0  0.00000000000E+00  0.00000000000E+00  0.12680977183E+04  0.27128714193E+04  0.23982492604E+04 0.  0.
        2    1    3    3  502    0 -0.83365971351E+03 -0.84470492641E+03  0.44014013236E+03  0.12657955075E+04  0.25500000920E-02 0.  1.
       -2    1    3    3    0  502  0.83365971351E+03  0.84470492641E+03  0.82795758589E+03  0.14470759119E+04  0.25500000920E-02 0. -1.
</event>
<event>
 5   0  0.1169371E-05  0.2414065E+04  0.7818609E-02  0.8434257E-01
        2   -1    0    0  501    0  0.00000000000E+00  0.00000000000E+00  0.20787241286E+04  0.20787241286E+04  0.25500000920E-02 0. -1.
       -2   -1    0    0    0  501  0.00000000000E+00  0.00000000000E+00 -0.70087558157E+03  0.70087558157E+03  0.25500000920E-02 0.  1.
    10030    2    1    2    0    0  0.00000000000E+00  0.00000000000E+00  0.13778485471E+04  0.27795997102E+04  0.24140646077E+04 0.  0.
        2    1    3    3  502    0 -0.36577952119E+03 -0.92801839158E+03  0.14714777416E+04  0.17777118825E+04  0.25500000920E-02 0. -1.
       -2    1    3    3    0  502  0.36577952119E+03  0.92801839158E+03 -0.93629194511E+02  0.10018878277E+04  0.25500000920E-02 0.  1.
</event>
<event>
 5   0  0.5064437E-06  0.2414240E+04  0.7818609E-02  0.8434192E-01
       -1   -1    0    0    0  501  0.00000000000E+00  0.00000000000E+00  0.18008510406E+04  0.18008510406E+04  0.50400001928E-02 0. -1.
        1   -1    0    0  501    0  0.00000000000E+00  0.00000000000E+00 -0.80913872106E+03  0.80913872108E+03  0.50400001928E-02 0.  1.
    10030    2    1    2    0    0  0.00000000000E+00  0.00000000000E+00  0.99171231957E+03  0.26099897617E+04  0.24142396798E+04 0.  0.
        2    1    3    3  502    0 -0.35762236858E+03 -0.42137383541E+03  0.16560377284E+04  0.17458266310E+04  0.25500000920E-02 0. -1.
       -2    1    3    3    0  502  0.35762236858E+03  0.42137383541E+03 -0.66432540882E+03  0.86416313071E+03  0.25500000920E-02 0.  1.
</event>
<event>
 5   0  0.1198313E-05  0.2398739E+04  0.7818609E-02  0.8439976E-01
        2   -1    0    0  501    0  0.00000000000E+00  0.00000000000E+00  0.13442308256E+04  0.13442308256E+04  0.25500000920E-02 0. -1.
       -2   -1    0    0    0  501  0.00000000000E+00  0.00000000000E+00 -0.10701191063E+04  0.10701191063E+04  0.25500000920E-02 0.  1.
    10030    2    1    2    0    0  0.00000000000E+00  0.00000000000E+00  0.27411171934E+03  0.24143499319E+04  0.23987389102E+04 0.  0.
        5    1    3    3  502    0  0.29056559197E+03  0.60609936697E+02 -0.10325580185E+04  0.10743835811E+04  0.46999998093E+01 0.  1.
       -5    1    3    3    0  502 -0.29056559197E+03 -0.60609936697E+02  0.13066697379E+04  0.13399663509E+04  0.46999998093E+01 0. -1.
</event>
<event>
 5   0  0.5196696E-06  0.2388047E+04  0.7818609E-02  0.8443992E-01
       -1   -1    0    0    0  501  0.00000000000E+00  0.00000000000E+00  0.85080818834E+03  0.85080818835E+03  0.50400001928E-02 0. -1.
        1   -1    0    0  501    0  0.00000000000E+00  0.00000000000E+00 -0.16756922744E+04  0.16756922744E+04  0.50400001928E-02 0.  1.
    10030    2    1    2    0    0  0.00000000000E+00  0.00000000000E+00 -0.82488408610E+03  0.25265004628E+04  0.23880474939E+04 0.  0.
        1    1    3    3  502    0 -0.48217217436E+02  0.11174244111E+04  0.29800760219E+02  0.11188611620E+04  0.50400001928E-02 0.  1.
       -1    1    3    3    0  502  0.48217217436E+02 -0.11174244111E+04 -0.85468484632E+03  0.14076393008E+04  0.50400001928E-02 0. -1.
</event>
<event>
 5   0  0.5064437E-06  0.2401144E+04  0.7818609E-02  0.8439075E-01
       -1   -1    0    0    0  501  0.00000000000E+00  0.00000000000E+00  0.10159150116E+04  0.10159150116E+04  0.50400001928E-02 0. -1.
        1   -1    0    0  501    0  0.00000000000E+00  0.00000000000E+00 -0.14187930951E+04  0.14187930951E+04  0.50400001928E-02 0.  1.
    10030    2    1    2    0    0  0.00000000000E+00  0.00000000000E+00 -0.40287808353E+03  0.24347081067E+04  0.24011440637E+04 0.  0.
        2    1    3    3  502    0  0.10018212825E+04 -0.27362556524E+03  0.40935678467E+03  0.11162839286E+04  0.25500000920E-02 0. -1.
       -2    1    3    3    0  502 -0.10018212825E+04  0.27362556524E+03 -0.81223486820E+03  0.13184241780E+04  0.25500000920E-02 0.  1.
</event>
<event>
 5   0  0.5196696E-06  0.2406579E+04  0.7818609E-02  0.8437044E-01
        1   -1    0    0  501    0  0.00000000000E+00  0.00000000000E+00  0.13841419143E+04  0.13841419143E+04  0.50400001928E-02 0.  1.
       -1   -1    0    0    0  501  0.00000000000E+00  0.00000000000E+00 -0.10460677048E+04  0.10460677048E+04  0.50400001928E-02 0. -1.
    10030    2    1    2    0    0  0.00000000000E+00  0.00000000000E+00  0.33807420954E+03  0.24302096191E+04  0.24065794443E+04 0.  0.
        1    1    3    3  502    0 -0.56792152172E+03  0.32149983404E+02  0.12397965529E+04  0.13640615708E+04  0.50400001928E-02 0.  1.
       -1    1    3    3    0  502  0.56792152172E+03 -0.32149983404E+02 -0.90172234340E+03  0.10661480483E+04  0.50400001928E-02 0. -1.
</event>
<event>
 5   0  0.1198313E-05  0.2400994E+04  0.7818609E-02  0.8439131E-01
       -2   -1    0    0    0  501  0.00000000000E+00  0.00000000000E+00  0.51166139773E+03  0.51166139774E+03  0.25500000920E-02 0.  1.
        2   -1    0    0  501    0  0.00000000000E+00  0.00000000000E+00 -0.28166937752E+04  0.28166937752E+04  0.25500000920E-02 0. -1.
    10030    2    1    2    0    0  0.00000000000E+00  0.00000000000E+00 -0.23050323775E+04  0.33283551729E+04  0.24009943557E+04 0.  0.
        5    1    3    3  502    0 -0.50894902154E+03 -0.10409739698E+04 -0.71741452322E+03  0.13628505422E+04  0.46999998093E+01 0.  1.
       -5    1    3    3    0  502  0.50894902154E+03  0.10409739698E+04 -0.15876178542E+04  0.19655046307E+04  0.46999998093E+01 0. -1.
</event>
<event>
 5   0  0.5042742E-06  0.2400273E+04  0.7818609E-02  0.8439401E-01
       -1   -1    0    0    0  501  0.00000000000E+00  0.00000000000E+00  0.73446152784E+03  0.73446152786E+03  0.50400001928E-02 0.  1.
        1   -1    0    0  501    0  0.00000000000E+00  0.00000000000E+00 -0.19610663207E+04  0.19610663207E+04  0.50400001928E-02 0. -1.
    10030    2    1    2    0    0  0.00000000000E+00  0.00000000000E+00 -0.12266047929E+04  0.26955278486E+04  0.24002731229E+04 0.  0.
        5    1    3    3  502    0  0.29624832748E+03  0.10415861367E+04 -0.32324751852E+02  0.10833890028E+04  0.46999998093E+01 0.  1.
       -5    1    3    3    0  502 -0.29624832748E+03 -0.10415861367E+04 -0.11942800410E+04  0.16121388458E+04  0.46999998093E+01 0. -1.
</event>
<event>
 5   0  0.5104174E-06  0.2404248E+04  0.7818609E-02  0.8437915E-01
        1   -1    0    0  501    0  0.00000000000E+00  0.00000000000E+00  0.15127278594E+04  0.15127278594E+04  0.50400001928E-02 0.  1.
       -1   -1    0    0    0  501  0.00000000000E+00  0.00000000000E+00 -0.95529519737E+03  0.95529519739E+03  0.50400001928E-02 0. -1.
    10030    2    1    2    0    0  0.00000000000E+00  0.00000000000E+00  0.55743266205E+03  0.24680230568E+04  0.24042476237E+04 0.  0.
        3    1    3    3  502    0 -0.79152171493E+02 -0.11904161590E+04  0.12733956568E+03  0.11998212671E+04  0.10100000352E+00 0. -1.
       -3    1    3    3    0  502  0.79152171493E+02  0.11904161590E+04  0.43009309636E+03  0.12682017897E+04  0.10100000352E+00 0.  1.
</event>
<event>
 5   0  0.1168435E-05  0.2400956E+04  0.7818609E-02  0.8439146E-01
       -2   -1    0    0    0  501  0.00000000000E+00  0.00000000000E+00  0.66241398436E+03  0.66241398436E+03  0.25500000920E-02 0.  1.
        2   -1    0    0  501    0  0.00000000000E+00  0.00000000000E+00 -0.21755988523E+04  0.21755988523E+04  0.25500000920E-02 0. -1.
    10030    2    1    2    0    0  0.00000000000E+00  0.00000000000E+00 -0.15131848679E+04  0.28380128366E+04  0.24009557298E+04 0.  0.
        1    1    3    3  502    0 -0.10601234970E+04 -0.44371068803E+03 -0.34643135299E+03  0.12003148278E+04  0.50400001928E-02 0.  1.
       -1    1    3    3    0  502  0.10601234970E+04  0.44371068803E+03 -0.11667535149E+04  0.16376980088E+04  0.50400001928E-02 0. -1.
</event>
<event>
 5   0  0.5104174E-06  0.2407507E+04  0.7818609E-02  0.8436698E-01
       -1   -1    0    0    0  501  0.00000000000E+00  0.00000000000E+00  0.70341042317E+03  0.70341042318E+03  0.50400001928E-02 0.  1.
        1   -1    0    0  501    0  0.00000000000E+00  0.00000000000E+00 -0.20599953590E+04  0.20599953590E+04  0.50400001928E-02 0. -1.
    10030    2    1    2    0    0  0.00000000000E+00  0.00000000000E+00 -0.13565849358E+04  0.27634057822E+04  0.24075067661E+04 0.  0.
        3    1    3    3  502    0  0.98149450261E+03  0.43948465696E+03 -0.12991225101E+04  0.16864748824E+04  0.10100000352E+00 0. -1.
       -3    1    3    3    0  502 -0.98149450261E+03 -0.43948465696E+03 -0.57462425678E+02  0.10769308998E+04  0.10100000352E+00 0.  1.
</event>
<event>
 5   0  0.1174210E-05  0.2423556E+04  0.7818609E-02  0.8430737E-01
       -2   -1    0    0    0  501  0.00000000000E+00  0.00000000000E+00  0.73163492771E+03  0.73163492771E+03  0.25500000920E-02 0. -1.
        2   -1    0    0  501    0  0.00000000000E+00  0.00000000000E+00 -0.20070202618E+04  0.20070202618E+04  0.25500000920E-02 0.  1.
    10030    2    1    2    0    0  0.00000000000E+00  0.00000000000E+00 -0.12753853341E+04  0.27386551895E+04  0.24235561674E+04 0.  0.
        3    1    3    3  502    0  0.11835982090E+04  0.23044082139E+02 -0.93012513946E+03  0.15055127151E+04  0.10100000352E+00 0.  1.
       -3    1    3    3    0  502 -0.11835982090E+04 -0.23044082139E+02 -0.34526019465E+03  0.12331424744E+04  0.10100000352E+00 0. -1.
</event>
<event>
 5   0  0.5196696E-06  0.2395334E+04  0.7818609E-02  0.8441252E-01
       -1   -1    0    0    0  501  0.00000000000E+00  0.00000000000E+00  0.10876206979E+04  0.10876206979E+04  0.50400001928E-02 0. -1.
        1   -1    0    0  501    0  0.00000000000E+00  0.00000000000E+00 -0.13188479832E+04  0.13188479832E+04  0.50400001928E-02 0.  1.
    10030    2    1    2    0    0  0.00000000000E+00  0.00000000000E+00 -0.23122728528E+03  0.24064686811E+04  0.23953341011E+04 0.  0.
        1    1    3    3  502    0 -0.50861984393E+03 -0.89377532503E+03  0.50114386472E+03  0.11439727490E+04  0.50400001928E-02 0. -1.
       -1    1    3    3    0  502  0.50861984393E+03  0.89377532503E+03 -0.73237114999E+03  0.12624959321E+04  0.50400001928E-02 0.  1.
</event>
<event>
 5   0  0.5196696E-06  0.2370847E+04  0.7818609E-02  0.8450499E-01
       -1   -1    0    0    0  501  0.00000000000E+00  0.00000000000E+00  0.14762597228E+04  0.14762597228E+04  0.50400001928E-02 0. -1.
        1   -1    0    0  501    0  0.00000000000E+00  0.00000000000E+00 -0.95188488841E+03  0.95188488842E+03  0.50400001928E-02 0.  1.
    10030    2    1    2    0    0  0.00000000000E+00  0.00000000000E+00  0.52437483434E+03  0.24281446112E+04  0.23708473772E+04 0.  0.
        1    1    3    3  502    0 -0.25755441089E+03 -0.36085223209E+03 -0.86378239496E+03  0.97091123891E+03  0.50400001928E-02 0.  1.
       -1    1    3    3    0  502  0.25755441089E+03  0.36085223209E+03  0.13881572293E+04  0.14572333723E+04  0.50400001928E-02 0. -1.
</event>
<event>
 5   0  0.1168435E-05  0.2403395E+04  0.7818609E-02  0.8438234E-01
       -2   -1    0    0    0  501  0.00000000000E+00  0.00000000000E+00  0.78921092427E+03  0.78921092427E+03  0.25500000920E-02 0.  1.
        2   -1    0    0  501    0  0.00000000000E+00  0.00000000000E+00 -0.18297732717E+04  0.18297732717E+04  0.25500000920E-02 0. -1.
    10030    2    1    2    0    0  0.00000000000E+00  0.00000000000E+00 -0.10405623474E+04  0.26189841960E+04  0.24033951444E+04 0.  0.
        1    1    3    3  502    0  0.50994432260E+03 -0.10576576381E+04 -0.24161953148E+03  0.11987755793E+04  0.50400001928E-02 0.  1.
       -1    1    3    3    0  502 -0.50994432260E+03  0.10576576381E+04 -0.79894281595E+03  0.14202086166E+04  0.50400001928E-02 0. -1.
</event>
<event>
 5   0  0.5104174E-06  0.2398913E+04  0.7818609E-02  0.8439910E-01
        1   -1    0    0  501    0  0.00000000000E+00  0.00000000000E+00  0.69809878851E+03  0.69809878853E+03  0.50400001928E-02 0. -1.
       -1   -1    0    0    0  501  0.00000000000E+00  0.00000000000E+00 -0.20608778881E+04  0.20608778881E+04  0.50400001928E-02 0.  1.
    10030    2    1    2    0    0  0.00000000000E+00  0.00000000000E+00 -0.13627790995E+04  0.27589766766E+04  0.23989133848E+04 0.  0.
        3    1    3    3  502    0  0.76206798411E+03  0.86666749503E+03 -0.30547195600E+03  0.11938062177E+04  0.10100000352E+00 0. -1.
       -3    1    3    3    0  502 -0.76206798411E+03 -0.86666749503E+03 -0.10573071435E+04  0.15651704589E+04  0.10100000352E+00 0.  1.
</event>
<event>
 5   0  0.5196696E-06  0.2401136E+04  0.7818609E-02  0.8439079E-01
       -1   -1    0    0    0  501  0.00000000000E+00  0.00000000000E+00  0.59082455183E+03  0.59082455185E+03  0.50400001928E-02 0. -1.
        1   -1    0    0  501    0  0.00000000000E+00  0.00000000000E+00 -0.24395788550E+04  0.24395788550E+04  0.50400001928E-02 0.  1.
    10030    2    1    2    0    0  0.00000000000E+00  0.00000000000E+00 -0.18487543032E+04  0.30304034069E+04  0.24011356344E+04 0.  0.
        1    1    3    3  502    0 -0.32840756647E+03  0.17293104176E+03  0.51659967280E+03  0.63610682820E+03  0.50400001928E-02 0. -1.
       -1    1    3    3    0  502  0.32840756647E+03 -0.17293104176E+03 -0.23653539760E+04  0.23942965787E+04  0.50400001928E-02 0.  1.
</event>
<event>
 5   0  0.1174210E-05  0.2390288E+04  0.7818609E-02  0.8443149E-01
        2   -1    0    0  501    0  0.00000000000E+00  0.00000000000E+00  0.14303833294E+04  0.14303833294E+04  0.25500000920E-02 0. -1.
       -2   -1    0    0    0  501  0.00000000000E+00  0.00000000000E+00 -0.99859183320E+03  0.99859183321E+03  0.25500000920E-02 0.  1.
    10030    2    1    2    0    0  0.00000000000E+00  0.00000000000E+00  0.43179149617E+03  0.24289751626E+04  0.23902879417E+04 0.  0.
        3    1    3    3  502    0 -0.24125226887E+01  0.10561479727E+04  0.78433736254E+03  0.13155377110E+04  0.10100000352E+00 0. -1.
       -3    1    3    3    0  502  0.24125226887E+01 -0.10561479727E+04 -0.35254586636E+03  0.11134374516E+04  0.10100000352E+00 0.  1.
</event>
<event>
 5   0  0.1198313E-05  0.2331060E+04  0.7818609E-02  0.8465774E-01
        2   -1    0    0  501    0  0.00000000000E+00  0.00000000000E+00  0.17124110747E+04  0.17124110748E+04  0.25500000920E-02 0.  1.
       -2   -1    0    0    0  501  0.00000000000E+00  0.00000000000E+00 -0.79330291819E+03  0.79330291819E+03  0.25500000920E-02 0. -1.
    10030    2    1    2    0    0  0.00000000000E+00  0.00000000000E+00  0.91910815656E+03  0.25057139929E+04  0.23310604477E+04 0.  0.
        5    1    3    3  502    0 -0.71939485261E+02 -0.80359195327E+03 -0.44459948124E+03  0.92120904555E+03  0.46999998093E+01 0. -1.
       -5    1    3    3    0  502  0.71939485261E+02  0.80359195327E+03  0.13637076378E+04  0.15845049474E+04  0.46999998093E+01 0.  1.
</event>
<event>
 5   0  0.1169371E-05  0.2402659E+04  0.7818609E-02  0.8438509E-01
        2   -1    0    0  501    0  0.00000000000E+00  0.00000000000E+00  0.21441544873E+04  0.21441544873E+04  0.25500000920E-02 0. -1.
       -2   -1    0    0    0  501  0.00000000000E+00  0.00000000000E+00 -0.67308237493E+03  0.67308237494E+03  0.25500000920E-02 0.  1.
    10030    2    1    2    0    0  0.00000000000E+00  0.00000000000E+00  0.14710721124E+04  0.28172368623E+04  0.24026590225E+04 0.  0.
        2    1    3    3  502    0  0.43886270577E+02 -0.79343084623E+03  0.17919596968E+04  0.19602494911E+04  0.25500000920E-02 0. -1.
       -2    1    3    3    0  502 -0.43886270577E+02  0.79343084623E+03 -0.32088758439E+03  0.85698737115E+03  0.25500000920E-02 0.  1.
</event>
<event>
 5   0  0.1169371E-05  0.2367446E+04  0.7818609E-02  0.8451793E-01
        2   -1    0    0  501    0  0.00000000000E+00  0.00000000000E+00  0.11446503486E+04  0.11446503486E+04  0.25500000920E-02 0. -1.
       -2   -1    0    0    0  501  0.00000000000E+00  0.00000000000E+00 -0.12241296796E+04  0.12241296796E+04  0.25500000920E-02 0.  1.
    10030    2    1    2    0    0  0.00000000000E+00  0.00000000000E+00 -0.79479331024E+02  0.23687800283E+04  0.23674462736E+04 0.  0.
        2    1    3    3  502    0  0.84366059543E+03  0.39301478327E+03  0.69209337331E+03  0.11598349269E+04  0.25500000920E-02 0. -1.
       -2    1    3    3    0  502 -0.84366059543E+03 -0.39301478327E+03 -0.77157270434E+03  0.12089451014E+04  0.25500000920E-02 0.  1.
</event>
<event>
 5   0  0.1174210E-05  0.2398781E+04  0.7818609E-02  0.8439960E-01
       -2   -1    0    0    0  501  0.00000000000E+00  0.00000000000E+00  0.11038390835E+04  0.11038390835E+04  0.25500000920E-02 0. -1.
        2   -1    0    0  501    0  0.00000000000E+00  0.00000000000E+00 -0.13032136394E+04  0.13032136394E+04  0.25500000920E-02 0.  1.
    10030    2    1    2    0    0  0.00000000000E+00  0.00000000000E+00 -0.19937455590E+03  0.24070527228E+04  0.23987814817E+04 0.  0.
        3    1    3    3  502    0 -0.77219536697E+03 -0.67607751330E+03 -0.72244923195E+03  0.12551093146E+04  0.10100000352E+00 0.  1.
       -3    1    3    3    0  502  0.77219536697E+03  0.67607751330E+03  0.52307467605E+03  0.11519434082E+04  0.10100000352E+00 0. -1.
</event>
<event>
 5   0  0.5064437E-06  0.2428350E+04  0.7818609E-02  0.8428966E-01
       -1   -1    0    0    0  501  0.00000000000E+00  0.00000000000E+00  0.13448760871E+04  0.13448760871E+04  0.50400001928E-02 0.  1.
        1   -1    0    0  501    0  0.00000000000E+00  0.00000000000E+00 -0.10961757483E+04  0.10961757483E+04  0.50400001928E-02 0. -1.
    10030    2    1    2    0    0  0.00000000000E+00  0.00000000000E+00  0.24870033884E+03  0.24410518354E+04  0.24283496875E+04 0.  0.
        2    1    3    3  502    0  0.94495584858E+03  0.64304663261E+03  0.53609007293E+03  0.12624749874E+04  0.25500000920E-02 0.  1.
       -2    1    3    3    0  502 -0.94495584858E+03 -0.64304663261E+03 -0.28738973409E+03  0.11785768480E+04  0.25500000920E-02 0. -1.
</event>
<event>
 5   0  0.1168435E-05  0.2413615E+04  0.7818609E-02  0.8434424E-01
        2   -1    0    0  501    0  0.00000000000E+00  0.00000000000E+00  0.25262698353E+04  0.25262698353E+04  0.25500000920E-02 0. -1.
       -2   -1    0    0    0  501  0.00000000000E+00  0.00000000000E+00 -0.57649589635E+03  0.57649589636E+03  0.25500000920E-02 0.  1.
    10030    2    1    2    0    0  0.00000000000E+00  0.00000000000E+00  0.19497739390E+04  0.31027657317E+04  0.24136148766E+04 0.  0.
        1    1    3    3  502    0  0.84298312282E+03 -0.66622781955E+03  0.16812298086E+04  0.19952477847E+04  0.50400001928E-02 0.  1.
       -1    1    3    3    0  502 -0.84298312282E+03  0.66622781955E+03  0.26854413034E+03  0.11075179470E+04  0.50400001928E-02 0. -1.
</event>
<event>
 5   0  0.5104174E-06  0.2405076E+04  0.7818609E-02  0.8437606E-01
        1   -1    0    0  501    0  0.00000000000E+00  0.00000000000E+00  0.16014050554E+04  0.16014050554E+04  0.50400001928E-02 0. -1.
       -1   -1    0    0    0  501  0.00000000000E+00  0.00000000000E+00 -0.90301777683E+03  0.90301777684E+03  0.50400001928E-02 0.  1.
    10030    2    1    2    0    0  0.00000000000E+00  0.00000000000E+00  0.69838727859E+03  0.25044228323E+04  0.24050756603E+04 0.  0.
        3    1    3    3  502    0  0.11919656062E+03 -0.11910897912E+04  0.22958141150E+03  0.12188561627E+04  0.10100000352E+00 0.  1.
       -3    1    3    3    0  502 -0.11919656062E+03  0.11910897912E+04  0.46880586708E+03  0.12855666696E+04  0.10100000352E+00 0. -1.
</event>
<event>
 5   0  0.5104174E-06  0.2371953E+04  0.7818609E-02  0.8450079E-01
        1   -1    0    0  501    0  0.00000000000E+00  0.00000000000E+00  0.14179873995E+04  0.14179873995E+04  0.50400001928E-02 0.  1.
       -1   -1    0    0    0  501  0.00000000000E+00  0.00000000000E+00 -0.99192686081E+03  0.99192686082E+03  0.50400001928E-02 0. -1.
    10030    2    1    2    0    0  0.00000000000E+00  0.00000000000E+00  0.42606053871E+03  0.24099142603E+04  0.23719526048E+04 0.  0.
        3    1    3    3  502    0  0.91588409489E+03 -0.58245414197E+03 -0.27257654823E+03  0.11191043238E+04  0.10100000352E+00 0. -1.
       -3    1    3    3    0  502 -0.91588409489E+03  0.58245414197E+03  0.69863708694E+03  0.12908099365E+04  0.10100000352E+00 0.  1.
</event>
<event>
 5   0  0.5034479E-06  0.2399967E+04  0.7818609E-02  0.8439516E-01
       -1   -1    0    0    0  501  0.00000000000E+00  0.00000000000E+00  0.15163299936E+04  0.15163299936E+04  0.50400001928E-02 0. -1.
        1   -1    0    0  501    0  0.00000000000E+00  0.00000000000E+00 -0.94963527908E+03  0.94963527909E+03  0.50400001928E-02 0.  1.
    10030    2    1    2    0    0  0.00000000000E+00  0.00000000000E+00  0.56669471456E+03  0.24659652727E+04  0.23999670470E+04 0.  0.
        4    1    3    3  502    0  0.11447964297E+03  0.10317772381E+04 -0.33510926379E+03  0.10908573185E+04  0.12699999809E+01 0.  1.
       -4    1    3    3    0  502 -0.11447964297E+03 -0.10317772381E+04  0.90180397835E+03  0.13751079543E+04  0.12699999809E+01 0. -1.
</event>
<event>
 5   0  0.1154897E-05  0.2405263E+04  0.7818609E-02  0.8437536E-01
       -2   -1    0    0    0  501  0.00000000000E+00  0.00000000000E+00  0.92880695913E+03  0.92880695914E+03  0.25500000920E-02 0.  1.
        2   -1    0    0  501    0  0.00000000000E+00  0.00000000000E+00 -0.15571834329E+04  0.15571834329E+04  0.25500000920E-02 0. -1.
    10030    2    1    2    0    0  0.00000000000E+00  0.00000000000E+00 -0.62837647381E+03  0.24859903921E+04  0.24052632365E+04 0.  0.
        4    1    3    3  502    0  0.26027423996E+03 -0.11713699179E+04 -0.39733083630E+03  0.12640109062E+04  0.12699999809E+01 0.  1.
       -4    1    3    3    0  502 -0.26027423996E+03  0.11713699179E+04 -0.23104563751E+03  0.12219794859E+04  0.12699999809E+01 0. -1.
</event>
<event>
 5   0  0.5104174E-06  0.2388056E+04  0.7818609E-02  0.8443989E-01
       -1   -1    0    0    0  501  0.00000000000E+00  0.00000000000E+00  0.62806796056E+03  0.62806796058E+03  0.50400001928E-02 0. -1.
        1   -1    0    0  501    0  0.00000000000E+00  0.00000000000E+00 -0.22699819503E+04  0.22699819503E+04  0.50400001928E-02 0.  1.
    10030    2    1    2    0    0  0.00000000000E+00  0.00000000000E+00 -0.16419139898E+04  0.28980499109E+04  0.23880560580E+04 0.  0.
        3    1    3    3  502    0 -0.35872479229E+03  0.30963483241E+03  0.50906613002E+03  0.69548942549E+03  0.10100000352E+00 0. -1.
       -3    1    3    3    0  502  0.35872479229E+03 -0.30963483241E+03 -0.21509801198E+04  0.22025604854E+04  0.10100000352E+00 0.  1.
</event>
<event>
 5   0  0.1198313E-05  0.2397405E+04  0.7818609E-02  0.8440476E-01
       -2   -1    0    0    0  501  0.00000000000E+00  0.00000000000E+00  0.86873555831E+03  0.86873555832E+03  0.25500000920E-02 0.  1.
        2   -1    0    0  501    0  0.00000000000E+00  0.00000000000E+00 -0.16539994210E+04  0.16539994210E+04  0.25500000920E-02 0. -1.
    10030    2    1    2    0    0  0.00000000000E+00  0.00000000000E+00 -0.78526386267E+03  0.25227349793E+04  0.23974053562E+04 0.  0.
        5    1    3    3  502    0 -0.11340495070E+04  0.80494845341E+01  0.15907749851E+02  0.11341993762E+04  0.46999998093E+01 0. -1.
       -5    1    3    3    0  502  0.11340495070E+04 -0.80494845341E+01 -0.80117161252E+03  0.13885356031E+04  0.46999998093E+01 0.  1.
</event>
<event>
 5   0  0.5104174E-06  0.2396247E+04  0.7818609E-02  0.8440910E-01
       -1   -1    0    0    0  501  0.00000000000E+00  0.00000000000E+00  0.54717441211E+03  0.54717441214E+03  0.50400001928E-02 0.  1.
        1   -1    0    0  501    0  0.00000000000E+00  0.00000000000E+00 -0.26234780496E+04  0.26234780496E+04  0.50400001928E-02 0. -1.
    10030    2    1    2    0    0  0.00000000000E+00  0.00000000000E+00 -0.20763036375E+04  0.31706524618E+04  0.23962471154E+04 0.  0.
        3    1    3    3  502    0 -0.78142469515E+03  0.90796318454E+03 -0.10092123721E+04  0.15663752171E+04  0.10100000352E+00 0. -1.
       -3    1    3    3    0  502  0.78142469515E+03 -0.90796318454E+03 -0.10670912655E+04  0.16042772446E+04  0.10100000352E+00 0.  1.
</event>
<event>
 5   0  0.1168435E-05  0.2398492E+04  0.7818609E-02  0.8440068E-01
        2   -1    0    0  501    0  0.00000000000E+00  0.00000000000E+00  0.22854172070E+04  0.22854172070E+04  0.25500000920E-02 0.  1.
       -2   -1    0    0    0  501  0.00000000000E+00  0.00000000000E+00 -0.62929035290E+03  0.62929035291E+03  0.25500000920E-02 0. -1.
    10030    2    1    2    0    0  0.00000000000E+00  0.00000000000E+00  0.16561268541E+04  0.29147075599E+04  0.23984920269E+04 0.  0.
        1    1    3    3  502    0 -0.10091673126E+04 -0.92558532220E+02  0.48796874879E+02  0.10145771936E+04  0.50400001928E-02 0. -1.
       -1    1    3    3    0  502  0.10091673126E+04  0.92558532220E+02  0.16073299792E+04  0.19001303663E+04  0.50400001928E-02 0.  1.
</event>
<event>
 5   0  0.5104174E-06  0.2394444E+04  0.7818609E-02  0.8441586E-01
       -1   -1    0    0    0  501  0.00000000000E+00  0.00000000000E+00  0.71701603056E+03  0.71701603058E+03  0.50400001928E-02 0. -1.
        1   -1    0    0  501    0  0.00000000000E+00  0.00000000000E+00 -0.19990361432E+04  0.19990361432E+04  0.50400001928E-02 0.  1.
    10030    2    1    2    0    0  0.00000000000E+00  0.00000000000E+00 -0.12820201126E+04  0.27160521738E+04  0.23944443701E+04 0.  0.
        3    1    3    3  502    0  0.77618312018E+03  0.28912231293E+03 -0.16215779113E+04  0.18208698143E+04  0.10100000352E+00 0.  1.
       -3    1    3    3    0  502 -0.77618312018E+03 -0.28912231293E+03  0.33955779869E+03  0.89518235949E+03  0.10100000352E+00 0. -1.
</event>
<event>
 5   0  0.1198313E-05  0.2418674E+04  0.7818609E-02  0.8432545E-01
       -2   -1    0    0    0  501  0.00000000000E+00  0.00000000000E+00  0.10951131910E+04  0.10951131910E+04  0.25500000920E-02 0.  1.
        2   -1    0    0  501    0  0.00000000000E+00  0.00000000000E+00 -0.13354745976E+04  0.13354745976E+04  0.25500000920E-02 0. -1.
    10030    2    1    2    0    0  0.00000000000E+00  0.00000000000E+00 -0.24036140653E+03  0.24305877886E+04  0.24186738913E+04 0.  0.
        5    1    3    3  502    0 -0.96394174503E+02  0.45376152772E+03  0.10021384943E+04  0.11043074810E+04  0.46999998093E+01 0.  1.
       -5    1    3    3    0  502  0.96394174503E+02 -0.45376152772E+03 -0.12424999008E+04  0.13262803076E+04  0.46999998093E+01 0. -1.
</event>
<event>
 5   0  0.1174210E-05  0.2400673E+04  0.7818609E-02  0.8439251E-01
        2   -1    0    0  501    0  0.00000000000E+00  0.00000000000E+00  0.16551966509E+04  0.16551966509E+04  0.25500000920E-02 0. -1.
       -2   -1    0    0    0  501  0.00000000000E+00  0.00000000000E+00 -0.87047555393E+03  0.87047555394E+03  0.25500000920E-02 0.  1.
    10030    2    1    2    0    0  0.00000000000E+00  0.00000000000E+00  0.78472109692E+03  0.25256722048E+04  0.24006734235E+04 0.  0.
        3    1    3    3  502    0  0.28303410162E+02  0.68868073613E+03 -0.64152116960E+03  0.94161120458E+03  0.10100000352E+00 0.  1.
       -3    1    3    3    0  502 -0.28303410162E+02 -0.68868073613E+03  0.14262422665E+04  0.15840610002E+04  0.10100000352E+00 0. -1.
</event>
<event>
 5   0  0.1174210E-05  0.2398921E+04  0.7818609E-02  0.8439908E-01
       -2   -1    0    0    0  501  0.00000000000E+00  0.00000000000E+00  0.16051107684E+04  0.16051107684E+04  0.25500000920E-02 0. -1.
        2   -1    0    0  501    0  0.00000000000E+00  0.00000000000E+00 -0.89632763714E+03  0.89632763715E+03  0.25500000920E-02 0.  1.
    10030    2    1    2    0    0  0.00000000000E+00  0.00000000000E+00  0.70878313130E+03  0.25014384056E+04  0.23989207094E+04 0.  0.
        3    1    3    3  502    0 -0.21676025851E+03  0.20233855543E+03 -0.85750654153E+03  0.90732760327E+03  0.10100000352E+00 0.  1.
       -3    1    3    3    0  502  0.21676025851E+03 -0.20233855543E+03  0.15662896728E+04  0.15941108023E+04  0.10100000352E+00 0. -1.
</event>
<event>
 5   0  0.5196696E-06  0.2392224E+04  0.7818609E-02  0.8442421E-01
       -1   -1    0    0    0  501  0.00000000000E+00  0.00000000000E+00  0.15915320143E+04  0.15915320143E+04  0.50400001928E-02 0.  1.
        1   -1    0    0  501    0  0.00000000000E+00  0.00000000000E+00 -0.89893504204E+03  0.89893504205E+03  0.50400001928E-02 0. -1.
    10030    2    1    2    0    0  0.00000000000E+00  0.00000000000E+00  0.69259697221E+03  0.24904670563E+04  0.23922239846E+04 0.  0.
        1    1    3    3  502    0 -0.10390690482E+04 -0.57467171570E+03  0.49634169513E+03  0.12869604291E+04  0.50400001928E-02 0. -1.
       -1    1    3    3    0  502  0.10390690482E+04  0.57467171570E+03  0.19625527708E+03  0.12035066272E+04  0.50400001928E-02 0.  1.
</event>
<event>
 5   0  0.5034479E-06  0.2397252E+04  0.7818609E-02  0.8440533E-01
        1   -1    0    0  501    0  0.00000000000E+00  0.00000000000E+00  0.22895181247E+04  0.22895181247E+04  0.50400001928E-02 0. -1.
       -1   -1    0    0    0  501  0.00000000000E+00  0.00000000000E+00 -0.62751386730E+03  0.62751386732E+03  0.50400001928E-02 0.  1.
    10030    2    1    2    0    0  0.00000000000E+00  0.00000000000E+00  0.16620042574E+04  0.29170319920E+04  0.23972520708E+04 0.  0.
        4    1    3    3  502    0  0.81264981961E+03 -0.91130271282E+02  0.18973713960E+04  0.20660891276E+04  0.12699999809E+01 0. -1.
       -4    1    3    3    0  502 -0.81264981961E+03  0.91130271282E+02 -0.23536713866E+03  0.85094286443E+03  0.12699999809E+01 0.  1.
</event>
<event>
 5   0  0.5196696E-06  0.2400025E+04  0.7818609E-02  0.8439494E-01
        1   -1    0    0  501    0  0.00000000000E+00  0.00000000000E+00  0.13023918737E+04  0.13023918737E+04  0.50400001928E-02 0. -1.
       -1   -1    0    0    0  501  0.00000000000E+00  0.00000000000E+00 -0.11056812800E+04  0.11056812800E+04  0.50400001928E-02 0.  1.
    10030    2    1    2    0    0  0.00000000000E+00  0.00000000000E+00  0.19671059372E+03  0.24080731538E+04  0.24000252616E+04 0.  0.
        1    1    3    3  502    0 -0.10814160250E+04 -0.81149337270E+02  0.61387237898E+03  0.12461481179E+04  0.50400001928E-02 0. -1.
       -1    1    3    3    0  502  0.10814160250E+04  0.81149337270E+02 -0.41716178525E+03  0.11619250359E+04  0.50400001928E-02 0.  1.
</event>
<event>
 5   0  0.4067750E-06  0.2400290E+04  0.7818609E-02  0.8439395E-01
        3   -1    0    0  501    0  0.00000000000E+00  0.00000000000E+00  0.99196860246E+03  0.99196860761E+03  0.10100000352E+00 0.  1.
       -3   -1    0    0    0  501  0.00000000000E+00  0.00000000000E+00 -0.14520094164E+04  0.14520094199E+04  0.10100000352E+00 0. -1.
    10030    2    1    2    0    0  0.00000000000E+00  0.00000000000E+00 -0.46004081394E+03  0.24439780275E+04  0.24002897843E+04 0.  0.
        4    1    3    3  502    0 -0.66585314532E+03  0.54987159450E+03  0.61859212376E+03  0.10622509167E+04  0.12699999809E+01 0.  1.
       -4    1    3    3    0  502  0.66585314532E+03 -0.54987159450E+03 -0.10786329377E+04  0.13817271108E+04  0.12699999809E+01 0. -1.
</event>
<event>
 5   0  0.5104174E-06  0.2406918E+04  0.7818609E-02  0.8436918E-01
        1   -1    0    0  501    0  0.00000000000E+00  0.00000000000E+00  0.19661030099E+04  0.19661030099E+04  0.50400001928E-02 0. -1.
       -1   -1    0    0    0  501  0.00000000000E+00  0.00000000000E+00 -0.73664162004E+03  0.73664162006E+03  0.50400001928E-02 0.  1.
    10030    2    1    2    0    0  0.00000000000E+00  0.00000000000E+00  0.12294613899E+04  0.27027446300E+04  0.24069177854E+04 0.  0.
        3    1    3    3  502    0  0.23554242015E+03 -0.11104503653E+04  0.10635186065E+04  0.15555230895E+04  0.10100000352E+00 0. -1.
       -3    1    3    3    0  502 -0.23554242015E+03  0.11104503653E+04  0.16594278340E+03  0.11472215405E+04  0.10100000352E+00 0.  1.
</event>
<event>
 5   0  0.5034479E-06  0.2426799E+04  0.7818609E-02  0.8429538E-01
       -1   -1    0    0    0  501  0.00000000000E+00  0.00000000000E+00  0.64413605683E+03  0.64413605685E+03  0.50400001928E-02 0. -1.
        1   -1    0    0  501    0  0.00000000000E+00  0.00000000000E+00 -0.22857571407E+04  0.22857571407E+04  0.50400001928E-02 0.  1.
    10030    2    1    2    0    0  0.00000000000E+00  0.00000000000E+00 -0.16416210838E+04  0.29298931975E+04  0.24267992018E+04 0.  0.
        4    1    3    3  502    0 -0.36338001820E+03 -0.41365666018E+03 -0.21262557698E+04  0.21963884178E+04  0.12699999809E+01 0.  1.
       -4    1    3    3    0  502  0.36338001820E+03  0.41365666018E+03  0.48463468599E+03  0.73350477974E+03  0.12699999809E+01 0. -1.
</event>
<event>
 5   0  0.5064437E-06  0.2418974E+04  0.7818609E-02  0.8432434E-01
       -1   -1    0    0    0  501  0.00000000000E+00  0.00000000000E+00  0.65865302114E+03  0.65865302116E+03  0.50400001928E-02 0. -1.
        1   -1    0    0  501    0  0.00000000000E+00  0.00000000000E+00 -0.22209856563E+04  0.22209856563E+04  0.50400001928E-02 0.  1.
    10030    2    1    2    0    0  0.00000000000E+00  0.00000000000E+00 -0.15623326351E+04  0.28796386774E+04  0.24189740903E+04 0.  0.
        2    1    3    3  502    0  0.86341246945E+03  0.21035062027E+03  0.19552290527E+03  0.90992180012E+03  0.25500000920E-02 0. -1.
       -2    1    3    3    0  502 -0.86341246945E+03 -0.21035062027E+03 -0.17578555404E+04  0.19697168773E+04  0.25500000920E-02 0.  1.
</event>
<event>
 5   0  0.1169371E-05  0.2397626E+04  0.7818609E-02  0.8440393E-01
        2   -1    0    0  501    0  0.00000000000E+00  0.00000000000E+00  0.12234527251E+04  0.12234527251E+04  0.25500000920E-02 0.  1.
       -2   -1    0    0    0  501  0.00000000000E+00  0.00000000000E+00 -0.11746693867E+04  0.11746693867E+04  0.25500000920E-02 0. -1.
    10030    2    1    2    0    0  0.00000000000E+00  0.00000000000E+00  0.48783338434E+02  0.23981221118E+04  0.23976258776E+04 0.  0.
        2    1    3    3  502    0  0.22462032111E+03  0.20597285292E+03 -0.11352763267E+04  0.11754707324E+04  0.25500000920E-02 0. -1.
       -2    1    3    3    0  502 -0.22462032111E+03 -0.20597285292E+03  0.11840596652E+04  0.12226513794E+04  0.25500000920E-02 0.  1.
</event>
<event>
 5   0  0.5042742E-06  0.2451385E+04  0.7818609E-02  0.8420512E-01
        1   -1    0    0  501    0  0.00000000000E+00  0.00000000000E+00  0.10199613492E+04  0.10199613492E+04  0.50400001928E-02 0. -1.
       -1   -1    0    0    0  501  0.00000000000E+00  0.00000000000E+00 -0.14729207040E+04  0.14729207040E+04  0.50400001928E-02 0.  1.
    10030    2    1    2    0    0  0.00000000000E+00  0.00000000000E+00 -0.45295935483E+03  0.24928820532E+04  0.24513850685E+04 0.  0.
        5    1    3    3  502    0 -0.14340718527E+03 -0.54680057384E+03 -0.13324296948E+04  0.14473933363E+04  0.46999998093E+01 0.  1.
       -5    1    3    3    0  502  0.14340718527E+03  0.54680057384E+03  0.87947033997E+03  0.10454887169E+04  0.46999998093E+01 0. -1.
</event>
<event>
 5   0  0.5104174E-06  0.2406701E+04  0.7818609E-02  0.8436999E-01
        1   -1    0    0  501    0  0.00000000000E+00  0.00000000000E+00  0.15483639002E+04  0.15483639002E+04  0.50400001928E-02 0.  1.
       -1   -1    0    0    0  501  0.00000000000E+00  0.00000000000E+00 -0.93521423197E+03  0.93521423198E+03  0.50400001928E-02 0. -1.
    10030    2    1    2    0    0  0.00000000000E+00  0.00000000000E+00  0.61314966827E+03  0.24835781322E+04  0.24067006094E+04 0.  0.
        3    1    3    3  502    0 -0.55058702180E+03  0.10326146131E+03 -0.79245328234E+03  0.97045927934E+03  0.10100000352E+00 0. -1.
       -3    1    3    3    0  502  0.55058702180E+03 -0.10326146131E+03  0.14056029506E+04  0.15131188529E+04  0.10100000352E+00 0.  1.
</event>
<event>
 5   0  0.1169371E-05  0.2404038E+04  0.7818609E-02  0.8437993E-01
        2   -1    0    0  501    0  0.00000000000E+00  0.00000000000E+00  0.21967966467E+04  0.21967966467E+04  0.25500000920E-02 0. -1.
       -2   -1    0    0    0  501  0.00000000000E+00  0.00000000000E+00 -0.65770742852E+03  0.65770742852E+03  0.25500000920E-02 0.  1.
    10030    2    1    2    0    0  0.00000000000E+00  0.00000000000E+00  0.15390892182E+04  0.28545040753E+04  0.24040378312E+04 0.  0.
        2    1    3    3  502    0 -0.33236615588E+03 -0.15867409153E+03  0.21281494414E+04  0.21597835016E+04  0.25500000920E-02 0. -1.
       -2    1    3    3    0  502  0.33236615588E+03  0.15867409153E+03 -0.58906022318E+03  0.69472057364E+03  0.25500000920E-02 0.  1.
</event>
<event>
 5   0  0.5064437E-06  0.2386671E+04  0.7818609E-02  0.8444511E-01
       -1   -1    0    0    0  501  0.00000000000E+00  0.00000000000E+00  0.79698902000E+03  0.79698902001E+03  0.50400001928E-02 0. -1.
        1   -1    0    0  501    0  0.00000000000E+00  0.00000000000E+00 -0.17867872381E+04  0.17867872381E+04  0.50400001928E-02 0.  1.
    10030    2    1    2    0    0  0.00000000000E+00  0.00000000000E+00 -0.98979821807E+03  0.25837762581E+04  0.23866711628E+04 0.  0.
        2    1    3    3  502    0 -0.12193183411E+02 -0.10402493975E+04 -0.11278020572E+04  0.15343418664E+04  0.25500000920E-02 0. -1.
       -2    1    3    3    0  502  0.12193183411E+02  0.10402493975E+04  0.13800383918E+03  0.10494343917E+04  0.25500000920E-02 0.  1.
</event>
<event>
 5   0  0.5042742E-06  0.2420342E+04  0.7818609E-02  0.8431927E-01
        1   -1    0    0  501    0  0.00000000000E+00  0.00000000000E+00  0.22559680974E+04  0.22559680974E+04  0.50400001928E-02 0. -1.
       -1   -1    0    0    0  501  0.00000000000E+00  0.00000000000E+00 -0.64917334016E+03  0.64917334018E+03  0.50400001928E-02 0.  1.
    10030    2    1    2    0    0  0.00000000000E+00  0.00000000000E+00  0.16067947572E+04  0.29051414376E+04  0.24203424098E+04 0.  0.
        5    1    3    3  502    0 -0.54404948934E+03 -0.10642645041E+04  0.57615176186E+03  0.13268842166E+04  0.46999998093E+01 0.  1.
       -5    1    3    3    0  502  0.54404948934E+03  0.10642645041E+04  0.10306429954E+04  0.15782572210E+04  0.46999998093E+01 0. -1.
</event>
<event>
 5   0  0.1168435E-05  0.2415625E+04  0.7818609E-02  0.8433677E-01
       -2   -1    0    0    0  501  0.00000000000E+00  0.00000000000E+00  0.14113786173E+04  0.14113786173E+04  0.25500000920E-02 0. -1.
        2   -1    0    0  501    0  0.00000000000E+00  0.00000000000E+00 -0.10336071237E+04  0.10336071237E+04  0.25500000920E-02 0.  1.
    10030    2    1    2    0    0  0.00000000000E+00  0.00000000000E+00  0.37777149357E+03  0.24449857410E+04  0.24156249652E+04 0.  0.
        1    1    3    3  502    0 -0.77381865959E+02  0.10440271238E+04 -0.42078963361E+03  0.11282927387E+04  0.50400001928E-02 0.  1.
       -1    1    3    3    0  502  0.77381865959E+02 -0.10440271238E+04  0.79856112718E+03  0.13166930023E+04  0.50400001928E-02 0. -1.
</event>
<event>
 5   0  0.1169371E-05  0.2391912E+04  0.7818609E-02  0.8442538E-01
        2   -1    0    0  501    0  0.00000000000E+00  0.00000000000E+00  0.21478869859E+04  0.21478869859E+04  0.25500000920E-02 0.  1.
       -2   -1    0    0    0  501  0.00000000000E+00  0.00000000000E+00 -0.66591514941E+03  0.66591514941E+03  0.25500000920E-02 0. -1.
    10030    2    1    2    0    0  0.00000000000E+00  0.00000000000E+00  0.14819718364E+04  0.28138021353E+04  0.23919117735E+04 0.  0.
        2    1    3    3  502    0 -0.44240998536E+03 -0.71334543615E+03  0.17431379137E+04  0.19347139563E+04  0.25500000920E-02 0.  1.
       -2    1    3    3    0  502  0.44240998536E+03  0.71334543615E+03 -0.26116607730E+03  0.87908817895E+03  0.25500000920E-02 0. -1.
</event>
<event>
 5   0  0.1154897E-05  0.2417244E+04  0.7818609E-02  0.8433076E-01
       -2   -1    0    0    0  501  0.00000000000E+00  0.00000000000E+00  0.10117514346E+04  0.10117514346E+04  0.25500000920E-02 0. -1.
        2   -1    0    0  501    0  0.00000000000E+00  0.00000000000E+00 -0.14438003322E+04  0.14438003322E+04  0.25500000920E-02 0.  1.
    10030    2    1    2    0    0  0.00000000000E+00  0.00000000000E+00 -0.43204889757E+03  0.24555517668E+04  0.24172439326E+04 0.  0.
        4    1    3    3  502    0 -0.23878614324E+03 -0.51844760957E+02 -0.14184460999E+04  0.14393393111E+04  0.12699999809E+01 0.  1.
       -4    1    3    3    0  502  0.23878614324E+03  0.51844760957E+02  0.98639720230E+03  0.10162124557E+04  0.12699999809E+01 0. -1.
</event>
<event>
 5   0  0.1198313E-05  0.2404797E+04  0.7818609E-02  0.8437710E-01
        2   -1    0    0  501    0  0.00000000000E+00  0.00000000000E+00  0.12644583907E+04  0.12644583907E+04  0.25500000920E-02 0. -1.
       -2   -1    0    0    0  501  0.00000000000E+00  0.00000000000E+00 -0.11433843800E+04  0.11433843800E+04  0.25500000920E-02 0.  1.
    10030    2    1    2    0    0  0.00000000000E+00  0.00000000000E+00  0.12107401071E+03  0.24078427706E+04  0.24047968505E+04 0.  0.
        5    1    3    3  502    0  0.25658709760E+02 -0.11460470542E+04  0.42384319868E+03  0.12221895789E+04  0.46999998093E+01 0.  1.
       -5    1    3    3    0  502 -0.25658709760E+02  0.11460470542E+04 -0.30276918797E+03  0.11856531917E+04  0.46999998093E+01 0. -1.
</event>
<event>
 5   0  0.1154897E-05  0.2492347E+04  0.7818609E-02  0.8405717E-01
       -2   -1    0    0    0  501  0.00000000000E+00  0.00000000000E+00  0.10118714822E+04  0.10118714822E+04  0.25500000920E-02 0.  1.
        2   -1    0    0  501    0  0.00000000000E+00  0.00000000000E+00 -0.15347289683E+04  0.15347289683E+04  0.25500000920E-02 0. -1.
    10030    2    1    2    0    0  0.00000000000E+00  0.00000000000E+00 -0.52285748605E+03  0.25466004505E+04  0.24923470673E+04 0.  0.
        4    1    3    3  502    0  0.72755514062E+03 -0.96157145219E+03 -0.58290547148E+03  0.13393044993E+04  0.12699999809E+01 0. -1.
       -4    1    3    3    0  502 -0.72755514062E+03  0.96157145219E+03  0.60047985436E+02  0.12072959512E+04  0.12699999809E+01 0.  1.
</event>
<event>
 5   0  0.1168435E-05  0.2396685E+04  0.7818609E-02  0.8440746E-01
       -2   -1    0    0    0  501  0.00000000000E+00  0.00000000000E+00  0.61511421983E+03  0.61511421983E+03  0.25500000920E-02 0.  1.
        2   -1    0    0  501    0  0.00000000000E+00  0.00000000000E+00 -0.23345658768E+04  0.23345658768E+04  0.25500000920E-02 0. -1.
    10030    2    1    2    0    0  0.00000000000E+00  0.00000000000E+00 -0.17194516569E+04  0.29496800966E+04  0.23966849338E+04 0.  0.
        1    1    3    3  502    0 -0.45972375308E+03  0.92038070557E+03 -0.10347238044E+03  0.10339986005E+04  0.50400001928E-02 0.  1.
       -1    1    3    3    0  502  0.45972375308E+03 -0.92038070557E+03 -0.16159792765E+04  0.19156814961E+04  0.50400001928E-02 0. -1.
</event>
<event>
 5   0  0.5064437E-06  0.2395161E+04  0.7818609E-02  0.8441318E-01
       -1   -1    0    0    0  501  0.00000000000E+00  0.00000000000E+00  0.11980521415E+04  0.11980521415E+04  0.50400001928E-02 0.  1.
        1   -1    0    0  501    0  0.00000000000E+00  0.00000000000E+00 -0.11971085825E+04  0.11971085825E+04  0.50400001928E-02 0. -1.
    10030    2    1    2    0    0  0.00000000000E+00  0.00000000000E+00  0.94355907203E+00  0.23951607240E+04  0.23951605382E+04 0.  0.
        2    1    3    3  502    0  0.53862518144E+03 -0.94910026312E+03 -0.49277272687E+03  0.11973860513E+04  0.25500000920E-02 0. -1.
       -2    1    3    3    0  502 -0.53862518144E+03  0.94910026312E+03  0.49371628594E+03  0.11977746727E+04  0.25500000920E-02 0.  1.
</event>
<event>
 5   0  0.1169371E-05  0.2400024E+04  0.7818609E-02  0.8439495E-01
       -2   -1    0    0    0  501  0.00000000000E+00  0.00000000000E+00  0.81614919584E+03  0.81614919584E+03  0.25500000920E-02 0.  1.
        2   -1    0    0  501    0  0.00000000000E+00  0.00000000000E+00 -0.17644183632E+04  0.17644183632E+04  0.25500000920E-02 0. -1.
    10030    2    1    2    0    0  0.00000000000E+00  0.00000000000E+00 -0.94826916734E+03  0.25805675590E+04  0.24000238567E+04 0.  0.
        2    1    3    3  502    0  0.10502786060E+04 -0.47795117003E+03 -0.82831689346E+03  0.14204335068E+04  0.25500000920E-02 0. -1.
       -2    1    3    3    0  502 -0.10502786060E+04  0.47795117003E+03 -0.11995227388E+03  0.11601340522E+04  0.25500000920E-02 0.  1.
</event>
<event>
 5   0  0.1174210E-05  0.2400471E+04  0.7818609E-02  0.8439327E-01
       -2   -1    0    0    0  501  0.00000000000E+00  0.00000000000E+00  0.92470666344E+03  0.92470666344E+03  0.25500000920E-02 0. -1.
        2   -1    0    0  501    0  0.00000000000E+00  0.00000000000E+00 -0.15578617613E+04  0.15578617613E+04  0.25500000920E-02 0.  1.
    10030    2    1    2    0    0  0.00000000000E+00  0.00000000000E+00 -0.63315509790E+03  0.24825684248E+04  0.24004709133E+04 0.  0.
        3    1    3    3  502    0 -0.10256950178E+04 -0.29763488023E+03 -0.88296489039E+03  0.13857358332E+04  0.10100000352E+00 0.  1.
       -3    1    3    3    0  502  0.10256950178E+04  0.29763488023E+03  0.24980979249E+03  0.10968325916E+04  0.10100000352E+00 0. -1.
</event>
<event>
 5   0  0.1198313E-05  0.2403368E+04  0.7818609E-02  0.8438244E-01
        2   -1    0    0  501    0  0.00000000000E+00  0.00000000000E+00  0.12805944675E+04  0.12805944675E+04  0.25500000920E-02 0. -1.
       -2   -1    0    0    0  501  0.00000000000E+00  0.00000000000E+00 -0.11276363871E+04  0.11276363871E+04  0.25500000920E-02 0.  1.
    10030    2    1    2    0    0  0.00000000000E+00  0.00000000000E+00  0.15295808039E+03  0.24082308546E+04  0.24033684018E+04 0.  0.
        5    1    3    3  502    0  0.70510386398E+03 -0.57678258777E+03  0.86175663384E+03  0.12539921047E+04  0.46999998093E+01 0. -1.
       -5    1    3    3    0  502 -0.70510386398E+03  0.57678258777E+03 -0.70879855345E+03  0.11542387500E+04  0.46999998093E+01 0.  1.
</event>
<event>
 5   0  0.1168435E-05  0.2515337E+04  0.7818609E-02  0.8397542E-01
       -2   -1    0    0    0  501  0.00000000000E+00  0.00000000000E+00  0.98424877053E+03  0.98424877054E+03  0.25500000920E-02 0.  1.
        2   -1    0    0  501    0  0.00000000000E+00  0.00000000000E+00 -0.16070430199E+04  0.16070430199E+04  0.25500000920E-02 0. -1.
    10030    2    1    2    0    0  0.00000000000E+00  0.00000000000E+00 -0.62279424935E+03  0.25912917904E+04  0.25153370482E+04 0.  0.
        1    1    3    3  502    0 -0.34820299054E+03  0.11823075804E+04 -0.53572884645E+02  0.12336801009E+04  0.50400001928E-02 0.  1.
       -1    1    3    3    0  502  0.34820299054E+03 -0.11823075804E+04 -0.56922136470E+03  0.13576116895E+04  0.50400001928E-02 0. -1.
</event>
<event>
 5   0  0.5196696E-06  0.2395020E+04  0.7818609E-02  0.8441370E-01
       -1   -1    0    0    0  501  0.00000000000E+00  0.00000000000E+00  0.46417543651E+03  0.46417543654E+03  0.50400001928E-02 0.  1.
        1   -1    0    0  501    0  0.00000000000E+00  0.00000000000E+00 -0.30894133634E+04  0.30894133634E+04  0.50400001928E-02 0. -1.
    10030    2    1    2    0    0  0.00000000000E+00  0.00000000000E+00 -0.26252379269E+04  0.35535887999E+04  0.23950196630E+04 0.  0.
        1    1    3    3  502    0 -0.10763560690E+04 -0.22264793276E+03 -0.60738873669E+03  0.12558007671E+04  0.50400001928E-02 0.  1.
       -1    1    3    3    0  502  0.10763560690E+04  0.22264793276E+03 -0.20178491902E+04  0.22977880328E+04  0.50400001928E-02 0. -1.
</event>
<event>
 5   0  0.1169371E-05  0.2394541E+04  0.7818609E-02  0.8441550E-01
        2   -1    0    0  501    0  0.00000000000E+00  0.00000000000E+00  0.13173222547E+04  0.13173222547E+04  0.25500000920E-02 0.  1.
       -2   -1    0    0    0  501  0.00000000000E+00  0.00000000000E+00 -0.10881590092E+04  0.10881590092E+04  0.25500000920E-02 0. -1.
    10030    2    1    2    0    0  0.00000000000E+00  0.00000000000E+00  0.22916324552E+03  0.24054812639E+04  0.23945405234E+04 0.  0.
        2    1    3    3  502    0  0.38147641106E+03  0.10309628381E+04  0.59114080219E+03  0.12481410472E+04  0.25500000920E-02 0.  1.
       -2    1    3    3    0  502 -0.38147641106E+03 -0.10309628381E+04 -0.36197755667E+03  0.11573402167E+04  0.25500000920E-02 0. -1.
</event>
<event>
 5   0  0.5042742E-06  0.2379167E+04  0.7818609E-02  0.8447344E-01
       -1   -1    0    0    0  501  0.00000000000E+00  0.00000000000E+00  0.70025397956E+03  0.70025397958E+03  0.50400001928E-02 0. -1.
        1   -1    0    0  501    0  0.00000000000E+00  0.00000000000E+00 -0.20208512846E+04  0.20208512846E+04  0.50400001928E-02 0.  1.
    10030    2    1    2    0    0  0.00000000000E+00  0.00000000000E+00 -0.13205973050E+04  0.27211052642E+04  0.23791672107E+04 0.  0.
        5    1    3    3  502    0  0.11122591907E+04  0.37346873685E+03 -0.88467709434E+03  0.14694471940E+04  0.46999998093E+01 0. -1.
       -5    1    3    3    0  502 -0.11122591907E+04 -0.37346873685E+03 -0.43592021069E+03  0.12516580702E+04  0.46999998093E+01 0.  1.
</event>
<event>
 5   0  0.1198313E-05  0.2397104E+04  0.7818609E-02  0.8440589E-01
        2   -1    0    0  501    0  0.00000000000E+00  0.00000000000E+00  0.20651779034E+04  0.20651779034E+04  0.25500000920E-02 0. -1.
       -2   -1    0    0    0  501  0.00000000000E+00  0.00000000000E+00 -0.69559480385E+03  0.69559480385E+03  0.25500000920E-02 0.  1.
    10030    2    1    2    0    0  0.00000000000E+00  0.00000000000E+00  0.13695830996E+04  0.27607727073E+04  0.23971041017E+04 0.  0.
        5    1    3    3  502    0 -0.32066371351E+02 -0.18259167673E+03  0.20485547772E+04  0.20569313887E+04  0.46999998093E+01 0. -1.
       -5    1    3    3    0  502  0.32066371351E+02  0.18259167673E+03 -0.67897167768E+03  0.70384131853E+03  0.46999998093E+01 0.  1.
</event>
<event>
 5   0  0.5034479E-06  0.2405281E+04  0.7818609E-02  0.8437529E-01
        1   -1    0    0  501    0  0.00000000000E+00  0.00000000000E+00  0.27345637556E+04  0.27345637556E+04  0.50400001928E-02 0. -1.
       -1   -1    0    0    0  501  0.00000000000E+00  0.00000000000E+00 -0.52891207984E+03  0.52891207986E+03  0.50400001928E-02 0.  1.
    10030    2    1    2    0    0  0.00000000000E+00  0.00000000000E+00  0.22056516757E+04  0.32634758354E+04  0.24052806934E+04 0.  0.
        4    1    3    3  502    0 -0.25007512575E+03  0.10829008973E+04  0.17262589805E+04  0.20530912309E+04  0.12699999809E+01 0. -1.
       -4    1    3    3    0  502  0.25007512575E+03 -0.10829008973E+04  0.47939269529E+03  0.12103846046E+04  0.12699999809E+01 0.  1.
</event>
<event>
 5   0  0.1154897E-05  0.2398789E+04  0.7818609E-02  0.8439957E-01
       -2   -1    0    0    0  501  0.00000000000E+00  0.00000000000E+00  0.62972502177E+03  0.62972502177E+03  0.25500000920E-02 0. -1.
        2   -1    0    0  501    0  0.00000000000E+00  0.00000000000E+00 -0.22844048859E+04  0.22844048859E+04  0.25500000920E-02 0.  1.
    10030    2    1    2    0    0  0.00000000000E+00  0.00000000000E+00 -0.16546798642E+04  0.29141299077E+04  0.23987887915E+04 0.  0.
        4    1    3    3  502    0 -0.86908675515E+03  0.70254724833E+03 -0.29827889700E+03  0.11566573985E+04  0.12699999809E+01 0. -1.
       -4    1    3    3    0  502  0.86908675515E+03 -0.70254724833E+03 -0.13564009672E+04  0.17574725092E+04  0.12699999809E+01 0.  1.
</event>
<event>
 5   0  0.5196696E-06  0.2398938E+04  0.7818609E-02  0.8439901E-01
       -1   -1    0    0    0  501  0.00000000000E+00  0.00000000000E+00  0.17122027796E+04  0.17122027796E+04  0.50400001928E-02 0.  1.
        1   -1    0    0  501    0  0.00000000000E+00  0.00000000000E+00 -0.84027743266E+03  0.84027743268E+03  0.50400001928E-02 0. -1.
    10030    2    1    2    0    0  0.00000000000E+00  0.00000000000E+00  0.87192534691E+03  0.25524802123E+04  0.23989375614E+04 0.  0.
        1    1    3    3  502    0  0.13269256430E+03  0.58895937836E+03  0.15387584336E+04  0.16529543197E+04  0.50400001928E-02 0.  1.
       -1    1    3    3    0  502 -0.13269256430E+03 -0.58895937836E+03 -0.66683308666E+03  0.89952589260E+03  0.50400001928E-02 0. -1.
</event>
<event>
 5   0  0.1168435E-05  0.2374371E+04  0.7818609E-02  0.8449161E-01
       -2   -1    0    0    0  501  0.00000000000E+00  0.00000000000E+00  0.88233961836E+03  0.88233961837E+03  0.25500000920E-02 0.  1.
        2   -1    0    0  501    0  0.00000000000E+00  0.00000000000E+00 -0.15973553229E+04  0.15973553229E+04  0.25500000920E-02 0. -1.
    10030    2    1    2    0    0  0.00000000000E+00  0.00000000000E+00 -0.71501570455E+03  0.24796949413E+04  0.23743713998E+04 0.  0.
        1    1    3    3  502    0 -0.23504642335E+01  0.79577157407E+03  0.56256662545E+03  0.97454560226E+03  0.50400001928E-02 0.  1.
       -1    1    3    3    0  502  0.23504642335E+01 -0.79577157407E+03 -0.12775823300E+04  0.15051493390E+04  0.50400001928E-02 0. -1.
</event>
<event>
 5   0  0.5034479E-06  0.2390547E+04  0.7818609E-02  0.8443051E-01
       -1   -1    0    0    0  501  0.00000000000E+00  0.00000000000E+00  0.54550013327E+03  0.54550013330E+03  0.50400001928E-02 0.  1.
        1   -1    0    0  501    0  0.00000000000E+00  0.00000000000E+00 -0.26190244934E+04  0.26190244934E+04  0.50400001928E-02 0. -1.
    10030    2    1    2    0    0  0.00000000000E+00  0.00000000000E+00 -0.20735243601E+04  0.31645246267E+04  0.23905465569E+04 0.  0.
        4    1    3    3  502    0  0.70756045930E+03 -0.20161066399E+03 -0.22837667158E+04  0.23993500555E+04  0.12699999809E+01 0. -1.
       -4    1    3    3    0  502 -0.70756045930E+03  0.20161066399E+03  0.21024235573E+03  0.76517457122E+03  0.12699999809E+01 0.  1.
</event>
<event>
 5   0  0.1174210E-05  0.2379144E+04  0.7818609E-02  0.8447353E-01
        2   -1    0    0  501    0  0.00000000000E+00  0.00000000000E+00  0.14312994175E+04  0.14312994175E+04  0.25500000920E-02 0. -1.
       -2   -1    0    0    0  501  0.00000000000E+00  0.00000000000E+00 -0.98866902651E+03  0.98866902651E+03  0.25500000920E-02 0.  1.
    10030    2    1    2    0    0  0.00000000000E+00  0.00000000000E+00  0.44263039100E+03  0.24199684440E+04  0.23791438811E+04 0.  0.
        3    1    3    3  502    0 -0.57065332296E+03 -0.83099169771E+02  0.12796159539E+04  0.14035553736E+04  0.10100000352E+00 0. -1.
       -3    1    3    3    0  502  0.57065332296E+03  0.83099169771E+02 -0.83698556291E+03  0.10164130704E+04  0.10100000352E+00 0.  1.
</event>
<event>
 5   0  0.5104174E-06  0.2402784E+04  0.7818609E-02  0.8438462E-01
        1   -1    0    0  501    0  0.00000000000E+00  0.00000000000E+00  0.11388639799E+04  0.11388639800E+04  0.50400001928E-02 0. -1.
       -1   -1    0    0    0  501  0.00000000000E+00  0.00000000000E+00 -0.12673532356E+04  0.12673532356E+04  0.50400001928E-02 0.  1.
    10030    2    1    2    0    0  0.00000000000E+00  0.00000000000E+00 -0.12848925568E+03  0.24062172156E+04  0.24027841767E+04 0.  0.
        3    1    3    3  502    0 -0.42050318251E+03 -0.94701018121E+03 -0.67313615964E+03  0.12356227213E+04  0.10100000352E+00 0.  1.
       -3    1    3    3    0  502  0.42050318251E+03  0.94701018121E+03  0.54464690397E+03  0.11705944943E+04  0.10100000352E+00 0. -1.
</event>
<event>
 5   0  0.1168435E-05  0.2399934E+04  0.7818609E-02  0.8439528E-01
       -2   -1    0    0    0  501  0.00000000000E+00  0.00000000000E+00  0.13236895467E+04  0.13236895467E+04  0.25500000920E-02 0. -1.
        2   -1    0    0  501    0  0.00000000000E+00  0.00000000000E+00 -0.10878085634E+04  0.10878085634E+04  0.25500000920E-02 0.  1.
    10030    2    1    2    0    0  0.00000000000E+00  0.00000000000E+00  0.23588098331E+03  0.24114981100E+04  0.23999340192E+04 0.  0.
        1    1    3    3  502    0 -0.89703036210E+03  0.61147313744E+03 -0.39575468301E+03  0.11555018985E+04  0.50400001928E-02 0.  1.
       -1    1    3    3    0  502  0.89703036210E+03 -0.61147313744E+03  0.63163566632E+03  0.12559962115E+04  0.50400001928E-02 0. -1.
</event>
<event>
 5   0  0.5034479E-06  0.2407489E+04  0.7818609E-02  0.8436705E-01
        1   -1    0    0  501    0  0.00000000000E+00  0.00000000000E+00  0.15159836346E+04  0.15159836346E+04  0.50400001928E-02 0.  1.
       -1   -1    0    0    0  501  0.00000000000E+00  0.00000000000E+00 -0.95581561552E+03  0.95581561553E+03  0.50400001928E-02 0. -1.
    10030    2    1    2    0    0  0.00000000000E+00  0.00000000000E+00  0.56016801909E+03  0.24717992502E+04  0.24074890080E+04 0.  0.
        4    1    3    3  502    0 -0.25579534872E+03  0.11434677806E+04  0.56322109499E+03  0.13000651678E+04  0.12699999809E+01 0. -1.
       -4    1    3    3    0  502  0.25579534872E+03 -0.11434677806E+04 -0.30530758983E+01  0.11717340824E+04  0.12699999809E+01 0.  1.
</event>
<event>
 5   0  0.1174210E-05  0.2395020E+04  0.7818609E-02  0.8441370E-01
       -2   -1    0    0    0  501  0.00000000000E+00  0.00000000000E+00  0.11509669771E+04  0.11509669771E+04  0.25500000920E-02 0.  1.
        2   -1    0    0  501    0  0.00000000000E+00  0.00000000000E+00 -0.12459355823E+04  0.12459355823E+04  0.25500000920E-02 0. -1.
    10030    2    1    2    0    0  0.00000000000E+00  0.00000000000E+00 -0.94968605176E+02  0.23969025594E+04  0.23950204265E+04 0.  0.
        3    1    3    3  502    0 -0.63992475542E+03  0.99557229798E+03  0.13531412372E+03  0.11912085524E+04  0.10100000352E+00 0. -1.
       -3    1    3    3    0  502  0.63992475542E+03 -0.99557229798E+03 -0.23028272889E+03  0.12056940070E+04  0.10100000352E+00 0.  1.
</event>
<event>
 5   0  0.5034479E-06  0.2394055E+04  0.7818609E-02  0.8441733E-01
       -1   -1    0    0    0  501  0.00000000000E+00  0.00000000000E+00  0.96166082767E+03  0.96166082769E+03  0.50400001928E-02 0. -1.
        1   -1    0    0  501    0  0.00000000000E+00  0.00000000000E+00 -0.14900003364E+04  0.14900003364E+04  0.50400001928E-02 0.  1.
    10030    2    1    2    0    0  0.00000000000E+00  0.00000000000E+00 -0.52833950873E+03  0.24516611641E+04  0.23940551011E+04 0.  0.
        4    1    3    3  502    0 -0.45553641820E+03 -0.22079517793E+03 -0.13749866161E+04  0.14652145734E+04  0.12699999809E+01 0.  1.
       -4    1    3    3    0  502  0.45553641820E+03  0.22079517793E+03  0.84664710736E+03  0.98644659065E+03  0.12699999809E+01 0. -1.
</event>
<event>
 5   0  0.4067750E-06  0.2383886E+04  0.7818609E-02  0.8445561E-01
       -3   -1    0    0    0  501  0.00000000000E+00  0.00000000000E+00  0.16504396400E+04  0.16504396431E+04  0.10100000352E+00 0.  1.
        3   -1    0    0  501    0  0.00000000000E+00  0.00000000000E+00 -0.86081775046E+03  0.86081775639E+03  0.10100000352E+00 0. -1.
    10030    2    1    2    0    0  0.00000000000E+00  0.00000000000E+00  0.78962188951E+03  0.25112573994E+04  0.23838856931E+04 0.  0.
        4    1    3    3  502    0  0.78653338829E+03  0.84724390236E+03  0.89009120591E+02  0.11594745523E+04  0.12699999809E+01 0. -1.
       -4    1    3    3    0  502 -0.78653338829E+03 -0.84724390236E+03  0.70061276891E+03  0.13517828471E+04  0.12699999809E+01 0.  1.
</event>
<event>
 5   0  0.5034479E-06  0.2351081E+04  0.7818609E-02  0.8458049E-01
        1   -1    0    0  501    0  0.00000000000E+00  0.00000000000E+00  0.16494086937E+04  0.16494086937E+04  0.50400001928E-02 0.  1.
       -1   -1    0    0    0  501  0.00000000000E+00  0.00000000000E+00 -0.83781269091E+03  0.83781269092E+03  0.50400001928E-02 0. -1.
    10030    2    1    2    0    0  0.00000000000E+00  0.00000000000E+00  0.81159600278E+03  0.24872213846E+04  0.23510810587E+04 0.  0.
        4    1    3    3  502    0  0.47107463294E+03 -0.79779485236E+03 -0.35963585305E+03  0.99384480476E+03  0.12699999809E+01 0. -1.
       -4    1    3    3    0  502 -0.47107463294E+03  0.79779485236E+03  0.11712318558E+04  0.14933765799E+04  0.12699999809E+01 0.  1.
</event>
<event>
 5   0  0.5042742E-06  0.2390276E+04  0.7818609E-02  0.8443153E-01
       -1   -1    0    0    0  501  0.00000000000E+00  0.00000000000E+00  0.10551799150E+04  0.10551799150E+04  0.50400001928E-02 0. -1.
        1   -1    0    0  501    0  0.00000000000E+00  0.00000000000E+00 -0.13536605403E+04  0.13536605403E+04  0.50400001928E-02 0.  1.
    10030    2    1    2    0    0  0.00000000000E+00  0.00000000000E+00 -0.29848062535E+03  0.24088404553E+04  0.23902764810E+04 0.  0.
        5    1    3    3  502    0 -0.11580466084E+04 -0.25384882258E+03  0.30029888362E+01  0.11855556840E+04  0.46999998093E+01 0. -1.
       -5    1    3    3    0  502  0.11580466084E+04  0.25384882258E+03 -0.30148361418E+03  0.12232847713E+04  0.46999998093E+01 0.  1.
</event>
<event>
 5   0  0.1169371E-05  0.2402124E+04  0.7818609E-02  0.8438709E-01
       -2   -1    0    0    0  501  0.00000000000E+00  0.00000000000E+00  0.74857340521E+03  0.74857340521E+03  0.25500000920E-02 0.  1.
        2   -1    0    0  501    0  0.00000000000E+00  0.00000000000E+00 -0.19270657971E+04  0.19270657971E+04  0.25500000920E-02 0. -1.
    10030    2    1    2    0    0  0.00000000000E+00  0.00000000000E+00 -0.11784923919E+04  0.26756392023E+04  0.24021242314E+04 0.  0.
        2    1    3    3  502    0 -0.11573258004E+03  0.27577675414E+03  0.70643325807E+03  0.76713414493E+03  0.25500000920E-02 0.  1.
       -2    1    3    3    0  502  0.11573258004E+03 -0.27577675414E+03 -0.18849256499E+04  0.19085050574E+04  0.25500000920E-02 0. -1.
</event>
<event>
 5   0  0.1154897E-05  0.2407539E+04  0.7818609E-02  0.8436686E-01
       -2   -1    0    0    0  501  0.00000000000E+00  0.00000000000E+00  0.11962093186E+04  0.11962093186E+04  0.25500000920E-02 0. -1.
        2   -1    0    0  501    0  0.00000000000E+00  0.00000000000E+00 -0.12113775538E+04  0.12113775538E+04  0.25500000920E-02 0.  1.
    10030    2    1    2    0    0  0.00000000000E+00  0.00000000000E+00 -0.15168235228E+02  0.24075868724E+04  0.24075390907E+04 0.  0.
        4    1    3    3  502    0  0.10505687015E+04 -0.33743470019E+03  0.47357273948E+03  0.12007620605E+04  0.12699999809E+01 0.  1.
       -4    1    3    3    0  502 -0.10505687015E+04  0.33743470019E+03 -0.48874097470E+03  0.12068248119E+04  0.12699999809E+01 0. -1.
</event>
<event>
 5   0  0.1198313E-05  0.2383787E+04  0.7818609E-02  0.8445598E-01
       -2   -1    0    0    0  501  0.00000000000E+00  0.00000000000E+00  0.53853681137E+03  0.53853681137E+03  0.25500000920E-02 0. -1.
        2   -1    0    0  501    0  0.00000000000E+00  0.00000000000E+00 -0.26379076437E+04  0.26379076437E+04  0.25500000920E-02 0.  1.
    10030    2    1    2    0    0  0.00000000000E+00  0.00000000000E+00 -0.20993708324E+04  0.31764444551E+04  0.23837872146E+04 0.  0.
        5    1    3    3  502    0  0.90561433672E+03  0.96519990461E+02 -0.25173392648E+02  0.91110330102E+03  0.46999998093E+01 0. -1.
       -5    1    3    3    0  502 -0.90561433672E+03 -0.96519990461E+02 -0.20741974397E+04  0.22653411541E+04  0.46999998093E+01 0.  1.
</event>
<event>
 5   0  0.1198313E-05  0.2395074E+04  0.7818609E-02  0.8441350E-01
        2   -1    0    0  501    0  0.00000000000E+00  0.00000000000E+00  0.18880843021E+04  0.18880843021E+04  0.25500000920E-02 0. -1.
       -2   -1    0    0    0  501  0.00000000000E+00  0.00000000000E+00 -0.75954996721E+03  0.75954996721E+03  0.25500000920E-02 0.  1.
    10030    2    1    2    0    0  0.00000000000E+00  0.00000000000E+00  0.11285343349E+04  0.26476342693E+04  0.23950735853E+04 0.  0.
        5    1    3    3  502    0  0.74224528693E+03 -0.60571889265E+03  0.13585381119E+04  0.16623691932E+04  0.46999998093E+01 0. -1.
       -5    1    3    3    0  502 -0.74224528693E+03  0.60571889265E+03 -0.23000377700E+03  0.98526507617E+03  0.46999998093E+01 0.  1.
</event>
<event>
 5   0  0.5034479E-06  0.2391739E+04  0.7818609E-02  0.8442603E-01
        1   -1    0    0  501    0  0.00000000000E+00  0.00000000000E+00  0.95184119925E+03  0.95184119926E+03  0.50400001928E-02 0.  1.
       -1   -1    0    0    0  501  0.00000000000E+00  0.00000000000E+00 -0.15024602459E+04  0.15024602459E+04  0.50400001928E-02 0. -1.
    10030    2    1    2    0    0  0.00000000000E+00  0.00000000000E+00 -0.55061904665E+03  0.24543014452E+04  0.23917387502E+04 0.  0.
        4    1    3    3  502    0 -0.33018984829E+03  0.45126617134E+03 -0.13600488533E+04  0.14705104521E+04  0.12699999809E+01 0. -1.
       -4    1    3    3    0  502  0.33018984829E+03 -0.45126617134E+03  0.80942980667E+03  0.98379099311E+03  0.12699999809E+01 0.  1.
</event>
<event>
 5   0  0.5196696E-06  0.2396931E+04  0.7818609E-02  0.8440653E-01
       -1   -1    0    0    0  501  0.00000000000E+00  0.00000000000E+00  0.15562365469E+04  0.15562365469E+04  0.50400001928E-02 0. -1.
        1   -1    0    0  501    0  0.00000000000E+00  0.00000000000E+00 -0.92294442583E+03  0.92294442584E+03  0.50400001928E-02 0.  1.
    10030    2    1    2    0    0  0.00000000000E+00  0.00000000000E+00  0.63329212103E+03  0.24791809727E+04  0.23969312433E+04 0.  0.
        1    1    3    3  502    0  0.42094405168E+03  0.10477397942E+04  0.73213587974E+03  0.13457249040E+04  0.50400001928E-02 0.  1.
       -1    1    3    3    0  502 -0.42094405168E+03 -0.10477397942E+04 -0.98843758709E+02  0.11334560687E+04  0.50400001928E-02 0. -1.
</event>
<event>
 5   0  0.1174210E-05  0.2396241E+04  0.7818609E-02  0.8440912E-01
       -2   -1    0    0    0  501  0.00000000000E+00  0.00000000000E+00  0.63819338060E+03  0.63819338060E+03  0.25500000920E-02 0. -1.
        2   -1    0    0  501    0  0.00000000000E+00  0.00000000000E+00 -0.22493064664E+04  0.22493064664E+04  0.25500000920E-02 0.  1.
    10030    2    1    2    0    0  0.00000000000E+00  0.00000000000E+00 -0.16111130858E+04  0.28874998470E+04  0.23962408041E+04 0.  0.
        3    1    3    3  502    0  0.88872020071E+03  0.72249685346E+03 -0.38179771804E+03  0.12073089108E+04  0.10100000352E+00 0.  1.
       -3    1    3    3    0  502 -0.88872020071E+03 -0.72249685346E+03 -0.12293153677E+04  0.16801909362E+04  0.10100000352E+00 0. -1.
</event>
<event>
 5   0  0.1168435E-05  0.2405159E+04  0.7818609E-02  0.8437574E-01
       -2   -1    0    0    0  501  0.00000000000E+00  0.00000000000E+00  0.16163721374E+04  0.16163721374E+04  0.25500000920E-02 0. -1.
        2   -1    0    0  501    0  0.00000000000E+00  0.00000000000E+00 -0.89471842827E+03  0.89471842828E+03  0.25500000920E-02 0.  1.
    10030    2    1    2    0    0  0.00000000000E+00  0.00000000000E+00  0.72165370916E+03  0.25110905657E+04  0.24051594029E+04 0.  0.
        1    1    3    3  502    0  0.76659599645E+03 -0.70068491018E+03 -0.27215032425E+03  0.10736361414E+04  0.50400001928E-02 0.  1.
       -1    1    3    3    0  502 -0.76659599645E+03  0.70068491018E+03  0.99380403341E+03  0.14374544243E+04  0.50400001928E-02 0. -1.
</event>
<event>
 5   0  0.1198313E-05  0.2396561E+04  0.7818609E-02  0.8440792E-01
       -2   -1    0    0    0  501  0.00000000000E+00  0.00000000000E+00  0.63311591138E+03  0.63311591138E+03  0.25500000920E-02 0. -1.
        2   -1    0    0  501    0  0.00000000000E+00  0.00000000000E+00 -0.22679518951E+04  0.22679518951E+04  0.25500000920E-02 0.  1.
    10030    2    1    2    0    0  0.00000000000E+00  0.00000000000E+00 -0.16348359837E+04  0.29010678065E+04  0.23965612290E+04 0.  0.
        5    1    3    3  502    0 -0.46791713426E+03  0.40838323502E+03  0.42306580601E+03  0.75148524762E+03  0.46999998093E+01 0. -1.
       -5    1    3    3    0  502  0.46791713426E+03 -0.40838323502E+03 -0.20579017897E+04  0.21495825589E+04  0.46999998093E+01 0.  1.
</event>
<event>
 5   0  0.5104174E-06  0.2384510E+04  0.7818609E-02  0.8445326E-01
       -1   -1    0    0    0  501  0.00000000000E+00  0.00000000000E+00  0.12079410673E+04  0.12079410673E+04  0.50400001928E-02 0. -1.
        1   -1    0    0  501    0  0.00000000000E+00  0.00000000000E+00 -0.11767725519E+04  0.11767725519E+04  0.50400001928E-02 0.  1.
    10030    2    1    2    0    0  0.00000000000E+00  0.00000000000E+00  0.31168515373E+02  0.23847136192E+04  0.23845099223E+04 0.  0.
        3    1    3    3  502    0  0.29305522619E+03  0.20587245816E+03 -0.11217055038E+04  0.11774922854E+04  0.10100000352E+00 0.  1.
       -3    1    3    3    0  502 -0.29305522619E+03 -0.20587245816E+03  0.11528740192E+04  0.12072213339E+04  0.10100000352E+00 0. -1.
</event>
<event>
 5   0  0.1169371E-05  0.2414278E+04  0.7818609E-02  0.8434177E-01
       -2   -1    0    0    0  501  0.00000000000E+00  0.00000000000E+00  0.11265574789E+04  0.11265574789E+04  0.25500000920E-02 0.  1.
        2   -1    0    0  501    0  0.00000000000E+00  0.00000000000E+00 -0.12934845255E+04  0.12934845255E+04  0.25500000920E-02 0. -1.
    10030    2    1    2    0    0  0.00000000000E+00  0.00000000000E+00 -0.16692704660E+03  0.24200420044E+04  0.24142780834E+04 0.  0.
        2    1    3    3  502    0  0.93142733600E+03  0.20238400985E+03 -0.82595354972E+03  0.12612356782E+04  0.25500000920E-02 0. -1.
       -2    1    3    3    0  502 -0.93142733600E+03 -0.20238400985E+03  0.65902650312E+03  0.11588063261E+04  0.25500000920E-02 0.  1.
</event>
<event>
 5   0  0.5196696E-06  0.2391333E+04  0.7818609E-02  0.8442755E-01
        1   -1    0    0  501    0  0.00000000000E+00  0.00000000000E+00  0.16197264870E+04  0.16197264870E+04  0.50400001928E-02 0.  1.
       -1   -1    0    0    0  501  0.00000000000E+00  0.00000000000E+00 -0.88262962195E+03  0.88262962197E+03  0.50400001928E-02 0. -1.
    10030    2    1    2    0    0  0.00000000000E+00  0.00000000000E+00  0.73709686500E+03  0.25023561089E+04  0.23913331653E+04 0.  0.
        1    1    3    3  502    0 -0.84177945887E+02  0.11926802891E+04  0.36142209000E+03  0.12490789109E+04  0.50400001928E-02 0. -1.
       -1    1    3    3    0  502  0.84177945887E+02 -0.11926802891E+04  0.37567477500E+03  0.12532771980E+04  0.50400001928E-02 0.  1.
</event>
<event>
 5   0  0.1174210E-05  0.2399689E+04  0.7818609E-02  0.8439620E-01
       -2   -1    0    0    0  501  0.00000000000E+00  0.00000000000E+00  0.10090827330E+04  0.10090827330E+04  0.25500000920E-02 0.  1.
        2   -1    0    0  501    0  0.00000000000E+00  0.00000000000E+00 -0.14266682817E+04  0.14266682817E+04  0.25500000920E-02 0. -1.
    10030    2    1    2    0    0  0.00000000000E+00  0.00000000000E+00 -0.41758554869E+03  0.24357510148E+04  0.23996885872E+04 0.  0.
        3    1    3    3  502    0  0.42465193080E+02  0.17032783626E+03  0.99597805372E+03  0.10113294014E+04  0.10100000352E+00 0.  1.
       -3    1    3    3    0  502 -0.42465193080E+02 -0.17032783626E+03 -0.14135636024E+04  0.14244216134E+04  0.10100000352E+00 0. -1.
</event>
<event>
 5   0  0.1169371E-05  0.2402969E+04  0.7818609E-02  0.8438393E-01
       -2   -1    0    0    0  501  0.00000000000E+00  0.00000000000E+00  0.66219500541E+03  0.66219500542E+03  0.25500000920E-02 0.  1.
        2   -1    0    0  501    0  0.00000000000E+00  0.00000000000E+00 -0.21799705148E+04  0.21799705148E+04  0.25500000920E-02 0. -1.
    10030    2    1    2    0    0  0.00000000000E+00  0.00000000000E+00 -0.15177755093E+04  0.28421655202E+04  0.24029694853E+04 0.  0.
        2    1    3    3  502    0 -0.20739516080E+03 -0.10126355192E+03  0.63572984631E+03  0.67632795090E+03  0.25500000920E-02 0.  1.
       -2    1    3    3    0  502  0.20739516080E+03  0.10126355192E+03 -0.21535053557E+04  0.21658375693E+04  0.25500000920E-02 0. -1.
</event>
<event>
 5   0  0.5196696E-06  0.2408600E+04  0.7818609E-02  0.8436291E-01
       -1   -1    0    0    0  501  0.00000000000E+00  0.00000000000E+00  0.10684823569E+04  0.10684823569E+04  0.50400001928E-02 0. -1.
        1   -1    0    0  501    0  0.00000000000E+00  0.00000000000E+00 -0.13573817419E+04  0.13573817419E+04  0.50400001928E-02 0.  1.
    10030    2    1    2    0    0  0.00000000000E+00  0.00000000000E+00 -0.28889938500E+03  0.24258640989E+04  0.24085999609E+04 0.  0.
        1    1    3    3  502    0 -0.91584457160E+03  0.59747752908E+03 -0.65263318919E+03  0.12734522986E+04  0.50400001928E-02 0.  1.
       -1    1    3    3    0  502  0.91584457160E+03 -0.59747752908E+03  0.36373380419E+03  0.11524118003E+04  0.50400001928E-02 0. -1.
</event>
<event>
 5   0  0.1198313E-05  0.2437269E+04  0.7818609E-02  0.8425681E-01
       -2   -1    0    0    0  501  0.00000000000E+00  0.00000000000E+00  0.53852062871E+03  0.53852062871E+03  0.25500000920E-02 0.  1.
        2   -1    0    0  501    0  0.00000000000E+00  0.00000000000E+00 -0.27576850211E+04  0.27576850211E+04  0.25500000920E-02 0. -1.
    10030    2    1    2    0    0  0.00000000000E+00  0.00000000000E+00 -0.22191643924E+04  0.32962056498E+04  0.24372691861E+04 0.  0.
        5    1    3    3  502    0  0.10956770256E+03  0.53790322126E+03  0.36182276808E+03  0.65748213845E+03  0.46999998093E+01 0.  1.
       -5    1    3    3    0  502 -0.10956770256E+03 -0.53790322126E+03 -0.25809871605E+04  0.26387235114E+04  0.46999998093E+01 0. -1.
</event>
<event>
 5   0  0.1169371E-05  0.2402948E+04  0.7818609E-02  0.8438401E-01
        2   -1    0    0  501    0  0.00000000000E+00  0.00000000000E+00  0.13614041322E+04  0.13614041322E+04  0.25500000920E-02 0.  1.
       -2   -1    0    0    0  501  0.00000000000E+00  0.00000000000E+00 -0.10603318117E+04  0.10603318117E+04  0.25500000920E-02 0. -1.
    10030    2    1    2    0    0  0.00000000000E+00  0.00000000000E+00  0.30107232051E+03  0.24217359440E+04  0.24029482808E+04 0.  0.
        2    1    3    3  502    0 -0.11532445795E+04  0.40433961596E+02  0.48771458442E+03  0.12527862872E+04  0.25500000920E-02 0.  1.
       -2    1    3    3    0  502  0.11532445795E+04 -0.40433961596E+02 -0.18664226391E+03  0.11689496568E+04  0.25500000920E-02 0. -1.
</event>
<event>
 5   0  0.1198313E-05  0.2395097E+04  0.7818609E-02  0.8441341E-01
        2   -1    0    0  501    0  0.00000000000E+00  0.00000000000E+00  0.16087972379E+04  0.16087972379E+04  0.25500000920E-02 0. -1.
       -2   -1    0    0    0  501  0.00000000000E+00  0.00000000000E+00 -0.89142528940E+03  0.89142528940E+03  0.25500000920E-02 0.  1.
    10030    2    1    2    0    0  0.00000000000E+00  0.00000000000E+00  0.71737194847E+03  0.25002225273E+04  0.23950971115E+04 0.  0.
        5    1    3    3  502    0 -0.85118524125E+03 -0.34165533532E+03  0.11624527725E+04  0.14807306377E+04  0.46999998093E+01 0. -1.
       -5    1    3    3    0  502  0.85118524125E+03  0.34165533532E+03 -0.44508082402E+03  0.10194918896E+04  0.46999998093E+01 0.  1.
</event>
<event>
 5   0  0.5196696E-06  0.2407877E+04  0.7818609E-02  0.8436560E-01
        1   -1    0    0  501    0  0.00000000000E+00  0.00000000000E+00  0.22934851605E+04  0.22934851605E+04  0.50400001928E-02 0.  1.
       -1   -1    0    0    0  501  0.00000000000E+00  0.00000000000E+00 -0.63199355989E+03  0.63199355991E+03  0.50400001928E-02 0. -1.
    10030    2    1    2    0    0  0.00000000000E+00  0.00000000000E+00  0.16614916006E+04  0.29254787204E+04  0.24078769497E+04 0.  0.
        1    1    3    3  502    0 -0.33910235696E+03 -0.93581451328E+03  0.78580798676E+01  0.99538985388E+03  0.50400001928E-02 0. -1.
       -1    1    3    3    0  502  0.33910235696E+03  0.93581451328E+03  0.16536335208E+04  0.19300888666E+04  0.50400001928E-02 0.  1.
</event>
<event>
 5   0  0.1154897E-05  0.2406479E+04  0.7818609E-02  0.8437082E-01
        2   -1    0    0  501    0  0.00000000000E+00  0.00000000000E+00  0.16019370089E+04  0.16019370089E+04  0.25500000920E-02 0. -1.
       -2   -1    0    0    0  501  0.00000000000E+00  0.00000000000E+00 -0.90377174930E+03  0.90377174930E+03  0.25500000920E-02 0.  1.
    10030    2    1    2    0    0  0.00000000000E+00  0.00000000000E+00  0.69816525965E+03  0.25057087583E+04  0.24064790985E+04 0.  0.
        4    1    3    3  502    0  0.47447053785E+03 -0.97808179247E+03 -0.18795363531E+03  0.11032200442E+04  0.12699999809E+01 0.  1.
       -4    1    3    3    0  502 -0.47447053785E+03  0.97808179247E+03  0.88611889496E+03  0.14024887140E+04  0.12699999809E+01 0. -1.
</event>
<event>
 5   0  0.1174210E-05  0.2397791E+04  0.7818609E-02  0.8440331E-01
        2   -1    0    0  501    0  0.00000000000E+00  0.00000000000E+00  0.14099173136E+04  0.14099173136E+04  0.25500000920E-02 0.  1.
       -2   -1    0    0    0  501  0.00000000000E+00  0.00000000000E+00 -0.10194574890E+04  0.10194574890E+04  0.25500000920E-02 0. -1.
    10030    2    1    2    0    0  0.00000000000E+00  0.00000000000E+00  0.39045982464E+03  0.24293748027E+04  0.23977912872E+04 0.  0.
        3    1    3    3  502    0 -0.69664380384E+03  0.96658393985E+03  0.60232017881E+02  0.11929899448E+04  0.10100000352E+00 0.  1.
       -3    1    3    3    0  502  0.69664380384E+03 -0.96658393985E+03  0.33022780676E+03  0.12363848579E+04  0.10100000352E+00 0. -1.
</event>
<event>
 5   0  0.1198313E-05  0.2401115E+04  0.7818609E-02  0.8439086E-01
       -2   -1    0    0    0  501  0.00000000000E+00  0.00000000000E+00  0.15430681656E+04  0.15430681656E+04  0.25500000920E-02 0. -1.
        2   -1    0    0  501    0  0.00000000000E+00  0.00000000000E+00 -0.93407324005E+03  0.93407324005E+03  0.25500000920E-02 0.  1.
    10030    2    1    2    0    0  0.00000000000E+00  0.00000000000E+00  0.60899492556E+03  0.24771414057E+04  0.24011153084E+04 0.  0.
        5    1    3    3  502    0  0.66189650877E+03 -0.30809629071E+03  0.12877139640E+04  0.14802903958E+04  0.46999998093E+01 0. -1.
       -5    1    3    3    0  502 -0.66189650877E+03  0.30809629071E+03 -0.67871903849E+03  0.99685100987E+03  0.46999998093E+01 0.  1.
</event>
<event>
 5   0  0.1174210E-05  0.2400992E+04  0.7818609E-02  0.8439132E-01
        2   -1    0    0  501    0  0.00000000000E+00  0.00000000000E+00  0.15532276609E+04  0.15532276609E+04  0.25500000920E-02 0.  1.
       -2   -1    0    0    0  501  0.00000000000E+00  0.00000000000E+00 -0.92786810904E+03  0.92786810904E+03  0.25500000920E-02 0. -1.
    10030    2    1    2    0    0  0.00000000000E+00  0.00000000000E+00  0.62535955185E+03  0.24810957699E+04  0.24009918056E+04 0.  0.
        3    1    3    3  502    0  0.86039633616E+03  0.22949605136E+03 -0.51931538455E+03  0.10308437184E+04  0.10100000352E+00 0. -1.
       -3    1    3    3    0  502 -0.86039633616E+03 -0.22949605136E+03  0.11446749364E+04  0.14502520516E+04  0.10100000352E+00 0.  1.
</event>
<event>
 5   0  0.5104174E-06  0.2394713E+04  0.7818609E-02  0.8441486E-01
        1   -1    0    0  501    0  0.00000000000E+00  0.00000000000E+00  0.12354042908E+04  0.12354042908E+04  0.50400001928E-02 0. -1.
       -1   -1    0    0    0  501  0.00000000000E+00  0.00000000000E+00 -0.11604806489E+04  0.11604806489E+04  0.50400001928E-02 0.  1.
    10030    2    1    2    0    0  0.00000000000E+00  0.00000000000E+00  0.74923641907E+02  0.23958849398E+04  0.23947131545E+04 0.  0.
        3    1    3    3  502    0 -0.48194734788E+03  0.34160793077E+03 -0.10045340171E+04  0.11653573813E+04  0.10100000352E+00 0.  1.
       -3    1    3    3    0  502  0.48194734788E+03 -0.34160793077E+03  0.10794576590E+04  0.12305275585E+04  0.10100000352E+00 0. -1.
</event>
<event>
 5   0  0.5104174E-06  0.2401961E+04  0.7818609E-02  0.8438770E-01
       -1   -1    0    0    0  501  0.00000000000E+00  0.00000000000E+00  0.87514522853E+03  0.87514522854E+03  0.50400001928E-02 0. -1.
        1   -1    0    0  501    0  0.00000000000E+00  0.00000000000E+00 -0.16481315850E+04  0.16481315850E+04  0.50400001928E-02 0.  1.
    10030    2    1    2    0    0  0.00000000000E+00  0.00000000000E+00 -0.77298635647E+03  0.25232768135E+04  0.24019612758E+04 0.  0.
        3    1    3    3  502    0 -0.35104473863E+03  0.28404911068E+03  0.78256482977E+03  0.90350651841E+03  0.10100000352E+00 0. -1.
       -3    1    3    3    0  502  0.35104473863E+03 -0.28404911068E+03 -0.15555511862E+04  0.16197702951E+04  0.10100000352E+00 0.  1.
</event>
<event>
 5   0  0.1154897E-05  0.2409477E+04  0.7818609E-02  0.8435964E-01
       -2   -1    0    0    0  501  0.00000000000E+00  0.00000000000E+00  0.11310285626E+04  0.11310285626E+04  0.25500000920E-02 0.  1.
        2   -1    0    0  501    0  0.00000000000E+00  0.00000000000E+00 -0.12832518034E+04  0.12832518034E+04  0.25500000920E-02 0. -1.
    10030    2    1    2    0    0  0.00000000000E+00  0.00000000000E+00 -0.15222324085E+03  0.24142803660E+04  0.24094766590E+04 0.  0.
        4    1    3    3  502    0  0.23982702181E+03  0.74224915019E+03 -0.99606079252E+03  0.12651440695E+04  0.12699999809E+01 0. -1.
       -4    1    3    3    0  502 -0.23982702181E+03 -0.74224915019E+03  0.84383755166E+03  0.11491362965E+04  0.12699999809E+01 0.  1.
</event>
<event>
 5   0  0.5042742E-06  0.2401712E+04  0.7818609E-02  0.8438863E-01
       -1   -1    0    0    0  501  0.00000000000E+00  0.00000000000E+00  0.18547408834E+04  0.18547408834E+04  0.50400001928E-02 0. -1.
        1   -1    0    0  501    0  0.00000000000E+00  0.00000000000E+00 -0.77749700818E+03  0.77749700819E+03  0.50400001928E-02 0.  1.
    10030    2    1    2    0    0  0.00000000000E+00  0.00000000000E+00  0.10772438753E+04  0.26322378916E+04  0.24017122957E+04 0.  0.
        5    1    3    3  502    0  0.32587867444E+03 -0.68555812762E+03 -0.48120063014E+03  0.89875635922E+03  0.46999998093E+01 0.  1.
       -5    1    3    3    0  502 -0.32587867444E+03  0.68555812762E+03  0.15584445054E+04  0.17334815324E+04  0.46999998093E+01 0. -1.
</event>
<event>
 5   0  0.5104174E-06  0.2401686E+04  0.7818609E-02  0.8438873E-01
       -1   -1    0    0    0  501  0.00000000000E+00  0.00000000000E+00  0.77151966716E+03  0.77151966718E+03  0.50400001928E-02 0. -1.
        1   -1    0    0  501    0  0.00000000000E+00  0.00000000000E+00 -0.18690690282E+04  0.18690690282E+04  0.50400001928E-02 0.  1.
    10030    2    1    2    0    0  0.00000000000E+00  0.00000000000E+00 -0.10975493610E+04  0.26405886954E+04  0.24016856702E+04 0.  0.
        3    1    3    3  502    0 -0.82672917155E+02 -0.62819234951E+03 -0.16703250845E+04  0.17864619608E+04  0.10100000352E+00 0.  1.
       -3    1    3    3    0  502  0.82672917155E+02  0.62819234951E+03  0.57277572345E+03  0.85412673461E+03  0.10100000352E+00 0. -1.
</event>
<event>
 5   0  0.4067750E-06  0.2399264E+04  0.7818609E-02  0.8439779E-01
        3   -1    0    0  501    0  0.00000000000E+00  0.00000000000E+00  0.15166993483E+04  0.15166993517E+04  0.10100000352E+00 0.  1.
       -3   -1    0    0    0  501  0.00000000000E+00  0.00000000000E+00 -0.94884758988E+03  0.94884759525E+03  0.10100000352E+00 0. -1.
    10030    2    1    2    0    0  0.00000000000E+00  0.00000000000E+00  0.56785175842E+03  0.24655469469E+04  0.23992636637E+04 0.  0.
        3    1    3    3  502    0  0.22015518571E+03  0.72694752552E+03 -0.67027140987E+03  0.10130077906E+04  0.10100000352E+00 0. -1.
       -3    1    3    3    0  502 -0.22015518571E+03 -0.72694752552E+03  0.12381231683E+04  0.14525391563E+04  0.10100000352E+00 0.  1.
</event>
<event>
 5   0  0.5104174E-06  0.2337187E+04  0.7818609E-02  0.8463401E-01
       -1   -1    0    0    0  501  0.00000000000E+00  0.00000000000E+00  0.10386445805E+04  0.10386445806E+04  0.50400001928E-02 0.  1.
        1   -1    0    0  501    0  0.00000000000E+00  0.00000000000E+00 -0.13148008337E+04  0.13148008337E+04  0.50400001928E-02 0. -1.
    10030    2    1    2    0    0  0.00000000000E+00  0.00000000000E+00 -0.27615625317E+03  0.23534454143E+04  0.23371869933E+04 0.  0.
        3    1    3    3  502    0 -0.79042733425E+03 -0.64458570295E+03  0.43627964851E+03  0.11093268414E+04  0.10100000352E+00 0.  1.
       -3    1    3    3    0  502  0.79042733425E+03  0.64458570295E+03 -0.71243590168E+03  0.12441185729E+04  0.10100000352E+00 0. -1.
</event>
<event>
 5   0  0.1168435E-05  0.2384339E+04  0.7818609E-02  0.8445390E-01
       -2   -1    0    0    0  501  0.00000000000E+00  0.00000000000E+00  0.96407777405E+03  0.96407777406E+03  0.25500000920E-02 0.  1.
        2   -1    0    0  501    0  0.00000000000E+00  0.00000000000E+00 -0.14742254623E+04  0.14742254623E+04  0.25500000920E-02 0. -1.
    10030    2    1    2    0    0  0.00000000000E+00  0.00000000000E+00 -0.51014768828E+03  0.24383032364E+04  0.23843389039E+04 0.  0.
        1    1    3    3  502    0  0.68285176967E+03  0.55724717902E+03 -0.10760238640E+04  0.13909127628E+04  0.50400001928E-02 0. -1.
       -1    1    3    3    0  502 -0.68285176967E+03 -0.55724717902E+03  0.56587617571E+03  0.10473904736E+04  0.50400001928E-02 0.  1.
</event>
<event>
 5   0  0.5064437E-06  0.2396497E+04  0.7818609E-02  0.8440816E-01
        1   -1    0    0  501    0  0.00000000000E+00  0.00000000000E+00  0.13034653427E+04  0.13034653427E+04  0.50400001928E-02 0. -1.
       -1   -1    0    0    0  501  0.00000000000E+00  0.00000000000E+00 -0.11015250950E+04  0.11015250950E+04  0.50400001928E-02 0.  1.
    10030    2    1    2    0    0  0.00000000000E+00  0.00000000000E+00  0.20194024767E+03  0.24049904377E+04  0.23964972652E+04 0.  0.
        2    1    3    3  502    0 -0.12106956244E+02 -0.11202662415E+04  0.52751381135E+03  0.12383108864E+04  0.25500000920E-02 0. -1.
       -2    1    3    3    0  502  0.12106956244E+02  0.11202662415E+04 -0.32557356367E+03  0.11666795514E+04  0.25500000920E-02 0.  1.
</event>
<event>
 5   0  0.5104174E-06  0.2403988E+04  0.7818609E-02  0.8438012E-01
        1   -1    0    0  501    0  0.00000000000E+00  0.00000000000E+00  0.11880765376E+04  0.11880765376E+04  0.50400001928E-02 0.  1.
       -1   -1    0    0    0  501  0.00000000000E+00  0.00000000000E+00 -0.12160740706E+04  0.12160740706E+04  0.50400001928E-02 0. -1.
    10030    2    1    2    0    0  0.00000000000E+00  0.00000000000E+00 -0.27997533010E+02  0.24041506082E+04  0.24039875800E+04 0.  0.
        3    1    3    3  502    0 -0.46809371021E+03  0.10311273932E+04 -0.41708147888E+03  0.12067694033E+04  0.10100000352E+00 0. -1.
       -3    1    3    3    0  502  0.46809371021E+03 -0.10311273932E+04  0.38908394587E+03  0.11973812049E+04  0.10100000352E+00 0.  1.
</event>
<event>
 5   0  0.5064437E-06  0.2397242E+04  0.7818609E-02  0.8440537E-01
       -1   -1    0    0    0  501  0.00000000000E+00  0.00000000000E+00  0.58439089691E+03  0.58439089694E+03  0.50400001928E-02 0.  1.
        1   -1    0    0  501    0  0.00000000000E+00  0.00000000000E+00 -0.24584435507E+04  0.24584435507E+04  0.50400001928E-02 0. -1.
    10030    2    1    2    0    0  0.00000000000E+00  0.00000000000E+00 -0.18740526538E+04  0.30428344477E+04  0.23972417748E+04 0.  0.
        2    1    3    3  502    0  0.25017504688E+03 -0.43589358458E+03  0.44418747286E+03  0.67074084579E+03  0.25500000920E-02 0.  1.
       -2    1    3    3    0  502 -0.25017504688E+03  0.43589358458E+03 -0.23182401267E+04  0.23720936019E+04  0.25500000920E-02 0. -1.
</event>
<event>
 5   0  0.5104174E-06  0.2413454E+04  0.7818609E-02  0.8434484E-01
       -1   -1    0    0    0  501  0.00000000000E+00  0.00000000000E+00  0.24462398131E+04  0.24462398131E+04  0.50400001928E-02 0.  1.
        1   -1    0    0  501    0  0.00000000000E+00  0.00000000000E+00 -0.59527691009E+03  0.59527691011E+03  0.50400001928E-02 0. -1.
    10030    2    1    2    0    0  0.00000000000E+00  0.00000000000E+00  0.18509629030E+04  0.30415167232E+04  0.24134540205E+04 0.  0.
        3    1    3    3  502    0  0.91033230655E+03  0.45742811368E+03  0.11046496885E+03  0.10247672453E+04  0.10100000352E+00 0. -1.
       -3    1    3    3    0  502 -0.91033230655E+03 -0.45742811368E+03  0.17404979341E+04  0.20167494779E+04  0.10100000352E+00 0.  1.
</event>
<event>
 5   0  0.1198313E-05  0.2402057E+04  0.7818609E-02  0.8438734E-01
        2   -1    0    0  501    0  0.00000000000E+00  0.00000000000E+00  0.11101964845E+04  0.11101964845E+04  0.25500000920E-02 0.  1.
       -2   -1    0    0    0  501  0.00000000000E+00  0.00000000000E+00 -0.12992915258E+04  0.12992915258E+04  0.25500000920E-02 0. -1.
    10030    2    1    2    0    0  0.00000000000E+00  0.00000000000E+00 -0.18909504128E+03  0.24094880103E+04  0.24020565225E+04 0.  0.
        5    1    3    3  502    0  0.19796693998E+03 -0.11844554204E+04 -0.11252619741E+03  0.12061549600E+04  0.46999998093E+01 0.  1.
       -5    1    3    3    0  502 -0.19796693998E+03  0.11844554204E+04 -0.76568843870E+02  0.12033330504E+04  0.46999998093E+01 0. -1.
</event>
<event>
 5   0  0.1168435E-05  0.2380104E+04  0.7818609E-02  0.8446990E-01
       -2   -1    0    0    0  501  0.00000000000E+00  0.00000000000E+00  0.97701737580E+03  0.97701737580E+03  0.25500000920E-02 0. -1.
        2   -1    0    0  501    0  0.00000000000E+00  0.00000000000E+00 -0.14495381118E+04  0.14495381118E+04  0.25500000920E-02 0.  1.
    10030    2    1    2    0    0  0.00000000000E+00  0.00000000000E+00 -0.47252073602E+03  0.24265554876E+04  0.23801041340E+04 0.  0.
        1    1    3    3  502    0  0.13768007098E+03  0.45790176195E+02 -0.14404865004E+04  0.14477755005E+04  0.50400001928E-02 0.  1.
       -1    1    3    3    0  502 -0.13768007098E+03 -0.45790176195E+02  0.96796576434E+03  0.97877998710E+03  0.50400001928E-02 0. -1.
</event>
<event>
 5   0  0.5196696E-06  0.2397654E+04  0.7818609E-02  0.8440382E-01
       -1   -1    0    0    0  501  0.00000000000E+00  0.00000000000E+00  0.73039170380E+03  0.73039170382E+03  0.50400001928E-02 0. -1.
        1   -1    0    0  501    0  0.00000000000E+00  0.00000000000E+00 -0.19676928384E+04  0.19676928384E+04  0.50400001928E-02 0.  1.
    10030    2    1    2    0    0  0.00000000000E+00  0.00000000000E+00 -0.12373011346E+04  0.26980845422E+04  0.23976542910E+04 0.  0.
        1    1    3    3  502    0 -0.63949721628E+03 -0.10117383041E+04 -0.69510021820E+03  0.13841009352E+04  0.50400001928E-02 0.  1.
       -1    1    3    3    0  502  0.63949721628E+03  0.10117383041E+04 -0.54220091638E+03  0.13139836069E+04  0.50400001928E-02 0. -1.
</event>
<event>
 5   0  0.1169371E-05  0.2385699E+04  0.7818609E-02  0.8444877E-01
        2   -1    0    0  501    0  0.00000000000E+00  0.00000000000E+00  0.12473009175E+04  0.12473009175E+04  0.25500000920E-02 0.  1.
       -2   -1    0    0    0  501  0.00000000000E+00  0.00000000000E+00 -0.11407753556E+04  0.11407753556E+04  0.25500000920E-02 0. -1.
    10030    2    1    2    0    0  0.00000000000E+00  0.00000000000E+00  0.10652556186E+03  0.23880762731E+04  0.23856991828E+04 0.  0.
        2    1    3    3  502    0  0.21442740075E+03 -0.10702550585E+04 -0.42832484027E+03  0.11725558278E+04  0.25500000920E-02 0. -1.
       -2    1    3    3    0  502 -0.21442740075E+03  0.10702550585E+04  0.53485040213E+03  0.12155204454E+04  0.25500000920E-02 0.  1.
</event>
<event>
 5   0  0.1198313E-05  0.2424264E+04  0.7818609E-02  0.8430475E-01
        2   -1    0    0  501    0  0.00000000000E+00  0.00000000000E+00  0.15184862470E+04  0.15184862470E+04  0.25500000920E-02 0.  1.
       -2   -1    0    0    0  501  0.00000000000E+00  0.00000000000E+00 -0.96758484894E+03  0.96758484894E+03  0.25500000920E-02 0. -1.
    10030    2    1    2    0    0  0.00000000000E+00  0.00000000000E+00  0.55090139805E+03  0.24860710959E+04  0.24242642479E+04 0.  0.
        5    1    3    3  502    0  0.17006319644E+03 -0.42671627836E+03 -0.87485767805E+03  0.98813274404E+03  0.46999998093E+01 0. -1.
       -5    1    3    3    0  502 -0.17006319644E+03  0.42671627836E+03  0.14257590761E+04  0.14979383519E+04  0.46999998093E+01 0.  1.
</event>
<event>
 5   0  0.5064437E-06  0.2396395E+04  0.7818609E-02  0.8440854E-01
       -1   -1    0    0    0  501  0.00000000000E+00  0.00000000000E+00  0.84076676717E+03  0.84076676719E+03  0.50400001928E-02 0.  1.
        1   -1    0    0  501    0  0.00000000000E+00  0.00000000000E+00 -0.17075806644E+04  0.17075806644E+04  0.50400001928E-02 0. -1.
    10030    2    1    2    0    0  0.00000000000E+00  0.00000000000E+00 -0.86681389722E+03  0.25483474316E+04  0.23963948547E+04 0.  0.
        2    1    3    3  502    0 -0.10052875697E+04  0.31407991245E+03 -0.10409734472E+04  0.14808359150E+04  0.25500000920E-02 0. -1.
       -2    1    3    3    0  502  0.10052875697E+04 -0.31407991245E+03  0.17415954998E+03  0.10675115166E+04  0.25500000920E-02 0.  1.
</event>
<event>
 5   0  0.1169371E-05  0.2401576E+04  0.7818609E-02  0.8438914E-01
       -2   -1    0    0    0  501  0.00000000000E+00  0.00000000000E+00  0.64214394648E+03  0.64214394649E+03  0.25500000920E-02 0. -1.
        2   -1    0    0  501    0  0.00000000000E+00  0.00000000000E+00 -0.22454333273E+04  0.22454333273E+04  0.25500000920E-02 0.  1.
    10030    2    1    2    0    0  0.00000000000E+00  0.00000000000E+00 -0.16032893808E+04  0.28875772738E+04  0.24015756647E+04 0.  0.
        2    1    3    3  502    0  0.10511008020E+04 -0.31333450694E+03 -0.13893307975E+04  0.17700936343E+04  0.25500000920E-02 0.  1.
       -2    1    3    3    0  502 -0.10511008020E+04  0.31333450694E+03 -0.21395858326E+03  0.11174836395E+04  0.25500000920E-02 0. -1.
</event>
<event>
 5   0  0.1174210E-05  0.2394060E+04  0.7818609E-02  0.8441731E-01
        2   -1    0    0  501    0  0.00000000000E+00  0.00000000000E+00  0.28830849567E+04  0.28830849567E+04  0.25500000920E-02 0.  1.
       -2   -1    0    0    0  501  0.00000000000E+00  0.00000000000E+00 -0.49699554641E+03  0.49699554642E+03  0.25500000920E-02 0. -1.
    10030    2    1    2    0    0  0.00000000000E+00  0.00000000000E+00  0.23860894103E+04  0.33800805032E+04  0.23940596345E+04 0.  0.
        3    1    3    3  502    0 -0.83874240879E+03 -0.48628607249E+02 -0.10791196301E+02  0.84022022701E+03  0.10100000352E+00 0. -1.
       -3    1    3    3    0  502  0.83874240879E+03  0.48628607249E+02  0.23968806066E+04  0.25398602762E+04  0.10100000352E+00 0.  1.
</event>
<event>
 5   0  0.4067750E-06  0.2396938E+04  0.7818609E-02  0.8440651E-01
        3   -1    0    0  501    0  0.00000000000E+00  0.00000000000E+00  0.15217507943E+04  0.15217507977E+04  0.10100000352E+00 0.  1.
       -3   -1    0    0    0  501  0.00000000000E+00  0.00000000000E+00 -0.94386556044E+03  0.94386556584E+03  0.10100000352E+00 0. -1.
    10030    2    1    2    0    0  0.00000000000E+00  0.00000000000E+00  0.57788523388E+03  0.24656163635E+04  0.23969381945E+04 0.  0.
        4    1    3    3  502    0 -0.63824744562E+03  0.83249974988E+03 -0.30724195715E+03  0.10930758750E+04  0.12699999809E+01 0. -1.
       -4    1    3    3    0  502  0.63824744562E+03 -0.83249974988E+03  0.88512719103E+03  0.13725404885E+04  0.12699999809E+01 0.  1.
</event>
<event>
 5   0  0.5042742E-06  0.2396785E+04  0.7818609E-02  0.8440708E-01
       -1   -1    0    0    0  501  0.00000000000E+00  0.00000000000E+00  0.61888046683E+03  0.61888046685E+03  0.50400001928E-02 0.  1.
        1   -1    0    0  501    0  0.00000000000E+00  0.00000000000E+00 -0.23205526037E+04  0.23205526037E+04  0.50400001928E-02 0. -1.
    10030    2    1    2    0    0  0.00000000000E+00  0.00000000000E+00 -0.17016721369E+04  0.29394330706E+04  0.23967850790E+04 0.  0.
        5    1    3    3  502    0 -0.51919462706E+03 -0.40527415077E+03  0.37698769129E+03  0.75891501990E+03  0.46999998093E+01 0.  1.
       -5    1    3    3    0  502  0.51919462706E+03  0.40527415077E+03 -0.20786598282E+04  0.21805180507E+04  0.46999998093E+01 0. -1.
</event>
<event>
 5   0  0.1168435E-05  0.2397352E+04  0.7818609E-02  0.8440496E-01
        2   -1    0    0  501    0  0.00000000000E+00  0.00000000000E+00  0.17246958471E+04  0.17246958471E+04  0.25500000920E-02 0.  1.
       -2   -1    0    0    0  501  0.00000000000E+00  0.00000000000E+00 -0.83308820796E+03  0.83308820796E+03  0.25500000920E-02 0. -1.
    10030    2    1    2    0    0  0.00000000000E+00  0.00000000000E+00  0.89160763916E+03  0.25577840551E+04  0.23973516826E+04 0.  0.
        1    1    3    3  502    0 -0.68456849041E+03  0.81210616238E+03  0.10385676354E+04  0.14855211780E+04  0.50400001928E-02 0.  1.
       -1    1    3    3    0  502  0.68456849041E+03 -0.81210616238E+03 -0.14695999620E+03  0.10722628771E+04  0.50400001928E-02 0. -1.
</event>
<event>
 5   0  0.5034479E-06  0.2433673E+04  0.7818609E-02  0.8427004E-01
        1   -1    0    0  501    0  0.00000000000E+00  0.00000000000E+00  0.18327602642E+04  0.18327602642E+04  0.50400001928E-02 0.  1.
       -1   -1    0    0    0  501  0.00000000000E+00  0.00000000000E+00 -0.80790193545E+03  0.80790193547E+03  0.50400001928E-02 0. -1.
    10030    2    1    2    0    0  0.00000000000E+00  0.00000000000E+00  0.10248583288E+04  0.26406621997E+04  0.24336725866E+04 0.  0.
        4    1    3    3  502    0 -0.55078600719E+03 -0.95462755023E+03 -0.47199115512E+02  0.11031356919E+04  0.12699999809E+01 0. -1.
       -4    1    3    3    0  502  0.55078600719E+03  0.95462755023E+03  0.10720574443E+04  0.15375265078E+04  0.12699999809E+01 0.  1.
</event>
<event>
 5   0  0.5064437E-06  0.2392378E+04  0.7818609E-02  0.8442363E-01
       -1   -1    0    0    0  501  0.00000000000E+00  0.00000000000E+00  0.75356419047E+03  0.75356419049E+03  0.50400001928E-02 0.  1.
        1   -1    0    0  501    0  0.00000000000E+00  0.00000000000E+00 -0.18988002568E+04  0.18988002568E+04  0.50400001928E-02 0. -1.
    10030    2    1    2    0    0  0.00000000000E+00  0.00000000000E+00 -0.11452360663E+04  0.26523644473E+04  0.23923777949E+04 0.  0.
        2    1    3    3  502    0  0.79377974271E+03 -0.85552976988E+03 -0.86352672977E+03  0.14517905772E+04  0.25500000920E-02 0. -1.
       -2    1    3    3    0  502 -0.79377974271E+03  0.85552976988E+03 -0.28170933652E+03  0.12005738700E+04  0.25500000920E-02 0.  1.
</event>
<event>
 5   0  0.1154897E-05  0.2429175E+04  0.7818609E-02  0.8428661E-01
       -2   -1    0    0    0  501  0.00000000000E+00  0.00000000000E+00  0.99967441249E+03  0.99967441249E+03  0.25500000920E-02 0.  1.
        2   -1    0    0  501    0  0.00000000000E+00  0.00000000000E+00 -0.14757029833E+04  0.14757029833E+04  0.25500000920E-02 0. -1.
    10030    2    1    2    0    0  0.00000000000E+00  0.00000000000E+00 -0.47602857084E+03  0.24753773958E+04  0.24291747676E+04 0.  0.
        4    1    3    3  502    0  0.69548478143E+03  0.68534688694E+02  0.77427045562E+03  0.10430208225E+04  0.12699999809E+01 0. -1.
       -4    1    3    3    0  502 -0.69548478143E+03 -0.68534688694E+02 -0.12502990265E+04  0.14323565733E+04  0.12699999809E+01 0.  1.
</event>
<event>
 5   0  0.1169371E-05  0.2405463E+04  0.7818609E-02  0.8437461E-01
       -2   -1    0    0    0  501  0.00000000000E+00  0.00000000000E+00  0.79404533034E+03  0.79404533035E+03  0.25500000920E-02 0.  1.
        2   -1    0    0  501    0  0.00000000000E+00  0.00000000000E+00 -0.18217642810E+04  0.18217642810E+04  0.25500000920E-02 0. -1.
    10030    2    1    2    0    0  0.00000000000E+00  0.00000000000E+00 -0.10277189507E+04  0.26158096114E+04  0.24054632987E+04 0.  0.
        2    1    3    3  502    0 -0.56516469274E+03 -0.19121972583E+03 -0.16494914593E+04  0.17540804393E+04  0.25500000920E-02 0. -1.
       -2    1    3    3    0  502  0.56516469274E+03  0.19121972583E+03  0.62177250859E+03  0.86172917203E+03  0.25500000920E-02 0.  1.
</event>
<event>
 5   0  0.1174210E-05  0.2385139E+04  0.7818609E-02  0.8445088E-01
       -2   -1    0    0    0  501  0.00000000000E+00  0.00000000000E+00  0.91964688992E+03  0.91964688993E+03  0.25500000920E-02 0.  1.
        2   -1    0    0  501    0  0.00000000000E+00  0.00000000000E+00 -0.15464866889E+04  0.15464866889E+04  0.25500000920E-02 0. -1.
    10030    2    1    2    0    0  0.00000000000E+00  0.00000000000E+00 -0.62683979893E+03  0.24661335788E+04  0.23851387161E+04 0.  0.
        3    1    3    3  502    0  0.56175936407E+03  0.58980861069E+03 -0.12140763040E+04  0.14619948914E+04  0.10100000352E+00 0. -1.
       -3    1    3    3    0  502 -0.56175936407E+03 -0.58980861069E+03  0.58723650508E+03  0.10041386874E+04  0.10100000352E+00 0.  1.
</event>
<event>
 5   0  0.4067750E-06  0.2472359E+04  0.7818609E-02  0.8412900E-01
       -4   -1    0    0    0  501  0.00000000000E+00  0.00000000000E+00  0.15977642151E+04  0.15977647199E+04  0.12699999809E+01 0.  1.
        4   -1    0    0  501    0  0.00000000000E+00  0.00000000000E+00 -0.95642241054E+03  0.95642325373E+03  0.12699999809E+01 0. -1.
    10030    2    1    2    0    0  0.00000000000E+00  0.00000000000E+00  0.64134180460E+03  0.25541879736E+04  0.24723585691E+04 0.  0.
        5    1    3    3  502    0  0.22040161806E+03  0.41533188028E+03  0.15017685002E+04  0.15736607519E+04  0.46999998093E+01 0.  1.
       -5    1    3    3    0  502 -0.22040161806E+03 -0.41533188028E+03 -0.86042669557E+03  0.98052722169E+03  0.46999998093E+01 0. -1.
</event>
<event>
 5   0  0.1154897E-05  0.2395148E+04  0.7818609E-02  0.8441322E-01
        2   -1    0    0  501    0  0.00000000000E+00  0.00000000000E+00  0.13685191908E+04  0.13685191908E+04  0.25500000920E-02 0.  1.
       -2   -1    0    0    0  501  0.00000000000E+00  0.00000000000E+00 -0.10479820407E+04  0.10479820407E+04  0.25500000920E-02 0. -1.
    10030    2    1    2    0    0  0.00000000000E+00  0.00000000000E+00  0.32053715009E+03  0.24165012315E+04  0.23951480407E+04 0.  0.
        4    1    3    3  502    0 -0.30193305633E+03  0.53487017978E+03  0.11975061287E+04  0.13458351388E+04  0.12699999809E+01 0.  1.
       -4    1    3    3    0  502  0.30193305633E+03 -0.53487017978E+03 -0.87696897857E+03  0.10706660927E+04  0.12699999809E+01 0. -1.
</event>
<event>
 5   0  0.1174210E-05  0.2415769E+04  0.7818609E-02  0.8433624E-01
        2   -1    0    0  501    0  0.00000000000E+00  0.00000000000E+00  0.12876606411E+04  0.12876606411E+04  0.25500000920E-02 0. -1.
       -2   -1    0    0    0  501  0.00000000000E+00  0.00000000000E+00 -0.11330504902E+04  0.11330504902E+04  0.25500000920E-02 0.  1.
    10030    2    1    2    0    0  0.00000000000E+00  0.00000000000E+00  0.15461015093E+03  0.24207111313E+04  0.24157686318E+04 0.  0.
        3    1    3    3  502    0  0.11040668312E+04  0.14415940380E+03  0.54649269577E+03  0.12403224493E+04  0.10100000352E+00 0. -1.
       -3    1    3    3    0  502 -0.11040668312E+04 -0.14415940380E+03 -0.39188254484E+03  0.11803886820E+04  0.10100000352E+00 0.  1.
</event>
<event>
 5   0  0.5104174E-06  0.2387144E+04  0.7818609E-02  0.8444332E-01
        1   -1    0    0  501    0  0.00000000000E+00  0.00000000000E+00  0.91523872084E+03  0.91523872086E+03  0.50400001928E-02 0. -1.
       -1   -1    0    0    0  501  0.00000000000E+00  0.00000000000E+00 -0.15565497557E+04  0.15565497557E+04  0.50400001928E-02 0.  1.
    10030    2    1    2    0    0  0.00000000000E+00  0.00000000000E+00 -0.64131103489E+03  0.24717884766E+04  0.23871444090E+04 0.  0.
        3    1    3    3  502    0 -0.51775848706E+03  0.13121723142E+03 -0.14258940112E+04  0.15226508313E+04  0.10100000352E+00 0.  1.
       -3    1    3    3    0  502  0.51775848706E+03 -0.13121723142E+03  0.78458297632E+03  0.94913764527E+03  0.10100000352E+00 0. -1.
</event>
<event>
 5   0  0.1168435E-05  0.2397955E+04  0.7818609E-02  0.8440269E-01
       -2   -1    0    0    0  501  0.00000000000E+00  0.00000000000E+00  0.10208246517E+04  0.10208246517E+04  0.25500000920E-02 0.  1.
        2   -1    0    0  501    0  0.00000000000E+00  0.00000000000E+00 -0.14082216534E+04  0.14082216534E+04  0.25500000920E-02 0. -1.
    10030    2    1    2    0    0  0.00000000000E+00  0.00000000000E+00 -0.38739700164E+03  0.24290463051E+04  0.23979552780E+04 0.  0.
        1    1    3    3  502    0 -0.60830049782E+03  0.25165109375E+03 -0.12087838894E+04  0.13764142763E+04  0.50400001928E-02 0. -1.
       -1    1    3    3    0  502  0.60830049782E+03 -0.25165109375E+03  0.82138688779E+03  0.10526320288E+04  0.50400001928E-02 0.  1.
</event>
<event>
 5   0  0.5064437E-06  0.2400931E+04  0.7818609E-02  0.8439155E-01
       -1   -1    0    0    0  501  0.00000000000E+00  0.00000000000E+00  0.76134755704E+03  0.76134755706E+03  0.50400001928E-02 0.  1.
        1   -1    0    0  501    0  0.00000000000E+00  0.00000000000E+00 -0.18928503587E+04  0.18928503587E+04  0.50400001928E-02 0. -1.
    10030    2    1    2    0    0  0.00000000000E+00  0.00000000000E+00 -0.11315028017E+04  0.26541979158E+04  0.24009306500E+04 0.  0.
        2    1    3    3  502    0 -0.95050981489E+03  0.55401578183E+03 -0.34755426206E+02  0.11007317268E+04  0.25500000920E-02 0.  1.
       -2    1    3    3    0  502  0.95050981489E+03 -0.55401578183E+03 -0.10967473755E+04  0.15534661890E+04  0.25500000920E-02 0. -1.
</event>
<event>
 5   0  0.5196696E-06  0.2398646E+04  0.7818609E-02  0.8440011E-01
        1   -1    0    0  501    0  0.00000000000E+00  0.00000000000E+00  0.10316941466E+04  0.10316941466E+04  0.50400001928E-02 0. -1.
       -1   -1    0    0    0  501  0.00000000000E+00  0.00000000000E+00 -0.13941878549E+04  0.13941878550E+04  0.50400001928E-02 0.  1.
    10030    2    1    2    0    0  0.00000000000E+00  0.00000000000E+00 -0.36249370840E+03  0.24258820015E+04  0.23986458256E+04 0.  0.
        1    1    3    3  502    0 -0.55004326516E+03 -0.89649094768E+03  0.40160582768E+03  0.11258467274E+04  0.50400001928E-02 0. -1.
       -1    1    3    3    0  502  0.55004326516E+03  0.89649094768E+03 -0.76409953608E+03  0.13000352741E+04  0.50400001928E-02 0.  1.
</event>
<event>
 5   0  0.1154897E-05  0.2413379E+04  0.7818609E-02  0.8434512E-01
        2   -1    0    0  501    0  0.00000000000E+00  0.00000000000E+00  0.13207350075E+04  0.13207350075E+04  0.25500000920E-02 0.  1.
       -2   -1    0    0    0  501  0.00000000000E+00  0.00000000000E+00 -0.11024918396E+04  0.11024918396E+04  0.25500000920E-02 0. -1.
    10030    2    1    2    0    0  0.00000000000E+00  0.00000000000E+00  0.21824316792E+03  0.24232268471E+04  0.24133790155E+04 0.  0.
        4    1    3    3  502    0 -0.13713982915E+03 -0.10360154200E+04  0.71487652051E+03  0.12661695525E+04  0.12699999809E+01 0.  1.
       -4    1    3    3    0  502  0.13713982915E+03  0.10360154200E+04 -0.49663335259E+03  0.11570572946E+04  0.12699999809E+01 0. -1.
</event>
<event>
 5   0  0.1154897E-05  0.2398772E+04  0.7818609E-02  0.8439964E-01
        2   -1    0    0  501    0  0.00000000000E+00  0.00000000000E+00  0.11657045228E+04  0.11657045228E+04  0.25500000920E-02 0. -1.
       -2   -1    0    0    0  501  0.00000000000E+00  0.00000000000E+00 -0.12340403766E+04  0.12340403766E+04  0.25500000920E-02 0.  1.
    10030    2    1    2    0    0  0.00000000000E+00  0.00000000000E+00 -0.68335853809E+02  0.23997448994E+04  0.23987717259E+04 0.  0.
        4    1    3    3  502    0 -0.99184034534E+03  0.67436982622E+03 -0.35872203808E+02  0.11999209812E+04  0.12699999809E+01 0. -1.
       -4    1    3    3    0  502  0.99184034534E+03 -0.67436982622E+03 -0.32463650001E+02  0.11998239182E+04  0.12699999809E+01 0.  1.
</event>
<event>
 5   0  0.1154897E-05  0.2405691E+04  0.7818609E-02  0.8437376E-01
        2   -1    0    0  501    0  0.00000000000E+00  0.00000000000E+00  0.23133727114E+04  0.23133727114E+04  0.25500000920E-02 0. -1.
       -2   -1    0    0    0  501  0.00000000000E+00  0.00000000000E+00 -0.62542323859E+03  0.62542323859E+03  0.25500000920E-02 0.  1.
    10030    2    1    2    0    0  0.00000000000E+00  0.00000000000E+00  0.16879494728E+04  0.29387959500E+04  0.24056907974E+04 0.  0.
        4    1    3    3  502    0 -0.56498145064E+03 -0.12325109665E+03  0.21324261159E+04  0.22094428314E+04  0.12699999809E+01 0. -1.
       -4    1    3    3    0  502  0.56498145064E+03  0.12325109665E+03 -0.44447664314E+03  0.72935311858E+03  0.12699999809E+01 0.  1.
</event>
<event>
 5   0  0.5196696E-06  0.2402966E+04  0.7818609E-02  0.8438394E-01
        1   -1    0    0  501    0  0.00000000000E+00  0.00000000000E+00  0.21961158354E+04  0.21961158354E+04  0.50400001928E-02 0. -1.
       -1   -1    0    0    0  501  0.00000000000E+00  0.00000000000E+00 -0.65732472760E+03  0.65732472762E+03  0.50400001928E-02 0.  1.
    10030    2    1    2    0    0  0.00000000000E+00  0.00000000000E+00  0.15387911078E+04  0.28534405631E+04  0.24029658702E+04 0.  0.
        1    1    3    3  502    0  0.59184805957E+03  0.10229976262E+04  0.51263644988E+03  0.12882563404E+04  0.50400001928E-02 0. -1.
       -1    1    3    3    0  502 -0.59184805957E+03 -0.10229976262E+04  0.10261546580E+04  0.15651842227E+04  0.50400001928E-02 0.  1.
</event>
<event>
 5   0  0.1174210E-05  0.2406306E+04  0.7818609E-02  0.8437147E-01
       -2   -1    0    0    0  501  0.00000000000E+00  0.00000000000E+00  0.10147747713E+04  0.10147747713E+04  0.25500000920E-02 0. -1.
        2   -1    0    0  501    0  0.00000000000E+00  0.00000000000E+00 -0.14265004651E+04  0.14265004651E+04  0.25500000920E-02 0.  1.
    10030    2    1    2    0    0  0.00000000000E+00  0.00000000000E+00 -0.41172569375E+03  0.24412752364E+04  0.24063056192E+04 0.  0.
        3    1    3    3  502    0  0.79624838122E+03 -0.62418227780E+03  0.45472299134E+03  0.11092285651E+04  0.10100000352E+00 0. -1.
       -3    1    3    3    0  502 -0.79624838122E+03  0.62418227780E+03 -0.86644868509E+03  0.13320466713E+04  0.10100000352E+00 0.  1.
</event>
<event>
 5   0  0.1168435E-05  0.2404177E+04  0.7818609E-02  0.8437941E-01
        2   -1    0    0  501    0  0.00000000000E+00  0.00000000000E+00  0.16399869010E+04  0.16399869010E+04  0.25500000920E-02 0.  1.
       -2   -1    0    0    0  501  0.00000000000E+00  0.00000000000E+00 -0.88111494914E+03  0.88111494914E+03  0.25500000920E-02 0. -1.
    10030    2    1    2    0    0  0.00000000000E+00  0.00000000000E+00  0.75887195182E+03  0.25211018501E+04  0.24041771772E+04 0.  0.
        1    1    3    3  502    0  0.10124549382E+03  0.41951741960E+03 -0.79707874277E+03  0.90641052376E+03  0.50400001928E-02 0. -1.
       -1    1    3    3    0  502 -0.10124549382E+03 -0.41951741960E+03  0.15559506946E+04  0.16146913263E+04  0.50400001928E-02 0.  1.
</event>
<event>
 5   0  0.5064437E-06  0.2392780E+04  0.7818609E-02  0.8442211E-01
       -1   -1    0    0    0  501  0.00000000000E+00  0.00000000000E+00  0.59177957342E+03  0.59177957344E+03  0.50400001928E-02 0. -1.
        1   -1    0    0  501    0  0.00000000000E+00  0.00000000000E+00 -0.24187203579E+04  0.24187203579E+04  0.50400001928E-02 0.  1.
    10030    2    1    2    0    0  0.00000000000E+00  0.00000000000E+00 -0.18269407845E+04  0.30104999313E+04  0.23927802253E+04 0.  0.
        2    1    3    3  502    0 -0.59958880952E+03 -0.86141078093E+03 -0.19091628792E+03  0.10667634710E+04  0.25500000920E-02 0. -1.
       -2    1    3    3    0  502  0.59958880952E+03  0.86141078093E+03 -0.16360244965E+04  0.19437364603E+04  0.25500000920E-02 0.  1.
</event>
<event>
 5   0  0.5196696E-06  0.2401216E+04  0.7818609E-02  0.8439048E-01
       -1   -1    0    0    0  501  0.00000000000E+00  0.00000000000E+00  0.19616625862E+04  0.19616625862E+04  0.50400001928E-02 0. -1.
        1   -1    0    0  501    0  0.00000000000E+00  0.00000000000E+00 -0.73481535867E+03  0.73481535869E+03  0.50400001928E-02 0.  1.
    10030    2    1    2    0    0  0.00000000000E+00  0.00000000000E+00  0.12268472275E+04  0.26964779449E+04  0.24012161893E+04 0.  0.
        1    1    3    3  502    0  0.29840902079E+03 -0.38502669061E+03  0.18457020370E+04  0.19089026968E+04  0.50400001928E-02 0. -1.
       -1    1    3    3    0  502 -0.29840902079E+03  0.38502669061E+03 -0.61885480951E+03  0.78757524812E+03  0.50400001928E-02 0.  1.
</event>
<event>
 5   0  0.5064437E-06  0.2354631E+04  0.7818609E-02  0.8456687E-01
       -1   -1    0    0    0  501  0.00000000000E+00  0.00000000000E+00  0.10963296476E+04  0.10963296476E+04  0.50400001928E-02 0.  1.
        1   -1    0    0  501    0  0.00000000000E+00  0.00000000000E+00 -0.12642836539E+04  0.12642836540E+04  0.50400001928E-02 0. -1.
    10030    2    1    2    0    0  0.00000000000E+00  0.00000000000E+00 -0.16795400639E+03  0.23606133015E+04  0.23546308864E+04 0.  0.
        2    1    3    3  502    0  0.99536413042E+03  0.62873618052E+03 -0.87552004903E+02  0.11805610066E+04  0.25500000920E-02 0.  1.
       -2    1    3    3    0  502 -0.99536413042E+03 -0.62873618052E+03 -0.80402001490E+02  0.11800522949E+04  0.25500000920E-02 0. -1.
</event>
<event>
 5   0  0.1174210E-05  0.2407449E+04  0.7818609E-02  0.8436720E-01
       -2   -1    0    0    0  501  0.00000000000E+00  0.00000000000E+00  0.12428804688E+04  0.12428804688E+04  0.25500000920E-02 0.  1.
        2   -1    0    0  501    0  0.00000000000E+00  0.00000000000E+00 -0.11658019921E+04  0.11658019921E+04  0.25500000920E-02 0. -1.
    10030    2    1    2    0    0  0.00000000000E+00  0.00000000000E+00  0.77078476776E+02  0.24086824609E+04  0.24074488792E+04 0.  0.
        3    1    3    3  502    0  0.18946461463E+03  0.11635443885E+04 -0.20493732432E+03  0.11965499159E+04  0.10100000352E+00 0.  1.
       -3    1    3    3    0  502 -0.18946461463E+03 -0.11635443885E+04  0.28201580110E+03  0.12121325449E+04  0.10100000352E+00 0. -1.
</event>
<event>
 5   0  0.5064437E-06  0.2406377E+04  0.7818609E-02  0.8437120E-01
       -1   -1    0    0    0  501  0.00000000000E+00  0.00000000000E+00  0.12650865297E+04  0.12650865297E+04  0.50400001928E-02 0.  1.
        1   -1    0    0  501    0  0.00000000000E+00  0.00000000000E+00 -0.11443191636E+04  0.11443191636E+04  0.50400001928E-02 0. -1.
    10030    2    1    2    0    0  0.00000000000E+00  0.00000000000E+00  0.12076736604E+03  0.24094056933E+04  0.24063771604E+04 0.  0.
        2    1    3    3  502    0  0.93612676890E+03 -0.12351043808E+03 -0.68625891815E+03  0.11672786550E+04  0.25500000920E-02 0. -1.
       -2    1    3    3    0  502 -0.93612676890E+03  0.12351043808E+03  0.80702628419E+03  0.12421270382E+04  0.25500000920E-02 0.  1.
</event>
<event>
 5   0  0.1169371E-05  0.2414588E+04  0.7818609E-02  0.8434062E-01
        2   -1    0    0  501    0  0.00000000000E+00  0.00000000000E+00  0.17413583618E+04  0.17413583618E+04  0.25500000920E-02 0.  1.
       -2   -1    0    0    0  501  0.00000000000E+00  0.00000000000E+00 -0.83702414522E+03  0.83702414523E+03  0.25500000920E-02 0. -1.
    10030    2    1    2    0    0  0.00000000000E+00  0.00000000000E+00  0.90433421661E+03  0.25783825071E+04  0.24145881590E+04 0.  0.
        2    1    3    3  502    0  0.11242842329E+04  0.29759678112E+03  0.10618168727E+03  0.11678413554E+04  0.25500000920E-02 0.  1.
       -2    1    3    3    0  502 -0.11242842329E+04 -0.29759678112E+03  0.79815252934E+03  0.14105411517E+04  0.25500000920E-02 0. -1.
</event>
<event>
 5   0  0.5104174E-06  0.2417865E+04  0.7818609E-02  0.8432845E-01
        1   -1    0    0  501    0  0.00000000000E+00  0.00000000000E+00  0.10436938046E+04  0.10436938046E+04  0.50400001928E-02 0. -1.
       -1   -1    0    0    0  501  0.00000000000E+00  0.00000000000E+00 -0.14003322332E+04  0.14003322332E+04  0.50400001928E-02 0.  1.
    10030    2    1    2    0    0  0.00000000000E+00  0.00000000000E+00 -0.35663842863E+03  0.24440260379E+04  0.24178652371E+04 0.  0.
        3    1    3    3  502    0  0.18271797446E+03 -0.63576848042E+03  0.84452385837E+03  0.10727571843E+04  0.10100000352E+00 0. -1.
       -3    1    3    3    0  502 -0.18271797446E+03  0.63576848042E+03 -0.12011622870E+04  0.13712688536E+04  0.10100000352E+00 0.  1.
</event>
<event>
 5   0  0.5196696E-06  0.2394497E+04  0.7818609E-02  0.8441567E-01
        1   -1    0    0  501    0  0.00000000000E+00  0.00000000000E+00  0.15076931075E+04  0.15076931075E+04  0.50400001928E-02 0.  1.
       -1   -1    0    0    0  501  0.00000000000E+00  0.00000000000E+00 -0.95072655424E+03  0.95072655425E+03  0.50400001928E-02 0. -1.
    10030    2    1    2    0    0  0.00000000000E+00  0.00000000000E+00  0.55696655325E+03  0.24584196618E+04  0.23944969183E+04 0.  0.
        1    1    3    3  502    0  0.29320295174E+03  0.86758882230E+03  0.10702550806E+04  0.14085894622E+04  0.50400001928E-02 0.  1.
       -1    1    3    3    0  502 -0.29320295174E+03 -0.86758882230E+03 -0.51328852737E+03  0.10498301995E+04  0.50400001928E-02 0. -1.
</event>
<event>
 5   0  0.1154897E-05  0.2399889E+04  0.7818609E-02  0.8439545E-01
        2   -1    0    0  501    0  0.00000000000E+00  0.00000000000E+00  0.18022167281E+04  0.18022167282E+04  0.25500000920E-02 0. -1.
       -2   -1    0    0    0  501  0.00000000000E+00  0.00000000000E+00 -0.79894200603E+03  0.79894200604E+03  0.25500000920E-02 0.  1.
    10030    2    1    2    0    0  0.00000000000E+00  0.00000000000E+00  0.10032747221E+04  0.26011587342E+04  0.23998888708E+04 0.  0.
        4    1    3    3  502    0  0.94298975661E+02  0.66390881820E+03  0.15801784790E+04  0.17165759098E+04  0.12699999809E+01 0. -1.
       -4    1    3    3    0  502 -0.94298975661E+02 -0.66390881820E+03 -0.57690375685E+03  0.88458282442E+03  0.12699999809E+01 0.  1.
</event>
<event>
 5   0  0.1198313E-05  0.2401571E+04  0.7818609E-02  0.8438916E-01
        2   -1    0    0  501    0  0.00000000000E+00  0.00000000000E+00  0.16364360072E+04  0.16364360073E+04  0.25500000920E-02 0.  1.
       -2   -1    0    0    0  501  0.00000000000E+00  0.00000000000E+00 -0.88111362808E+03  0.88111362808E+03  0.25500000920E-02 0. -1.
    10030    2    1    2    0    0  0.00000000000E+00  0.00000000000E+00  0.75532237917E+03  0.25175496353E+04  0.24015712086E+04 0.  0.
        5    1    3    3  502    0  0.11505001670E+03 -0.46823423858E+03 -0.77516733314E+03  0.91289993586E+03  0.46999998093E+01 0. -1.
       -5    1    3    3    0  502 -0.11505001670E+03  0.46823423858E+03  0.15304897123E+04  0.16046496995E+04  0.46999998093E+01 0.  1.
</event>
<event>
 5   0  0.5064437E-06  0.2392592E+04  0.7818609E-02  0.8442282E-01
        1   -1    0    0  501    0  0.00000000000E+00  0.00000000000E+00  0.20598325974E+04  0.20598325974E+04  0.50400001928E-02 0. -1.
       -1   -1    0    0    0  501  0.00000000000E+00  0.00000000000E+00 -0.69477706818E+03  0.69477706820E+03  0.50400001928E-02 0.  1.
    10030    2    1    2    0    0  0.00000000000E+00  0.00000000000E+00  0.13650555292E+04  0.27546096656E+04  0.23925922787E+04 0.  0.
        2    1    3    3  502    0  0.91900114363E+03  0.48175141005E+03  0.13679928806E+04  0.17169892383E+04  0.25500000920E-02 0. -1.
       -2    1    3    3    0  502 -0.91900114363E+03 -0.48175141005E+03 -0.29373514067E+01  0.10376204273E+04  0.25500000920E-02 0.  1.
</event>
<event>
 5   0  0.5064437E-06  0.2420482E+04  0.7818609E-02  0.8431875E-01
       -1   -1    0    0    0  501  0.00000000000E+00  0.00000000000E+00  0.10850773707E+04  0.10850773707E+04  0.50400001928E-02 0.  1.
        1   -1    0    0  501    0  0.00000000000E+00  0.00000000000E+00 -0.13498417182E+04  0.13498417182E+04  0.50400001928E-02 0. -1.
    10030    2    1    2    0    0  0.00000000000E+00  0.00000000000E+00 -0.26476434753E+03  0.24349190889E+04  0.24204815244E+04 0.  0.
        2    1    3    3  502    0 -0.33360218947E+03 -0.77212830331E+03 -0.10077508059E+04  0.13126439823E+04  0.25500000920E-02 0. -1.
       -2    1    3    3    0  502  0.33360218947E+03  0.77212830331E+03  0.74298645834E+03  0.11222751066E+04  0.25500000920E-02 0.  1.
</event>
<event>
 5   0  0.5196696E-06  0.2360202E+04  0.7818609E-02  0.8454555E-01
        1   -1    0    0  501    0  0.00000000000E+00  0.00000000000E+00  0.26336618942E+04  0.26336618942E+04  0.50400001928E-02 0.  1.
       -1   -1    0    0    0  501  0.00000000000E+00  0.00000000000E+00 -0.52878398923E+03  0.52878398925E+03  0.50400001928E-02 0. -1.
    10030    2    1    2    0    0  0.00000000000E+00  0.00000000000E+00  0.21048779049E+04  0.31624458834E+04  0.23602018920E+04 0.  0.
        1    1    3    3  502    0  0.40416852714E+03 -0.10980689899E+04  0.12579758872E+04  0.17180253309E+04  0.50400001928E-02 0.  1.
       -1    1    3    3    0  502 -0.40416852714E+03  0.10980689899E+04  0.84690201771E+03  0.14444205525E+04  0.50400001928E-02 0. -1.
</event>
<event>
 5   0  0.5042742E-06  0.2411380E+04  0.7818609E-02  0.8435255E-01
        1   -1    0    0  501    0  0.00000000000E+00  0.00000000000E+00  0.17045661766E+04  0.17045661766E+04  0.50400001928E-02 0.  1.
       -1   -1    0    0    0  501  0.00000000000E+00  0.00000000000E+00 -0.85282032863E+03  0.85282032865E+03  0.50400001928E-02 0. -1.
    10030    2    1    2    0    0  0.00000000000E+00  0.00000000000E+00  0.85174584792E+03  0.25573865052E+04  0.24113802578E+04 0.  0.
        5    1    3    3  502    0 -0.10327412970E+04  0.51030431821E+03  0.80337693372E+03  0.14044221842E+04  0.46999998093E+01 0. -1.
       -5    1    3    3    0  502  0.10327412970E+04 -0.51030431821E+03  0.48368914207E+02  0.11529643210E+04  0.46999998093E+01 0.  1.
</event>
<event>
 5   0  0.5104174E-06  0.2396663E+04  0.7818609E-02  0.8440754E-01
        1   -1    0    0  501    0  0.00000000000E+00  0.00000000000E+00  0.16461461637E+04  0.16461461637E+04  0.50400001928E-02 0.  1.
       -1   -1    0    0    0  501  0.00000000000E+00  0.00000000000E+00 -0.87233983489E+03  0.87233983491E+03  0.50400001928E-02 0. -1.
    10030    2    1    2    0    0  0.00000000000E+00  0.00000000000E+00  0.77380632877E+03  0.25184859986E+04  0.23966634079E+04 0.  0.
        3    1    3    3  502    0 -0.93656760450E+03  0.22737807718E+03  0.11352382093E+04  0.14891693892E+04  0.10100000352E+00 0.  1.
       -3    1    3    3    0  502  0.93656760450E+03 -0.22737807718E+03 -0.36143188054E+03  0.10293166093E+04  0.10100000352E+00 0. -1.
</event>
<event>
 5   0  0.1168435E-05  0.2396501E+04  0.7818609E-02  0.8440815E-01
        2   -1    0    0  501    0  0.00000000000E+00  0.00000000000E+00  0.10604777887E+04  0.10604777887E+04  0.25500000920E-02 0. -1.
       -2   -1    0    0    0  501  0.00000000000E+00  0.00000000000E+00 -0.13539219624E+04  0.13539219624E+04  0.25500000920E-02 0.  1.
    10030    2    1    2    0    0  0.00000000000E+00  0.00000000000E+00 -0.29344417370E+03  0.24143997511E+04  0.23965009232E+04 0.  0.
        1    1    3    3  502    0 -0.77117633795E+03 -0.52233255905E+03  0.61273823817E+03  0.11148956879E+04  0.50400001928E-02 0. -1.
       -1    1    3    3    0  502  0.77117633795E+03  0.52233255905E+03 -0.90618241187E+03  0.12995040631E+04  0.50400001928E-02 0.  1.
</event>
<event>
 5   0  0.5042742E-06  0.2401486E+04  0.7818609E-02  0.8438947E-01
       -1   -1    0    0    0  501  0.00000000000E+00  0.00000000000E+00  0.51612594873E+03  0.51612594876E+03  0.50400001928E-02 0. -1.
        1   -1    0    0  501    0  0.00000000000E+00  0.00000000000E+00 -0.27934725976E+04  0.27934725976E+04  0.50400001928E-02 0.  1.
    10030    2    1    2    0    0  0.00000000000E+00  0.00000000000E+00 -0.22773466489E+04  0.33095985464E+04  0.24014859523E+04 0.  0.
        5    1    3    3  502    0 -0.63252233207E+02  0.62514306896E+03 -0.25488050026E+04  0.26251159466E+04  0.46999998093E+01 0.  1.
       -5    1    3    3    0  502  0.63252233207E+02 -0.62514306896E+03  0.27145835370E+03  0.68448259982E+03  0.46999998093E+01 0. -1.
</event>
<event>
 5   0  0.5196696E-06  0.2411074E+04  0.7818609E-02  0.8435369E-01
        1   -1    0    0  501    0  0.00000000000E+00  0.00000000000E+00  0.10120125806E+04  0.10120125806E+04  0.50400001928E-02 0. -1.
       -1   -1    0    0    0  501  0.00000000000E+00  0.00000000000E+00 -0.14360687225E+04  0.14360687225E+04  0.50400001928E-02 0.  1.
    10030    2    1    2    0    0  0.00000000000E+00  0.00000000000E+00 -0.42405614190E+03  0.24480813031E+04  0.24110741289E+04 0.  0.
        1    1    3    3  502    0 -0.60287690791E+03 -0.63377857608E+03 -0.10543293985E+04  0.13699439150E+04  0.50400001928E-02 0.  1.
       -1    1    3    3    0  502  0.60287690791E+03  0.63377857608E+03  0.63027325665E+03  0.10781373881E+04  0.50400001928E-02 0. -1.
</event>
<event>
 5   0  0.5196696E-06  0.2401287E+04  0.7818609E-02  0.8439022E-01
        1   -1    0    0  501    0  0.00000000000E+00  0.00000000000E+00  0.15668976293E+04  0.15668976293E+04  0.50400001928E-02 0.  1.
       -1   -1    0    0    0  501  0.00000000000E+00  0.00000000000E+00 -0.91999961806E+03  0.91999961807E+03  0.50400001928E-02 0. -1.
    10030    2    1    2    0    0  0.00000000000E+00  0.00000000000E+00  0.64689801126E+03  0.24868972474E+04  0.24012873385E+04 0.  0.
        1    1    3    3  502    0 -0.51747145531E+03 -0.10754898589E+04  0.18805927650E+03  0.12082307044E+04  0.50400001928E-02 0. -1.
       -1    1    3    3    0  502  0.51747145531E+03  0.10754898589E+04  0.45883873477E+03  0.12786665430E+04  0.50400001928E-02 0.  1.
</event>
<event>
 5   0  0.5034479E-06  0.2371426E+04  0.7818609E-02  0.8450279E-01
        1   -1    0    0  501    0  0.00000000000E+00  0.00000000000E+00  0.16771240405E+04  0.16771240405E+04  0.50400001928E-02 0. -1.
       -1   -1    0    0    0  501  0.00000000000E+00  0.00000000000E+00 -0.83828972393E+03  0.83828972394E+03  0.50400001928E-02 0.  1.
    10030    2    1    2    0    0  0.00000000000E+00  0.00000000000E+00  0.83883431658E+03  0.25154137644E+04  0.23714264475E+04 0.  0.
        4    1    3    3  502    0  0.48176381093E+03 -0.72319952549E+03 -0.43628701593E+03  0.97234864959E+03  0.12699999809E+01 0.  1.
       -4    1    3    3    0  502 -0.48176381093E+03  0.72319952549E+03  0.12751213325E+04  0.15430651149E+04  0.12699999809E+01 0. -1.
</event>
<event>
 5   0  0.5104174E-06  0.2396349E+04  0.7818609E-02  0.8440872E-01
       -1   -1    0    0    0  501  0.00000000000E+00  0.00000000000E+00  0.90324265869E+03  0.90324265870E+03  0.50400001928E-02 0. -1.
        1   -1    0    0  501    0  0.00000000000E+00  0.00000000000E+00 -0.15894089063E+04  0.15894089063E+04  0.50400001928E-02 0.  1.
    10030    2    1    2    0    0  0.00000000000E+00  0.00000000000E+00 -0.68616624759E+03  0.24926515650E+04  0.23963488279E+04 0.  0.
        3    1    3    3  502    0 -0.10905200178E+04  0.46279091086E+03 -0.15639173332E+03  0.11949341910E+04  0.10100000352E+00 0.  1.
       -3    1    3    3    0  502  0.10905200178E+04 -0.46279091086E+03 -0.52977451428E+03  0.12977173739E+04  0.10100000352E+00 0. -1.
</event>
<event>
 5   0  0.1168435E-05  0.2410234E+04  0.7818609E-02  0.8435682E-01
        2   -1    0    0  501    0  0.00000000000E+00  0.00000000000E+00  0.20303452772E+04  0.20303452772E+04  0.25500000920E-02 0.  1.
       -2   -1    0    0    0  501  0.00000000000E+00  0.00000000000E+00 -0.71530062209E+03  0.71530062209E+03  0.25500000920E-02 0. -1.
    10030    2    1    2    0    0  0.00000000000E+00  0.00000000000E+00  0.13150446551E+04  0.27456458993E+04  0.24102342125E+04 0.  0.
        1    1    3    3  502    0 -0.75133989452E+03 -0.14449223948E+03 -0.40313278188E+03  0.86481540471E+03  0.50400001928E-02 0. -1.
       -1    1    3    3    0  502  0.75133989452E+03  0.14449223948E+03  0.17181774370E+04  0.18808304946E+04  0.50400001928E-02 0.  1.
</event>
<event>
 5   0  0.1174210E-05  0.2403502E+04  0.7818609E-02  0.8438193E-01
        2   -1    0    0  501    0  0.00000000000E+00  0.00000000000E+00  0.58281793491E+03  0.58281793492E+03  0.25500000920E-02 0.  1.
       -2   -1    0    0    0  501  0.00000000000E+00  0.00000000000E+00 -0.24779711813E+04  0.24779711813E+04  0.25500000920E-02 0. -1.
    10030    2    1    2    0    0  0.00000000000E+00  0.00000000000E+00 -0.18951532464E+04  0.30607891163E+04  0.24035024832E+04 0.  0.
        3    1    3    3  502    0  0.22193177565E+03  0.78741355228E+02 -0.24483019125E+04  0.24596008171E+04  0.10100000352E+00 0. -1.
       -3    1    3    3    0  502 -0.22193177565E+03 -0.78741355228E+02  0.55314866612E+03  0.60118829920E+03  0.10100000352E+00 0.  1.
</event>
<event>
 5   0  0.5104174E-06  0.2396919E+04  0.7818609E-02  0.8440658E-01
        1   -1    0    0  501    0  0.00000000000E+00  0.00000000000E+00  0.15853459662E+04  0.15853459662E+04  0.50400001928E-02 0. -1.
       -1   -1    0    0    0  501  0.00000000000E+00  0.00000000000E+00 -0.90598859790E+03  0.90598859792E+03  0.50400001928E-02 0.  1.
    10030    2    1    2    0    0  0.00000000000E+00  0.00000000000E+00  0.67935736830E+03  0.24913345641E+04  0.23969191635E+04 0.  0.
        3    1    3    3  502    0  0.19503198851E+02 -0.20262837816E+03 -0.88788780057E+03  0.91092447053E+03  0.10100000352E+00 0.  1.
       -3    1    3    3    0  502 -0.19503198851E+02  0.20262837816E+03  0.15672451689E+04  0.15804100936E+04  0.10100000352E+00 0. -1.
</event>
<event>
 5   0  0.1198313E-05  0.2396131E+04  0.7818609E-02  0.8440953E-01
        2   -1    0    0  501    0  0.00000000000E+00  0.00000000000E+00  0.21444479008E+04  0.21444479008E+04  0.25500000920E-02 0. -1.
       -2   -1    0    0    0  501  0.00000000000E+00  0.00000000000E+00 -0.66933841845E+03  0.66933841846E+03  0.25500000920E-02 0.  1.
    10030    2    1    2    0    0  0.00000000000E+00  0.00000000000E+00  0.14751094824E+04  0.28137863193E+04  0.23961313540E+04 0.  0.
        5    1    3    3  502    0  0.59458596003E+03  0.17455024716E+03  0.19416251524E+04  0.20381193721E+04  0.46999998093E+01 0. -1.
       -5    1    3    3    0  502 -0.59458596003E+03 -0.17455024716E+03 -0.46651566997E+03  0.77566694720E+03  0.46999998093E+01 0.  1.
</event>
<event>
 5   0  0.5034479E-06  0.2403011E+04  0.7818609E-02  0.8438377E-01
        1   -1    0    0  501    0  0.00000000000E+00  0.00000000000E+00  0.17764485028E+04  0.17764485028E+04  0.50400001928E-02 0. -1.
       -1   -1    0    0    0  501  0.00000000000E+00  0.00000000000E+00 -0.81264159623E+03  0.81264159624E+03  0.50400001928E-02 0.  1.
    10030    2    1    2    0    0  0.00000000000E+00  0.00000000000E+00  0.96380690658E+03  0.25890900991E+04  0.24030113999E+04 0.  0.
        4    1    3    3  502    0  0.63275070079E+03  0.14553356758E+03  0.15711588306E+04  0.17000279858E+04  0.12699999809E+01 0. -1.
       -4    1    3    3    0  502 -0.63275070079E+03 -0.14553356758E+03 -0.60735192404E+03  0.88906211323E+03  0.12699999809E+01 0.  1.
</event>
<event>
 5   0  0.5064437E-06  0.2402972E+04  0.7818609E-02  0.8438392E-01
        1   -1    0    0  501    0  0.00000000000E+00  0.00000000000E+00  0.18411200346E+04  0.18411200346E+04  0.50400001928E-02 0. -1.
       -1   -1    0    0    0  501  0.00000000000E+00  0.00000000000E+00 -0.78407093853E+03  0.78407093854E+03  0.50400001928E-02 0.  1.
    10030    2    1    2    0    0  0.00000000000E+00  0.00000000000E+00  0.10570490961E+04  0.26251909732E+04  0.24029720877E+04 0.  0.
        2    1    3    3  502    0  0.11367561669E+04 -0.34816379052E+03  0.33887328473E+03  0.12362312531E+04  0.25500000920E-02 0.  1.
       -2    1    3    3    0  502 -0.11367561669E+04  0.34816379052E+03  0.71817581136E+03  0.13889597201E+04  0.25500000920E-02 0. -1.
</event>
<event>
 5   0  0.5196696E-06  0.2393996E+04  0.7818609E-02  0.8441755E-01
       -1   -1    0    0    0  501  0.00000000000E+00  0.00000000000E+00  0.14735372896E+04  0.14735372896E+04  0.50400001928E-02 0.  1.
        1   -1    0    0  501    0  0.00000000000E+00  0.00000000000E+00 -0.97235671443E+03  0.97235671445E+03  0.50400001928E-02 0. -1.
    10030    2    1    2    0    0  0.00000000000E+00  0.00000000000E+00  0.50118057520E+03  0.24458940041E+04  0.23939957206E+04 0.  0.
        1    1    3    3  502    0 -0.27342792701E+03  0.82261927627E+03  0.10939167941E+04  0.13957504281E+04  0.50400001928E-02 0.  1.
       -1    1    3    3    0  502  0.27342792701E+03 -0.82261927627E+03 -0.59273621894E+03  0.10501435760E+04  0.50400001928E-02 0. -1.
</event>
<event>
 5   0  0.5042742E-06  0.2408189E+04  0.7818609E-02  0.8436444E-01
        1   -1    0    0  501    0  0.00000000000E+00  0.00000000000E+00  0.12092577322E+04  0.12092577322E+04  0.50400001928E-02 0. -1.
       -1   -1    0    0    0  501  0.00000000000E+00  0.00000000000E+00 -0.11989534464E+04  0.11989534464E+04  0.50400001928E-02 0.  1.
    10030    2    1    2    0    0  0.00000000000E+00  0.00000000000E+00  0.10304285758E+02  0.24082111786E+04  0.24081891335E+04 0.  0.
        5    1    3    3  502    0 -0.39933348704E+03  0.10596242368E+04 -0.40418139601E+03  0.12023541276E+04  0.46999998093E+01 0.  1.
       -5    1    3    3    0  502  0.39933348704E+03 -0.10596242368E+04  0.41448568177E+03  0.12058570511E+04  0.46999998093E+01 0. -1.
</event>
<event>
 5   0  0.1198313E-05  0.2403556E+04  0.7818609E-02  0.8438173E-01
       -2   -1    0    0    0  501  0.00000000000E+00  0.00000000000E+00  0.92324822210E+03  0.92324822210E+03  0.25500000920E-02 0.  1.
        2   -1    0    0  501    0  0.00000000000E+00  0.00000000000E+00 -0.15643362954E+04  0.15643362954E+04  0.25500000920E-02 0. -1.
    10030    2    1    2    0    0  0.00000000000E+00  0.00000000000E+00 -0.64108807327E+03  0.24875845175E+04  0.24035562847E+04 0.  0.
        5    1    3    3  502    0  0.29467653729E+03  0.54611084876E+01 -0.15263432491E+04  0.15545449140E+04  0.46999998093E+01 0. -1.
       -5    1    3    3    0  502 -0.29467653729E+03 -0.54611084876E+01  0.88525517586E+03  0.93303960351E+03  0.46999998093E+01 0.  1.
</event>
<event>
 5   0  0.1154897E-05  0.2403337E+04  0.7818609E-02  0.8438255E-01
        2   -1    0    0  501    0  0.00000000000E+00  0.00000000000E+00  0.11384775507E+04  0.11384775507E+04  0.25500000920E-02 0. -1.
       -2   -1    0    0    0  501  0.00000000000E+00  0.00000000000E+00 -0.12683669129E+04  0.12683669129E+04  0.25500000920E-02 0.  1.
    10030    2    1    2    0    0  0.00000000000E+00  0.00000000000E+00 -0.12988936219E+03  0.24068444636E+04  0.24033370604E+04 0.  0.
        4    1    3    3  502    0  0.93575560228E+03 -0.14490569564E+03 -0.80586859836E+03  0.12434074226E+04  0.12699999809E+01 0.  1.
       -4    1    3    3    0  502 -0.93575560228E+03  0.14490569564E+03  0.67597923617E+03  0.11634370410E+04  0.12699999809E+01 0. -1.
</event>
<event>
 5   0  0.5042742E-06  0.2404257E+04  0.7818609E-02  0.8437911E-01
       -1   -1    0    0    0  501  0.00000000000E+00  0.00000000000E+00  0.12801516271E+04  0.12801516271E+04  0.50400001928E-02 0. -1.
        1   -1    0    0  501    0  0.00000000000E+00  0.00000000000E+00 -0.11288609132E+04  0.11288609132E+04  0.50400001928E-02 0.  1.
    10030    2    1    2    0    0  0.00000000000E+00  0.00000000000E+00  0.15129071396E+03  0.24090125403E+04  0.24042571699E+04 0.  0.
        5    1    3    3  502    0 -0.71754576454E+03 -0.82625719621E+03  0.57414135992E+03  0.12358127972E+04  0.46999998093E+01 0.  1.
       -5    1    3    3    0  502  0.71754576454E+03  0.82625719621E+03 -0.42285064596E+03  0.11731997431E+04  0.46999998093E+01 0. -1.
</event>
<event>
 5   0  0.4067750E-06  0.2398028E+04  0.7818609E-02  0.8440242E-01
        3   -1    0    0  501    0  0.00000000000E+00  0.00000000000E+00  0.87782548137E+03  0.87782548718E+03  0.10100000352E+00 0. -1.
       -3   -1    0    0    0  501  0.00000000000E+00  0.00000000000E+00 -0.16377226074E+04  0.16377226105E+04  0.10100000352E+00 0.  1.
    10030    2    1    2    0    0  0.00000000000E+00  0.00000000000E+00 -0.75989712600E+03  0.25155480977E+04  0.23980280627E+04 0.  0.
        1    1    3    3  502    0  0.27379515504E+03 -0.93940189846E+03  0.34697232971E+03  0.10381856825E+04  0.50400001928E-02 0.  1.
       -1    1    3    3    0  502 -0.27379515504E+03  0.93940189846E+03 -0.11068694557E+04  0.14773624152E+04  0.50400001928E-02 0. -1.
</event>
<event>
 5   0  0.1168435E-05  0.2400361E+04  0.7818609E-02  0.8439369E-01
        2   -1    0    0  501    0  0.00000000000E+00  0.00000000000E+00  0.86849213209E+03  0.86849213210E+03  0.25500000920E-02 0. -1.
       -2   -1    0    0    0  501  0.00000000000E+00  0.00000000000E+00 -0.16585445856E+04  0.16585445856E+04  0.25500000920E-02 0.  1.
    10030    2    1    2    0    0  0.00000000000E+00  0.00000000000E+00 -0.79005245350E+03  0.25270367177E+04  0.24003607423E+04 0.  0.
        1    1    3    3  502    0 -0.67240650248E+02 -0.11440824826E+04 -0.77018446046E+03  0.13808077836E+04  0.50400001928E-02 0.  1.
       -1    1    3    3    0  502  0.67240650248E+02  0.11440824826E+04 -0.19867993041E+02  0.11462289341E+04  0.50400001928E-02 0. -1.
</event>
<event>
 5   0  0.1154897E-05  0.2362264E+04  0.7818609E-02  0.8453768E-01
        2   -1    0    0  501    0  0.00000000000E+00  0.00000000000E+00  0.23836312230E+04  0.23836312230E+04  0.25500000920E-02 0.  1.
       -2   -1    0    0    0  501  0.00000000000E+00  0.00000000000E+00 -0.58527216630E+03  0.58527216631E+03  0.25500000920E-02 0. -1.
    10030    2    1    2    0    0  0.00000000000E+00  0.00000000000E+00  0.17983590567E+04  0.29689033893E+04  0.23622641762E+04 0.  0.
        4    1    3    3  502    0  0.48966457431E+03 -0.10555342312E+04  0.11541202823E+04  0.16388774047E+04  0.12699999809E+01 0.  1.
       -4    1    3    3    0  502 -0.48966457431E+03  0.10555342312E+04  0.64423877444E+03  0.13300259847E+04  0.12699999809E+01 0. -1.
</event>
<event>
 5   0  0.1154897E-05  0.2402921E+04  0.7818609E-02  0.8438411E-01
        2   -1    0    0  501    0  0.00000000000E+00  0.00000000000E+00  0.10547013156E+04  0.10547013156E+04  0.25500000920E-02 0.  1.
       -2   -1    0    0    0  501  0.00000000000E+00  0.00000000000E+00 -0.13686411876E+04  0.13686411876E+04  0.25500000920E-02 0. -1.
    10030    2    1    2    0    0  0.00000000000E+00  0.00000000000E+00 -0.31393987201E+03  0.24233425032E+04  0.24029212730E+04 0.  0.
        4    1    3    3  502    0  0.83747771714E+03 -0.55577116437E+03  0.50684545376E+03  0.11256751044E+04  0.12699999809E+01 0.  1.
       -4    1    3    3    0  502 -0.83747771714E+03  0.55577116437E+03 -0.82078532577E+03  0.12976673987E+04  0.12699999809E+01 0. -1.
</event>
<event>
 5   0  0.5034479E-06  0.2401079E+04  0.7818609E-02  0.8439100E-01
       -1   -1    0    0    0  501  0.00000000000E+00  0.00000000000E+00  0.11323805984E+04  0.11323805984E+04  0.50400001928E-02 0.  1.
        1   -1    0    0  501    0  0.00000000000E+00  0.00000000000E+00 -0.12728009768E+04  0.12728009769E+04  0.50400001928E-02 0. -1.
    10030    2    1    2    0    0  0.00000000000E+00  0.00000000000E+00 -0.14042037849E+03  0.24051815752E+04  0.24010790339E+04 0.  0.
        4    1    3    3  502    0  0.24307771976E+03  0.61664045040E+03  0.93248027713E+03  0.11440512677E+04  0.12699999809E+01 0.  1.
       -4    1    3    3    0  502 -0.24307771976E+03 -0.61664045040E+03 -0.10729006556E+04  0.12611303076E+04  0.12699999809E+01 0. -1.
</event>
<event>
 5   0  0.5104174E-06  0.2402410E+04  0.7818609E-02  0.8438602E-01
       -1   -1    0    0    0  501  0.00000000000E+00  0.00000000000E+00  0.97030310626E+03  0.97030310627E+03  0.50400001928E-02 0. -1.
        1   -1    0    0  501    0  0.00000000000E+00  0.00000000000E+00 -0.14870545694E+04  0.14870545694E+04  0.50400001928E-02 0.  1.
    10030    2    1    2    0    0  0.00000000000E+00  0.00000000000E+00 -0.51675146315E+03  0.24573576757E+04  0.24024101797E+04 0.  0.
        3    1    3    3  502    0  0.75246175752E+03  0.55921932621E+03  0.50977901362E+03  0.10671455403E+04  0.10100000352E+00 0. -1.
       -3    1    3    3    0  502 -0.75246175752E+03 -0.55921932621E+03 -0.10265304768E+04  0.13902121354E+04  0.10100000352E+00 0.  1.
</event>
<event>
 5   0  0.5104174E-06  0.2400151E+04  0.7818609E-02  0.8439447E-01
       -1   -1    0    0    0  501  0.00000000000E+00  0.00000000000E+00  0.10679211307E+04  0.10679211307E+04  0.50400001928E-02 0. -1.
        1   -1    0    0  501    0  0.00000000000E+00  0.00000000000E+00 -0.13485834697E+04  0.13485834697E+04  0.50400001928E-02 0.  1.
    10030    2    1    2    0    0  0.00000000000E+00  0.00000000000E+00 -0.28066233902E+03  0.24165046004E+04  0.24001506485E+04 0.  0.
        3    1    3    3  502    0  0.20698137737E+03 -0.30502572196E+02 -0.13300804645E+04  0.13464344580E+04  0.10100000352E+00 0.  1.
       -3    1    3    3    0  502 -0.20698137737E+03  0.30502572196E+02  0.10494181255E+04  0.10700701424E+04  0.10100000352E+00 0. -1.
</event>
<event>
 5   0  0.1154897E-05  0.2265715E+04  0.7818609E-02  0.8491563E-01
        2   -1    0    0  501    0  0.00000000000E+00  0.00000000000E+00  0.13275904796E+04  0.13275904796E+04  0.25500000920E-02 0. -1.
       -2   -1    0    0    0  501  0.00000000000E+00  0.00000000000E+00 -0.96668862254E+03  0.96668862255E+03  0.25500000920E-02 0.  1.
    10030    2    1    2    0    0  0.00000000000E+00  0.00000000000E+00  0.36090185701E+03  0.22942791021E+04  0.22657154384E+04 0.  0.
        4    1    3    3  502    0  0.76774724418E+02 -0.10239237546E+03 -0.95934439080E+03  0.96784390783E+03  0.12699999809E+01 0.  1.
       -4    1    3    3    0  502 -0.76774724418E+02  0.10239237546E+03  0.13202462478E+04  0.13264351943E+04  0.12699999809E+01 0. -1.
</event>
<event>
 5   0  0.5034479E-06  0.2377579E+04  0.7818609E-02  0.8447946E-01
        1   -1    0    0  501    0  0.00000000000E+00  0.00000000000E+00  0.15944703710E+04  0.15944703710E+04  0.50400001928E-02 0. -1.
       -1   -1    0    0    0  501  0.00000000000E+00  0.00000000000E+00 -0.88632568452E+03  0.88632568453E+03  0.50400001928E-02 0.  1.
    10030    2    1    2    0    0  0.00000000000E+00  0.00000000000E+00  0.70814468647E+03  0.24807960555E+04  0.23775786364E+04 0.  0.
        4    1    3    3  502    0 -0.18748916105E+03  0.33783076481E+03 -0.81898386197E+03  0.90554844721E+03  0.12699999809E+01 0.  1.
       -4    1    3    3    0  502  0.18748916105E+03 -0.33783076481E+03  0.15271285484E+04  0.15752476083E+04  0.12699999809E+01 0. -1.
</event>
<event>
 5   0  0.1168435E-05  0.2406031E+04  0.7818609E-02  0.8437249E-01
       -2   -1    0    0    0  501  0.00000000000E+00  0.00000000000E+00  0.10083910202E+04  0.10083910202E+04  0.25500000920E-02 0.  1.
        2   -1    0    0  501    0  0.00000000000E+00  0.00000000000E+00 -0.14352032890E+04  0.14352032890E+04  0.25500000920E-02 0. -1.
    10030    2    1    2    0    0  0.00000000000E+00  0.00000000000E+00 -0.42681226877E+03  0.24435943092E+04  0.24060308467E+04 0.  0.
        1    1    3    3  502    0 -0.99859956584E+03  0.41427886974E+03 -0.74929729720E+03  0.13153989944E+04  0.50400001928E-02 0. -1.
       -1    1    3    3    0  502  0.99859956584E+03 -0.41427886974E+03  0.32248502843E+03  0.11281953148E+04  0.50400001928E-02 0.  1.
</event>
<event>
 5   0  0.5042742E-06  0.2400887E+04  0.7818609E-02  0.8439172E-01
       -1   -1    0    0    0  501  0.00000000000E+00  0.00000000000E+00  0.11108153615E+04  0.11108153615E+04  0.50400001928E-02 0. -1.
        1   -1    0    0  501    0  0.00000000000E+00  0.00000000000E+00 -0.12973034718E+04  0.12973034718E+04  0.50400001928E-02 0.  1.
    10030    2    1    2    0    0  0.00000000000E+00  0.00000000000E+00 -0.18648811032E+03  0.24081188333E+04  0.24008870235E+04 0.  0.
        5    1    3    3  502    0  0.61900660564E+03  0.14363034020E+03 -0.11147633851E+04  0.12831673107E+04  0.46999998093E+01 0.  1.
       -5    1    3    3    0  502 -0.61900660564E+03 -0.14363034020E+03  0.92827527476E+03  0.11249515226E+04  0.46999998093E+01 0. -1.
</event>
<event>
 5   0  0.1174210E-05  0.2381928E+04  0.7818609E-02  0.8446300E-01
        2   -1    0    0  501    0  0.00000000000E+00  0.00000000000E+00  0.18402553661E+04  0.18402553661E+04  0.25500000920E-02 0.  1.
       -2   -1    0    0    0  501  0.00000000000E+00  0.00000000000E+00 -0.77076020297E+03  0.77076020297E+03  0.25500000920E-02 0. -1.
    10030    2    1    2    0    0  0.00000000000E+00  0.00000000000E+00  0.10694951632E+04  0.26110155691E+04  0.23819282941E+04 0.  0.
        3    1    3    3  502    0 -0.42279756822E+03 -0.10998727145E+04  0.34514435111E+03  0.12278446177E+04  0.10100000352E+00 0. -1.
       -3    1    3    3    0  502  0.42279756822E+03  0.10998727145E+04  0.72435081204E+03  0.13831709514E+04  0.10100000352E+00 0.  1.
</event>
<event>
 5   0  0.1168435E-05  0.2408318E+04  0.7818609E-02  0.8436396E-01
       -2   -1    0    0    0  501  0.00000000000E+00  0.00000000000E+00  0.59112250801E+03  0.59112250802E+03  0.25500000920E-02 0. -1.
        2   -1    0    0  501    0  0.00000000000E+00  0.00000000000E+00 -0.24529575975E+04  0.24529575975E+04  0.25500000920E-02 0.  1.
    10030    2    1    2    0    0  0.00000000000E+00  0.00000000000E+00 -0.18618350895E+04  0.30440801055E+04  0.24083176261E+04 0.  0.
        1    1    3    3  502    0 -0.15292498138E+02  0.38276929505E+03 -0.23738850622E+04  0.24045948686E+04  0.50400001928E-02 0.  1.
       -1    1    3    3    0  502  0.15292498138E+02 -0.38276929505E+03  0.51204997266E+03  0.63948523694E+03  0.50400001928E-02 0. -1.
</event>
<event>
 5   0  0.5042742E-06  0.2397816E+04  0.7818609E-02  0.8440322E-01
       -1   -1    0    0    0  501  0.00000000000E+00  0.00000000000E+00  0.17398121472E+04  0.17398121472E+04  0.50400001928E-02 0. -1.
        1   -1    0    0  501    0  0.00000000000E+00  0.00000000000E+00 -0.82616975856E+03  0.82616975857E+03  0.50400001928E-02 0.  1.
    10030    2    1    2    0    0  0.00000000000E+00  0.00000000000E+00  0.91364238864E+03  0.25659819058E+04  0.23978158241E+04 0.  0.
        5    1    3    3  502    0 -0.32902403519E+03  0.80109408902E+03 -0.43038913553E+03  0.96709123311E+03  0.46999998093E+01 0.  1.
       -5    1    3    3    0  502  0.32902403519E+03 -0.80109408902E+03  0.13440315242E+04  0.15988906727E+04  0.46999998093E+01 0. -1.
</event>
<event>
 5   0  0.5064437E-06  0.2385052E+04  0.7818609E-02  0.8445121E-01
        1   -1    0    0  501    0  0.00000000000E+00  0.00000000000E+00  0.13714448269E+04  0.13714448269E+04  0.50400001928E-02 0. -1.
       -1   -1    0    0    0  501  0.00000000000E+00  0.00000000000E+00 -0.10369488873E+04  0.10369488873E+04  0.50400001928E-02 0.  1.
    10030    2    1    2    0    0  0.00000000000E+00  0.00000000000E+00  0.33449593962E+03  0.24083937142E+04  0.23850519384E+04 0.  0.
        2    1    3    3  502    0  0.10824358254E+03 -0.19654349747E+03 -0.10154412483E+04  0.10399360309E+04  0.25500000920E-02 0.  1.
       -2    1    3    3    0  502 -0.10824358254E+03  0.19654349747E+03  0.13499371880E+04  0.13684576833E+04  0.25500000920E-02 0. -1.
</event>
<event>
 5   0  0.1169371E-05  0.2399527E+04  0.7818609E-02  0.8439681E-01
        2   -1    0    0  501    0  0.00000000000E+00  0.00000000000E+00  0.11249860992E+04  0.11249860992E+04  0.25500000920E-02 0.  1.
       -2   -1    0    0    0  501  0.00000000000E+00  0.00000000000E+00 -0.12795114290E+04  0.12795114290E+04  0.25500000920E-02 0. -1.
    10030    2    1    2    0    0  0.00000000000E+00  0.00000000000E+00 -0.15452532987E+03  0.24044975282E+04  0.23995270962E+04 0.  0.
        2    1    3    3  502    0 -0.44707895709E+03  0.18819518202E+03  0.10223414739E+04  0.11315825686E+04  0.25500000920E-02 0.  1.
       -2    1    3    3    0  502  0.44707895709E+03 -0.18819518202E+03 -0.11768668038E+04  0.12729149595E+04  0.25500000920E-02 0. -1.
</event>
<event>
 5   0  0.1169371E-05  0.2403911E+04  0.7818609E-02  0.8438041E-01
       -2   -1    0    0    0  501  0.00000000000E+00  0.00000000000E+00  0.59839718919E+03  0.59839718919E+03  0.25500000920E-02 0.  1.
        2   -1    0    0  501    0  0.00000000000E+00  0.00000000000E+00 -0.24142770295E+04  0.24142770295E+04  0.25500000920E-02 0. -1.
    10030    2    1    2    0    0  0.00000000000E+00  0.00000000000E+00 -0.18158798403E+04  0.30126742187E+04  0.24039106376E+04 0.  0.
        2    1    3    3  502    0  0.39413862101E+03  0.10422502019E+04 -0.14726847985E+04  0.18467352955E+04  0.25500000920E-02 0. -1.
       -2    1    3    3    0  502 -0.39413862101E+03 -0.10422502019E+04 -0.34319504184E+03  0.11659389232E+04  0.25500000920E-02 0.  1.
</event>
<event>
 5   0  0.5104174E-06  0.2358858E+04  0.7818609E-02  0.8455069E-01
        1   -1    0    0  501    0  0.00000000000E+00  0.00000000000E+00  0.10773227122E+04  0.10773227122E+04  0.50400001928E-02 0. -1.
       -1   -1    0    0    0  501  0.00000000000E+00  0.00000000000E+00 -0.12912125180E+04  0.12912125180E+04  0.50400001928E-02 0.  1.
    10030    2    1    2    0    0  0.00000000000E+00  0.00000000000E+00 -0.21388980572E+03  0.23685352302E+04  0.23588578354E+04 0.  0.
        3    1    3    3  502    0 -0.82601175999E+03 -0.83579090416E+03 -0.20840746157E+03  0.11934301586E+04  0.10100000352E+00 0.  1.
       -3    1    3    3    0  502  0.82601175999E+03  0.83579090416E+03 -0.54823441469E+01  0.11751050717E+04  0.10100000352E+00 0. -1.
</event>
<event>
 5   0  0.5064437E-06  0.2387092E+04  0.7818609E-02  0.8444352E-01
       -1   -1    0    0    0  501  0.00000000000E+00  0.00000000000E+00  0.14275295245E+04  0.14275295245E+04  0.50400001928E-02 0. -1.
        1   -1    0    0  501    0  0.00000000000E+00  0.00000000000E+00 -0.99791429486E+03  0.99791429487E+03  0.50400001928E-02 0.  1.
    10030    2    1    2    0    0  0.00000000000E+00  0.00000000000E+00  0.42961522961E+03  0.24254438193E+04  0.23870920542E+04 0.  0.
        2    1    3    3  502    0  0.44437473271E+03  0.80682038377E+03 -0.55641555341E+03  0.10761163054E+04  0.25500000920E-02 0.  1.
       -2    1    3    3    0  502 -0.44437473271E+03 -0.80682038377E+03  0.98603078301E+03  0.13493275139E+04  0.25500000920E-02 0. -1.
</event>
<event>
 5   0  0.1168435E-05  0.2398333E+04  0.7818609E-02  0.8440128E-01
       -2   -1    0    0    0  501  0.00000000000E+00  0.00000000000E+00  0.14132001070E+04  0.14132001070E+04  0.25500000920E-02 0. -1.
        2   -1    0    0  501    0  0.00000000000E+00  0.00000000000E+00 -0.10175488274E+04  0.10175488274E+04  0.25500000920E-02 0.  1.
    10030    2    1    2    0    0  0.00000000000E+00  0.00000000000E+00  0.39565127952E+03  0.24307489344E+04  0.23983328474E+04 0.  0.
        1    1    3    3  502    0  0.44064114625E+03  0.32399117961E+03  0.12794259699E+04  0.13914257856E+04  0.50400001928E-02 0. -1.
       -1    1    3    3    0  502 -0.44064114625E+03 -0.32399117961E+03 -0.88377469041E+03  0.10393231488E+04  0.50400001928E-02 0.  1.
</event>
<event>
 5   0  0.5034479E-06  0.2401274E+04  0.7818609E-02  0.8439027E-01
       -1   -1    0    0    0  501  0.00000000000E+00  0.00000000000E+00  0.78597114969E+03  0.78597114971E+03  0.50400001928E-02 0.  1.
        1   -1    0    0  501    0  0.00000000000E+00  0.00000000000E+00 -0.18340742580E+04  0.18340742580E+04  0.50400001928E-02 0. -1.
    10030    2    1    2    0    0  0.00000000000E+00  0.00000000000E+00 -0.10481031083E+04  0.26200454077E+04  0.24012742061E+04 0.  0.
        4    1    3    3  502    0 -0.26532446333E+03 -0.10405732579E+04  0.61841098298E+02  0.10756466475E+04  0.12699999809E+01 0.  1.
       -4    1    3    3    0  502  0.26532446333E+03  0.10405732579E+04 -0.11099442066E+04  0.15443987602E+04  0.12699999809E+01 0. -1.
</event>
<event>
 5   0  0.1168435E-05  0.2400887E+04  0.7818609E-02  0.8439171E-01
        2   -1    0    0  501    0  0.00000000000E+00  0.00000000000E+00  0.24654651647E+04  0.24654651647E+04  0.25500000920E-02 0.  1.
       -2   -1    0    0    0  501  0.00000000000E+00  0.00000000000E+00 -0.58450027745E+03  0.58450027746E+03  0.25500000920E-02 0. -1.
    10030    2    1    2    0    0  0.00000000000E+00  0.00000000000E+00  0.18809648872E+04  0.30499654421E+04  0.24008873966E+04 0.  0.
        1    1    3    3  502    0 -0.39062310457E+03 -0.10354217965E+04  0.34955786712E+03  0.11605496150E+04  0.50400001928E-02 0. -1.
       -1    1    3    3    0  502  0.39062310457E+03  0.10354217965E+04  0.15314070201E+04  0.18894158271E+04  0.50400001928E-02 0.  1.
</event>
<event>
 5   0  0.5196696E-06  0.2394715E+04  0.7818609E-02  0.8441485E-01
        1   -1    0    0  501    0  0.00000000000E+00  0.00000000000E+00  0.17297231830E+04  0.17297231830E+04  0.50400001928E-02 0.  1.
       -1   -1    0    0    0  501  0.00000000000E+00  0.00000000000E+00 -0.82884085775E+03  0.82884085777E+03  0.50400001928E-02 0. -1.
    10030    2    1    2    0    0  0.00000000000E+00  0.00000000000E+00  0.90088232527E+03  0.25585640408E+04  0.23947152204E+04 0.  0.
        1    1    3    3  502    0  0.50571631690E+03  0.28823027315E+03 -0.66749668315E+03  0.88565089374E+03  0.50400001928E-02 0. -1.
       -1    1    3    3    0  502 -0.50571631690E+03 -0.28823027315E+03  0.15683790084E+04  0.16729131471E+04  0.50400001928E-02 0.  1.
</event>
<event>
 5   0  0.1154897E-05  0.2394168E+04  0.7818609E-02  0.8441690E-01
       -2   -1    0    0    0  501  0.00000000000E+00  0.00000000000E+00  0.11903963845E+04  0.11903963845E+04  0.25500000920E-02 0.  1.
        2   -1    0    0  501    0  0.00000000000E+00  0.00000000000E+00 -0.12038092843E+04  0.12038092843E+04  0.25500000920E-02 0. -1.
    10030    2    1    2    0    0  0.00000000000E+00  0.00000000000E+00 -0.13412899766E+02  0.23942056688E+04  0.23941680974E+04 0.  0.
        4    1    3    3  502    0  0.46671722089E+03 -0.30928002496E+03  0.10513883692E+04  0.11911751399E+04  0.12699999809E+01 0.  1.
       -4    1    3    3    0  502 -0.46671722089E+03  0.30928002496E+03 -0.10648012690E+04  0.12030305289E+04  0.12699999809E+01 0. -1.
</event>
<event>
 5   0  0.4067750E-06  0.2389293E+04  0.7818609E-02  0.8443523E-01
       -3   -1    0    0    0  501  0.00000000000E+00  0.00000000000E+00  0.92186452325E+03  0.92186452878E+03  0.10100000352E+00 0. -1.
        3   -1    0    0  501    0  0.00000000000E+00  0.00000000000E+00 -0.15481456236E+04  0.15481456269E+04  0.10100000352E+00 0.  1.
    10030    2    1    2    0    0  0.00000000000E+00  0.00000000000E+00 -0.62628110031E+03  0.24700101556E+04  0.23892932328E+04 0.  0.
        1    1    3    3  502    0 -0.67367078008E+03  0.20417102680E+03 -0.13109751810E+04  0.14880100985E+04  0.50400001928E-02 0.  1.
       -1    1    3    3    0  502  0.67367078008E+03 -0.20417102680E+03  0.68469408065E+03  0.98200005714E+03  0.50400001928E-02 0. -1.
</event>
<event>
 5   0  0.1174210E-05  0.2406228E+04  0.7818609E-02  0.8437176E-01
        2   -1    0    0  501    0  0.00000000000E+00  0.00000000000E+00  0.14766668719E+04  0.14766668719E+04  0.25500000920E-02 0.  1.
       -2   -1    0    0    0  501  0.00000000000E+00  0.00000000000E+00 -0.98023653960E+03  0.98023653960E+03  0.25500000920E-02 0. -1.
    10030    2    1    2    0    0  0.00000000000E+00  0.00000000000E+00  0.49643033227E+03  0.24569034115E+04  0.24062276074E+04 0.  0.
        3    1    3    3  502    0 -0.26558498632E+01 -0.61260584533E+02 -0.97864001387E+03  0.98055912607E+03  0.10100000352E+00 0. -1.
       -3    1    3    3    0  502  0.26558498632E+01  0.61260584533E+02  0.14750703461E+04  0.14763442854E+04  0.10100000352E+00 0.  1.
</event>
<event>
 5   0  0.1169371E-05  0.2452501E+04  0.7818609E-02  0.8420106E-01
        2   -1    0    0  501    0  0.00000000000E+00  0.00000000000E+00  0.16101621587E+04  0.16101621587E+04  0.25500000920E-02 0.  1.
       -2   -1    0    0    0  501  0.00000000000E+00  0.00000000000E+00 -0.93387481968E+03  0.93387481968E+03  0.25500000920E-02 0. -1.
    10030    2    1    2    0    0  0.00000000000E+00  0.00000000000E+00  0.67628733899E+03  0.25440369784E+04  0.24525006794E+04 0.  0.
        2    1    3    3  502    0 -0.51765050191E+03 -0.95722372587E+03  0.92443859050E+03  0.14278746483E+04  0.25500000920E-02 0.  1.
       -2    1    3    3    0  502  0.51765050191E+03  0.95722372587E+03 -0.24815125151E+03  0.11161623301E+04  0.25500000920E-02 0. -1.
</event>
<event>
 5   0  0.1168435E-05  0.2386330E+04  0.7818609E-02  0.8444639E-01
        2   -1    0    0  501    0  0.00000000000E+00  0.00000000000E+00  0.11239179515E+04  0.11239179515E+04  0.25500000920E-02 0. -1.
       -2   -1    0    0    0  501  0.00000000000E+00  0.00000000000E+00 -0.12666781381E+04  0.12666781381E+04  0.25500000920E-02 0.  1.
    10030    2    1    2    0    0  0.00000000000E+00  0.00000000000E+00 -0.14276018659E+03  0.23905960897E+04  0.23863296489E+04 0.  0.
        1    1    3    3  502    0 -0.33090411060E+03 -0.39895304109E+02 -0.12190955065E+04  0.12638366270E+04  0.50400001928E-02 0.  1.
       -1    1    3    3    0  502  0.33090411060E+03  0.39895304109E+02  0.10763353199E+04  0.11267594626E+04  0.50400001928E-02 0. -1.
</event>
<event>
 5   0  0.5064437E-06  0.2394889E+04  0.7818609E-02  0.8441419E-01
        1   -1    0    0  501    0  0.00000000000E+00  0.00000000000E+00  0.10900089447E+04  0.10900089447E+04  0.50400001928E-02 0.  1.
       -1   -1    0    0    0  501  0.00000000000E+00  0.00000000000E+00 -0.13154697937E+04  0.13154697938E+04  0.50400001928E-02 0. -1.
    10030    2    1    2    0    0  0.00000000000E+00  0.00000000000E+00 -0.22546084902E+03  0.24054787385E+04  0.23948894269E+04 0.  0.
        2    1    3    3  502    0 -0.61247497510E+03 -0.71593916986E+03 -0.85503766170E+03  0.12723143845E+04  0.25500000920E-02 0. -1.
       -2    1    3    3    0  502  0.61247497510E+03  0.71593916986E+03  0.62957681268E+03  0.11331643540E+04  0.25500000920E-02 0.  1.
</event>
<event>
 5   0  0.1169371E-05  0.2444430E+04  0.7818609E-02  0.8423055E-01
        2   -1    0    0  501    0  0.00000000000E+00  0.00000000000E+00  0.16184324573E+04  0.16184324573E+04  0.25500000920E-02 0. -1.
       -2   -1    0    0    0  501  0.00000000000E+00  0.00000000000E+00 -0.92299746219E+03  0.92299746219E+03  0.25500000920E-02 0.  1.
    10030    2    1    2    0    0  0.00000000000E+00  0.00000000000E+00  0.69543499508E+03  0.25414299195E+04  0.24444296274E+04 0.  0.
        2    1    3    3  502    0  0.11423800756E+04  0.33449438347E+03  0.59422944499E+02  0.11918262524E+04  0.25500000920E-02 0.  1.
       -2    1    3    3    0  502 -0.11423800756E+04 -0.33449438347E+03  0.63601205059E+03  0.13496036670E+04  0.25500000920E-02 0. -1.
</event>
<event>
 5   0  0.5104174E-06  0.2391277E+04  0.7818609E-02  0.8442776E-01
       -1   -1    0    0    0  501  0.00000000000E+00  0.00000000000E+00  0.98774673207E+03  0.98774673208E+03  0.50400001928E-02 0. -1.
        1   -1    0    0  501    0  0.00000000000E+00  0.00000000000E+00 -0.14472855957E+04  0.14472855957E+04  0.50400001928E-02 0.  1.
    10030    2    1    2    0    0  0.00000000000E+00  0.00000000000E+00 -0.45953886359E+03  0.24350323277E+04  0.23912771629E+04 0.  0.
        3    1    3    3  502    0 -0.56798411424E+02  0.50698638653E+02 -0.14448147491E+04  0.14468192979E+04  0.10100000352E+00 0.  1.
       -3    1    3    3    0  502  0.56798411424E+02 -0.50698638653E+02  0.98527588551E+03  0.98821302980E+03  0.10100000352E+00 0. -1.
</event>
<event>
 5   0  0.5034479E-06  0.2366913E+04  0.7818609E-02  0.8451996E-01
        1   -1    0    0  501    0  0.00000000000E+00  0.00000000000E+00  0.10757951750E+04  0.10757951750E+04  0.50400001928E-02 0. -1.
       -1   -1    0    0    0  501  0.00000000000E+00  0.00000000000E+00 -0.13018919892E+04  0.13018919892E+04  0.50400001928E-02 0.  1.
    10030    2    1    2    0    0  0.00000000000E+00  0.00000000000E+00 -0.22609681423E+03  0.23776871643E+04  0.23669128589E+04 0.  0.
        4    1    3    3  502    0  0.80813110994E+03 -0.20290962994E+03  0.73120530820E+03  0.11085625938E+04  0.12699999809E+01 0. -1.
       -4    1    3    3    0  502 -0.80813110994E+03  0.20290962994E+03 -0.95730212243E+03  0.12691245704E+04  0.12699999809E+01 0.  1.
</event>
<event>
 5   0  0.5064437E-06  0.2406623E+04  0.7818609E-02  0.8437028E-01
        1   -1    0    0  501    0  0.00000000000E+00  0.00000000000E+00  0.11528577825E+04  0.11528577825E+04  0.50400001928E-02 0. -1.
       -1   -1    0    0    0  501  0.00000000000E+00  0.00000000000E+00 -0.12559729188E+04  0.12559729188E+04  0.50400001928E-02 0.  1.
    10030    2    1    2    0    0  0.00000000000E+00  0.00000000000E+00 -0.10311513635E+03  0.24088307013E+04  0.24066226576E+04 0.  0.
        2    1    3    3  502    0  0.47239299496E+03 -0.10282905887E+04 -0.46110467452E+03  0.12219468881E+04  0.25500000920E-02 0.  1.
       -2    1    3    3    0  502 -0.47239299496E+03  0.10282905887E+04  0.35798953817E+03  0.11868838132E+04  0.25500000920E-02 0. -1.
</event>
<event>
 5   0  0.5042742E-06  0.2403096E+04  0.7818609E-02  0.8438345E-01
       -1   -1    0    0    0  501  0.00000000000E+00  0.00000000000E+00  0.63486467454E+03  0.63486467456E+03  0.50400001928E-02 0. -1.
        1   -1    0    0  501    0  0.00000000000E+00  0.00000000000E+00 -0.22740554216E+04  0.22740554216E+04  0.50400001928E-02 0.  1.
    10030    2    1    2    0    0  0.00000000000E+00  0.00000000000E+00 -0.16391907471E+04  0.29089200962E+04  0.24030958825E+04 0.  0.
        5    1    3    3  502    0 -0.25823122307E+03  0.38382871789E+03 -0.21619215972E+04  0.22108674614E+04  0.46999998093E+01 0.  1.
       -5    1    3    3    0  502  0.25823122307E+03 -0.38382871789E+03  0.52273085016E+03  0.69805263480E+03  0.46999998093E+01 0. -1.
</event>
<event>
 5   0  0.1168435E-05  0.2391127E+04  0.7818609E-02  0.8442833E-01
        2   -1    0    0  501    0  0.00000000000E+00  0.00000000000E+00  0.98191867107E+03  0.98191867107E+03  0.25500000920E-02 0.  1.
       -2   -1    0    0    0  501  0.00000000000E+00  0.00000000000E+00 -0.14556933127E+04  0.14556933127E+04  0.25500000920E-02 0. -1.
    10030    2    1    2    0    0  0.00000000000E+00  0.00000000000E+00 -0.47377464166E+03  0.24376119838E+04  0.23911273016E+04 0.  0.
        1    1    3    3  502    0  0.73983464072E+02 -0.19146211361E+03 -0.14375965793E+04  0.14521760288E+04  0.50400001928E-02 0. -1.
       -1    1    3    3    0  502 -0.73983464072E+02  0.19146211361E+03  0.96382193762E+03  0.98543595498E+03  0.50400001928E-02 0.  1.
</event>
<event>
 5   0  0.1154897E-05  0.2401425E+04  0.7818609E-02  0.8438970E-01
        2   -1    0    0  501    0  0.00000000000E+00  0.00000000000E+00  0.15826901021E+04  0.15826901022E+04  0.25500000920E-02 0.  1.
       -2   -1    0    0    0  501  0.00000000000E+00  0.00000000000E+00 -0.91092421692E+03  0.91092421693E+03  0.25500000920E-02 0. -1.
    10030    2    1    2    0    0  0.00000000000E+00  0.00000000000E+00  0.67176588523E+03  0.24936143191E+04  0.24014251951E+04 0.  0.
        4    1    3    3  502    0  0.96094877614E+03  0.24207314398E+03  0.10399133427E+04  0.14364690496E+04  0.12699999809E+01 0.  1.
       -4    1    3    3    0  502 -0.96094877614E+03 -0.24207314398E+03 -0.36814745742E+03  0.10571452694E+04  0.12699999809E+01 0. -1.
</event>
<event>
 5   0  0.1174210E-05  0.2401658E+04  0.7818609E-02  0.8438883E-01
       -2   -1    0    0    0  501  0.00000000000E+00  0.00000000000E+00  0.81735495474E+03  0.81735495474E+03  0.25500000920E-02 0.  1.
        2   -1    0    0  501    0  0.00000000000E+00  0.00000000000E+00 -0.17642158906E+04  0.17642158906E+04  0.25500000920E-02 0. -1.
    10030    2    1    2    0    0  0.00000000000E+00  0.00000000000E+00 -0.94686093590E+03  0.25815708454E+04  0.24016582600E+04 0.  0.
        3    1    3    3  502    0  0.76424612515E+03 -0.77212249549E+03  0.76505702049E+02  0.10890814572E+04  0.10100000352E+00 0.  1.
       -3    1    3    3    0  502 -0.76424612515E+03  0.77212249549E+03 -0.10233666380E+04  0.14924893881E+04  0.10100000352E+00 0. -1.
</event>
<event>
 5   0  0.5064437E-06  0.2402121E+04  0.7818609E-02  0.8438710E-01
        1   -1    0    0  501    0  0.00000000000E+00  0.00000000000E+00  0.15993763192E+04  0.15993763192E+04  0.50400001928E-02 0. -1.
       -1   -1    0    0    0  501  0.00000000000E+00  0.00000000000E+00 -0.90194271801E+03  0.90194271802E+03  0.50400001928E-02 0.  1.
    10030    2    1    2    0    0  0.00000000000E+00  0.00000000000E+00  0.69743360119E+03  0.25013190372E+04  0.24021205836E+04 0.  0.
        2    1    3    3  502    0  0.44079296516E+03 -0.42291591081E+03 -0.72810104773E+03  0.95041435252E+03  0.25500000920E-02 0.  1.
       -2    1    3    3    0  502 -0.44079296516E+03  0.42291591081E+03  0.14255346489E+04  0.15509046847E+04  0.25500000920E-02 0. -1.
</event>
<event>
 5   0  0.4067750E-06  0.2403772E+04  0.7818609E-02  0.8438093E-01
       -4   -1    0    0    0  501  0.00000000000E+00  0.00000000000E+00  0.11840880057E+04  0.11840886868E+04  0.12699999809E+01 0. -1.
        4   -1    0    0  501    0  0.00000000000E+00  0.00000000000E+00 -0.12199497547E+04  0.12199504158E+04  0.12699999809E+01 0.  1.
    10030    2    1    2    0    0  0.00000000000E+00  0.00000000000E+00 -0.35861749019E+02  0.24040391025E+04  0.24037716076E+04 0.  0.
        5    1    3    3  502    0  0.23961035620E+03 -0.18059110507E+01  0.11599484670E+04  0.11844487833E+04  0.46999998093E+01 0. -1.
       -5    1    3    3    0  502 -0.23961035620E+03  0.18059110507E+01 -0.11958102160E+04  0.12195903193E+04  0.46999998093E+01 0.  1.
</event>
<event>
 5   0  0.4067750E-06  0.2419658E+04  0.7818609E-02  0.8432180E-01
        3   -1    0    0  501    0  0.00000000000E+00  0.00000000000E+00  0.55150977172E+03  0.55150978097E+03  0.10100000352E+00 0.  1.
       -3   -1    0    0    0  501  0.00000000000E+00  0.00000000000E+00 -0.26539621654E+04  0.26539621674E+04  0.10100000352E+00 0. -1.
    10030    2    1    2    0    0  0.00000000000E+00  0.00000000000E+00 -0.21024523937E+04  0.32054719483E+04  0.24196578981E+04 0.  0.
        5    1    3    3  502    0  0.22805897649E+03 -0.82794543656E+03 -0.21801223952E+04  0.23431731244E+04  0.46999998093E+01 0. -1.
       -5    1    3    3    0  502 -0.22805897649E+03  0.82794543656E+03  0.77670001492E+02  0.86229882396E+03  0.46999998093E+01 0.  1.
</event>
<event>
 5   0  0.4067750E-06  0.2400655E+04  0.7818609E-02  0.8439258E-01
        3   -1    0    0  501    0  0.00000000000E+00  0.00000000000E+00  0.11923719845E+04  0.11923719887E+04  0.10100000352E+00 0. -1.
       -3   -1    0    0    0  501  0.00000000000E+00  0.00000000000E+00 -0.12083360984E+04  0.12083361026E+04  0.10100000352E+00 0.  1.
    10030    2    1    2    0    0  0.00000000000E+00  0.00000000000E+00 -0.15964113952E+02  0.24007080914E+04  0.24006550121E+04 0.  0.
        1    1    3    3  502    0  0.86179332406E+03 -0.36077916478E+02 -0.84274405028E+03  0.12059050061E+04  0.50400001928E-02 0.  1.
       -1    1    3    3    0  502 -0.86179332406E+03  0.36077916478E+02  0.82677993633E+03  0.11948030853E+04  0.50400001928E-02 0. -1.
</event>
<event>
 5   0  0.5034479E-06  0.2384370E+04  0.7818609E-02  0.8445378E-01
        1   -1    0    0  501    0  0.00000000000E+00  0.00000000000E+00  0.97239918924E+03  0.97239918926E+03  0.50400001928E-02 0.  1.
       -1   -1    0    0    0  501  0.00000000000E+00  0.00000000000E+00 -0.14616476132E+04  0.14616476132E+04  0.50400001928E-02 0. -1.
    10030    2    1    2    0    0  0.00000000000E+00  0.00000000000E+00 -0.48924842398E+03  0.24340468025E+04  0.23843698992E+04 0.  0.
        4    1    3    3  502    0 -0.59422780259E+03  0.44414891190E+03  0.70805463290E+03  0.10255329899E+04  0.12699999809E+01 0.  1.
       -4    1    3    3    0  502  0.59422780259E+03 -0.44414891190E+03 -0.11973030569E+04  0.14085138126E+04  0.12699999809E+01 0. -1.
</event>
<event>
 5   0  0.5196696E-06  0.2398846E+04  0.7818609E-02  0.8439936E-01
       -1   -1    0    0    0  501  0.00000000000E+00  0.00000000000E+00  0.10425042064E+04  0.10425042064E+04  0.50400001928E-02 0. -1.
        1   -1    0    0  501    0  0.00000000000E+00  0.00000000000E+00 -0.13799615786E+04  0.13799615786E+04  0.50400001928E-02 0.  1.
    10030    2    1    2    0    0  0.00000000000E+00  0.00000000000E+00 -0.33745737220E+03  0.24224657849E+04  0.23988461812E+04 0.  0.
        1    1    3    3  502    0 -0.49934326252E+03  0.91292683126E+02  0.92868088793E+03  0.10583601653E+04  0.50400001928E-02 0. -1.
       -1    1    3    3    0  502  0.49934326252E+03 -0.91292683126E+02 -0.12661382601E+04  0.13641056197E+04  0.50400001928E-02 0.  1.
</event>
<event>
 5   0  0.1154897E-05  0.2446992E+04  0.7818609E-02  0.8422117E-01
        2   -1    0    0  501    0  0.00000000000E+00  0.00000000000E+00  0.18358121585E+04  0.18358121585E+04  0.25500000920E-02 0.  1.
       -2   -1    0    0    0  501  0.00000000000E+00  0.00000000000E+00 -0.81541183343E+03  0.81541183343E+03  0.25500000920E-02 0. -1.
    10030    2    1    2    0    0  0.00000000000E+00  0.00000000000E+00  0.10204003250E+04  0.26512239919E+04  0.24469924054E+04 0.  0.
        4    1    3    3  502    0  0.47307834590E+03 -0.24435343434E+03 -0.68329619034E+03  0.86626036436E+03  0.12699999809E+01 0. -1.
       -4    1    3    3    0  502 -0.47307834590E+03  0.24435343434E+03  0.17036965154E+04  0.17849636275E+04  0.12699999809E+01 0.  1.
</event>
<event>
 5   0  0.1198313E-05  0.2401840E+04  0.7818609E-02  0.8438815E-01
       -2   -1    0    0    0  501  0.00000000000E+00  0.00000000000E+00  0.11381633788E+04  0.11381633788E+04  0.25500000920E-02 0. -1.
        2   -1    0    0  501    0  0.00000000000E+00  0.00000000000E+00 -0.12671373099E+04  0.12671373099E+04  0.25500000920E-02 0.  1.
    10030    2    1    2    0    0  0.00000000000E+00  0.00000000000E+00 -0.12897393105E+03  0.24053006887E+04  0.24018403627E+04 0.  0.
        5    1    3    3  502    0  0.10337587732E+02  0.19557503534E+02  0.11379501115E+04  0.11381748144E+04  0.46999998093E+01 0. -1.
       -5    1    3    3    0  502 -0.10337587732E+02 -0.19557503534E+02 -0.12669240426E+04  0.12671258743E+04  0.46999998093E+01 0.  1.
</event>
<event>
 5   0  0.5042742E-06  0.2393576E+04  0.7818609E-02  0.8441913E-01
       -1   -1    0    0    0  501  0.00000000000E+00  0.00000000000E+00  0.76251068594E+03  0.76251068595E+03  0.50400001928E-02 0. -1.
        1   -1    0    0  501    0  0.00000000000E+00  0.00000000000E+00 -0.18784018099E+04  0.18784018099E+04  0.50400001928E-02 0.  1.
    10030    2    1    2    0    0  0.00000000000E+00  0.00000000000E+00 -0.11158911239E+04  0.26409124958E+04  0.23935759462E+04 0.  0.
        5    1    3    3  502    0 -0.59565035508E+02 -0.11130653753E+04 -0.10386456134E+04  0.15235712400E+04  0.46999998093E+01 0.  1.
       -5    1    3    3    0  502  0.59565035508E+02  0.11130653753E+04 -0.77245510521E+02  0.11173412558E+04  0.46999998093E+01 0. -1.
</event>
<event>
 5   0  0.1168435E-05  0.2396462E+04  0.7818609E-02  0.8440829E-01
       -2   -1    0    0    0  501  0.00000000000E+00  0.00000000000E+00  0.63005049698E+03  0.63005049699E+03  0.25500000920E-02 0.  1.
        2   -1    0    0  501    0  0.00000000000E+00  0.00000000000E+00 -0.22787967654E+04  0.22787967654E+04  0.25500000920E-02 0. -1.
    10030    2    1    2    0    0  0.00000000000E+00  0.00000000000E+00 -0.16487462685E+04  0.29088472624E+04  0.23964615871E+04 0.  0.
        1    1    3    3  502    0 -0.91896519616E+03  0.56779314950E+03 -0.14537668182E+04  0.18111664899E+04  0.50400001928E-02 0.  1.
       -1    1    3    3    0  502  0.91896519616E+03 -0.56779314950E+03 -0.19497945026E+03  0.10976807725E+04  0.50400001928E-02 0. -1.
</event>
<event>
 5   0  0.1169371E-05  0.2387121E+04  0.7818609E-02  0.8444341E-01
       -2   -1    0    0    0  501  0.00000000000E+00  0.00000000000E+00  0.12191597100E+04  0.12191597100E+04  0.25500000920E-02 0.  1.
        2   -1    0    0  501    0  0.00000000000E+00  0.00000000000E+00 -0.11684984248E+04  0.11684984248E+04  0.25500000920E-02 0. -1.
    10030    2    1    2    0    0  0.00000000000E+00  0.00000000000E+00  0.50661285227E+02  0.23876581347E+04  0.23871206091E+04 0.  0.
        2    1    3    3  502    0  0.40651214640E+03 -0.51389188451E+03  0.10231770598E+04  0.12150013538E+04  0.25500000920E-02 0.  1.
       -2    1    3    3    0  502 -0.40651214640E+03  0.51389188451E+03 -0.97251577453E+03  0.11726567809E+04  0.25500000920E-02 0. -1.
</event>
<event>
 5   0  0.1169371E-05  0.2341847E+04  0.7818609E-02  0.8461602E-01
        2   -1    0    0  501    0  0.00000000000E+00  0.00000000000E+00  0.12599143871E+04  0.12599143872E+04  0.25500000920E-02 0. -1.
       -2   -1    0    0    0  501  0.00000000000E+00  0.00000000000E+00 -0.10882182105E+04  0.10882182105E+04  0.25500000920E-02 0.  1.
    10030    2    1    2    0    0  0.00000000000E+00  0.00000000000E+00  0.17169617663E+03  0.23481325977E+04  0.23418469461E+04 0.  0.
        2    1    3    3  502    0  0.36342522527E+03  0.13575942725E+03  0.11935999226E+04  0.12550654531E+04  0.25500000920E-02 0. -1.
       -2    1    3    3    0  502 -0.36342522527E+03 -0.13575942725E+03 -0.10219037460E+04  0.10930671445E+04  0.25500000920E-02 0.  1.
</event>
<event>
 5   0  0.5034479E-06  0.2401922E+04  0.7818609E-02  0.8438785E-01
        1   -1    0    0  501    0  0.00000000000E+00  0.00000000000E+00  0.84066422307E+03  0.84066422309E+03  0.50400001928E-02 0.  1.
       -1   -1    0    0    0  501  0.00000000000E+00  0.00000000000E+00 -0.17156752499E+04  0.17156752500E+04  0.50400001928E-02 0. -1.
    10030    2    1    2    0    0  0.00000000000E+00  0.00000000000E+00 -0.87501102687E+03  0.25563394730E+04  0.24019215650E+04 0.  0.
        4    1    3    3  502    0 -0.14542769661E+03 -0.73062738731E+03  0.56504124036E+03  0.93500738512E+03  0.12699999809E+01 0.  1.
       -4    1    3    3    0  502  0.14542769661E+03  0.73062738731E+03 -0.14400522672E+04  0.16213320879E+04  0.12699999809E+01 0. -1.
</event>
<event>
 5   0  0.5196696E-06  0.2394854E+04  0.7818609E-02  0.8441433E-01
       -1   -1    0    0    0  501  0.00000000000E+00  0.00000000000E+00  0.16867160905E+04  0.16867160905E+04  0.50400001928E-02 0. -1.
        1   -1    0    0  501    0  0.00000000000E+00  0.00000000000E+00 -0.85007266568E+03  0.85007266570E+03  0.50400001928E-02 0.  1.
    10030    2    1    2    0    0  0.00000000000E+00  0.00000000000E+00  0.83664342486E+03  0.25367887562E+04  0.23948538522E+04 0.  0.
        1    1    3    3  502    0  0.11549678217E+04  0.76087147660E+02  0.93399000401E+02  0.11612335237E+04  0.50400001928E-02 0.  1.
       -1    1    3    3    0  502 -0.11549678217E+04 -0.76087147660E+02  0.74324442446E+03  0.13755552325E+04  0.50400001928E-02 0. -1.
</event>
<event>
 5   0  0.1198313E-05  0.2400811E+04  0.7818609E-02  0.8439200E-01
       -2   -1    0    0    0  501  0.00000000000E+00  0.00000000000E+00  0.11397746993E+04  0.11397746993E+04  0.25500000920E-02 0.  1.
        2   -1    0    0  501    0  0.00000000000E+00  0.00000000000E+00 -0.12642611686E+04  0.12642611686E+04  0.25500000920E-02 0. -1.
    10030    2    1    2    0    0  0.00000000000E+00  0.00000000000E+00 -0.12448646921E+03  0.24040358679E+04  0.24008106075E+04 0.  0.
        5    1    3    3  502    0 -0.10816242756E+04 -0.33899733171E+03 -0.45789495872E+03  0.12225056841E+04  0.46999998093E+01 0. -1.
       -5    1    3    3    0  502  0.10816242756E+04  0.33899733171E+03  0.33340848951E+03  0.11815301838E+04  0.46999998093E+01 0.  1.
</event>
<event>
 5   0  0.5042742E-06  0.2397273E+04  0.7818609E-02  0.8440525E-01
        1   -1    0    0  501    0  0.00000000000E+00  0.00000000000E+00  0.16392846975E+04  0.16392846975E+04  0.50400001928E-02 0. -1.
       -1   -1    0    0    0  501  0.00000000000E+00  0.00000000000E+00 -0.87643686728E+03  0.87643686730E+03  0.50400001928E-02 0.  1.
    10030    2    1    2    0    0  0.00000000000E+00  0.00000000000E+00  0.76284783019E+03  0.25157215648E+04  0.23972730715E+04 0.  0.
        5    1    3    3  502    0  0.53059187181E+03  0.56758400417E+03 -0.57637622478E+03  0.96742492149E+03  0.46999998093E+01 0.  1.
       -5    1    3    3    0  502 -0.53059187181E+03 -0.56758400417E+03  0.13392240550E+04  0.15482966433E+04  0.46999998093E+01 0. -1.
</event>
<event>
 5   0  0.1169371E-05  0.2393327E+04  0.7818609E-02  0.8442006E-01
        2   -1    0    0  501    0  0.00000000000E+00  0.00000000000E+00  0.13119700467E+04  0.13119700467E+04  0.25500000920E-02 0. -1.
       -2   -1    0    0    0  501  0.00000000000E+00  0.00000000000E+00 -0.10914912736E+04  0.10914912736E+04  0.25500000920E-02 0.  1.
    10030    2    1    2    0    0  0.00000000000E+00  0.00000000000E+00  0.22047877309E+03  0.24034613204E+04  0.23933272716E+04 0.  0.
        2    1    3    3  502    0 -0.90861660720E+03  0.74402269651E+02 -0.66820999009E+03  0.11303204977E+04  0.25500000920E-02 0.  1.
       -2    1    3    3    0  502  0.90861660720E+03 -0.74402269651E+02  0.88868876318E+03  0.12731408227E+04  0.25500000920E-02 0. -1.
</event>
<event>
 5   0  0.1154897E-05  0.2403230E+04  0.7818609E-02  0.8438295E-01
        2   -1    0    0  501    0  0.00000000000E+00  0.00000000000E+00  0.15463031626E+04  0.15463031626E+04  0.25500000920E-02 0. -1.
       -2   -1    0    0    0  501  0.00000000000E+00  0.00000000000E+00 -0.93376191190E+03  0.93376191191E+03  0.25500000920E-02 0.  1.
    10030    2    1    2    0    0  0.00000000000E+00  0.00000000000E+00  0.61254125069E+03  0.24800650745E+04  0.24032303240E+04 0.  0.
        4    1    3    3  502    0 -0.19622392375E+03 -0.12416965573E+03  0.15229275212E+04  0.15405297074E+04  0.12699999809E+01 0. -1.
       -4    1    3    3    0  502  0.19622392375E+03  0.12416965573E+03 -0.91038627050E+03  0.93953536712E+03  0.12699999809E+01 0.  1.
</event>
<event>
 5   0  0.5034479E-06  0.2398232E+04  0.7818609E-02  0.8440166E-01
       -1   -1    0    0    0  501  0.00000000000E+00  0.00000000000E+00  0.11624043561E+04  0.11624043561E+04  0.50400001928E-02 0. -1.
        1   -1    0    0  501    0  0.00000000000E+00  0.00000000000E+00 -0.12369872221E+04  0.12369872221E+04  0.50400001928E-02 0.  1.
    10030    2    1    2    0    0  0.00000000000E+00  0.00000000000E+00 -0.74582865976E+02  0.23993915783E+04  0.23982321285E+04 0.  0.
        4    1    3    3  502    0  0.11793419798E+04  0.21685217101E+03 -0.39606252729E+02  0.11997677432E+04  0.12699999809E+01 0.  1.
       -4    1    3    3    0  502 -0.11793419798E+04 -0.21685217101E+03 -0.34976613247E+02  0.11996238351E+04  0.12699999809E+01 0. -1.
</event>
<event>
 5   0  0.1198313E-05  0.2389868E+04  0.7818609E-02  0.8443307E-01
       -2   -1    0    0    0  501  0.00000000000E+00  0.00000000000E+00  0.12260617747E+04  0.12260617747E+04  0.25500000920E-02 0.  1.
        2   -1    0    0  501    0  0.00000000000E+00  0.00000000000E+00 -0.11645966203E+04  0.11645966203E+04  0.25500000920E-02 0. -1.
    10030    2    1    2    0    0  0.00000000000E+00  0.00000000000E+00  0.61465154413E+02  0.23906583950E+04  0.23898681127E+04 0.  0.
        5    1    3    3  502    0  0.98384411942E+03  0.51108965558E+03  0.47661916012E+03  0.12067931891E+04  0.46999998093E+01 0.  1.
       -5    1    3    3    0  502 -0.98384411942E+03 -0.51108965558E+03 -0.41515400571E+03  0.11838652059E+04  0.46999998093E+01 0. -1.
</event>
<event>
 5   0  0.1174210E-05  0.2396031E+04  0.7818609E-02  0.8440991E-01
        2   -1    0    0  501    0  0.00000000000E+00  0.00000000000E+00  0.21291097091E+04  0.21291097091E+04  0.25500000920E-02 0. -1.
       -2   -1    0    0    0  501  0.00000000000E+00  0.00000000000E+00 -0.67410394568E+03  0.67410394569E+03  0.25500000920E-02 0.  1.
    10030    2    1    2    0    0  0.00000000000E+00  0.00000000000E+00  0.14550057634E+04  0.28032136548E+04  0.23960310981E+04 0.  0.
        3    1    3    3  502    0  0.18992654892E+03  0.55078428208E+02 -0.65487742252E+03  0.68408345687E+03  0.10100000352E+00 0.  1.
       -3    1    3    3    0  502 -0.18992654892E+03 -0.55078428208E+02  0.21098831859E+04  0.21191301979E+04  0.10100000352E+00 0. -1.
</event>
<event>
 5   0  0.1154897E-05  0.2383854E+04  0.7818609E-02  0.8445573E-01
       -2   -1    0    0    0  501  0.00000000000E+00  0.00000000000E+00  0.12680301949E+04  0.12680301949E+04  0.25500000920E-02 0.  1.
        2   -1    0    0  501    0  0.00000000000E+00  0.00000000000E+00 -0.11203913973E+04  0.11203913973E+04  0.25500000920E-02 0. -1.
    10030    2    1    2    0    0  0.00000000000E+00  0.00000000000E+00  0.14763879754E+03  0.23884215922E+04  0.23838541247E+04 0.  0.
        4    1    3    3  502    0  0.16565372436E+03 -0.98719882834E+03 -0.57447973598E+03  0.11541365877E+04  0.12699999809E+01 0. -1.
       -4    1    3    3    0  502 -0.16565372436E+03  0.98719882834E+03  0.72211853352E+03  0.12342850045E+04  0.12699999809E+01 0.  1.
</event>
<event>
 5   0  0.5064437E-06  0.2398050E+04  0.7818609E-02  0.8440234E-01
        1   -1    0    0  501    0  0.00000000000E+00  0.00000000000E+00  0.17362820869E+04  0.17362820869E+04  0.50400001928E-02 0. -1.
       -1   -1    0    0    0  501  0.00000000000E+00  0.00000000000E+00 -0.82801111153E+03  0.82801111155E+03  0.50400001928E-02 0.  1.
    10030    2    1    2    0    0  0.00000000000E+00  0.00000000000E+00  0.90827097541E+03  0.25642931985E+04  0.23980499251E+04 0.  0.
        2    1    3    3  502    0  0.46643511148E+03  0.51157655411E+03  0.15009754047E+04  0.16529366138E+04  0.25500000920E-02 0. -1.
       -2    1    3    3    0  502 -0.46643511148E+03 -0.51157655411E+03 -0.59270442926E+03  0.91135658466E+03  0.25500000920E-02 0.  1.
</event>
<event>
 5   0  0.1174210E-05  0.2424197E+04  0.7818609E-02  0.8430500E-01
        2   -1    0    0  501    0  0.00000000000E+00  0.00000000000E+00  0.11057436081E+04  0.11057436081E+04  0.25500000920E-02 0.  1.
       -2   -1    0    0    0  501  0.00000000000E+00  0.00000000000E+00 -0.13286833823E+04  0.13286833823E+04  0.25500000920E-02 0. -1.
    10030    2    1    2    0    0  0.00000000000E+00  0.00000000000E+00 -0.22293977417E+03  0.24344269903E+04  0.24241973163E+04 0.  0.
        3    1    3    3  502    0  0.68432512688E+03  0.97262718026E+03  0.12378055156E+03  0.11956697480E+04  0.10100000352E+00 0.  1.
       -3    1    3    3    0  502 -0.68432512688E+03 -0.97262718026E+03 -0.34672032573E+03  0.12387572424E+04  0.10100000352E+00 0. -1.
</event>
<event>
 5   0  0.5042742E-06  0.2406714E+04  0.7818609E-02  0.8436994E-01
        1   -1    0    0  501    0  0.00000000000E+00  0.00000000000E+00  0.14111054201E+04  0.14111054201E+04  0.50400001928E-02 0. -1.
       -1   -1    0    0    0  501  0.00000000000E+00  0.00000000000E+00 -0.10261944346E+04  0.10261944346E+04  0.50400001928E-02 0.  1.
    10030    2    1    2    0    0  0.00000000000E+00  0.00000000000E+00  0.38491098545E+03  0.24372998547E+04  0.24067143817E+04 0.  0.
        5    1    3    3  502    0  0.48803918383E+03 -0.99623804617E+03  0.66461436753E+03  0.12932156963E+04  0.46999998093E+01 0. -1.
       -5    1    3    3    0  502 -0.48803918383E+03  0.99623804617E+03 -0.27970338208E+03  0.11440841584E+04  0.46999998093E+01 0.  1.
</event>
<event>
 5   0  0.1154897E-05  0.2402877E+04  0.7818609E-02  0.8438427E-01
       -2   -1    0    0    0  501  0.00000000000E+00  0.00000000000E+00  0.15208255872E+04  0.15208255872E+04  0.25500000920E-02 0. -1.
        2   -1    0    0  501    0  0.00000000000E+00  0.00000000000E+00 -0.94912543210E+03  0.94912543210E+03  0.25500000920E-02 0.  1.
    10030    2    1    2    0    0  0.00000000000E+00  0.00000000000E+00  0.57170015514E+03  0.24699510193E+04  0.24028768114E+04 0.  0.
        4    1    3    3  502    0 -0.85553573040E+03  0.61406398430E+03  0.88029795125E+03  0.13725676882E+04  0.12699999809E+01 0. -1.
       -4    1    3    3    0  502  0.85553573040E+03 -0.61406398430E+03 -0.30859779612E+03  0.10973833311E+04  0.12699999809E+01 0.  1.
</event>
<event>
 5   0  0.5196696E-06  0.2385943E+04  0.7818609E-02  0.8444785E-01
       -1   -1    0    0    0  501  0.00000000000E+00  0.00000000000E+00  0.83305841778E+03  0.83305841780E+03  0.50400001928E-02 0. -1.
        1   -1    0    0  501    0  0.00000000000E+00  0.00000000000E+00 -0.17083810533E+04  0.17083810533E+04  0.50400001928E-02 0.  1.
    10030    2    1    2    0    0  0.00000000000E+00  0.00000000000E+00 -0.87532263553E+03  0.25414394711E+04  0.23859431823E+04 0.  0.
        1    1    3    3  502    0 -0.38294152418E+03 -0.87737067236E+03  0.32060166618E+03  0.10095587829E+04  0.50400001928E-02 0. -1.
       -1    1    3    3    0  502  0.38294152418E+03  0.87737067236E+03 -0.11959243017E+04  0.15318806883E+04  0.50400001928E-02 0.  1.
</event>
<event>
 5   0  0.1198313E-05  0.2397597E+04  0.7818609E-02  0.8440404E-01
       -2   -1    0    0    0  501  0.00000000000E+00  0.00000000000E+00  0.13996357133E+04  0.13996357133E+04  0.25500000920E-02 0.  1.
        2   -1    0    0  501    0  0.00000000000E+00  0.00000000000E+00 -0.10267800691E+04  0.10267800691E+04  0.25500000920E-02 0. -1.
    10030    2    1    2    0    0  0.00000000000E+00  0.00000000000E+00  0.37285564418E+03  0.24264157824E+04  0.23975971758E+04 0.  0.
        5    1    3    3  502    0 -0.92927080161E+03 -0.26710153509E+03  0.90361255884E+03  0.13234142206E+04  0.46999998093E+01 0.  1.
       -5    1    3    3    0  502  0.92927080161E+03  0.26710153509E+03 -0.53075691466E+03  0.11030015618E+04  0.46999998093E+01 0. -1.
</event>
<event>
 5   0  0.5042742E-06  0.2402342E+04  0.7818609E-02  0.8438627E-01
        1   -1    0    0  501    0  0.00000000000E+00  0.00000000000E+00  0.10415171755E+04  0.10415171755E+04  0.50400001928E-02 0.  1.
       -1   -1    0    0    0  501  0.00000000000E+00  0.00000000000E+00 -0.13852982264E+04  0.13852982264E+04  0.50400001928E-02 0. -1.
    10030    2    1    2    0    0  0.00000000000E+00  0.00000000000E+00 -0.34378105091E+03  0.24268154019E+04  0.24023421039E+04 0.  0.
        5    1    3    3  502    0  0.69051346079E+03 -0.94599235060E+03 -0.44121379976E+03  0.12515598563E+04  0.46999998093E+01 0. -1.
       -5    1    3    3    0  502 -0.69051346079E+03  0.94599235060E+03  0.97432748855E+02  0.11752555456E+04  0.46999998093E+01 0.  1.
</event>
<event>
 5   0  0.5042742E-06  0.2413507E+04  0.7818609E-02  0.8434464E-01
       -1   -1    0    0    0  501  0.00000000000E+00  0.00000000000E+00  0.78380841275E+03  0.78380841277E+03  0.50400001928E-02 0.  1.
        1   -1    0    0  501    0  0.00000000000E+00  0.00000000000E+00 -0.18579209269E+04  0.18579209269E+04  0.50400001928E-02 0. -1.
    10030    2    1    2    0    0  0.00000000000E+00  0.00000000000E+00 -0.10741125142E+04  0.26417293397E+04  0.24135070357E+04 0.  0.
        5    1    3    3  502    0 -0.35933917119E+02 -0.11086492215E+04 -0.16895128368E+02  0.11093700366E+04  0.46999998093E+01 0.  1.
       -5    1    3    3    0  502  0.35933917119E+02  0.11086492215E+04 -0.10572173858E+04  0.15323593031E+04  0.46999998093E+01 0. -1.
</event>
<event>
 5   0  0.1198313E-05  0.2385599E+04  0.7818609E-02  0.8444915E-01
       -2   -1    0    0    0  501  0.00000000000E+00  0.00000000000E+00  0.10709054403E+04  0.10709054403E+04  0.25500000920E-02 0. -1.
        2   -1    0    0  501    0  0.00000000000E+00  0.00000000000E+00 -0.13285674234E+04  0.13285674234E+04  0.25500000920E-02 0.  1.
    10030    2    1    2    0    0  0.00000000000E+00  0.00000000000E+00 -0.25766198306E+03  0.23994728637E+04  0.23855985258E+04 0.  0.
        5    1    3    3  502    0 -0.14264478164E+03 -0.82381151420E+03 -0.98450489492E+03  0.12916210446E+04  0.46999998093E+01 0.  1.
       -5    1    3    3    0  502  0.14264478164E+03  0.82381151420E+03  0.72684291186E+03  0.11078518191E+04  0.46999998093E+01 0. -1.
</event>
<event>
 5   0  0.5034479E-06  0.2394965E+04  0.7818609E-02  0.8441391E-01
       -1   -1    0    0    0  501  0.00000000000E+00  0.00000000000E+00  0.11765698067E+04  0.11765698067E+04  0.50400001928E-02 0.  1.
        1   -1    0    0  501    0  0.00000000000E+00  0.00000000000E+00 -0.12187670498E+04  0.12187670498E+04  0.50400001928E-02 0. -1.
    10030    2    1    2    0    0  0.00000000000E+00  0.00000000000E+00 -0.42197243128E+02  0.23953368565E+04  0.23949651457E+04 0.  0.
        4    1    3    3  502    0 -0.25993218580E+02  0.10810869130E+04  0.49331411179E+03  0.11886063211E+04  0.12699999809E+01 0. -1.
       -4    1    3    3    0  502  0.25993218580E+02 -0.10810869130E+04 -0.53551135492E+03  0.12067305354E+04  0.12699999809E+01 0.  1.
</event>
<event>
 5   0  0.5034479E-06  0.2401563E+04  0.7818609E-02  0.8438918E-01
       -1   -1    0    0    0  501  0.00000000000E+00  0.00000000000E+00  0.91142107828E+03  0.91142107829E+03  0.50400001928E-02 0.  1.
        1   -1    0    0  501    0  0.00000000000E+00  0.00000000000E+00 -0.15820094986E+04  0.15820094987E+04  0.50400001928E-02 0. -1.
    10030    2    1    2    0    0  0.00000000000E+00  0.00000000000E+00 -0.67058842036E+03  0.24934305769E+04  0.24015634933E+04 0.  0.
        4    1    3    3  502    0 -0.41821359119E+03  0.80030240811E+03  0.48649381255E+03  0.10257019035E+04  0.12699999809E+01 0.  1.
       -4    1    3    3    0  502  0.41821359119E+03 -0.80030240811E+03 -0.11570822329E+04  0.14677286735E+04  0.12699999809E+01 0. -1.
</event>
<event>
 5   0  0.5042742E-06  0.2374948E+04  0.7818609E-02  0.8448943E-01
        1   -1    0    0  501    0  0.00000000000E+00  0.00000000000E+00  0.17817749997E+04  0.17817749997E+04  0.50400001928E-02 0. -1.
       -1   -1    0    0    0  501  0.00000000000E+00  0.00000000000E+00 -0.79139848783E+03  0.79139848785E+03  0.50400001928E-02 0.  1.
    10030    2    1    2    0    0  0.00000000000E+00  0.00000000000E+00  0.99037651188E+03  0.25731734876E+04  0.23749476124E+04 0.  0.
        5    1    3    3  502    0 -0.48530748472E+03 -0.85298735206E+03  0.12195407050E+04  0.15653793147E+04  0.46999998093E+01 0. -1.
       -5    1    3    3    0  502  0.48530748472E+03  0.85298735206E+03 -0.22916419317E+03  0.10077941729E+04  0.46999998093E+01 0.  1.
</event>
<event>
 5   0  0.5034479E-06  0.2438312E+04  0.7818609E-02  0.8425298E-01
        1   -1    0    0  501    0  0.00000000000E+00  0.00000000000E+00  0.17249823722E+04  0.17249823722E+04  0.50400001928E-02 0. -1.
       -1   -1    0    0    0  501  0.00000000000E+00  0.00000000000E+00 -0.86165584220E+03  0.86165584221E+03  0.50400001928E-02 0.  1.
    10030    2    1    2    0    0  0.00000000000E+00  0.00000000000E+00  0.86332653000E+03  0.25866382144E+04  0.24383118248E+04 0.  0.
        4    1    3    3  502    0 -0.84765930670E+03 -0.79680538344E+03  0.44911349943E+02  0.11642352690E+04  0.12699999809E+01 0.  1.
       -4    1    3    3    0  502  0.84765930670E+03  0.79680538344E+03  0.81841518006E+03  0.14224029454E+04  0.12699999809E+01 0. -1.
</event>
<event>
 5   0  0.5034479E-06  0.2395108E+04  0.7818609E-02  0.8441337E-01
        1   -1    0    0  501    0  0.00000000000E+00  0.00000000000E+00  0.12260360868E+04  0.12260360868E+04  0.50400001928E-02 0.  1.
       -1   -1    0    0    0  501  0.00000000000E+00  0.00000000000E+00 -0.11697335500E+04  0.11697335500E+04  0.50400001928E-02 0. -1.
    10030    2    1    2    0    0  0.00000000000E+00  0.00000000000E+00  0.56302536763E+02  0.23957696368E+04  0.23951079677E+04 0.  0.
        4    1    3    3  502    0 -0.13342478358E+02  0.11900028532E+04  0.16178877144E+03  0.12010254085E+04  0.12699999809E+01 0.  1.
       -4    1    3    3    0  502  0.13342478358E+02 -0.11900028532E+04 -0.10548623467E+03  0.11947442283E+04  0.12699999809E+01 0. -1.
</event>
<event>
 5   0  0.5034479E-06  0.2415959E+04  0.7818609E-02  0.8433553E-01
       -1   -1    0    0    0  501  0.00000000000E+00  0.00000000000E+00  0.10166126989E+04  0.10166126989E+04  0.50400001928E-02 0. -1.
        1   -1    0    0  501    0  0.00000000000E+00  0.00000000000E+00 -0.14353692172E+04  0.14353692172E+04  0.50400001928E-02 0.  1.
    10030    2    1    2    0    0  0.00000000000E+00  0.00000000000E+00 -0.41875651826E+03  0.24519819161E+04  0.24159590839E+04 0.  0.
        4    1    3    3  502    0 -0.15666295971E+03 -0.10993963014E+04  0.27310189894E+03  0.11435916101E+04  0.12699999809E+01 0. -1.
       -4    1    3    3    0  502  0.15666295971E+03  0.10993963014E+04 -0.69185841720E+03  0.13083903060E+04  0.12699999809E+01 0.  1.
</event>
<event>
 5   0  0.5196696E-06  0.2403963E+04  0.7818609E-02  0.8438021E-01
        1   -1    0    0  501    0  0.00000000000E+00  0.00000000000E+00  0.11463493097E+04  0.11463493097E+04  0.50400001928E-02 0.  1.
       -1   -1    0    0    0  501  0.00000000000E+00  0.00000000000E+00 -0.12603137544E+04  0.12603137545E+04  0.50400001928E-02 0. -1.
    10030    2    1    2    0    0  0.00000000000E+00  0.00000000000E+00 -0.11396444479E+03  0.24066630641E+04  0.24039632297E+04 0.  0.
        1    1    3    3  502    0 -0.49958498132E+03  0.10209424932E+04 -0.44838303246E+03  0.12218658158E+04  0.50400001928E-02 0.  1.
       -1    1    3    3    0  502  0.49958498132E+03 -0.10209424932E+04  0.33441858766E+03  0.11847972484E+04  0.50400001928E-02 0. -1.
</event>
<event>
 5   0  0.1169371E-05  0.2411468E+04  0.7818609E-02  0.8435223E-01
       -2   -1    0    0    0  501  0.00000000000E+00  0.00000000000E+00  0.94893936465E+03  0.94893936465E+03  0.25500000920E-02 0. -1.
        2   -1    0    0  501    0  0.00000000000E+00  0.00000000000E+00 -0.15320201577E+04  0.15320201577E+04  0.25500000920E-02 0.  1.
    10030    2    1    2    0    0  0.00000000000E+00  0.00000000000E+00 -0.58308079310E+03  0.24809595224E+04  0.24114677979E+04 0.  0.
        2    1    3    3  502    0 -0.13084041032E+01  0.97274952871E+03  0.44141577056E+03  0.10682187229E+04  0.25500000920E-02 0. -1.
       -2    1    3    3    0  502  0.13084041032E+01 -0.97274952871E+03 -0.10244965637E+04  0.14127407995E+04  0.25500000920E-02 0.  1.
</event>
<event>
 5   0  0.5196696E-06  0.2400628E+04  0.7818609E-02  0.8439269E-01
       -1   -1    0    0    0  501  0.00000000000E+00  0.00000000000E+00  0.11672677554E+04  0.11672677554E+04  0.50400001928E-02 0. -1.
        1   -1    0    0  501    0  0.00000000000E+00  0.00000000000E+00 -0.12342953138E+04  0.12342953138E+04  0.50400001928E-02 0.  1.
    10030    2    1    2    0    0  0.00000000000E+00  0.00000000000E+00 -0.67027558340E+02  0.24015630692E+04  0.24006275183E+04 0.  0.
        1    1    3    3  502    0  0.64337959359E+01  0.23078898398E+03  0.11448451601E+04  0.11678935694E+04  0.50400001928E-02 0. -1.
       -1    1    3    3    0  502 -0.64337959359E+01 -0.23078898398E+03 -0.12118727185E+04  0.12336694998E+04  0.50400001928E-02 0.  1.
</event>
<event>
 5   0  0.5196696E-06  0.2397068E+04  0.7818609E-02  0.8440602E-01
        1   -1    0    0  501    0  0.00000000000E+00  0.00000000000E+00  0.14130632719E+04  0.14130632719E+04  0.50400001928E-02 0. -1.
       -1   -1    0    0    0  501  0.00000000000E+00  0.00000000000E+00 -0.10165740013E+04  0.10165740013E+04  0.50400001928E-02 0.  1.
    10030    2    1    2    0    0  0.00000000000E+00  0.00000000000E+00  0.39648927055E+03  0.24296372732E+04  0.23970676957E+04 0.  0.
        1    1    3    3  502    0 -0.14387700386E+03  0.51318929344E+03 -0.88984944940E+03  0.10372540122E+04  0.50400001928E-02 0.  1.
       -1    1    3    3    0  502  0.14387700386E+03 -0.51318929344E+03  0.12863387199E+04  0.13923832610E+04  0.50400001928E-02 0. -1.
</event>
<event>
 5   0  0.1198313E-05  0.2347438E+04  0.7818609E-02  0.8459448E-01
       -2   -1    0    0    0  501  0.00000000000E+00  0.00000000000E+00  0.64912603122E+03  0.64912603122E+03  0.25500000920E-02 0.  1.
        2   -1    0    0  501    0  0.00000000000E+00  0.00000000000E+00 -0.21222635137E+04  0.21222635137E+04  0.25500000920E-02 0. -1.
    10030    2    1    2    0    0  0.00000000000E+00  0.00000000000E+00 -0.14731374825E+04  0.27713895449E+04  0.23474381712E+04 0.  0.
        5    1    3    3  502    0 -0.11331678642E+04 -0.83287059424E+02 -0.38916625998E+03  0.12010323104E+04  0.46999998093E+01 0. -1.
       -5    1    3    3    0  502  0.11331678642E+04  0.83287059424E+02 -0.10839712225E+04  0.15703572345E+04  0.46999998093E+01 0.  1.
</event>
<event>
 5   0  0.1198313E-05  0.2418170E+04  0.7818609E-02  0.8432732E-01
       -2   -1    0    0    0  501  0.00000000000E+00  0.00000000000E+00  0.14312102566E+04  0.14312102566E+04  0.25500000920E-02 0. -1.
        2   -1    0    0  501    0  0.00000000000E+00  0.00000000000E+00 -0.10214334904E+04  0.10214334904E+04  0.25500000920E-02 0.  1.
    10030    2    1    2    0    0  0.00000000000E+00  0.00000000000E+00  0.40977676619E+03  0.24526437469E+04  0.24181696283E+04 0.  0.
        5    1    3    3  502    0 -0.77607006590E+03 -0.46060125125E+03  0.10209870875E+04  0.13626720011E+04  0.46999998093E+01 0. -1.
       -5    1    3    3    0  502  0.77607006590E+03  0.46060125125E+03 -0.61121032128E+03  0.10899717458E+04  0.46999998093E+01 0.  1.
</event>
<event>
 5   0  0.5104174E-06  0.2398986E+04  0.7818609E-02  0.8439883E-01
       -1   -1    0    0    0  501  0.00000000000E+00  0.00000000000E+00  0.80207088451E+03  0.80207088452E+03  0.50400001928E-02 0.  1.
        1   -1    0    0  501    0  0.00000000000E+00  0.00000000000E+00 -0.17938360291E+04  0.17938360291E+04  0.50400001928E-02 0. -1.
    10030    2    1    2    0    0  0.00000000000E+00  0.00000000000E+00 -0.99176514458E+03  0.25959069136E+04  0.23989861613E+04 0.  0.
        3    1    3    3  502    0 -0.47322716641E+03  0.11021956529E+04 -0.49360451873E+03  0.12970831274E+04  0.10100000352E+00 0.  1.
       -3    1    3    3    0  502  0.47322716641E+03 -0.11021956529E+04 -0.49816062585E+03  0.12988237862E+04  0.10100000352E+00 0. -1.
</event>
<event>
 5   0  0.5034479E-06  0.2438739E+04  0.7818609E-02  0.8425141E-01
        1   -1    0    0  501    0  0.00000000000E+00  0.00000000000E+00  0.17015086443E+04  0.17015086443E+04  0.50400001928E-02 0. -1.
       -1   -1    0    0    0  501  0.00000000000E+00  0.00000000000E+00 -0.87384905676E+03  0.87384905677E+03  0.50400001928E-02 0.  1.
    10030    2    1    2    0    0  0.00000000000E+00  0.00000000000E+00  0.82765958755E+03  0.25753577011E+04  0.24387387920E+04 0.  0.
        4    1    3    3  502    0 -0.11933173670E+04  0.94936463353E+01  0.14926847605E+03  0.12026550455E+04  0.12699999809E+01 0. -1.
       -4    1    3    3    0  502  0.11933173670E+04 -0.94936463353E+01  0.67839111149E+03  0.13727026556E+04  0.12699999809E+01 0.  1.
</event>
<event>
 5   0  0.5034479E-06  0.2395320E+04  0.7818609E-02  0.8441258E-01
        1   -1    0    0  501    0  0.00000000000E+00  0.00000000000E+00  0.15195401549E+04  0.15195401549E+04  0.50400001928E-02 0. -1.
       -1   -1    0    0    0  501  0.00000000000E+00  0.00000000000E+00 -0.94396303146E+03  0.94396303147E+03  0.50400001928E-02 0.  1.
    10030    2    1    2    0    0  0.00000000000E+00  0.00000000000E+00  0.57557712343E+03  0.24635031864E+04  0.23953202133E+04 0.  0.
        4    1    3    3  502    0 -0.59301289260E+03  0.90361831230E+03 -0.24284138707E+03  0.11077742989E+04  0.12699999809E+01 0.  1.
       -4    1    3    3    0  502  0.59301289260E+03 -0.90361831230E+03  0.81841851050E+03  0.13557288875E+04  0.12699999809E+01 0. -1.
</event>
<event>
 5   0  0.1154897E-05  0.2396948E+04  0.7818609E-02  0.8440647E-01
       -2   -1    0    0    0  501  0.00000000000E+00  0.00000000000E+00  0.97652722309E+03  0.97652722309E+03  0.25500000920E-02 0.  1.
        2   -1    0    0  501    0  0.00000000000E+00  0.00000000000E+00 -0.14708654497E+04  0.14708654497E+04  0.25500000920E-02 0. -1.
    10030    2    1    2    0    0  0.00000000000E+00  0.00000000000E+00 -0.49433822657E+03  0.24473926727E+04  0.23969481873E+04 0.  0.
        4    1    3    3  502    0 -0.38664318992E+03  0.11313428874E+04 -0.33203791133E+03  0.12408386166E+04  0.12699999809E+01 0. -1.
       -4    1    3    3    0  502  0.38664318992E+03 -0.11313428874E+04 -0.16230031523E+03  0.12065540561E+04  0.12699999809E+01 0.  1.
</event>
<event>
 5   0  0.4067750E-06  0.2389176E+04  0.7818609E-02  0.8443567E-01
        3   -1    0    0  501    0  0.00000000000E+00  0.00000000000E+00  0.14461567497E+04  0.14461567533E+04  0.10100000352E+00 0. -1.
       -3   -1    0    0    0  501  0.00000000000E+00  0.00000000000E+00 -0.98678149768E+03  0.98678150285E+03  0.10100000352E+00 0.  1.
    10030    2    1    2    0    0  0.00000000000E+00  0.00000000000E+00  0.45937525206E+03  0.24329382561E+04  0.23891762044E+04 0.  0.
        3    1    3    3  502    0  0.57974599604E+03  0.86139486184E+02 -0.83029910661E+03  0.10163277265E+04  0.10100000352E+00 0.  1.
       -3    1    3    3    0  502 -0.57974599604E+03 -0.86139486184E+02  0.12896743587E+04  0.14166105296E+04  0.10100000352E+00 0. -1.
</event>
<event>
 5   0  0.5104174E-06  0.2381985E+04  0.7818609E-02  0.8446279E-01
        1   -1    0    0  501    0  0.00000000000E+00  0.00000000000E+00  0.12032843352E+04  0.12032843352E+04  0.50400001928E-02 0. -1.
       -1   -1    0    0    0  501  0.00000000000E+00  0.00000000000E+00 -0.11788263124E+04  0.11788263124E+04  0.50400001928E-02 0.  1.
    10030    2    1    2    0    0  0.00000000000E+00  0.00000000000E+00  0.24458022794E+02  0.23821106477E+04  0.23819850845E+04 0.  0.
        3    1    3    3  502    0 -0.11221418513E+04  0.59123389774E+02  0.40692096500E+03  0.11951077740E+04  0.10100000352E+00 0. -1.
       -3    1    3    3    0  502  0.11221418513E+04 -0.59123389774E+02 -0.38246294221E+03  0.11870028736E+04  0.10100000352E+00 0.  1.
</event>
<event>
 5   0  0.1169371E-05  0.2418791E+04  0.7818609E-02  0.8432502E-01
       -2   -1    0    0    0  501  0.00000000000E+00  0.00000000000E+00  0.91140259632E+03  0.91140259633E+03  0.25500000920E-02 0.  1.
        2   -1    0    0  501    0  0.00000000000E+00  0.00000000000E+00 -0.16048207014E+04  0.16048207014E+04  0.25500000920E-02 0. -1.
    10030    2    1    2    0    0  0.00000000000E+00  0.00000000000E+00 -0.69341810511E+03  0.25162232978E+04  0.24187912303E+04 0.  0.
        2    1    3    3  502    0  0.54325029833E+03  0.41234409793E+03 -0.13856835740E+04  0.15444311280E+04  0.25500000920E-02 0. -1.
       -2    1    3    3    0  502 -0.54325029833E+03 -0.41234409793E+03  0.69226546894E+03  0.97179216977E+03  0.25500000920E-02 0.  1.
</event>
<event>
 5   0  0.1198313E-05  0.2397398E+04  0.7818609E-02  0.8440478E-01
        2   -1    0    0  501    0  0.00000000000E+00  0.00000000000E+00  0.17145645260E+04  0.17145645260E+04  0.25500000920E-02 0. -1.
       -2   -1    0    0    0  501  0.00000000000E+00  0.00000000000E+00 -0.83804322815E+03  0.83804322815E+03  0.25500000920E-02 0.  1.
    10030    2    1    2    0    0  0.00000000000E+00  0.00000000000E+00  0.87652129783E+03  0.25526077541E+04  0.23973979146E+04 0.  0.
        5    1    3    3  502    0 -0.19031501863E+03 -0.38494865675E+03 -0.75332283780E+03  0.86713474305E+03  0.46999998093E+01 0.  1.
       -5    1    3    3    0  502  0.19031501863E+03  0.38494865675E+03  0.16298441356E+04  0.16854730111E+04  0.46999998093E+01 0. -1.
</event>
<event>
 5   0  0.1174210E-05  0.2401624E+04  0.7818609E-02  0.8438896E-01
       -2   -1    0    0    0  501  0.00000000000E+00  0.00000000000E+00  0.29837042423E+04  0.29837042423E+04  0.25500000920E-02 0.  1.
        2   -1    0    0  501    0  0.00000000000E+00  0.00000000000E+00 -0.48327498439E+03  0.48327498439E+03  0.25500000920E-02 0. -1.
    10030    2    1    2    0    0  0.00000000000E+00  0.00000000000E+00  0.25004292579E+04  0.34669792267E+04  0.24016241347E+04 0.  0.
        3    1    3    3  502    0  0.82254522048E+03 -0.11798166957E+03  0.25016143141E+04  0.26360148901E+04  0.10100000352E+00 0.  1.
       -3    1    3    3    0  502 -0.82254522048E+03  0.11798166957E+03 -0.11850562121E+01  0.83096433657E+03  0.10100000352E+00 0. -1.
</event>
<event>
 5   0  0.5064437E-06  0.2395809E+04  0.7818609E-02  0.8441074E-01
        1   -1    0    0  501    0  0.00000000000E+00  0.00000000000E+00  0.12201014157E+04  0.12201014157E+04  0.50400001928E-02 0.  1.
       -1   -1    0    0    0  501  0.00000000000E+00  0.00000000000E+00 -0.11761111385E+04  0.11761111385E+04  0.50400001928E-02 0. -1.
    10030    2    1    2    0    0  0.00000000000E+00  0.00000000000E+00  0.43990277235E+02  0.23962125542E+04  0.23958087278E+04 0.  0.
        2    1    3    3  502    0  0.61021792933E+01 -0.75062200982E+03  0.95569639971E+03  0.12152474014E+04  0.25500000920E-02 0.  1.
       -2    1    3    3    0  502 -0.61021792933E+01  0.75062200982E+03 -0.91170612248E+03  0.11809651527E+04  0.25500000920E-02 0. -1.
</event>
<event>
 5   0  0.1174210E-05  0.2358414E+04  0.7818609E-02  0.8455239E-01
       -2   -1    0    0    0  501  0.00000000000E+00  0.00000000000E+00  0.69645983589E+03  0.69645983589E+03  0.25500000920E-02 0.  1.
        2   -1    0    0  501    0  0.00000000000E+00  0.00000000000E+00 -0.19965668721E+04  0.19965668721E+04  0.25500000920E-02 0. -1.
    10030    2    1    2    0    0  0.00000000000E+00  0.00000000000E+00 -0.13001070362E+04  0.26930267080E+04  0.23584135652E+04 0.  0.
        3    1    3    3  502    0  0.51126009917E+03 -0.13096657821E+02  0.56322899558E+03  0.76077941817E+03  0.10100000352E+00 0.  1.
       -3    1    3    3    0  502 -0.51126009917E+03  0.13096657821E+02 -0.18633360318E+04  0.19322472898E+04  0.10100000352E+00 0. -1.
</event>
<event>
 5   0  0.5042742E-06  0.2397770E+04  0.7818609E-02  0.8440339E-01
       -1   -1    0    0    0  501  0.00000000000E+00  0.00000000000E+00  0.78092889337E+03  0.78092889339E+03  0.50400001928E-02 0. -1.
        1   -1    0    0  501    0  0.00000000000E+00  0.00000000000E+00 -0.18405320802E+04  0.18405320802E+04  0.50400001928E-02 0.  1.
    10030    2    1    2    0    0  0.00000000000E+00  0.00000000000E+00 -0.10596031868E+04  0.26214609735E+04  0.23977695307E+04 0.  0.
        5    1    3    3  502    0 -0.10244044269E+04 -0.51253874937E+03 -0.14295219634E+03  0.11543646823E+04  0.46999998093E+01 0. -1.
       -5    1    3    3    0  502  0.10244044269E+04  0.51253874937E+03 -0.91665099045E+03  0.14670962912E+04  0.46999998093E+01 0.  1.
</event>
<event>
 5   0  0.5104174E-06  0.2405199E+04  0.7818609E-02  0.8437560E-01
        1   -1    0    0  501    0  0.00000000000E+00  0.00000000000E+00  0.15840457598E+04  0.15840457598E+04  0.50400001928E-02 0. -1.
       -1   -1    0    0    0  501  0.00000000000E+00  0.00000000000E+00 -0.91300740119E+03  0.91300740121E+03  0.50400001928E-02 0.  1.
    10030    2    1    2    0    0  0.00000000000E+00  0.00000000000E+00  0.67103835858E+03  0.24970531610E+04  0.24051989544E+04 0.  0.
        3    1    3    3  502    0 -0.11789376986E+04 -0.23711227231E+03  0.32372004710E+03  0.12453557748E+04  0.10100000352E+00 0. -1.
       -3    1    3    3    0  502  0.11789376986E+04  0.23711227231E+03  0.34731831149E+03  0.12516973862E+04  0.10100000352E+00 0.  1.
</event>
<event>
 5   0  0.5034479E-06  0.2310174E+04  0.7818609E-02  0.8473920E-01
       -1   -1    0    0    0  501  0.00000000000E+00  0.00000000000E+00  0.10929169456E+04  0.10929169456E+04  0.50400001928E-02 0. -1.
        1   -1    0    0  501    0  0.00000000000E+00  0.00000000000E+00 -0.12207940691E+04  0.12207940691E+04  0.50400001928E-02 0.  1.
    10030    2    1    2    0    0  0.00000000000E+00  0.00000000000E+00 -0.12787712347E+03  0.23137110147E+04  0.23101744741E+04 0.  0.
        4    1    3    3  502    0  0.29493059899E+02  0.11505366820E+04 -0.16217242814E+03  0.11622848216E+04  0.12699999809E+01 0.  1.
       -4    1    3    3    0  502 -0.29493059899E+02 -0.11505366820E+04  0.34295304668E+02  0.11514261930E+04  0.12699999809E+01 0. -1.
</event>
<event>
 5   0  0.1154897E-05  0.2404543E+04  0.7818609E-02  0.8437805E-01
       -2   -1    0    0    0  501  0.00000000000E+00  0.00000000000E+00  0.92462811737E+03  0.92462811737E+03  0.25500000920E-02 0. -1.
        2   -1    0    0  501    0  0.00000000000E+00  0.00000000000E+00 -0.15632839463E+04  0.15632839463E+04  0.25500000920E-02 0.  1.
    10030    2    1    2    0    0  0.00000000000E+00  0.00000000000E+00 -0.63865582892E+03  0.24879120637E+04  0.24045426111E+04 0.  0.
        4    1    3    3  502    0 -0.64774206880E+03  0.70883166090E+03 -0.10679059280E+04  0.14361186564E+04  0.12699999809E+01 0.  1.
       -4    1    3    3    0  502  0.64774206880E+03 -0.70883166090E+03  0.42925009907E+03  0.10517934073E+04  0.12699999809E+01 0. -1.
</event>
<event>
 5   0  0.5034479E-06  0.2397870E+04  0.7818609E-02  0.8440301E-01
       -1   -1    0    0    0  501  0.00000000000E+00  0.00000000000E+00  0.14590879664E+04  0.14590879665E+04  0.50400001928E-02 0.  1.
        1   -1    0    0  501    0  0.00000000000E+00  0.00000000000E+00 -0.98516726721E+03  0.98516726723E+03  0.50400001928E-02 0. -1.
    10030    2    1    2    0    0  0.00000000000E+00  0.00000000000E+00  0.47392069923E+03  0.24442552337E+04  0.23978704757E+04 0.  0.
        4    1    3    3  502    0 -0.61523303432E+03  0.54264870643E+03 -0.65428971855E+03  0.10493216636E+04  0.12699999809E+01 0. -1.
       -4    1    3    3    0  502  0.61523303432E+03 -0.54264870643E+03  0.11282104178E+04  0.13949335700E+04  0.12699999809E+01 0.  1.
</event>
<event>
 5   0  0.1198313E-05  0.2382243E+04  0.7818609E-02  0.8446182E-01
        2   -1    0    0  501    0  0.00000000000E+00  0.00000000000E+00  0.11115373518E+04  0.11115373518E+04  0.25500000920E-02 0. -1.
       -2   -1    0    0    0  501  0.00000000000E+00  0.00000000000E+00 -0.12764032554E+04  0.12764032554E+04  0.25500000920E-02 0.  1.
    10030    2    1    2    0    0  0.00000000000E+00  0.00000000000E+00 -0.16486590357E+03  0.23879406072E+04  0.23822425522E+04 0.  0.
        5    1    3    3  502    0 -0.46206686638E+03  0.97593263194E+03 -0.58642529870E+03  0.12287664595E+04  0.46999998093E+01 0.  1.
       -5    1    3    3    0  502  0.46206686638E+03 -0.97593263194E+03  0.42155939512E+03  0.11591741477E+04  0.46999998093E+01 0. -1.
</event>
<event>
 5   0  0.5104174E-06  0.2402425E+04  0.7818609E-02  0.8438596E-01
        1   -1    0    0  501    0  0.00000000000E+00  0.00000000000E+00  0.10642016760E+04  0.10642016760E+04  0.50400001928E-02 0.  1.
       -1   -1    0    0    0  501  0.00000000000E+00  0.00000000000E+00 -0.13558627031E+04  0.13558627031E+04  0.50400001928E-02 0. -1.
    10030    2    1    2    0    0  0.00000000000E+00  0.00000000000E+00 -0.29166102703E+03  0.24200643791E+04  0.24024249092E+04 0.  0.
        3    1    3    3  502    0 -0.53366734930E+03  0.22874527973E+03  0.91345409508E+03  0.10823694548E+04  0.10100000352E+00 0.  1.
       -3    1    3    3    0  502  0.53366734930E+03 -0.22874527973E+03 -0.12051151221E+04  0.13376949243E+04  0.10100000352E+00 0. -1.
</event>
<event>
 5   0  0.1169371E-05  0.2390228E+04  0.7818609E-02  0.8443171E-01
        2   -1    0    0  501    0  0.00000000000E+00  0.00000000000E+00  0.11045539134E+04  0.11045539134E+04  0.25500000920E-02 0. -1.
       -2   -1    0    0    0  501  0.00000000000E+00  0.00000000000E+00 -0.12930994447E+04  0.12930994447E+04  0.25500000920E-02 0.  1.
    10030    2    1    2    0    0  0.00000000000E+00  0.00000000000E+00 -0.18854553128E+03  0.23976533581E+04  0.23902284845E+04 0.  0.
        2    1    3    3  502    0 -0.20588343277E+03 -0.28753087706E+03 -0.12394125978E+04  0.12888776438E+04  0.25500000920E-02 0.  1.
       -2    1    3    3    0  502  0.20588343277E+03  0.28753087706E+03  0.10508670665E+04  0.11087757143E+04  0.25500000920E-02 0. -1.
</event>
<event>
 5   0  0.1154897E-05  0.2403187E+04  0.7818609E-02  0.8438311E-01
       -2   -1    0    0    0  501  0.00000000000E+00  0.00000000000E+00  0.18226774757E+04  0.18226774757E+04  0.25500000920E-02 0. -1.
        2   -1    0    0  501    0  0.00000000000E+00  0.00000000000E+00 -0.79214592233E+03  0.79214592234E+03  0.25500000920E-02 0.  1.
    10030    2    1    2    0    0  0.00000000000E+00  0.00000000000E+00  0.10305315534E+04  0.26148233980E+04  0.24031866595E+04 0.  0.
        4    1    3    3  502    0 -0.10598090693E+02  0.31953003378E+03 -0.74501848261E+03  0.81071938076E+03  0.12699999809E+01 0.  1.
       -4    1    3    3    0  502  0.10598090693E+02 -0.31953003378E+03  0.17755500360E+04  0.18041040173E+04  0.12699999809E+01 0. -1.
</event>
<event>
 5   0  0.1169371E-05  0.2422516E+04  0.7818609E-02  0.8431122E-01
        2   -1    0    0  501    0  0.00000000000E+00  0.00000000000E+00  0.14247771980E+04  0.14247771980E+04  0.25500000920E-02 0.  1.
       -2   -1    0    0    0  501  0.00000000000E+00  0.00000000000E+00 -0.10297369532E+04  0.10297369532E+04  0.25500000920E-02 0. -1.
    10030    2    1    2    0    0  0.00000000000E+00  0.00000000000E+00  0.39504024477E+03  0.24545141511E+04  0.24225158252E+04 0.  0.
        2    1    3    3  502    0  0.19200320783E+03 -0.23212273284E+03 -0.99117690398E+03  0.10359429762E+04  0.25500000920E-02 0. -1.
       -2    1    3    3    0  502 -0.19200320783E+03  0.23212273284E+03  0.13862171488E+04  0.14185711750E+04  0.25500000920E-02 0.  1.
</event>
<event>
 5   0  0.5034479E-06  0.2353681E+04  0.7818609E-02  0.8457051E-01
        1   -1    0    0  501    0  0.00000000000E+00  0.00000000000E+00  0.10859704507E+04  0.10859704507E+04  0.50400001928E-02 0.  1.
       -1   -1    0    0    0  501  0.00000000000E+00  0.00000000000E+00 -0.12753146528E+04  0.12753146528E+04  0.50400001928E-02 0. -1.
    10030    2    1    2    0    0  0.00000000000E+00  0.00000000000E+00 -0.18934420214E+03  0.23612851035E+04  0.23536813958E+04 0.  0.
        4    1    3    3  502    0 -0.67991090600E+03 -0.31547400262E+03  0.81553490175E+03  0.11076558470E+04  0.12699999809E+01 0.  1.
       -4    1    3    3    0  502  0.67991090600E+03  0.31547400262E+03 -0.10048791039E+04  0.12536292565E+04  0.12699999809E+01 0. -1.
</event>
<event>
 5   0  0.1198313E-05  0.2406725E+04  0.7818609E-02  0.8436990E-01
       -2   -1    0    0    0  501  0.00000000000E+00  0.00000000000E+00  0.17730996903E+04  0.17730996903E+04  0.25500000920E-02 0.  1.
        2   -1    0    0  501    0  0.00000000000E+00  0.00000000000E+00 -0.81669493521E+03  0.81669493521E+03  0.25500000920E-02 0. -1.
    10030    2    1    2    0    0  0.00000000000E+00  0.00000000000E+00  0.95640475511E+03  0.25897946255E+04  0.24067251914E+04 0.  0.
        5    1    3    3  502    0  0.69795204106E+03  0.34403940647E+03 -0.50952946571E+03  0.93013038401E+03  0.46999998093E+01 0. -1.
       -5    1    3    3    0  502 -0.69795204106E+03 -0.34403940647E+03  0.14659342208E+04  0.16596642415E+04  0.46999998093E+01 0.  1.
</event>
<event>
 5   0  0.5064437E-06  0.2403420E+04  0.7818609E-02  0.8438224E-01
       -1   -1    0    0    0  501  0.00000000000E+00  0.00000000000E+00  0.96169933646E+03  0.96169933647E+03  0.50400001928E-02 0. -1.
        1   -1    0    0  501    0  0.00000000000E+00  0.00000000000E+00 -0.15016199346E+04  0.15016199346E+04  0.50400001928E-02 0.  1.
    10030    2    1    2    0    0  0.00000000000E+00  0.00000000000E+00 -0.53992059810E+03  0.24633192710E+04  0.24034199755E+04 0.  0.
        2    1    3    3  502    0  0.10817223242E+04 -0.86162697455E+02 -0.79912185102E+03  0.13476434729E+04  0.25500000920E-02 0.  1.
       -2    1    3    3    0  502 -0.10817223242E+04  0.86162697455E+02  0.25920125292E+03  0.11156757982E+04  0.25500000920E-02 0. -1.
</event>
<event>
 5   0  0.5196696E-06  0.2396968E+04  0.7818609E-02  0.8440640E-01
        1   -1    0    0  501    0  0.00000000000E+00  0.00000000000E+00  0.12735133743E+04  0.12735133743E+04  0.50400001928E-02 0.  1.
       -1   -1    0    0    0  501  0.00000000000E+00  0.00000000000E+00 -0.11278750111E+04  0.11278750111E+04  0.50400001928E-02 0. -1.
    10030    2    1    2    0    0  0.00000000000E+00  0.00000000000E+00  0.14563836322E+03  0.24013883854E+04  0.23969680107E+04 0.  0.
        1    1    3    3  502    0  0.50624539111E+03  0.10447124417E+04 -0.22548053193E+03  0.11826030408E+04  0.50400001928E-02 0.  1.
       -1    1    3    3    0  502 -0.50624539111E+03 -0.10447124417E+04  0.37111889515E+03  0.12187853446E+04  0.50400001928E-02 0. -1.
</event>
<event>
 5   0  0.5042742E-06  0.2349522E+04  0.7818609E-02  0.8458647E-01
       -1   -1    0    0    0  501  0.00000000000E+00  0.00000000000E+00  0.10079440052E+04  0.10079440052E+04  0.50400001928E-02 0. -1.
        1   -1    0    0  501    0  0.00000000000E+00  0.00000000000E+00 -0.13691860136E+04  0.13691860136E+04  0.50400001928E-02 0.  1.
    10030    2    1    2    0    0  0.00000000000E+00  0.00000000000E+00 -0.36124200840E+03  0.23771300189E+04  0.23495215125E+04 0.  0.
        5    1    3    3  502    0 -0.82449686483E+03 -0.27249387488E+03  0.61987314713E+03  0.10669174291E+04  0.46999998093E+01 0. -1.
       -5    1    3    3    0  502  0.82449686483E+03  0.27249387488E+03 -0.98111515553E+03  0.13102125898E+04  0.46999998093E+01 0.  1.
</event>
<event>
 5   0  0.5034479E-06  0.2396240E+04  0.7818609E-02  0.8440912E-01
       -1   -1    0    0    0  501  0.00000000000E+00  0.00000000000E+00  0.72293521425E+03  0.72293521427E+03  0.50400001928E-02 0. -1.
        1   -1    0    0  501    0  0.00000000000E+00  0.00000000000E+00 -0.19856440162E+04  0.19856440162E+04  0.50400001928E-02 0.  1.
    10030    2    1    2    0    0  0.00000000000E+00  0.00000000000E+00 -0.12627088019E+04  0.27085792304E+04  0.23962403738E+04 0.  0.
        4    1    3    3  502    0 -0.28843273599E+03 -0.47683153868E+02 -0.19447083539E+04  0.19665602764E+04  0.12699999809E+01 0.  1.
       -4    1    3    3    0  502  0.28843273599E+03  0.47683153868E+02  0.68199955195E+03  0.74201895401E+03  0.12699999809E+01 0. -1.
</event>
<event>
 5   0  0.1168435E-05  0.2405051E+04  0.7818609E-02  0.8437615E-01
       -2   -1    0    0    0  501  0.00000000000E+00  0.00000000000E+00  0.14767314734E+04  0.14767314734E+04  0.25500000920E-02 0.  1.
        2   -1    0    0  501    0  0.00000000000E+00  0.00000000000E+00 -0.97923498598E+03  0.97923498598E+03  0.25500000920E-02 0. -1.
    10030    2    1    2    0    0  0.00000000000E+00  0.00000000000E+00  0.49749648741E+03  0.24559664594E+04  0.24050506221E+04 0.  0.
        1    1    3    3  502    0  0.14324726649E+03 -0.95843892062E+03 -0.47832376202E+03  0.10807028108E+04  0.50400001928E-02 0. -1.
       -1    1    3    3    0  502 -0.14324726649E+03  0.95843892062E+03  0.97582024943E+03  0.13752636486E+04  0.50400001928E-02 0.  1.
</event>
<event>
 5   0  0.5196696E-06  0.2404184E+04  0.7818609E-02  0.8437939E-01
       -1   -1    0    0    0  501  0.00000000000E+00  0.00000000000E+00  0.90181896849E+03  0.90181896851E+03  0.50400001928E-02 0.  1.
        1   -1    0    0  501    0  0.00000000000E+00  0.00000000000E+00 -0.16023455851E+04  0.16023455851E+04  0.50400001928E-02 0. -1.
    10030    2    1    2    0    0  0.00000000000E+00  0.00000000000E+00 -0.70052661659E+03  0.25041645536E+04  0.24041843879E+04 0.  0.
        1    1    3    3  502    0 -0.10042176184E+04 -0.46857818943E+03  0.13494928123E+03  0.11163466546E+04  0.50400001928E-02 0.  1.
       -1    1    3    3    0  502  0.10042176184E+04  0.46857818943E+03 -0.83547589782E+03  0.13878178990E+04  0.50400001928E-02 0. -1.
</event>
<event>
 5   0  0.1174210E-05  0.2395099E+04  0.7818609E-02  0.8441341E-01
       -2   -1    0    0    0  501  0.00000000000E+00  0.00000000000E+00  0.11476573626E+04  0.11476573626E+04  0.25500000920E-02 0.  1.
        2   -1    0    0  501    0  0.00000000000E+00  0.00000000000E+00 -0.12496108252E+04  0.12496108252E+04  0.25500000920E-02 0. -1.
    10030    2    1    2    0    0  0.00000000000E+00  0.00000000000E+00 -0.10195346264E+03  0.23972681878E+04  0.23950992162E+04 0.  0.
        3    1    3    3  502    0  0.93454449103E+03  0.70197563675E+03  0.20999268483E+03  0.11875353208E+04  0.10100000352E+00 0.  1.
       -3    1    3    3    0  502 -0.93454449103E+03 -0.70197563675E+03 -0.31194614747E+03  0.12097328670E+04  0.10100000352E+00 0. -1.
</event>
<event>
 5   0  0.1168435E-05  0.2411063E+04  0.7818609E-02  0.8435373E-01
        2   -1    0    0  501    0  0.00000000000E+00  0.00000000000E+00  0.17091404503E+04  0.17091404503E+04  0.25500000920E-02 0. -1.
       -2   -1    0    0    0  501  0.00000000000E+00  0.00000000000E+00 -0.85031379167E+03  0.85031379167E+03  0.25500000920E-02 0.  1.
    10030    2    1    2    0    0  0.00000000000E+00  0.00000000000E+00  0.85882665860E+03  0.25594542419E+04  0.24110625847E+04 0.  0.
        1    1    3    3  502    0 -0.10749421213E+04 -0.48729918700E+03  0.16864297443E+03  0.11922254463E+04  0.50400001928E-02 0.  1.
       -1    1    3    3    0  502  0.10749421213E+04  0.48729918700E+03  0.69018368417E+03  0.13672287957E+04  0.50400001928E-02 0. -1.
</event>
<event>
 5   0  0.1168435E-05  0.2396931E+04  0.7818609E-02  0.8440653E-01
       -2   -1    0    0    0  501  0.00000000000E+00  0.00000000000E+00  0.91767177215E+03  0.91767177215E+03  0.25500000920E-02 0. -1.
        2   -1    0    0  501    0  0.00000000000E+00  0.00000000000E+00 -0.15651781446E+04  0.15651781446E+04  0.25500000920E-02 0.  1.
    10030    2    1    2    0    0  0.00000000000E+00  0.00000000000E+00 -0.64750637242E+03  0.24828499167E+04  0.23969312061E+04 0.  0.
        1    1    3    3  502    0  0.11147792168E+04 -0.43914206847E+03 -0.29554958588E+03  0.12340696966E+04  0.50400001928E-02 0. -1.
       -1    1    3    3    0  502 -0.11147792168E+04  0.43914206847E+03 -0.35195678654E+03  0.12487802201E+04  0.50400001928E-02 0.  1.
</event>
<event>
 5   0  0.1198313E-05  0.2401682E+04  0.7818609E-02  0.8438874E-01
       -2   -1    0    0    0  501  0.00000000000E+00  0.00000000000E+00  0.91121831104E+03  0.91121831104E+03  0.25500000920E-02 0. -1.
        2   -1    0    0  501    0  0.00000000000E+00  0.00000000000E+00 -0.15825181315E+04  0.15825181315E+04  0.25500000920E-02 0.  1.
    10030    2    1    2    0    0  0.00000000000E+00  0.00000000000E+00 -0.67129982048E+03  0.24937364426E+04  0.24016823262E+04 0.  0.
        5    1    3    3  502    0  0.94016845119E+03  0.47214739535E+03 -0.93676756042E+03  0.14086857108E+04  0.46999998093E+01 0.  1.
       -5    1    3    3    0  502 -0.94016845119E+03 -0.47214739535E+03  0.26546773994E+03  0.10850507318E+04  0.46999998093E+01 0. -1.
</event>
<event>
 5   0  0.5042742E-06  0.2402210E+04  0.7818609E-02  0.8438676E-01
       -1   -1    0    0    0  501  0.00000000000E+00  0.00000000000E+00  0.77015991057E+03  0.77015991059E+03  0.50400001928E-02 0. -1.
        1   -1    0    0  501    0  0.00000000000E+00  0.00000000000E+00 -0.18731872457E+04  0.18731872457E+04  0.50400001928E-02 0.  1.
    10030    2    1    2    0    0  0.00000000000E+00  0.00000000000E+00 -0.11030273351E+04  0.26433471563E+04  0.24022104168E+04 0.  0.
        5    1    3    3  502    0 -0.46434488693E+03 -0.88231670861E+03 -0.12884673698E+04  0.16291928067E+04  0.46999998093E+01 0.  1.
       -5    1    3    3    0  502  0.46434488693E+03  0.88231670861E+03  0.18544003470E+03  0.10141543496E+04  0.46999998093E+01 0. -1.
</event>
<event>
 5   0  0.1174210E-05  0.2405757E+04  0.7818609E-02  0.8437351E-01
        2   -1    0    0  501    0  0.00000000000E+00  0.00000000000E+00  0.72941048365E+03  0.72941048365E+03  0.25500000920E-02 0.  1.
       -2   -1    0    0    0  501  0.00000000000E+00  0.00000000000E+00 -0.19836797744E+04  0.19836797744E+04  0.25500000920E-02 0. -1.
    10030    2    1    2    0    0  0.00000000000E+00  0.00000000000E+00 -0.12542692908E+04  0.27130902581E+04  0.24057571147E+04 0.  0.
        3    1    3    3  502    0 -0.91049738768E+03  0.78495803321E+03 -0.67434150606E+03  0.13783689941E+04  0.10100000352E+00 0. -1.
       -3    1    3    3    0  502  0.91049738768E+03 -0.78495803321E+03 -0.57992778473E+03  0.13347212640E+04  0.10100000352E+00 0.  1.
</event>
<event>
 5   0  0.5064437E-06  0.2396886E+04  0.7818609E-02  0.8440670E-01
       -1   -1    0    0    0  501  0.00000000000E+00  0.00000000000E+00  0.75239363065E+03  0.75239363067E+03  0.50400001928E-02 0. -1.
        1   -1    0    0  501    0  0.00000000000E+00  0.00000000000E+00 -0.19089292367E+04  0.19089292368E+04  0.50400001928E-02 0.  1.
    10030    2    1    2    0    0  0.00000000000E+00  0.00000000000E+00 -0.11565356061E+04  0.26613228674E+04  0.23968864797E+04 0.  0.
        2    1    3    3  502    0  0.38434752833E+03 -0.69025174231E+03  0.42231655149E+03  0.89583578851E+03  0.25500000920E-02 0. -1.
       -2    1    3    3    0  502 -0.38434752833E+03  0.69025174231E+03 -0.15788521576E+04  0.17654870789E+04  0.25500000920E-02 0.  1.
</event>
<event>
 5   0  0.5196696E-06  0.2400547E+04  0.7818609E-02  0.8439299E-01
        1   -1    0    0  501    0  0.00000000000E+00  0.00000000000E+00  0.18142616592E+04  0.18142616592E+04  0.50400001928E-02 0.  1.
       -1   -1    0    0    0  501  0.00000000000E+00  0.00000000000E+00 -0.79407302388E+03  0.79407302390E+03  0.50400001928E-02 0. -1.
    10030    2    1    2    0    0  0.00000000000E+00  0.00000000000E+00  0.10201886353E+04  0.26083346831E+04  0.24005468059E+04 0.  0.
        1    1    3    3  502    0  0.86267338126E+03  0.68664669488E+03 -0.52680884984E+01  0.11025954830E+04  0.50400001928E-02 0. -1.
       -1    1    3    3    0  502 -0.86267338126E+03 -0.68664669488E+03  0.10254567238E+04  0.15057392001E+04  0.50400001928E-02 0.  1.
</event>
<event>
 5   0  0.5104174E-06  0.2364684E+04  0.7818609E-02  0.8452845E-01
        1   -1    0    0  501    0  0.00000000000E+00  0.00000000000E+00  0.18943874564E+04  0.18943874564E+04  0.50400001928E-02 0. -1.
       -1   -1    0    0    0  501  0.00000000000E+00  0.00000000000E+00 -0.73793394914E+03  0.73793394916E+03  0.50400001928E-02 0.  1.
    10030    2    1    2    0    0  0.00000000000E+00  0.00000000000E+00  0.11564535073E+04  0.26323214056E+04  0.23646841793E+04 0.  0.
        3    1    3    3  502    0  0.11418607355E+04  0.20331535002E+03  0.83389448302E+03  0.14284827930E+04  0.10100000352E+00 0. -1.
       -3    1    3    3    0  502 -0.11418607355E+04 -0.20331535002E+03  0.32255902424E+03  0.12038386126E+04  0.10100000352E+00 0.  1.
</event>
<event>
 5   0  0.5104174E-06  0.2399550E+04  0.7818609E-02  0.8439672E-01
       -1   -1    0    0    0  501  0.00000000000E+00  0.00000000000E+00  0.15125909252E+04  0.15125909252E+04  0.50400001928E-02 0.  1.
        1   -1    0    0  501    0  0.00000000000E+00  0.00000000000E+00 -0.95165203295E+03  0.95165203297E+03  0.50400001928E-02 0. -1.
    10030    2    1    2    0    0  0.00000000000E+00  0.00000000000E+00  0.56093889226E+03  0.24642429582E+04  0.23995501487E+04 0.  0.
        3    1    3    3  502    0 -0.74463130638E+03 -0.59976895242E+03 -0.46381944351E+03  0.10626980122E+04  0.10100000352E+00 0.  1.
       -3    1    3    3    0  502  0.74463130638E+03  0.59976895242E+03  0.10247583358E+04  0.14015449460E+04  0.10100000352E+00 0. -1.
</event>
<event>
 5   0  0.1169371E-05  0.2400565E+04  0.7818609E-02  0.8439292E-01
       -2   -1    0    0    0  501  0.00000000000E+00  0.00000000000E+00  0.94649839465E+03  0.94649839465E+03  0.25500000920E-02 0. -1.
        2   -1    0    0  501    0  0.00000000000E+00  0.00000000000E+00 -0.15221137369E+04  0.15221137369E+04  0.25500000920E-02 0.  1.
    10030    2    1    2    0    0  0.00000000000E+00  0.00000000000E+00 -0.57561534229E+03  0.24686121316E+04  0.24005651072E+04 0.  0.
        2    1    3    3  502    0 -0.33268921594E+03  0.92447128416E+03  0.42119134751E+03  0.10689861650E+04  0.25500000920E-02 0. -1.
       -2    1    3    3    0  502  0.33268921594E+03 -0.92447128416E+03 -0.99680668981E+03  0.13996259666E+04  0.25500000920E-02 0.  1.
</event>
<event>
 5   0  0.5042742E-06  0.2396307E+04  0.7818609E-02  0.8440888E-01
       -1   -1    0    0    0  501  0.00000000000E+00  0.00000000000E+00  0.18804071267E+04  0.18804071267E+04  0.50400001928E-02 0. -1.
        1   -1    0    0  501    0  0.00000000000E+00  0.00000000000E+00 -0.76343645246E+03  0.76343645248E+03  0.50400001928E-02 0.  1.
    10030    2    1    2    0    0  0.00000000000E+00  0.00000000000E+00  0.11169706742E+04  0.26438435792E+04  0.23963066131E+04 0.  0.
        5    1    3    3  502    0 -0.57081905847E+03  0.60339290189E+03  0.15111840977E+04  0.17244178318E+04  0.46999998093E+01 0. -1.
       -5    1    3    3    0  502  0.57081905847E+03 -0.60339290189E+03 -0.39421342351E+03  0.91942574732E+03  0.46999998093E+01 0.  1.
</event>
<event>
 5   0  0.1198313E-05  0.2394860E+04  0.7818609E-02  0.8441430E-01
       -2   -1    0    0    0  501  0.00000000000E+00  0.00000000000E+00  0.11451628846E+04  0.11451628846E+04  0.25500000920E-02 0. -1.
        2   -1    0    0  501    0  0.00000000000E+00  0.00000000000E+00 -0.12520827203E+04  0.12520827203E+04  0.25500000920E-02 0.  1.
    10030    2    1    2    0    0  0.00000000000E+00  0.00000000000E+00 -0.10691983573E+03  0.23972456049E+04  0.23948600458E+04 0.  0.
        5    1    3    3  502    0  0.27107830442E+03  0.11328304842E+04  0.22435612060E+03  0.11862318964E+04  0.46999998093E+01 0. -1.
       -5    1    3    3    0  502 -0.27107830442E+03 -0.11328304842E+04 -0.33127595633E+03  0.12110137086E+04  0.46999998093E+01 0.  1.
</event>
<event>
 5   0  0.5064437E-06  0.2396280E+04  0.7818609E-02  0.8440898E-01
       -1   -1    0    0    0  501  0.00000000000E+00  0.00000000000E+00  0.23529589589E+04  0.23529589589E+04  0.50400001928E-02 0. -1.
        1   -1    0    0  501    0  0.00000000000E+00  0.00000000000E+00 -0.61009946338E+03  0.61009946340E+03  0.50400001928E-02 0.  1.
    10030    2    1    2    0    0  0.00000000000E+00  0.00000000000E+00  0.17428594955E+04  0.29630584223E+04  0.23962796149E+04 0.  0.
        2    1    3    3  502    0 -0.33617703314E+03 -0.11386991493E+03 -0.54359824404E+03  0.64921522322E+03  0.25500000920E-02 0.  1.
       -2    1    3    3    0  502  0.33617703314E+03  0.11386991493E+03  0.22864577396E+04  0.23138431991E+04  0.25500000920E-02 0. -1.
</event>
<event>
 5   0  0.4067750E-06  0.2385302E+04  0.7818609E-02  0.8445027E-01
       -4   -1    0    0    0  501  0.00000000000E+00  0.00000000000E+00  0.81355746392E+03  0.81355845518E+03  0.12699999809E+01 0. -1.
        4   -1    0    0  501    0  0.00000000000E+00  0.00000000000E+00 -0.17483884039E+04  0.17483888651E+04  0.12699999809E+01 0.  1.
    10030    2    1    2    0    0  0.00000000000E+00  0.00000000000E+00 -0.93483093998E+03  0.25619473203E+04  0.23853019066E+04 0.  0.
        4    1    3    3  502    0 -0.47144174213E+03  0.10906288129E+04 -0.57844478816E+03  0.13214872340E+04  0.12699999809E+01 0.  1.
       -4    1    3    3    0  502  0.47144174213E+03 -0.10906288129E+04 -0.35638615182E+03  0.12404600864E+04  0.12699999809E+01 0. -1.
</event>
<event>
 5   0  0.5196696E-06  0.2431634E+04  0.7818609E-02  0.8427754E-01
       -1   -1    0    0    0  501  0.00000000000E+00  0.00000000000E+00  0.16270472501E+04  0.16270472501E+04  0.50400001928E-02 0. -1.
        1   -1    0    0  501    0  0.00000000000E+00  0.00000000000E+00 -0.90852398979E+03  0.90852398980E+03  0.50400001928E-02 0.  1.
    10030    2    1    2    0    0  0.00000000000E+00  0.00000000000E+00  0.71852326030E+03  0.25355712399E+04  0.24316343963E+04 0.  0.
        1    1    3    3  502    0 -0.44521585212E+02  0.11865561856E+04  0.63180239031E+03  0.13450174770E+04  0.50400001928E-02 0. -1.
       -1    1    3    3    0  502  0.44521585212E+02 -0.11865561856E+04  0.86720869995E+02  0.11905537629E+04  0.50400001928E-02 0.  1.
</event>
<event>
 5   0  0.5064437E-06  0.2394962E+04  0.7818609E-02  0.8441392E-01
        1   -1    0    0  501    0  0.00000000000E+00  0.00000000000E+00  0.17971420270E+04  0.17971420270E+04  0.50400001928E-02 0. -1.
       -1   -1    0    0    0  501  0.00000000000E+00  0.00000000000E+00 -0.79791159061E+03  0.79791159062E+03  0.50400001928E-02 0.  1.
    10030    2    1    2    0    0  0.00000000000E+00  0.00000000000E+00  0.99923043637E+03  0.25950536176E+04  0.23949617561E+04 0.  0.
        2    1    3    3  502    0 -0.35719409958E+03  0.98288941046E+03  0.11317060854E+04  0.15409146251E+04  0.25500000920E-02 0. -1.
       -2    1    3    3    0  502  0.35719409958E+03 -0.98288941046E+03 -0.13247564907E+03  0.10541389925E+04  0.25500000920E-02 0.  1.
</event>
<event>
 5   0  0.1168435E-05  0.2418603E+04  0.7818609E-02  0.8432572E-01
       -2   -1    0    0    0  501  0.00000000000E+00  0.00000000000E+00  0.80614574903E+03  0.80614574903E+03  0.25500000920E-02 0.  1.
        2   -1    0    0  501    0  0.00000000000E+00  0.00000000000E+00 -0.18140766871E+04  0.18140766871E+04  0.25500000920E-02 0. -1.
    10030    2    1    2    0    0  0.00000000000E+00  0.00000000000E+00 -0.10079309381E+04  0.26202224361E+04  0.24186030759E+04 0.  0.
        1    1    3    3  502    0 -0.12142059096E+03 -0.84418425143E+03  0.42483664950E+03  0.95282537175E+03  0.50400001928E-02 0.  1.
       -1    1    3    3    0  502  0.12142059096E+03  0.84418425143E+03 -0.14327675876E+04  0.16673970644E+04  0.50400001928E-02 0. -1.
</event>
<event>
 5   0  0.1168435E-05  0.2424242E+04  0.7818609E-02  0.8430483E-01
        2   -1    0    0  501    0  0.00000000000E+00  0.00000000000E+00  0.11192577433E+04  0.11192577433E+04  0.25500000920E-02 0. -1.
       -2   -1    0    0    0  501  0.00000000000E+00  0.00000000000E+00 -0.13126892640E+04  0.13126892640E+04  0.25500000920E-02 0.  1.
    10030    2    1    2    0    0  0.00000000000E+00  0.00000000000E+00 -0.19343152065E+03  0.24319470073E+04  0.24242422513E+04 0.  0.
        1    1    3    3  502    0 -0.54360053636E+03 -0.10823033760E+04 -0.14540332284E+03  0.12198460014E+04  0.50400001928E-02 0.  1.
       -1    1    3    3    0  502  0.54360053636E+03  0.10823033760E+04 -0.48028197807E+02  0.12121010059E+04  0.50400001928E-02 0. -1.
</event>
<event>
 5   0  0.4067750E-06  0.2403348E+04  0.7818609E-02  0.8438251E-01
       -3   -1    0    0    0  501  0.00000000000E+00  0.00000000000E+00  0.22810260793E+04  0.22810260816E+04  0.10100000352E+00 0. -1.
        3   -1    0    0  501    0  0.00000000000E+00  0.00000000000E+00 -0.63305747140E+03  0.63305747945E+03  0.10100000352E+00 0.  1.
    10030    2    1    2    0    0  0.00000000000E+00  0.00000000000E+00  0.16479686079E+04  0.29140835610E+04  0.24033481787E+04 0.  0.
        5    1    3    3  502    0  0.34016786249E+03  0.16322771598E+03 -0.55936204792E+03  0.67473361602E+03  0.46999998093E+01 0.  1.
       -5    1    3    3    0  502 -0.34016786249E+03 -0.16322771598E+03  0.22073306559E+04  0.22393499450E+04  0.46999998093E+01 0. -1.
</event>
<event>
 5   0  0.5034479E-06  0.2389013E+04  0.7818609E-02  0.8443628E-01
       -1   -1    0    0    0  501  0.00000000000E+00  0.00000000000E+00  0.10505898651E+04  0.10505898651E+04  0.50400001928E-02 0.  1.
        1   -1    0    0  501    0  0.00000000000E+00  0.00000000000E+00 -0.13581377849E+04  0.13581377849E+04  0.50400001928E-02 0. -1.
    10030    2    1    2    0    0  0.00000000000E+00  0.00000000000E+00 -0.30754791983E+03  0.24087276501E+04  0.23890130115E+04 0.  0.
        4    1    3    3  502    0 -0.14126380248E+03 -0.12271435387E+03 -0.13432679843E+04  0.13562391991E+04  0.12699999809E+01 0. -1.
       -4    1    3    3    0  502  0.14126380248E+03  0.12271435387E+03  0.10357200645E+04  0.10524884510E+04  0.12699999809E+01 0.  1.
</event>
<event>
 5   0  0.1198313E-05  0.2401180E+04  0.7818609E-02  0.8439062E-01
        2   -1    0    0  501    0  0.00000000000E+00  0.00000000000E+00  0.14479939581E+04  0.14479939581E+04  0.25500000920E-02 0. -1.
       -2   -1    0    0    0  501  0.00000000000E+00  0.00000000000E+00 -0.99545775820E+03  0.99545775820E+03  0.25500000920E-02 0.  1.
    10030    2    1    2    0    0  0.00000000000E+00  0.00000000000E+00  0.45253619990E+03  0.24434517163E+04  0.24011803926E+04 0.  0.
        5    1    3    3  502    0  0.20892310753E+03  0.97817031114E+03  0.90198247887E+03  0.13468706340E+04  0.46999998093E+01 0. -1.
       -5    1    3    3    0  502 -0.20892310753E+03 -0.97817031114E+03 -0.44944627897E+03  0.10965810823E+04  0.46999998093E+01 0.  1.
</event>
<event>
 5   0  0.5042742E-06  0.2397189E+04  0.7818609E-02  0.8440557E-01
       -1   -1    0    0    0  501  0.00000000000E+00  0.00000000000E+00  0.16783018528E+04  0.16783018528E+04  0.50400001928E-02 0.  1.
        1   -1    0    0  501    0  0.00000000000E+00  0.00000000000E+00 -0.85600118032E+03  0.85600118033E+03  0.50400001928E-02 0. -1.
    10030    2    1    2    0    0  0.00000000000E+00  0.00000000000E+00  0.82230067247E+03  0.25343030331E+04  0.23971886592E+04 0.  0.
        5    1    3    3  502    0  0.16301091700E+03  0.21360085055E+03 -0.82374036474E+03  0.86646878819E+03  0.46999998093E+01 0. -1.
       -5    1    3    3    0  502 -0.16301091700E+03 -0.21360085055E+03  0.16460410372E+04  0.16678342449E+04  0.46999998093E+01 0.  1.
</event>
<event>
 5   0  0.5064437E-06  0.2396526E+04  0.7818609E-02  0.8440805E-01
        1   -1    0    0  501    0  0.00000000000E+00  0.00000000000E+00  0.69146018073E+03  0.69146018074E+03  0.50400001928E-02 0.  1.
       -1   -1    0    0    0  501  0.00000000000E+00  0.00000000000E+00 -0.20765252777E+04  0.20765252777E+04  0.50400001928E-02 0. -1.
    10030    2    1    2    0    0  0.00000000000E+00  0.00000000000E+00 -0.13850650969E+04  0.27679854584E+04  0.23965262726E+04 0.  0.
        2    1    3    3  502    0  0.33174127615E+03 -0.81114285873E+03  0.25134231376E+03  0.91168962387E+03  0.25500000920E-02 0.  1.
       -2    1    3    3    0  502 -0.33174127615E+03  0.81114285873E+03 -0.16364074107E+04  0.18562958346E+04  0.25500000920E-02 0. -1.
</event>
<event>
 5   0  0.1198313E-05  0.2406848E+04  0.7818609E-02  0.8436944E-01
       -2   -1    0    0    0  501  0.00000000000E+00  0.00000000000E+00  0.16725275493E+04  0.16725275493E+04  0.25500000920E-02 0.  1.
        2   -1    0    0  501    0  0.00000000000E+00  0.00000000000E+00 -0.86589242075E+03  0.86589242076E+03  0.25500000920E-02 0. -1.
    10030    2    1    2    0    0  0.00000000000E+00  0.00000000000E+00  0.80663512858E+03  0.25384199701E+04  0.24068476715E+04 0.  0.
        5    1    3    3  502    0 -0.84228577661E+03 -0.69354238348E+03 -0.13213749890E+03  0.10990581312E+04  0.46999998093E+01 0.  1.
       -5    1    3    3    0  502  0.84228577661E+03  0.69354238348E+03  0.93877262748E+03  0.14393618389E+04  0.46999998093E+01 0. -1.
</event>
<event>
 5   0  0.1168435E-05  0.2410447E+04  0.7818609E-02  0.8435603E-01
       -2   -1    0    0    0  501  0.00000000000E+00  0.00000000000E+00  0.59000185767E+03  0.59000185767E+03  0.25500000920E-02 0.  1.
        2   -1    0    0  501    0  0.00000000000E+00  0.00000000000E+00 -0.24619649724E+04  0.24619649724E+04  0.25500000920E-02 0. -1.
    10030    2    1    2    0    0  0.00000000000E+00  0.00000000000E+00 -0.18719631147E+04  0.30519668301E+04  0.24104471844E+04 0.  0.
        1    1    3    3  502    0 -0.79660742542E+03  0.88793887466E+03 -0.71834857458E+03  0.13924954255E+04  0.50400001928E-02 0.  1.
       -1    1    3    3    0  502  0.79660742542E+03 -0.88793887466E+03 -0.11536145401E+04  0.16594714046E+04  0.50400001928E-02 0. -1.
</event>
<event>
 5   0  0.5064437E-06  0.2395016E+04  0.7818609E-02  0.8441372E-01
        1   -1    0    0  501    0  0.00000000000E+00  0.00000000000E+00  0.16015188866E+04  0.16015188866E+04  0.50400001928E-02 0. -1.
       -1   -1    0    0    0  501  0.00000000000E+00  0.00000000000E+00 -0.89541564161E+03  0.89541564162E+03  0.50400001928E-02 0.  1.
    10030    2    1    2    0    0  0.00000000000E+00  0.00000000000E+00  0.70610324496E+03  0.24969345282E+04  0.23950157088E+04 0.  0.
        2    1    3    3  502    0  0.90484867035E+03  0.21265069170E+03  0.11402000747E+04  0.14710634396E+04  0.25500000920E-02 0. -1.
       -2    1    3    3    0  502 -0.90484867035E+03 -0.21265069170E+03 -0.43409682972E+03  0.10258710886E+04  0.25500000920E-02 0.  1.
</event>
<event>
 5   0  0.5042742E-06  0.2407102E+04  0.7818609E-02  0.8436849E-01
       -1   -1    0    0    0  501  0.00000000000E+00  0.00000000000E+00  0.52269027569E+03  0.52269027572E+03  0.50400001928E-02 0.  1.
        1   -1    0    0  501    0  0.00000000000E+00  0.00000000000E+00 -0.27713075243E+04  0.27713075244E+04  0.50400001928E-02 0. -1.
    10030    2    1    2    0    0  0.00000000000E+00  0.00000000000E+00 -0.22486172487E+04  0.32939978001E+04  0.24071024025E+04 0.  0.
        5    1    3    3  502    0 -0.34623545053E+03  0.59324421009E+03  0.22810140140E+03  0.72378865653E+03  0.46999998093E+01 0.  1.
       -5    1    3    3    0  502  0.34623545053E+03 -0.59324421009E+03 -0.24767186501E+04  0.25702091435E+04  0.46999998093E+01 0. -1.
</event>
<event>
 5   0  0.5104174E-06  0.2402131E+04  0.7818609E-02  0.8438706E-01
       -1   -1    0    0    0  501  0.00000000000E+00  0.00000000000E+00  0.11022802828E+04  0.11022802828E+04  0.50400001928E-02 0.  1.
        1   -1    0    0  501    0  0.00000000000E+00  0.00000000000E+00 -0.13087042122E+04  0.13087042122E+04  0.50400001928E-02 0. -1.
    10030    2    1    2    0    0  0.00000000000E+00  0.00000000000E+00 -0.20642392947E+03  0.24109844950E+04  0.24021314278E+04 0.  0.
        3    1    3    3  502    0 -0.11692287373E+04 -0.26288456118E+03 -0.18322217226E+03  0.12123425701E+04  0.10100000352E+00 0. -1.
       -3    1    3    3    0  502  0.11692287373E+04  0.26288456118E+03 -0.23201757202E+02  0.11986419250E+04  0.10100000352E+00 0.  1.
</event>
<event>
 5   0  0.5104174E-06  0.2401091E+04  0.7818609E-02  0.8439095E-01
       -1   -1    0    0    0  501  0.00000000000E+00  0.00000000000E+00  0.80350256493E+03  0.80350256495E+03  0.50400001928E-02 0. -1.
        1   -1    0    0  501    0  0.00000000000E+00  0.00000000000E+00 -0.17937826024E+04  0.17937826024E+04  0.50400001928E-02 0.  1.
    10030    2    1    2    0    0  0.00000000000E+00  0.00000000000E+00 -0.99028003742E+03  0.25972851673E+04  0.24010905205E+04 0.  0.
        3    1    3    3  502    0  0.35806575000E+03  0.53432510530E+03 -0.15916737360E+04  0.17167235338E+04  0.10100000352E+00 0.  1.
       -3    1    3    3    0  502 -0.35806575000E+03 -0.53432510530E+03  0.60139369859E+03  0.88056163349E+03  0.10100000352E+00 0. -1.
</event>
<event>
 5   0  0.5042742E-06  0.2409517E+04  0.7818609E-02  0.8435949E-01
       -1   -1    0    0    0  501  0.00000000000E+00  0.00000000000E+00  0.18332260492E+04  0.18332260492E+04  0.50400001928E-02 0.  1.
        1   -1    0    0  501    0  0.00000000000E+00  0.00000000000E+00 -0.79174257968E+03  0.79174257970E+03  0.50400001928E-02 0. -1.
    10030    2    1    2    0    0  0.00000000000E+00  0.00000000000E+00  0.10414834695E+04  0.26249686289E+04  0.24095170648E+04 0.  0.
        5    1    3    3  502    0 -0.99329474363E+03  0.25241713582E+03 -0.16918881656E+03  0.10387472281E+04  0.46999998093E+01 0. -1.
       -5    1    3    3    0  502  0.99329474363E+03 -0.25241713582E+03  0.12106722861E+04  0.15862214008E+04  0.46999998093E+01 0.  1.
</event>
<event>
 5   0  0.5034479E-06  0.2399805E+04  0.7818609E-02  0.8439577E-01
       -1   -1    0    0    0  501  0.00000000000E+00  0.00000000000E+00  0.95429976970E+03  0.95429976971E+03  0.50400001928E-02 0. -1.
        1   -1    0    0  501    0  0.00000000000E+00  0.00000000000E+00 -0.15087148272E+04  0.15087148272E+04  0.50400001928E-02 0.  1.
    10030    2    1    2    0    0  0.00000000000E+00  0.00000000000E+00 -0.55441505748E+03  0.24630145969E+04  0.23998051689E+04 0.  0.
        4    1    3    3  502    0  0.25960405685E+03  0.51977028207E+03  0.80030670175E+03  0.98896301358E+03  0.12699999809E+01 0. -1.
       -4    1    3    3    0  502 -0.25960405685E+03 -0.51977028207E+03 -0.13547217592E+04  0.14740515833E+04  0.12699999809E+01 0.  1.
</event>
<event>
 5   0  0.5042742E-06  0.2395483E+04  0.7818609E-02  0.8441197E-01
       -1   -1    0    0    0  501  0.00000000000E+00  0.00000000000E+00  0.16391072972E+04  0.16391072972E+04  0.50400001928E-02 0.  1.
        1   -1    0    0  501    0  0.00000000000E+00  0.00000000000E+00 -0.87522329415E+03  0.87522329416E+03  0.50400001928E-02 0. -1.
    10030    2    1    2    0    0  0.00000000000E+00  0.00000000000E+00  0.76388400303E+03  0.25143305913E+04  0.23954831564E+04 0.  0.
        5    1    3    3  502    0  0.10143470475E+04  0.48580018463E+03 -0.50392931104E+02  0.11258167212E+04  0.46999998093E+01 0. -1.
       -5    1    3    3    0  502 -0.10143470475E+04 -0.48580018463E+03  0.81427693413E+03  0.13885138702E+04  0.46999998093E+01 0.  1.
</event>
<event>
 5   0  0.1154897E-05  0.2396688E+04  0.7818609E-02  0.8440745E-01
        2   -1    0    0  501    0  0.00000000000E+00  0.00000000000E+00  0.78589682952E+03  0.78589682953E+03  0.25500000920E-02 0.  1.
       -2   -1    0    0    0  501  0.00000000000E+00  0.00000000000E+00 -0.18272476181E+04  0.18272476181E+04  0.25500000920E-02 0. -1.
    10030    2    1    2    0    0  0.00000000000E+00  0.00000000000E+00 -0.10413507885E+04  0.26131444476E+04  0.23966878060E+04 0.  0.
        4    1    3    3  502    0 -0.78204906310E+03 -0.89158929491E+03 -0.33342578662E+03  0.12319523432E+04  0.12699999809E+01 0.  1.
       -4    1    3    3    0  502  0.78204906310E+03  0.89158929491E+03 -0.70792500192E+03  0.13811921044E+04  0.12699999809E+01 0. -1.
</event>
<event>
 5   0  0.5042742E-06  0.2395388E+04  0.7818609E-02  0.8441232E-01
       -1   -1    0    0    0  501  0.00000000000E+00  0.00000000000E+00  0.71868129354E+03  0.71868129356E+03  0.50400001928E-02 0. -1.
        1   -1    0    0  501    0  0.00000000000E+00  0.00000000000E+00 -0.19959757440E+04  0.19959757440E+04  0.50400001928E-02 0.  1.
    10030    2    1    2    0    0  0.00000000000E+00  0.00000000000E+00 -0.12772944505E+04  0.27146570376E+04  0.23953875925E+04 0.  0.
        5    1    3    3  502    0  0.20959303417E+03  0.73745667523E+03  0.40414549721E+03  0.86667598370E+03  0.46999998093E+01 0. -1.
       -5    1    3    3    0  502 -0.20959303417E+03 -0.73745667523E+03 -0.16814399477E+04  0.18479810539E+04  0.46999998093E+01 0.  1.
</event>
<event>
 5   0  0.1174210E-05  0.2397916E+04  0.7818609E-02  0.8440284E-01
        2   -1    0    0  501    0  0.00000000000E+00  0.00000000000E+00  0.23980676336E+04  0.23980676336E+04  0.25500000920E-02 0. -1.
       -2   -1    0    0    0  501  0.00000000000E+00  0.00000000000E+00 -0.59944087758E+03  0.59944087758E+03  0.25500000920E-02 0.  1.
    10030    2    1    2    0    0  0.00000000000E+00  0.00000000000E+00  0.17986267560E+04  0.29975085112E+04  0.23979155672E+04 0.  0.
        3    1    3    3  502    0  0.20139509475E+03 -0.11794260234E+04  0.80334401201E+03  0.14411687412E+04  0.10100000352E+00 0.  1.
       -3    1    3    3    0  502 -0.20139509475E+03  0.11794260234E+04  0.99528274403E+03  0.15563397700E+04  0.10100000352E+00 0. -1.
</event>
<event>
 5   0  0.1174210E-05  0.2400499E+04  0.7818609E-02  0.8439317E-01
       -2   -1    0    0    0  501  0.00000000000E+00  0.00000000000E+00  0.11468654421E+04  0.11468654421E+04  0.25500000920E-02 0. -1.
        2   -1    0    0  501    0  0.00000000000E+00  0.00000000000E+00 -0.12561189549E+04  0.12561189549E+04  0.25500000920E-02 0.  1.
    10030    2    1    2    0    0  0.00000000000E+00  0.00000000000E+00 -0.10925351280E+03  0.24029843971E+04  0.24004994652E+04 0.  0.
        3    1    3    3  502    0  0.93628727799E+03 -0.19634274050E+03 -0.78023231426E+03  0.12344824070E+04  0.10100000352E+00 0.  1.
       -3    1    3    3    0  502 -0.93628727799E+03  0.19634274050E+03  0.67097880146E+03  0.11685019901E+04  0.10100000352E+00 0. -1.
</event>
<event>
 5   0  0.4067750E-06  0.2384273E+04  0.7818609E-02  0.8445415E-01
        4   -1    0    0  501    0  0.00000000000E+00  0.00000000000E+00  0.89364934232E+03  0.89365024474E+03  0.12699999809E+01 0.  1.
       -4   -1    0    0    0  501  0.00000000000E+00  0.00000000000E+00 -0.15903185765E+04  0.15903190836E+04  0.12699999809E+01 0. -1.
    10030    2    1    2    0    0  0.00000000000E+00  0.00000000000E+00 -0.69666923414E+03  0.24839693283E+04  0.23842725520E+04 0.  0.
        3    1    3    3  502    0 -0.36164298151E+03 -0.10745547444E+04 -0.73216275249E+03  0.13496354512E+04  0.10100000352E+00 0. -1.
       -3    1    3    3    0  502  0.36164298151E+03  0.10745547444E+04  0.35493518348E+02  0.11343338771E+04  0.10100000352E+00 0.  1.
</event>
<event>
 5   0  0.1198313E-05  0.2400791E+04  0.7818609E-02  0.8439208E-01
        2   -1    0    0  501    0  0.00000000000E+00  0.00000000000E+00  0.19227331436E+04  0.19227331436E+04  0.25500000920E-02 0. -1.
       -2   -1    0    0    0  501  0.00000000000E+00  0.00000000000E+00 -0.74942748990E+03  0.74942748990E+03  0.25500000920E-02 0.  1.
    10030    2    1    2    0    0  0.00000000000E+00  0.00000000000E+00  0.11733056537E+04  0.26721606335E+04  0.24007907644E+04 0.  0.
        5    1    3    3  502    0 -0.11420250432E+04  0.27079942363E+03  0.86684883711E+03  0.14591101821E+04  0.46999998093E+01 0.  1.
       -5    1    3    3    0  502  0.11420250432E+04 -0.27079942363E+03  0.30645681660E+03  0.12130504514E+04  0.46999998093E+01 0. -1.
</event>
<event>
 5   0  0.5042742E-06  0.2404944E+04  0.7818609E-02  0.8437655E-01
       -1   -1    0    0    0  501  0.00000000000E+00  0.00000000000E+00  0.69591737877E+03  0.69591737879E+03  0.50400001928E-02 0.  1.
        1   -1    0    0  501    0  0.00000000000E+00  0.00000000000E+00 -0.20777443648E+04  0.20777443648E+04  0.50400001928E-02 0. -1.
    10030    2    1    2    0    0  0.00000000000E+00  0.00000000000E+00 -0.13818269861E+04  0.27736617436E+04  0.24049435853E+04 0.  0.
        5    1    3    3  502    0  0.80654946166E+03 -0.83337091950E+03 -0.10572385574E+04  0.15693325272E+04  0.46999998093E+01 0.  1.
       -5    1    3    3    0  502 -0.80654946166E+03  0.83337091950E+03 -0.32458842863E+03  0.12043292164E+04  0.46999998093E+01 0. -1.
</event>
<event>
 5   0  0.5064437E-06  0.2384511E+04  0.7818609E-02  0.8445325E-01
        1   -1    0    0  501    0  0.00000000000E+00  0.00000000000E+00  0.10593522804E+04  0.10593522804E+04  0.50400001928E-02 0. -1.
       -1   -1    0    0    0  501  0.00000000000E+00  0.00000000000E+00 -0.13418320861E+04  0.13418320862E+04  0.50400001928E-02 0.  1.
    10030    2    1    2    0    0  0.00000000000E+00  0.00000000000E+00 -0.28247980572E+03  0.24011843666E+04  0.23845107510E+04 0.  0.
        2    1    3    3  502    0 -0.52980351324E+03  0.62018028067E+03  0.73441375260E+03  0.10975786547E+04  0.25500000920E-02 0. -1.
       -2    1    3    3    0  502  0.52980351324E+03 -0.62018028067E+03 -0.10168935583E+04  0.13036057119E+04  0.25500000920E-02 0.  1.
</event>
<event>
 5   0  0.1198313E-05  0.2394282E+04  0.7818609E-02  0.8441648E-01
       -2   -1    0    0    0  501  0.00000000000E+00  0.00000000000E+00  0.79592876793E+03  0.79592876793E+03  0.25500000920E-02 0. -1.
        2   -1    0    0  501    0  0.00000000000E+00  0.00000000000E+00 -0.18005958905E+04  0.18005958905E+04  0.25500000920E-02 0.  1.
    10030    2    1    2    0    0  0.00000000000E+00  0.00000000000E+00 -0.10046671226E+04  0.25965246585E+04  0.23942815780E+04 0.  0.
        5    1    3    3  502    0 -0.11012838098E+04  0.89968310355E+02 -0.10019004599E+04  0.14915585635E+04  0.46999998093E+01 0.  1.
       -5    1    3    3    0  502  0.11012838098E+04 -0.89968310355E+02 -0.27666627168E+01  0.11049660950E+04  0.46999998093E+01 0. -1.
</event>
<event>
 5   0  0.1168435E-05  0.2370044E+04  0.7818609E-02  0.8450805E-01
       -2   -1    0    0    0  501  0.00000000000E+00  0.00000000000E+00  0.15342452085E+04  0.15342452085E+04  0.25500000920E-02 0. -1.
        2   -1    0    0  501    0  0.00000000000E+00  0.00000000000E+00 -0.91528827484E+03  0.91528827484E+03  0.25500000920E-02 0.  1.
    10030    2    1    2    0    0  0.00000000000E+00  0.00000000000E+00  0.61895693362E+03  0.24495334833E+04  0.23700435861E+04 0.  0.
        1    1    3    3  502    0  0.22276603258E+03 -0.10368623755E+03 -0.88867018528E+03  0.92201422948E+03  0.50400001928E-02 0.  1.
       -1    1    3    3    0  502 -0.22276603258E+03  0.10368623755E+03  0.15076271189E+04  0.15275192538E+04  0.50400001928E-02 0. -1.
</event>
<event>
 5   0  0.5064437E-06  0.2400591E+04  0.7818609E-02  0.8439282E-01
        1   -1    0    0  501    0  0.00000000000E+00  0.00000000000E+00  0.18303494818E+04  0.18303494819E+04  0.50400001928E-02 0.  1.
       -1   -1    0    0    0  501  0.00000000000E+00  0.00000000000E+00 -0.78712230311E+03  0.78712230313E+03  0.50400001928E-02 0. -1.
    10030    2    1    2    0    0  0.00000000000E+00  0.00000000000E+00  0.10432271787E+04  0.26174717850E+04  0.24005906770E+04 0.  0.
        2    1    3    3  502    0 -0.45674233016E+03  0.11458761590E+03  0.17254279383E+04  0.17885316459E+04  0.25500000920E-02 0.  1.
       -2    1    3    3    0  502  0.45674233016E+03 -0.11458761590E+03 -0.68220075958E+03  0.82894013913E+03  0.25500000920E-02 0. -1.
</event>
<event>
 5   0  0.1168435E-05  0.2390200E+04  0.7818609E-02  0.8443181E-01
        2   -1    0    0  501    0  0.00000000000E+00  0.00000000000E+00  0.14058224452E+04  0.14058224452E+04  0.25500000920E-02 0. -1.
       -2   -1    0    0    0  501  0.00000000000E+00  0.00000000000E+00 -0.10159636831E+04  0.10159636831E+04  0.25500000920E-02 0.  1.
    10030    2    1    2    0    0  0.00000000000E+00  0.00000000000E+00  0.38985876208E+03  0.24217861282E+04  0.23902004511E+04 0.  0.
        1    1    3    3  502    0  0.51859407866E+02 -0.10340234815E+04  0.79978593619E+03  0.13082627802E+04  0.50400001928E-02 0. -1.
       -1    1    3    3    0  502 -0.51859407866E+02  0.10340234815E+04 -0.40992717410E+03  0.11135233480E+04  0.50400001928E-02 0.  1.
</event>
<event>
 5   0  0.5034479E-06  0.2387685E+04  0.7818609E-02  0.8444129E-01
        1   -1    0    0  501    0  0.00000000000E+00  0.00000000000E+00  0.22418191841E+04  0.22418191841E+04  0.50400001928E-02 0.  1.
       -1   -1    0    0    0  501  0.00000000000E+00  0.00000000000E+00 -0.63576018113E+03  0.63576018115E+03  0.50400001928E-02 0. -1.
    10030    2    1    2    0    0  0.00000000000E+00  0.00000000000E+00  0.16060590030E+04  0.28775793652E+04  0.23876845441E+04 0.  0.
        4    1    3    3  502    0  0.42059527631E+02 -0.23999408674E+03 -0.60547577489E+03  0.65266277082E+03  0.12699999809E+01 0. -1.
       -4    1    3    3    0  502 -0.42059527631E+02  0.23999408674E+03  0.22115347778E+04  0.22249165944E+04  0.12699999809E+01 0.  1.
</event>
<event>
 5   0  0.1174210E-05  0.2394272E+04  0.7818609E-02  0.8441651E-01
       -2   -1    0    0    0  501  0.00000000000E+00  0.00000000000E+00  0.14554677752E+04  0.14554677752E+04  0.25500000920E-02 0. -1.
        2   -1    0    0  501    0  0.00000000000E+00  0.00000000000E+00 -0.98465575223E+03  0.98465575223E+03  0.25500000920E-02 0.  1.
    10030    2    1    2    0    0  0.00000000000E+00  0.00000000000E+00  0.47081202296E+03  0.24401235274E+04  0.23942720957E+04 0.  0.
        3    1    3    3  502    0 -0.91368243536E+03  0.42525721314E+03  0.89390295253E+03  0.13471161007E+04  0.10100000352E+00 0. -1.
       -3    1    3    3    0  502  0.91368243536E+03 -0.42525721314E+03 -0.42309092957E+03  0.10930074267E+04  0.10100000352E+00 0.  1.
</event>
<event>
 5   0  0.5034479E-06  0.2398633E+04  0.7818609E-02  0.8440016E-01
        1   -1    0    0  501    0  0.00000000000E+00  0.00000000000E+00  0.13210611070E+04  0.13210611070E+04  0.50400001928E-02 0.  1.
       -1   -1    0    0    0  501  0.00000000000E+00  0.00000000000E+00 -0.10887912680E+04  0.10887912680E+04  0.50400001928E-02 0. -1.
    10030    2    1    2    0    0  0.00000000000E+00  0.00000000000E+00  0.23226983899E+03  0.24098523750E+04  0.23986327753E+04 0.  0.
        4    1    3    3  502    0 -0.25229132977E+03  0.10967677651E+04 -0.30030086039E+03  0.11647886784E+04  0.12699999809E+01 0. -1.
       -4    1    3    3    0  502  0.25229132977E+03 -0.10967677651E+04  0.53257069937E+03  0.12450636965E+04  0.12699999809E+01 0.  1.
</event>
<event>
 5   0  0.1174210E-05  0.2396505E+04  0.7818609E-02  0.8440813E-01
        2   -1    0    0  501    0  0.00000000000E+00  0.00000000000E+00  0.20865543673E+04  0.20865543673E+04  0.25500000920E-02 0. -1.
       -2   -1    0    0    0  501  0.00000000000E+00  0.00000000000E+00 -0.68812422968E+03  0.68812422969E+03  0.25500000920E-02 0.  1.
    10030    2    1    2    0    0  0.00000000000E+00  0.00000000000E+00  0.13984301376E+04  0.27746785970E+04  0.23965046353E+04 0.  0.
        3    1    3    3  502    0  0.34790486976E+03  0.10972174850E+04  0.10847555858E+04  0.15816506248E+04  0.10100000352E+00 0.  1.
       -3    1    3    3    0  502 -0.34790486976E+03 -0.10972174850E+04  0.31367455177E+03  0.11930279722E+04  0.10100000352E+00 0. -1.
</event>
<event>
 5   0  0.1154897E-05  0.2367090E+04  0.7818609E-02  0.8451928E-01
       -2   -1    0    0    0  501  0.00000000000E+00  0.00000000000E+00  0.11888661049E+04  0.11888661049E+04  0.25500000920E-02 0.  1.
        2   -1    0    0  501    0  0.00000000000E+00  0.00000000000E+00 -0.11782477856E+04  0.11782477856E+04  0.25500000920E-02 0. -1.
    10030    2    1    2    0    0  0.00000000000E+00  0.00000000000E+00  0.10618319235E+02  0.23671138905E+04  0.23670900747E+04 0.  0.
        4    1    3    3  502    0 -0.78082286512E+03 -0.59394611856E+03  0.66737390285E+03  0.11865268128E+04  0.12699999809E+01 0.  1.
       -4    1    3    3    0  502  0.78082286512E+03  0.59394611856E+03 -0.65675558362E+03  0.11805870777E+04  0.12699999809E+01 0. -1.
</event>
<event>
 5   0  0.1169371E-05  0.2402348E+04  0.7818609E-02  0.8438625E-01
       -2   -1    0    0    0  501  0.00000000000E+00  0.00000000000E+00  0.19980037838E+04  0.19980037838E+04  0.25500000920E-02 0.  1.
        2   -1    0    0  501    0  0.00000000000E+00  0.00000000000E+00 -0.72213049516E+03  0.72213049516E+03  0.25500000920E-02 0. -1.
    10030    2    1    2    0    0  0.00000000000E+00  0.00000000000E+00  0.12758732887E+04  0.27201342790E+04  0.24023484025E+04 0.  0.
        2    1    3    3  502    0  0.37125328507E+03  0.11423616169E+04  0.63722381406E+03  0.13597327879E+04  0.25500000920E-02 0. -1.
       -2    1    3    3    0  502 -0.37125328507E+03 -0.11423616169E+04  0.63864947460E+03  0.13604014910E+04  0.25500000920E-02 0.  1.
</event>
<event>
 5   0  0.1169371E-05  0.2404461E+04  0.7818609E-02  0.8437835E-01
        2   -1    0    0  501    0  0.00000000000E+00  0.00000000000E+00  0.11853229974E+04  0.11853229974E+04  0.25500000920E-02 0. -1.
       -2   -1    0    0    0  501  0.00000000000E+00  0.00000000000E+00 -0.12193791461E+04  0.12193791461E+04  0.25500000920E-02 0.  1.
    10030    2    1    2    0    0  0.00000000000E+00  0.00000000000E+00 -0.34056148716E+02  0.24047021435E+04  0.24044609744E+04 0.  0.
        2    1    3    3  502    0 -0.71570581046E+03 -0.96583401119E+03 -0.55806305530E-01  0.12021107051E+04  0.25500000920E-02 0.  1.
       -2    1    3    3    0  502  0.71570581046E+03  0.96583401119E+03 -0.34000342410E+02  0.12025914383E+04  0.25500000920E-02 0. -1.
</event>
<event>
 5   0  0.5034479E-06  0.2381937E+04  0.7818609E-02  0.8446297E-01
        1   -1    0    0  501    0  0.00000000000E+00  0.00000000000E+00  0.10541909779E+04  0.10541909779E+04  0.50400001928E-02 0.  1.
       -1   -1    0    0    0  501  0.00000000000E+00  0.00000000000E+00 -0.13454925686E+04  0.13454925686E+04  0.50400001928E-02 0. -1.
    10030    2    1    2    0    0  0.00000000000E+00  0.00000000000E+00 -0.29130159071E+03  0.23996835465E+04  0.23819371332E+04 0.  0.
        4    1    3    3  502    0 -0.19019093860E+03 -0.35734970870E+03 -0.12740551205E+04  0.13368206575E+04  0.12699999809E+01 0. -1.
       -4    1    3    3    0  502  0.19019093860E+03  0.35734970870E+03  0.98275352981E+03  0.10628628889E+04  0.12699999809E+01 0.  1.
</event>
<event>
 5   0  0.1169371E-05  0.2400078E+04  0.7818609E-02  0.8439474E-01
       -2   -1    0    0    0  501  0.00000000000E+00  0.00000000000E+00  0.12777893467E+04  0.12777893467E+04  0.25500000920E-02 0. -1.
        2   -1    0    0  501    0  0.00000000000E+00  0.00000000000E+00 -0.11270199268E+04  0.11270199268E+04  0.25500000920E-02 0.  1.
    10030    2    1    2    0    0  0.00000000000E+00  0.00000000000E+00  0.15076941994E+03  0.24048092735E+04  0.24000783787E+04 0.  0.
        2    1    3    3  502    0  0.97095011042E+03  0.67416455229E+03  0.28280022779E+03  0.12154085442E+04  0.25500000920E-02 0.  1.
       -2    1    3    3    0  502 -0.97095011042E+03 -0.67416455229E+03 -0.13203080786E+03  0.11894007292E+04  0.25500000920E-02 0. -1.
</event>
<event>
 5   0  0.1198313E-05  0.2404910E+04  0.7818609E-02  0.8437668E-01
        2   -1    0    0  501    0  0.00000000000E+00  0.00000000000E+00  0.90087743585E+03  0.90087743586E+03  0.25500000920E-02 0.  1.
       -2   -1    0    0    0  501  0.00000000000E+00  0.00000000000E+00 -0.16049881261E+04  0.16049881261E+04  0.25500000920E-02 0. -1.
    10030    2    1    2    0    0  0.00000000000E+00  0.00000000000E+00 -0.70411069022E+03  0.25058655619E+04  0.24049096346E+04 0.  0.
        5    1    3    3  502    0  0.95758355791E+03 -0.17951082521E+03 -0.10863993731E+04  0.14592724539E+04  0.46999998093E+01 0. -1.
       -5    1    3    3    0  502 -0.95758355791E+03  0.17951082521E+03  0.38228868290E+03  0.10465931081E+04  0.46999998093E+01 0.  1.
</event>
<event>
 5   0  0.1198313E-05  0.2392299E+04  0.7818609E-02  0.8442392E-01
       -2   -1    0    0    0  501  0.00000000000E+00  0.00000000000E+00  0.70306072332E+03  0.70306072332E+03  0.25500000920E-02 0. -1.
        2   -1    0    0  501    0  0.00000000000E+00  0.00000000000E+00 -0.20350635096E+04  0.20350635096E+04  0.25500000920E-02 0.  1.
    10030    2    1    2    0    0  0.00000000000E+00  0.00000000000E+00 -0.13320027863E+04  0.27381242329E+04  0.23922986628E+04 0.  0.
        5    1    3    3  502    0 -0.67822951116E+03  0.65560082206E+03 -0.15078106065E+04  0.17785731986E+04  0.46999998093E+01 0.  1.
       -5    1    3    3    0  502  0.67822951116E+03 -0.65560082206E+03  0.17580782028E+03  0.95955103427E+03  0.46999998093E+01 0. -1.
</event>
<event>
 5   0  0.1174210E-05  0.2415262E+04  0.7818609E-02  0.8433812E-01
       -2   -1    0    0    0  501  0.00000000000E+00  0.00000000000E+00  0.73084673974E+03  0.73084673975E+03  0.25500000920E-02 0.  1.
        2   -1    0    0  501    0  0.00000000000E+00  0.00000000000E+00 -0.19954562951E+04  0.19954562951E+04  0.25500000920E-02 0. -1.
    10030    2    1    2    0    0  0.00000000000E+00  0.00000000000E+00 -0.12646095554E+04  0.27263030349E+04  0.24152620790E+04 0.  0.
        3    1    3    3  502    0 -0.12515969391E+03 -0.87507551929E+03  0.29642282691E+03  0.93235648545E+03  0.10100000352E+00 0.  1.
       -3    1    3    3    0  502  0.12515969391E+03  0.87507551929E+03 -0.15610323823E+04  0.17939465494E+04  0.10100000352E+00 0. -1.
</event>
<event>
 5   0  0.5042742E-06  0.2410457E+04  0.7818609E-02  0.8435599E-01
        1   -1    0    0  501    0  0.00000000000E+00  0.00000000000E+00  0.10688478670E+04  0.10688478670E+04  0.50400001928E-02 0.  1.
       -1   -1    0    0    0  501  0.00000000000E+00  0.00000000000E+00 -0.13590109745E+04  0.13590109745E+04  0.50400001928E-02 0. -1.
    10030    2    1    2    0    0  0.00000000000E+00  0.00000000000E+00 -0.29016310751E+03  0.24278588415E+04  0.24104572025E+04 0.  0.
        5    1    3    3  502    0 -0.39414272224E+03  0.31276030814E+03  0.95798969993E+03  0.10820969693E+04  0.46999998093E+01 0.  1.
       -5    1    3    3    0  502  0.39414272224E+03 -0.31276030814E+03 -0.12481528074E+04  0.13457618722E+04  0.46999998093E+01 0. -1.
</event>
<event>
 5   0  0.5196696E-06  0.2398112E+04  0.7818609E-02  0.8440211E-01
        1   -1    0    0  501    0  0.00000000000E+00  0.00000000000E+00  0.15727333005E+04  0.15727333005E+04  0.50400001928E-02 0.  1.
       -1   -1    0    0    0  501  0.00000000000E+00  0.00000000000E+00 -0.91416329085E+03  0.91416329086E+03  0.50400001928E-02 0. -1.
    10030    2    1    2    0    0  0.00000000000E+00  0.00000000000E+00  0.65857000969E+03  0.24868965914E+04  0.23981117986E+04 0.  0.
        1    1    3    3  502    0  0.66087100894E+03 -0.67052500375E+03  0.10993264713E+04  0.14473675973E+04  0.50400001928E-02 0.  1.
       -1    1    3    3    0  502 -0.66087100894E+03  0.67052500375E+03 -0.44075646163E+03  0.10395289941E+04  0.50400001928E-02 0. -1.
</event>
<event>
 5   0  0.1174210E-05  0.2401562E+04  0.7818609E-02  0.8438919E-01
        2   -1    0    0  501    0  0.00000000000E+00  0.00000000000E+00  0.76777768729E+03  0.76777768729E+03  0.25500000920E-02 0.  1.
       -2   -1    0    0    0  501  0.00000000000E+00  0.00000000000E+00 -0.18779846764E+04  0.18779846764E+04  0.25500000920E-02 0. -1.
    10030    2    1    2    0    0  0.00000000000E+00  0.00000000000E+00 -0.11102069891E+04  0.26457623637E+04  0.24015617682E+04 0.  0.
        3    1    3    3  502    0 -0.89110659098E+03 -0.60737365145E+03 -0.11369147498E+04  0.15670191025E+04  0.10100000352E+00 0.  1.
       -3    1    3    3    0  502  0.89110659098E+03  0.60737365145E+03  0.26707760687E+02  0.10787432612E+04  0.10100000352E+00 0. -1.
</event>
<event>
 5   0  0.5064437E-06  0.2390322E+04  0.7818609E-02  0.8443136E-01
       -1   -1    0    0    0  501  0.00000000000E+00  0.00000000000E+00  0.92237429006E+03  0.92237429007E+03  0.50400001928E-02 0.  1.
        1   -1    0    0  501    0  0.00000000000E+00  0.00000000000E+00 -0.15486224737E+04  0.15486224737E+04  0.50400001928E-02 0. -1.
    10030    2    1    2    0    0  0.00000000000E+00  0.00000000000E+00 -0.62624818369E+03  0.24709967638E+04  0.23903217815E+04 0.  0.
        2    1    3    3  502    0 -0.48389510320E+03  0.10926926181E+04 -0.33035787157E+03  0.12398661024E+04  0.25500000920E-02 0. -1.
       -2    1    3    3    0  502  0.48389510320E+03 -0.10926926181E+04 -0.29589031211E+03  0.12311306614E+04  0.25500000920E-02 0.  1.
</event>
<event>
 5   0  0.1154897E-05  0.2397649E+04  0.7818609E-02  0.8440384E-01
       -2   -1    0    0    0  501  0.00000000000E+00  0.00000000000E+00  0.78137935420E+03  0.78137935420E+03  0.25500000920E-02 0. -1.
        2   -1    0    0  501    0  0.00000000000E+00  0.00000000000E+00 -0.18392858014E+04  0.18392858014E+04  0.25500000920E-02 0.  1.
    10030    2    1    2    0    0  0.00000000000E+00  0.00000000000E+00 -0.10579064472E+04  0.26206651556E+04  0.23976488081E+04 0.  0.
        4    1    3    3  502    0  0.62375053925E+03 -0.27964217153E+03  0.54749351466E+03  0.87579406301E+03  0.12699999809E+01 0. -1.
       -4    1    3    3    0  502 -0.62375053925E+03  0.27964217153E+03 -0.16053999619E+04  0.17448710926E+04  0.12699999809E+01 0.  1.
</event>
<event>
 5   0  0.5034479E-06  0.2401726E+04  0.7818609E-02  0.8438858E-01
       -1   -1    0    0    0  501  0.00000000000E+00  0.00000000000E+00  0.86440413499E+03  0.86440413501E+03  0.50400001928E-02 0.  1.
        1   -1    0    0  501    0  0.00000000000E+00  0.00000000000E+00 -0.16682845898E+04  0.16682845899E+04  0.50400001928E-02 0. -1.
    10030    2    1    2    0    0  0.00000000000E+00  0.00000000000E+00 -0.80388045485E+03  0.25326887249E+04  0.24017261275E+04 0.  0.
        4    1    3    3  502    0 -0.10770401909E+04 -0.12358027961E+03  0.14273455577E+03  0.10934634994E+04  0.12699999809E+01 0.  1.
       -4    1    3    3    0  502  0.10770401909E+04  0.12358027961E+03 -0.94661501062E+03  0.14392252254E+04  0.12699999809E+01 0. -1.
</event>
<event>
 5   0  0.1154897E-05  0.2340024E+04  0.7818609E-02  0.8462305E-01
       -2   -1    0    0    0  501  0.00000000000E+00  0.00000000000E+00  0.89671477914E+03  0.89671477914E+03  0.25500000920E-02 0. -1.
        2   -1    0    0  501    0  0.00000000000E+00  0.00000000000E+00 -0.15266036956E+04  0.15266036956E+04  0.25500000920E-02 0.  1.
    10030    2    1    2    0    0  0.00000000000E+00  0.00000000000E+00 -0.62988891648E+03  0.24233184748E+04  0.23400240134E+04 0.  0.
        4    1    3    3  502    0 -0.45280092031E+03 -0.90412360344E+03 -0.92450335749E+03  0.13701008119E+04  0.12699999809E+01 0.  1.
       -4    1    3    3    0  502  0.45280092031E+03  0.90412360344E+03  0.29461444101E+03  0.10532176629E+04  0.12699999809E+01 0. -1.
</event>
<event>
 5   0  0.1168435E-05  0.2403457E+04  0.7818609E-02  0.8438210E-01
       -2   -1    0    0    0  501  0.00000000000E+00  0.00000000000E+00  0.65711660786E+03  0.65711660787E+03  0.25500000920E-02 0.  1.
        2   -1    0    0  501    0  0.00000000000E+00  0.00000000000E+00 -0.21977099336E+04  0.21977099336E+04  0.25500000920E-02 0. -1.
    10030    2    1    2    0    0  0.00000000000E+00  0.00000000000E+00 -0.15405933257E+04  0.28548265415E+04  0.24034572571E+04 0.  0.
        1    1    3    3  502    0 -0.11548557902E+04 -0.32698679730E+03 -0.69963069984E+03  0.13892787258E+04  0.50400001928E-02 0.  1.
       -1    1    3    3    0  502  0.11548557902E+04  0.32698679730E+03 -0.84096262590E+03  0.14655478157E+04  0.50400001928E-02 0. -1.
</event>
<event>
 5   0  0.1169371E-05  0.2407970E+04  0.7818609E-02  0.8436526E-01
        2   -1    0    0  501    0  0.00000000000E+00  0.00000000000E+00  0.14403428155E+04  0.14403428155E+04  0.25500000920E-02 0.  1.
       -2   -1    0    0    0  501  0.00000000000E+00  0.00000000000E+00 -0.10064127191E+04  0.10064127191E+04  0.25500000920E-02 0. -1.
    10030    2    1    2    0    0  0.00000000000E+00  0.00000000000E+00  0.43393009647E+03  0.24467555346E+04  0.24079695425E+04 0.  0.
        2    1    3    3  502    0 -0.80445283841E+03 -0.37067860565E+03 -0.61166555701E+03  0.10764208060E+04  0.25500000920E-02 0. -1.
       -2    1    3    3    0  502  0.80445283841E+03  0.37067860565E+03  0.10455956535E+04  0.13703347286E+04  0.25500000920E-02 0.  1.
</event>
<event>
 5   0  0.5104174E-06  0.2400624E+04  0.7818609E-02  0.8439270E-01
        1   -1    0    0  501    0  0.00000000000E+00  0.00000000000E+00  0.12771442137E+04  0.12771442137E+04  0.50400001928E-02 0. -1.
       -1   -1    0    0    0  501  0.00000000000E+00  0.00000000000E+00 -0.11281018476E+04  0.11281018476E+04  0.50400001928E-02 0.  1.
    10030    2    1    2    0    0  0.00000000000E+00  0.00000000000E+00  0.14904236608E+03  0.24052460613E+04  0.24006238749E+04 0.  0.
        3    1    3    3  502    0 -0.96190164153E+03 -0.61673501746E+03  0.44283186294E+03  0.12254456001E+04  0.10100000352E+00 0.  1.
       -3    1    3    3    0  502  0.96190164153E+03  0.61673501746E+03 -0.29378949686E+03  0.11798004613E+04  0.10100000352E+00 0. -1.
</event>
<event>
 5   0  0.5196696E-06  0.2383784E+04  0.7818609E-02  0.8445600E-01
        1   -1    0    0  501    0  0.00000000000E+00  0.00000000000E+00  0.18807934395E+04  0.18807934395E+04  0.50400001928E-02 0. -1.
       -1   -1    0    0    0  501  0.00000000000E+00  0.00000000000E+00 -0.75532303954E+03  0.75532303956E+03  0.50400001928E-02 0.  1.
    10030    2    1    2    0    0  0.00000000000E+00  0.00000000000E+00  0.11254703999E+04  0.26361164790E+04  0.23837840653E+04 0.  0.
        1    1    3    3  502    0 -0.31388691896E+03 -0.14009488388E+03 -0.69932204561E+03  0.77923224900E+03  0.50400001928E-02 0.  1.
       -1    1    3    3    0  502  0.31388691896E+03  0.14009488388E+03  0.18247924455E+04  0.18568842300E+04  0.50400001928E-02 0. -1.
</event>
<event>
 5   0  0.5064437E-06  0.2401750E+04  0.7818609E-02  0.8438849E-01
        1   -1    0    0  501    0  0.00000000000E+00  0.00000000000E+00  0.25355834928E+04  0.25355834928E+04  0.50400001928E-02 0. -1.
       -1   -1    0    0    0  501  0.00000000000E+00  0.00000000000E+00 -0.56874518846E+03  0.56874518848E+03  0.50400001928E-02 0.  1.
    10030    2    1    2    0    0  0.00000000000E+00  0.00000000000E+00  0.19668383043E+04  0.31043286813E+04  0.24017501215E+04 0.  0.
        2    1    3    3  502    0  0.11205023197E+03  0.62106487691E+03 -0.33712683815E+03  0.71549377413E+03  0.25500000920E-02 0.  1.
       -2    1    3    3    0  502 -0.11205023197E+03 -0.62106487691E+03  0.23039651425E+04  0.23888349071E+04  0.25500000920E-02 0. -1.
</event>
<event>
 5   0  0.1169371E-05  0.2393817E+04  0.7818609E-02  0.8441822E-01
       -2   -1    0    0    0  501  0.00000000000E+00  0.00000000000E+00  0.65559908126E+03  0.65559908126E+03  0.25500000920E-02 0.  1.
        2   -1    0    0  501    0  0.00000000000E+00  0.00000000000E+00 -0.21851620715E+04  0.21851620715E+04  0.25500000920E-02 0. -1.
    10030    2    1    2    0    0  0.00000000000E+00  0.00000000000E+00 -0.15295629902E+04  0.28407611527E+04  0.23938172415E+04 0.  0.
        2    1    3    3  502    0 -0.31444385798E+03 -0.54500505207E+03  0.44349713669E+03  0.76980202446E+03  0.25500000920E-02 0.  1.
       -2    1    3    3    0  502  0.31444385798E+03  0.54500505207E+03 -0.19730601269E+04  0.20709591283E+04  0.25500000920E-02 0. -1.
</event>
<event>
 5   0  0.1198313E-05  0.2398346E+04  0.7818609E-02  0.8440123E-01
        2   -1    0    0  501    0  0.00000000000E+00  0.00000000000E+00  0.12756515927E+04  0.12756515927E+04  0.25500000920E-02 0.  1.
       -2   -1    0    0    0  501  0.00000000000E+00  0.00000000000E+00 -0.11272793912E+04  0.11272793912E+04  0.25500000920E-02 0. -1.
    10030    2    1    2    0    0  0.00000000000E+00  0.00000000000E+00  0.14837220155E+03  0.24029309839E+04  0.23983458889E+04 0.  0.
        5    1    3    3  502    0  0.66714683652E+03 -0.83192626720E+03 -0.47532158456E+03  0.11675354017E+04  0.46999998093E+01 0. -1.
       -5    1    3    3    0  502 -0.66714683652E+03  0.83192626720E+03  0.62369378611E+03  0.12353955821E+04  0.46999998093E+01 0.  1.
</event>
<event>
 5   0  0.5196696E-06  0.2402328E+04  0.7818609E-02  0.8438633E-01
        1   -1    0    0  501    0  0.00000000000E+00  0.00000000000E+00  0.15145530873E+04  0.15145530873E+04  0.50400001928E-02 0. -1.
       -1   -1    0    0    0  501  0.00000000000E+00  0.00000000000E+00 -0.95262076320E+03  0.95262076322E+03  0.50400001928E-02 0.  1.
    10030    2    1    2    0    0  0.00000000000E+00  0.00000000000E+00  0.56193232405E+03  0.24671738505E+04  0.24023278027E+04 0.  0.
        1    1    3    3  502    0  0.75834581139E+03  0.21439483473E+03 -0.65000240449E+03  0.10215462010E+04  0.50400001928E-02 0.  1.
       -1    1    3    3    0  502 -0.75834581139E+03 -0.21439483473E+03  0.12119347285E+04  0.14456276495E+04  0.50400001928E-02 0. -1.
</event>
<event>
 5   0  0.1168435E-05  0.2400309E+04  0.7818609E-02  0.8439388E-01
       -2   -1    0    0    0  501  0.00000000000E+00  0.00000000000E+00  0.71684996034E+03  0.71684996034E+03  0.25500000920E-02 0.  1.
        2   -1    0    0  501    0  0.00000000000E+00  0.00000000000E+00 -0.20093061289E+04  0.20093061289E+04  0.25500000920E-02 0. -1.
    10030    2    1    2    0    0  0.00000000000E+00  0.00000000000E+00 -0.12924561686E+04  0.27261560893E+04  0.24003091624E+04 0.  0.
        1    1    3    3  502    0  0.11751890937E+03  0.45179402555E+03 -0.19019623713E+04  0.19584150217E+04  0.50400001928E-02 0. -1.
       -1    1    3    3    0  502 -0.11751890937E+03 -0.45179402555E+03  0.60950620271E+03  0.76774106751E+03  0.50400001928E-02 0.  1.
</event>
<event>
 5   0  0.5196696E-06  0.2401859E+04  0.7818609E-02  0.8438808E-01
       -1   -1    0    0    0  501  0.00000000000E+00  0.00000000000E+00  0.10350124608E+04  0.10350124608E+04  0.50400001928E-02 0.  1.
        1   -1    0    0  501    0  0.00000000000E+00  0.00000000000E+00 -0.13934433316E+04  0.13934433316E+04  0.50400001928E-02 0. -1.
    10030    2    1    2    0    0  0.00000000000E+00  0.00000000000E+00 -0.35843087082E+03  0.24284557924E+04  0.24018586233E+04 0.  0.
        1    1    3    3  502    0 -0.64063605144E+03  0.57544816911E+03  0.66711781331E+03  0.10893123164E+04  0.50400001928E-02 0.  1.
       -1    1    3    3    0  502  0.64063605144E+03 -0.57544816911E+03 -0.10255486841E+04  0.13391434760E+04  0.50400001928E-02 0. -1.
</event>
<event>
 5   0  0.1198313E-05  0.2396733E+04  0.7818609E-02  0.8440728E-01
        2   -1    0    0  501    0  0.00000000000E+00  0.00000000000E+00  0.18006406427E+04  0.18006406427E+04  0.25500000920E-02 0. -1.
       -2   -1    0    0    0  501  0.00000000000E+00  0.00000000000E+00 -0.79753930821E+03  0.79753930822E+03  0.25500000920E-02 0.  1.
    10030    2    1    2    0    0  0.00000000000E+00  0.00000000000E+00  0.10031013345E+04  0.25981799509E+04  0.23967325195E+04 0.  0.
        5    1    3    3  502    0 -0.10998527487E+04  0.45224473881E+03  0.34127885247E+03  0.12372124788E+04  0.46999998093E+01 0. -1.
       -5    1    3    3    0  502  0.10998527487E+04 -0.45224473881E+03  0.66182248201E+03  0.13609674721E+04  0.46999998093E+01 0.  1.
</event>
<event>
 5   0  0.1154897E-05  0.2407710E+04  0.7818609E-02  0.8436623E-01
        2   -1    0    0  501    0  0.00000000000E+00  0.00000000000E+00  0.13776796851E+04  0.13776796851E+04  0.25500000920E-02 0.  1.
       -2   -1    0    0    0  501  0.00000000000E+00  0.00000000000E+00 -0.10519622173E+04  0.10519622173E+04  0.25500000920E-02 0. -1.
    10030    2    1    2    0    0  0.00000000000E+00  0.00000000000E+00  0.32571746781E+03  0.24296419023E+04  0.24077100957E+04 0.  0.
        4    1    3    3  502    0  0.77558802047E+03  0.91171093006E+03  0.29252733784E+03  0.12322043068E+04  0.12699999809E+01 0.  1.
       -4    1    3    3    0  502 -0.77558802047E+03 -0.91171093006E+03  0.33190129962E+02  0.11974375955E+04  0.12699999809E+01 0. -1.
</event>
<event>
 5   0  0.1198313E-05  0.2388734E+04  0.7818609E-02  0.8443734E-01
       -2   -1    0    0    0  501  0.00000000000E+00  0.00000000000E+00  0.16722494860E+04  0.16722494860E+04  0.25500000920E-02 0.  1.
        2   -1    0    0  501    0  0.00000000000E+00  0.00000000000E+00 -0.85304987374E+03  0.85304987375E+03  0.25500000920E-02 0. -1.
    10030    2    1    2    0    0  0.00000000000E+00  0.00000000000E+00  0.81919961224E+03  0.25252993597E+04  0.23887337339E+04 0.  0.
        5    1    3    3  502    0 -0.43809402447E+03 -0.76657394022E+03 -0.44070209100E+03  0.98681426981E+03  0.46999998093E+01 0. -1.
       -5    1    3    3    0  502  0.43809402447E+03  0.76657394022E+03  0.12599017032E+04  0.15384850899E+04  0.46999998093E+01 0.  1.
</event>
<event>
 5   0  0.1198313E-05  0.2385222E+04  0.7818609E-02  0.8445057E-01
        2   -1    0    0  501    0  0.00000000000E+00  0.00000000000E+00  0.23578621728E+04  0.23578621728E+04  0.25500000920E-02 0. -1.
       -2   -1    0    0    0  501  0.00000000000E+00  0.00000000000E+00 -0.60322467881E+03  0.60322467881E+03  0.25500000920E-02 0.  1.
    10030    2    1    2    0    0  0.00000000000E+00  0.00000000000E+00  0.17546374939E+04  0.29610868516E+04  0.23852217103E+04 0.  0.
        5    1    3    3  502    0  0.88800453990E+03  0.43512271160E+03  0.49726121277E+02  0.99014070423E+03  0.46999998093E+01 0.  1.
       -5    1    3    3    0  502 -0.88800453990E+03 -0.43512271160E+03  0.17049113727E+04  0.19709461473E+04  0.46999998093E+01 0. -1.
</event>
<event>
 5   0  0.4067750E-06  0.2405882E+04  0.7818609E-02  0.8437305E-01
        4   -1    0    0  501    0  0.00000000000E+00  0.00000000000E+00  0.13480623817E+04  0.13480629799E+04  0.12699999809E+01 0. -1.
       -4   -1    0    0    0  501  0.00000000000E+00  0.00000000000E+00 -0.10734411525E+04  0.10734419037E+04  0.12699999809E+01 0.  1.
    10030    2    1    2    0    0  0.00000000000E+00  0.00000000000E+00  0.27462122919E+03  0.24215048836E+04  0.24058821837E+04 0.  0.
        1    1    3    3  502    0  0.11738918954E+04 -0.19147613816E+03 -0.43807826872E+02  0.11902119220E+04  0.50400001928E-02 0.  1.
       -1    1    3    3    0  502 -0.11738918954E+04  0.19147613816E+03  0.31842905606E+03  0.12312929616E+04  0.50400001928E-02 0. -1.
</event>
<event>
 5   0  0.1168435E-05  0.2421888E+04  0.7818609E-02  0.8431354E-01
        2   -1    0    0  501    0  0.00000000000E+00  0.00000000000E+00  0.91953422152E+03  0.91953422153E+03  0.25500000920E-02 0.  1.
       -2   -1    0    0    0  501  0.00000000000E+00  0.00000000000E+00 -0.15947040715E+04  0.15947040715E+04  0.25500000920E-02 0. -1.
    10030    2    1    2    0    0  0.00000000000E+00  0.00000000000E+00 -0.67516984998E+03  0.25142382930E+04  0.24218876662E+04 0.  0.
        1    1    3    3  502    0  0.73817411091E+03  0.44473636779E+03 -0.12207253826E+04  0.14942763849E+04  0.50400001928E-02 0. -1.
       -1    1    3    3    0  502 -0.73817411091E+03 -0.44473636779E+03  0.54555553258E+03  0.10199619081E+04  0.50400001928E-02 0.  1.
</event>
<event>
 5   0  0.5064437E-06  0.2364244E+04  0.7818609E-02  0.8453013E-01
        1   -1    0    0  501    0  0.00000000000E+00  0.00000000000E+00  0.13055796187E+04  0.13055796187E+04  0.50400001928E-02 0. -1.
       -1   -1    0    0    0  501  0.00000000000E+00  0.00000000000E+00 -0.10703389387E+04  0.10703389388E+04  0.50400001928E-02 0.  1.
    10030    2    1    2    0    0  0.00000000000E+00  0.00000000000E+00  0.23524067997E+03  0.23759185575E+04  0.23642442374E+04 0.  0.
        2    1    3    3  502    0 -0.74707182869E+03  0.28645590121E+03  0.99211228336E+03  0.12745430881E+04  0.25500000920E-02 0. -1.
       -2    1    3    3    0  502  0.74707182869E+03 -0.28645590121E+03 -0.75687160340E+03  0.11013754694E+04  0.25500000920E-02 0.  1.
</event>
<event>
 5   0  0.1154897E-05  0.2397268E+04  0.7818609E-02  0.8440527E-01
        2   -1    0    0  501    0  0.00000000000E+00  0.00000000000E+00  0.17420202392E+04  0.17420202393E+04  0.25500000920E-02 0. -1.
       -2   -1    0    0    0  501  0.00000000000E+00  0.00000000000E+00 -0.82474590830E+03  0.82474590830E+03  0.25500000920E-02 0.  1.
    10030    2    1    2    0    0  0.00000000000E+00  0.00000000000E+00  0.91727433095E+03  0.25667661476E+04  0.23972684994E+04 0.  0.
        4    1    3    3  502    0 -0.43105983264E+03 -0.67535818736E+03  0.14131875980E+04  0.16245067130E+04  0.12699999809E+01 0. -1.
       -4    1    3    3    0  502  0.43105983264E+03  0.67535818736E+03 -0.49591326709E+03  0.94225943451E+03  0.12699999809E+01 0.  1.
</event>
<event>
 5   0  0.5104174E-06  0.2402705E+04  0.7818609E-02  0.8438492E-01
       -1   -1    0    0    0  501  0.00000000000E+00  0.00000000000E+00  0.66267222095E+03  0.66267222097E+03  0.50400001928E-02 0. -1.
        1   -1    0    0  501    0  0.00000000000E+00  0.00000000000E+00 -0.21779207411E+04  0.21779207411E+04  0.50400001928E-02 0.  1.
    10030    2    1    2    0    0  0.00000000000E+00  0.00000000000E+00 -0.15152485201E+04  0.28405929620E+04  0.24027047880E+04 0.  0.
        3    1    3    3  502    0  0.39461602264E+03  0.81488073760E+03 -0.16911474912E+04  0.19182628259E+04  0.10100000352E+00 0.  1.
       -3    1    3    3    0  502 -0.39461602264E+03 -0.81488073760E+03  0.17589897112E+03  0.92233013617E+03  0.10100000352E+00 0. -1.
</event>
<event>
 5   0  0.1174210E-05  0.2403562E+04  0.7818609E-02  0.8438171E-01
       -2   -1    0    0    0  501  0.00000000000E+00  0.00000000000E+00  0.11595610123E+04  0.11595610123E+04  0.25500000920E-02 0.  1.
        2   -1    0    0  501    0  0.00000000000E+00  0.00000000000E+00 -0.12455379893E+04  0.12455379893E+04  0.25500000920E-02 0. -1.
    10030    2    1    2    0    0  0.00000000000E+00  0.00000000000E+00 -0.85976976960E+02  0.24050990017E+04  0.24035617669E+04 0.  0.
        3    1    3    3  502    0  0.73824943472E+02 -0.10536651218E+04  0.53062937118E+03  0.11820439293E+04  0.10100000352E+00 0. -1.
       -3    1    3    3    0  502 -0.73824943472E+02  0.10536651218E+04 -0.61660634814E+03  0.12230550723E+04  0.10100000352E+00 0.  1.
</event>
<event>
 5   0  0.5034479E-06  0.2414341E+04  0.7818609E-02  0.8434154E-01
       -1   -1    0    0    0  501  0.00000000000E+00  0.00000000000E+00  0.81425385724E+03  0.81425385725E+03  0.50400001928E-02 0. -1.
        1   -1    0    0  501    0  0.00000000000E+00  0.00000000000E+00 -0.17896876477E+04  0.17896876477E+04  0.50400001928E-02 0.  1.
    10030    2    1    2    0    0  0.00000000000E+00  0.00000000000E+00 -0.97543379046E+03  0.26039415050E+04  0.24143405480E+04 0.  0.
        4    1    3    3  502    0  0.77540178674E+03 -0.78446338367E+03 -0.10167776284E+04  0.15001563551E+04  0.12699999809E+01 0. -1.
       -4    1    3    3    0  502 -0.77540178674E+03  0.78446338367E+03  0.41343837958E+02  0.11037851499E+04  0.12699999809E+01 0.  1.
</event>
<event>
 5   0  0.1168435E-05  0.2396941E+04  0.7818609E-02  0.8440650E-01
        2   -1    0    0  501    0  0.00000000000E+00  0.00000000000E+00  0.10806924523E+04  0.10806924523E+04  0.25500000920E-02 0.  1.
       -2   -1    0    0    0  501  0.00000000000E+00  0.00000000000E+00 -0.13290846614E+04  0.13290846614E+04  0.25500000920E-02 0. -1.
    10030    2    1    2    0    0  0.00000000000E+00  0.00000000000E+00 -0.24839220908E+03  0.24097771137E+04  0.23969411858E+04 0.  0.
        1    1    3    3  502    0 -0.34346058629E+02  0.10332421198E+04  0.48532015062E+03  0.11420615476E+04  0.50400001928E-02 0.  1.
       -1    1    3    3    0  502  0.34346058629E+02 -0.10332421198E+04 -0.73371235970E+03  0.12677155661E+04  0.50400001928E-02 0. -1.
</event>
<event>
 5   0  0.5042742E-06  0.2414838E+04  0.7818609E-02  0.8433969E-01
       -1   -1    0    0    0  501  0.00000000000E+00  0.00000000000E+00  0.10320513588E+04  0.10320513588E+04  0.50400001928E-02 0. -1.
        1   -1    0    0  501    0  0.00000000000E+00  0.00000000000E+00 -0.14125855386E+04  0.14125855386E+04  0.50400001928E-02 0.  1.
    10030    2    1    2    0    0  0.00000000000E+00  0.00000000000E+00 -0.38053417981E+03  0.24446368974E+04  0.24148381515E+04 0.  0.
        5    1    3    3  502    0  0.80147091345E+03  0.89125881792E+03 -0.33746015160E+03  0.12452306411E+04  0.46999998093E+01 0.  1.
       -5    1    3    3    0  502 -0.80147091345E+03 -0.89125881792E+03 -0.43074028204E+02  0.11994062562E+04  0.46999998093E+01 0. -1.
</event>
<event>
 5   0  0.5034479E-06  0.2405217E+04  0.7818609E-02  0.8437553E-01
        1   -1    0    0  501    0  0.00000000000E+00  0.00000000000E+00  0.11161535671E+04  0.11161535671E+04  0.50400001928E-02 0.  1.
       -1   -1    0    0    0  501  0.00000000000E+00  0.00000000000E+00 -0.12957600085E+04  0.12957600085E+04  0.50400001928E-02 0. -1.
    10030    2    1    2    0    0  0.00000000000E+00  0.00000000000E+00 -0.17960644145E+03  0.24119135756E+04  0.24052169595E+04 0.  0.
        4    1    3    3  502    0  0.71083420013E+03 -0.98599820417E+02 -0.10575073101E+04  0.12780181957E+04  0.12699999809E+01 0. -1.
       -4    1    3    3    0  502 -0.71083420013E+03  0.98599820417E+02  0.87790086863E+03  0.11338953800E+04  0.12699999809E+01 0.  1.
</event>
<event>
 5   0  0.1174210E-05  0.2403852E+04  0.7818609E-02  0.8438063E-01
       -2   -1    0    0    0  501  0.00000000000E+00  0.00000000000E+00  0.12831820436E+04  0.12831820436E+04  0.25500000920E-02 0. -1.
        2   -1    0    0  501    0  0.00000000000E+00  0.00000000000E+00 -0.11258150259E+04  0.11258150259E+04  0.25500000920E-02 0.  1.
    10030    2    1    2    0    0  0.00000000000E+00  0.00000000000E+00  0.15736701778E+03  0.24089970695E+04  0.24038515975E+04 0.  0.
        3    1    3    3  502    0 -0.31476304821E+03  0.20006322173E+03 -0.10663577605E+04  0.11296990541E+04  0.10100000352E+00 0.  1.
       -3    1    3    3    0  502  0.31476304821E+03 -0.20006322173E+03  0.12237247783E+04  0.12792980155E+04  0.10100000352E+00 0. -1.
</event>
<event>
 5   0  0.5042742E-06  0.2402594E+04  0.7818609E-02  0.8438533E-01
       -1   -1    0    0    0  501  0.00000000000E+00  0.00000000000E+00  0.11415861483E+04  0.11415861483E+04  0.50400001928E-02 0.  1.
        1   -1    0    0  501    0  0.00000000000E+00  0.00000000000E+00 -0.12641309915E+04  0.12641309915E+04  0.50400001928E-02 0. -1.
    10030    2    1    2    0    0  0.00000000000E+00  0.00000000000E+00 -0.12254484319E+03  0.24057171398E+04  0.24025939562E+04 0.  0.
        5    1    3    3  502    0  0.10654293939E+04  0.55477694956E+03 -0.74521490927E+02  0.12035334644E+04  0.46999998093E+01 0.  1.
       -5    1    3    3    0  502 -0.10654293939E+04 -0.55477694956E+03 -0.48023352264E+02  0.12021836755E+04  0.46999998093E+01 0. -1.
</event>
<event>
 5   0  0.5104174E-06  0.2394239E+04  0.7818609E-02  0.8441664E-01
        1   -1    0    0  501    0  0.00000000000E+00  0.00000000000E+00  0.24855002442E+04  0.24855002442E+04  0.50400001928E-02 0.  1.
       -1   -1    0    0    0  501  0.00000000000E+00  0.00000000000E+00 -0.57658213104E+03  0.57658213106E+03  0.50400001928E-02 0. -1.
    10030    2    1    2    0    0  0.00000000000E+00  0.00000000000E+00  0.19089181132E+04  0.30620823753E+04  0.23942389417E+04 0.  0.
        3    1    3    3  502    0 -0.97006993321E+03 -0.59441356088E+03  0.14308214680E+04  0.18280079979E+04  0.10100000352E+00 0. -1.
       -3    1    3    3    0  502  0.97006993321E+03  0.59441356088E+03  0.47809664513E+03  0.12340743774E+04  0.10100000352E+00 0.  1.
</event>
<event>
 5   0  0.5064437E-06  0.2399346E+04  0.7818609E-02  0.8439748E-01
        1   -1    0    0  501    0  0.00000000000E+00  0.00000000000E+00  0.10579954827E+04  0.10579954827E+04  0.50400001928E-02 0.  1.
       -1   -1    0    0    0  501  0.00000000000E+00  0.00000000000E+00 -0.13603229101E+04  0.13603229101E+04  0.50400001928E-02 0. -1.
    10030    2    1    2    0    0  0.00000000000E+00  0.00000000000E+00 -0.30232742742E+03  0.24183183929E+04  0.23993461559E+04 0.  0.
        2    1    3    3  502    0  0.87876508981E+03 -0.65345374985E+03 -0.64492060382E+03  0.12708864904E+04  0.25500000920E-02 0. -1.
       -2    1    3    3    0  502 -0.87876508981E+03  0.65345374985E+03  0.34259317641E+03  0.11474319025E+04  0.25500000920E-02 0.  1.
</event>
<event>
 5   0  0.1169371E-05  0.2390858E+04  0.7818609E-02  0.8442934E-01
        2   -1    0    0  501    0  0.00000000000E+00  0.00000000000E+00  0.12878719359E+04  0.12878719359E+04  0.25500000920E-02 0.  1.
       -2   -1    0    0    0  501  0.00000000000E+00  0.00000000000E+00 -0.11096213639E+04  0.11096213639E+04  0.25500000920E-02 0. -1.
    10030    2    1    2    0    0  0.00000000000E+00  0.00000000000E+00  0.17825057199E+03  0.23974932998E+04  0.23908577658E+04 0.  0.
        2    1    3    3  502    0 -0.18302693959E+02 -0.38351332198E+03  0.12243594733E+04  0.12831498652E+04  0.25500000920E-02 0.  1.
       -2    1    3    3    0  502  0.18302693959E+02  0.38351332198E+03 -0.10461089013E+04  0.11143434346E+04  0.25500000920E-02 0. -1.
</event>
<event>
 5   0  0.5064437E-06  0.2461763E+04  0.7818609E-02  0.8416736E-01
       -1   -1    0    0    0  501  0.00000000000E+00  0.00000000000E+00  0.70388852308E+03  0.70388852310E+03  0.50400001928E-02 0.  1.
        1   -1    0    0  501    0  0.00000000000E+00  0.00000000000E+00 -0.21524272226E+04  0.21524272226E+04  0.50400001928E-02 0. -1.
    10030    2    1    2    0    0  0.00000000000E+00  0.00000000000E+00 -0.14485386995E+04  0.28563157457E+04  0.24617626358E+04 0.  0.
        2    1    3    3  502    0 -0.10078119094E+04 -0.69338284371E+03 -0.56601137333E+03  0.13478996578E+04  0.25500000920E-02 0.  1.
       -2    1    3    3    0  502  0.10078119094E+04  0.69338284371E+03 -0.88252732615E+03  0.15084160879E+04  0.25500000920E-02 0. -1.
</event>
<event>
 5   0  0.5064437E-06  0.2415253E+04  0.7818609E-02  0.8433815E-01
       -1   -1    0    0    0  501  0.00000000000E+00  0.00000000000E+00  0.14485371587E+04  0.14485371587E+04  0.50400001928E-02 0. -1.
        1   -1    0    0  501    0  0.00000000000E+00  0.00000000000E+00 -0.10067824311E+04  0.10067824311E+04  0.50400001928E-02 0.  1.
    10030    2    1    2    0    0  0.00000000000E+00  0.00000000000E+00  0.44175472757E+03  0.24553195899E+04  0.24152529990E+04 0.  0.
        2    1    3    3  502    0 -0.13040676800E+03  0.78281056011E+03  0.11462321771E+04  0.13941472311E+04  0.25500000920E-02 0. -1.
       -2    1    3    3    0  502  0.13040676800E+03 -0.78281056011E+03 -0.70447744950E+03  0.10611723588E+04  0.25500000920E-02 0.  1.
</event>
<event>
 5   0  0.5104174E-06  0.2406934E+04  0.7818609E-02  0.8436912E-01
        1   -1    0    0  501    0  0.00000000000E+00  0.00000000000E+00  0.90775516169E+03  0.90775516171E+03  0.50400001928E-02 0. -1.
       -1   -1    0    0    0  501  0.00000000000E+00  0.00000000000E+00 -0.15955106002E+04  0.15955106002E+04  0.50400001928E-02 0.  1.
    10030    2    1    2    0    0  0.00000000000E+00  0.00000000000E+00 -0.68775543853E+03  0.25032657619E+04  0.24069341353E+04 0.  0.
        3    1    3    3  502    0  0.72211297845E+03  0.42065916382E+03  0.55676720411E+03  0.10041867433E+04  0.10100000352E+00 0. -1.
       -3    1    3    3    0  502 -0.72211297845E+03 -0.42065916382E+03 -0.12445226426E+04  0.14990790186E+04  0.10100000352E+00 0.  1.
</event>
<event>
 5   0  0.1168435E-05  0.2399530E+04  0.7818609E-02  0.8439680E-01
        2   -1    0    0  501    0  0.00000000000E+00  0.00000000000E+00  0.15074306172E+04  0.15074306172E+04  0.25500000920E-02 0. -1.
       -2   -1    0    0    0  501  0.00000000000E+00  0.00000000000E+00 -0.95489340197E+03  0.95489340197E+03  0.25500000920E-02 0.  1.
    10030    2    1    2    0    0  0.00000000000E+00  0.00000000000E+00  0.55253721524E+03  0.24623240192E+04  0.23995295791E+04 0.  0.
        1    1    3    3  502    0  0.83217092656E+03 -0.67674887043E+03 -0.27532785720E+03  0.11073856210E+04  0.50400001928E-02 0.  1.
       -1    1    3    3    0  502 -0.83217092656E+03  0.67674887043E+03  0.82786507244E+03  0.13549383982E+04  0.50400001928E-02 0. -1.
</event>
<event>
 5   0  0.1154897E-05  0.2375174E+04  0.7818609E-02  0.8448857E-01
        2   -1    0    0  501    0  0.00000000000E+00  0.00000000000E+00  0.14928092628E+04  0.14928092628E+04  0.25500000920E-02 0.  1.
       -2   -1    0    0    0  501  0.00000000000E+00  0.00000000000E+00 -0.94477072475E+03  0.94477072475E+03  0.25500000920E-02 0. -1.
    10030    2    1    2    0    0  0.00000000000E+00  0.00000000000E+00  0.54803853807E+03  0.24375799876E+04  0.23751736687E+04 0.  0.
        4    1    3    3  502    0 -0.27238287777E+03  0.11382887948E+04  0.67569522969E+02  0.11723741151E+04  0.12699999809E+01 0. -1.
       -4    1    3    3    0  502  0.27238287777E+03 -0.11382887948E+04  0.48046901510E+03  0.12652058725E+04  0.12699999809E+01 0.  1.
</event>
<event>
 5   0  0.5196696E-06  0.2430452E+04  0.7818609E-02  0.8428190E-01
       -1   -1    0    0    0  501  0.00000000000E+00  0.00000000000E+00  0.10244563769E+04  0.10244563769E+04  0.50400001928E-02 0.  1.
        1   -1    0    0  501    0  0.00000000000E+00  0.00000000000E+00 -0.14415201675E+04  0.14415201675E+04  0.50400001928E-02 0. -1.
    10030    2    1    2    0    0  0.00000000000E+00  0.00000000000E+00 -0.41706379064E+03  0.24659765444E+04  0.24304522444E+04 0.  0.
        1    1    3    3  502    0  0.58056144810E+03  0.71352958610E+03  0.59717726851E+03  0.10967209104E+04  0.50400001928E-02 0.  1.
       -1    1    3    3    0  502 -0.58056144810E+03 -0.71352958610E+03 -0.10142410591E+04  0.13692556340E+04  0.50400001928E-02 0. -1.
</event>
<event>
 5   0  0.1168435E-05  0.2407025E+04  0.7818609E-02  0.8436878E-01
       -2   -1    0    0    0  501  0.00000000000E+00  0.00000000000E+00  0.93338342330E+03  0.93338342331E+03  0.25500000920E-02 0. -1.
        2   -1    0    0  501    0  0.00000000000E+00  0.00000000000E+00 -0.15518187191E+04  0.15518187191E+04  0.25500000920E-02 0.  1.
    10030    2    1    2    0    0  0.00000000000E+00  0.00000000000E+00 -0.61843529582E+03  0.24852021424E+04  0.24070246101E+04 0.  0.
        1    1    3    3  502    0  0.47034780659E+03 -0.84244136532E+03  0.43352686489E+03  0.10577712682E+04  0.50400001928E-02 0. -1.
       -1    1    3    3    0  502 -0.47034780659E+03  0.84244136532E+03 -0.10519621607E+04  0.14274308742E+04  0.50400001928E-02 0.  1.
</event>
<event>
 5   0  0.1154897E-05  0.2370182E+04  0.7818609E-02  0.8450752E-01
        2   -1    0    0  501    0  0.00000000000E+00  0.00000000000E+00  0.17322701585E+04  0.17322701585E+04  0.25500000920E-02 0.  1.
       -2   -1    0    0    0  501  0.00000000000E+00  0.00000000000E+00 -0.81075129730E+03  0.81075129731E+03  0.25500000920E-02 0. -1.
    10030    2    1    2    0    0  0.00000000000E+00  0.00000000000E+00  0.92151886115E+03  0.25430214558E+04  0.23701816624E+04 0.  0.
        4    1    3    3  502    0  0.18850100063E+03  0.62821505932E+03 -0.59826021411E+03  0.88775204008E+03  0.12699999809E+01 0. -1.
       -4    1    3    3    0  502 -0.18850100063E+03 -0.62821505932E+03  0.15197790753E+04  0.16552694157E+04  0.12699999809E+01 0.  1.
</event>
<event>
 5   0  0.1198313E-05  0.2408634E+04  0.7818609E-02  0.8436278E-01
        2   -1    0    0  501    0  0.00000000000E+00  0.00000000000E+00  0.11570184730E+04  0.11570184730E+04  0.25500000920E-02 0.  1.
       -2   -1    0    0    0  501  0.00000000000E+00  0.00000000000E+00 -0.12535495562E+04  0.12535495562E+04  0.25500000920E-02 0. -1.
    10030    2    1    2    0    0  0.00000000000E+00  0.00000000000E+00 -0.96531083248E+02  0.24105680292E+04  0.24086344624E+04 0.  0.
        5    1    3    3  502    0  0.32015552847E+03 -0.46758970924E+03  0.10152343058E+04  0.11626962133E+04  0.46999998093E+01 0.  1.
       -5    1    3    3    0  502 -0.32015552847E+03  0.46758970924E+03 -0.11117653891E+04  0.12478718159E+04  0.46999998093E+01 0. -1.
</event>
<event>
 5   0  0.1168435E-05  0.2359597E+04  0.7818609E-02  0.8454787E-01
       -2   -1    0    0    0  501  0.00000000000E+00  0.00000000000E+00  0.80000372821E+03  0.80000372822E+03  0.25500000920E-02 0. -1.
        2   -1    0    0  501    0  0.00000000000E+00  0.00000000000E+00 -0.17398970158E+04  0.17398970158E+04  0.25500000920E-02 0.  1.
    10030    2    1    2    0    0  0.00000000000E+00  0.00000000000E+00 -0.93989328755E+03  0.25399007440E+04  0.23595966599E+04 0.  0.
        1    1    3    3  502    0 -0.25613396690E+02  0.90737719062E+03  0.34125378170E+03  0.96976469089E+03  0.50400001928E-02 0. -1.
       -1    1    3    3    0  502  0.25613396690E+02 -0.90737719062E+03 -0.12811470693E+04  0.15701360531E+04  0.50400001928E-02 0.  1.
</event>
<event>
 5   0  0.1198313E-05  0.2398804E+04  0.7818609E-02  0.8439951E-01
       -2   -1    0    0    0  501  0.00000000000E+00  0.00000000000E+00  0.75929544256E+03  0.75929544256E+03  0.25500000920E-02 0.  1.
        2   -1    0    0  501    0  0.00000000000E+00  0.00000000000E+00 -0.18946060727E+04  0.18946060727E+04  0.25500000920E-02 0. -1.
    10030    2    1    2    0    0  0.00000000000E+00  0.00000000000E+00 -0.11353106301E+04  0.26539015153E+04  0.23988044993E+04 0.  0.
        5    1    3    3  502    0 -0.18788050249E+03  0.10203509473E+04 -0.12334208623E+04  0.16117581247E+04  0.46999998093E+01 0. -1.
       -5    1    3    3    0  502  0.18788050249E+03 -0.10203509473E+04  0.98110232190E+02  0.10421433906E+04  0.46999998093E+01 0.  1.
</event>
<event>
 5   0  0.1168435E-05  0.2399431E+04  0.7818609E-02  0.8439717E-01
       -2   -1    0    0    0  501  0.00000000000E+00  0.00000000000E+00  0.94229971130E+03  0.94229971130E+03  0.25500000920E-02 0. -1.
        2   -1    0    0  501    0  0.00000000000E+00  0.00000000000E+00 -0.15274513036E+04  0.15274513036E+04  0.25500000920E-02 0.  1.
    10030    2    1    2    0    0  0.00000000000E+00  0.00000000000E+00 -0.58515159227E+03  0.24697510149E+04  0.23994307011E+04 0.  0.
        1    1    3    3  502    0  0.33403754405E+03  0.11273887710E+04 -0.47413948087E+02  0.11767899576E+04  0.50400001928E-02 0. -1.
       -1    1    3    3    0  502 -0.33403754405E+03 -0.11273887710E+04 -0.53773764418E+03  0.12929610573E+04  0.50400001928E-02 0.  1.
</event>
<event>
 5   0  0.5034479E-06  0.2401221E+04  0.7818609E-02  0.8439046E-01
       -1   -1    0    0    0  501  0.00000000000E+00  0.00000000000E+00  0.11207245236E+04  0.11207245236E+04  0.50400001928E-02 0.  1.
        1   -1    0    0  501    0  0.00000000000E+00  0.00000000000E+00 -0.12861910991E+04  0.12861910991E+04  0.50400001928E-02 0. -1.
    10030    2    1    2    0    0  0.00000000000E+00  0.00000000000E+00 -0.16546657546E+03  0.24069156227E+04  0.24012212782E+04 0.  0.
        4    1    3    3  502    0 -0.29857419095E+03 -0.30098832799E+03  0.10431952467E+04  0.11260543756E+04  0.12699999809E+01 0.  1.
       -4    1    3    3    0  502  0.29857419095E+03  0.30098832799E+03 -0.12086618222E+04  0.12808612471E+04  0.12699999809E+01 0. -1.
</event>
<event>
 5   0  0.5104174E-06  0.2401848E+04  0.7818609E-02  0.8438812E-01
        1   -1    0    0  501    0  0.00000000000E+00  0.00000000000E+00  0.19001771879E+04  0.19001771879E+04  0.50400001928E-02 0.  1.
       -1   -1    0    0    0  501  0.00000000000E+00  0.00000000000E+00 -0.75899178992E+03  0.75899178994E+03  0.50400001928E-02 0. -1.
    10030    2    1    2    0    0  0.00000000000E+00  0.00000000000E+00  0.11411853980E+04  0.26591689778E+04  0.24018483591E+04 0.  0.
        3    1    3    3  502    0  0.65470508934E+03 -0.95417183470E+03  0.92614703439E+03  0.14821710372E+04  0.10100000352E+00 0.  1.
       -3    1    3    3    0  502 -0.65470508934E+03  0.95417183470E+03  0.21503836357E+03  0.11769979406E+04  0.10100000352E+00 0. -1.
</event>
<event>
 5   0  0.1168435E-05  0.2408342E+04  0.7818609E-02  0.8436387E-01
       -2   -1    0    0    0  501  0.00000000000E+00  0.00000000000E+00  0.22987558783E+04  0.22987558783E+04  0.25500000920E-02 0. -1.
        2   -1    0    0  501    0  0.00000000000E+00  0.00000000000E+00 -0.63078826650E+03  0.63078826651E+03  0.25500000920E-02 0.  1.
    10030    2    1    2    0    0  0.00000000000E+00  0.00000000000E+00  0.16679676118E+04  0.29295441448E+04  0.24083423640E+04 0.  0.
        1    1    3    3  502    0  0.11781899212E+03  0.13889691690E+02  0.22916298722E+04  0.22946986097E+04  0.50400001928E-02 0. -1.
       -1    1    3    3    0  502 -0.11781899212E+03 -0.13889691690E+02 -0.62366226035E+03  0.63484553511E+03  0.50400001928E-02 0.  1.
</event>
<event>
 5   0  0.5064437E-06  0.2404442E+04  0.7818609E-02  0.8437843E-01
       -1   -1    0    0    0  501  0.00000000000E+00  0.00000000000E+00  0.78196575045E+03  0.78196575047E+03  0.50400001928E-02 0. -1.
        1   -1    0    0  501    0  0.00000000000E+00  0.00000000000E+00 -0.18483351889E+04  0.18483351889E+04  0.50400001928E-02 0.  1.
    10030    2    1    2    0    0  0.00000000000E+00  0.00000000000E+00 -0.10663694385E+04  0.26303009394E+04  0.24044415677E+04 0.  0.
        2    1    3    3  502    0  0.10378310330E+04 -0.48833137908E+03 -0.92726535818E+03  0.14749175683E+04  0.25500000920E-02 0.  1.
       -2    1    3    3    0  502 -0.10378310330E+04  0.48833137908E+03 -0.13910408029E+03  0.11553833710E+04  0.25500000920E-02 0. -1.
</event>
<event>
 5   0  0.1169371E-05  0.2455517E+04  0.7818609E-02  0.8419006E-01
        2   -1    0    0  501    0  0.00000000000E+00  0.00000000000E+00  0.10991886968E+04  0.10991886968E+04  0.25500000920E-02 0.  1.
       -2   -1    0    0    0  501  0.00000000000E+00  0.00000000000E+00 -0.13713672599E+04  0.13713672599E+04  0.25500000920E-02 0. -1.
    10030    2    1    2    0    0  0.00000000000E+00  0.00000000000E+00 -0.27217856313E+03  0.24705559567E+04  0.24555173722E+04 0.  0.
        2    1    3    3  502    0 -0.71571156832E+03  0.94422980983E+03  0.18771776882E+03  0.11996044946E+04  0.25500000920E-02 0.  1.
       -2    1    3    3    0  502  0.71571156832E+03 -0.94422980983E+03 -0.45989633195E+03  0.12709514621E+04  0.25500000920E-02 0. -1.
</event>
<event>
 5   0  0.5034479E-06  0.2405696E+04  0.7818609E-02  0.8437374E-01
       -1   -1    0    0    0  501  0.00000000000E+00  0.00000000000E+00  0.13634741999E+04  0.13634741999E+04  0.50400001928E-02 0.  1.
        1   -1    0    0  501    0  0.00000000000E+00  0.00000000000E+00 -0.10611443008E+04  0.10611443008E+04  0.50400001928E-02 0. -1.
    10030    2    1    2    0    0  0.00000000000E+00  0.00000000000E+00  0.30232989906E+03  0.24246185007E+04  0.24056956387E+04 0.  0.
        4    1    3    3  502    0 -0.75675841566E+03  0.47163738766E+03 -0.66247445183E+03  0.11108551379E+04  0.12699999809E+01 0. -1.
       -4    1    3    3    0  502  0.75675841566E+03 -0.47163738766E+03  0.96480435089E+03  0.13137633628E+04  0.12699999809E+01 0.  1.
</event>
<event>
 5   0  0.1198313E-05  0.2398607E+04  0.7818609E-02  0.8440025E-01
        2   -1    0    0  501    0  0.00000000000E+00  0.00000000000E+00  0.88360678964E+03  0.88360678964E+03  0.25500000920E-02 0.  1.
       -2   -1    0    0    0  501  0.00000000000E+00  0.00000000000E+00 -0.16277927815E+04  0.16277927815E+04  0.25500000920E-02 0. -1.
    10030    2    1    2    0    0  0.00000000000E+00  0.00000000000E+00 -0.74418599189E+03  0.25113995712E+04  0.23986068906E+04 0.  0.
        5    1    3    3  502    0  0.40243291150E+03 -0.10972325948E+04 -0.90299401547E+02  0.11721978021E+04  0.46999998093E+01 0. -1.
       -5    1    3    3    0  502 -0.40243291150E+03  0.10972325948E+04 -0.65388659035E+03  0.13392017691E+04  0.46999998093E+01 0.  1.
</event>
<event>
 5   0  0.5034479E-06  0.2400777E+04  0.7818609E-02  0.8439213E-01
       -1   -1    0    0    0  501  0.00000000000E+00  0.00000000000E+00  0.86959263726E+03  0.86959263728E+03  0.50400001928E-02 0. -1.
        1   -1    0    0  501    0  0.00000000000E+00  0.00000000000E+00 -0.16570205419E+04  0.16570205419E+04  0.50400001928E-02 0.  1.
    10030    2    1    2    0    0  0.00000000000E+00  0.00000000000E+00 -0.78742790460E+03  0.25266131792E+04  0.24007772600E+04 0.  0.
        4    1    3    3  502    0 -0.82189292080E+03  0.57121448598E+03 -0.10911221468E+04  0.14806563120E+04  0.12699999809E+01 0.  1.
       -4    1    3    3    0  502  0.82189292080E+03 -0.57121448598E+03  0.30369424217E+03  0.10459568671E+04  0.12699999809E+01 0. -1.
</event>
<event>
 5   0  0.1168435E-05  0.2399774E+04  0.7818609E-02  0.8439588E-01
       -2   -1    0    0    0  501  0.00000000000E+00  0.00000000000E+00  0.11183156224E+04  0.11183156224E+04  0.25500000920E-02 0. -1.
        2   -1    0    0  501    0  0.00000000000E+00  0.00000000000E+00 -0.12874083199E+04  0.12874083199E+04  0.25500000920E-02 0.  1.
    10030    2    1    2    0    0  0.00000000000E+00  0.00000000000E+00 -0.16909269750E+03  0.24057239424E+04  0.23997740199E+04 0.  0.
        1    1    3    3  502    0 -0.80641072383E+03  0.79543039945E+03  0.31231529268E+03  0.11749674965E+04  0.50400001928E-02 0.  1.
       -1    1    3    3    0  502  0.80641072383E+03 -0.79543039945E+03 -0.48140799018E+03  0.12307564458E+04  0.50400001928E-02 0. -1.
</event>
<event>
 5   0  0.5064437E-06  0.2405201E+04  0.7818609E-02  0.8437559E-01
        1   -1    0    0  501    0  0.00000000000E+00  0.00000000000E+00  0.12811979659E+04  0.12811979659E+04  0.50400001928E-02 0. -1.
       -1   -1    0    0    0  501  0.00000000000E+00  0.00000000000E+00 -0.11288247045E+04  0.11288247045E+04  0.50400001928E-02 0.  1.
    10030    2    1    2    0    0  0.00000000000E+00  0.00000000000E+00  0.15237326135E+03  0.24100226704E+04  0.24052009607E+04 0.  0.
        2    1    3    3  502    0 -0.66573431489E+03 -0.91204790984E+03  0.49079669181E+03  0.12312249837E+04  0.25500000920E-02 0. -1.
       -2    1    3    3    0  502  0.66573431489E+03  0.91204790984E+03 -0.33842343046E+03  0.11787976867E+04  0.25500000920E-02 0.  1.
</event>
<event>
 5   0  0.5064437E-06  0.2406412E+04  0.7818609E-02  0.8437107E-01
        1   -1    0    0  501    0  0.00000000000E+00  0.00000000000E+00  0.11913245950E+04  0.11913245951E+04  0.50400001928E-02 0. -1.
       -1   -1    0    0    0  501  0.00000000000E+00  0.00000000000E+00 -0.12152063212E+04  0.12152063212E+04  0.50400001928E-02 0.  1.
    10030    2    1    2    0    0  0.00000000000E+00  0.00000000000E+00 -0.23881726153E+02  0.24065309163E+04  0.24064124156E+04 0.  0.
        2    1    3    3  502    0  0.41237293934E+03  0.16423641434E+03 -0.11303340484E+04  0.12143640730E+04  0.25500000920E-02 0.  1.
       -2    1    3    3    0  502 -0.41237293934E+03 -0.16423641434E+03  0.11064523222E+04  0.11921668433E+04  0.25500000920E-02 0. -1.
</event>
<event>
 5   0  0.5104174E-06  0.2399521E+04  0.7818609E-02  0.8439683E-01
        1   -1    0    0  501    0  0.00000000000E+00  0.00000000000E+00  0.15998221822E+04  0.15998221822E+04  0.50400001928E-02 0.  1.
       -1   -1    0    0    0  501  0.00000000000E+00  0.00000000000E+00 -0.89974073488E+03  0.89974073490E+03  0.50400001928E-02 0. -1.
    10030    2    1    2    0    0  0.00000000000E+00  0.00000000000E+00  0.70008144728E+03  0.24995629171E+04  0.23995209404E+04 0.  0.
        3    1    3    3  502    0  0.37793088292E+03  0.11191426056E+04  0.56882900914E+03  0.13110600199E+04  0.10100000352E+00 0. -1.
       -3    1    3    3    0  502 -0.37793088292E+03 -0.11191426056E+04  0.13125243814E+03  0.11885028972E+04  0.10100000352E+00 0.  1.
</event>
<event>
 5   0  0.5042742E-06  0.2402743E+04  0.7818609E-02  0.8438477E-01
        1   -1    0    0  501    0  0.00000000000E+00  0.00000000000E+00  0.16187453357E+04  0.16187453357E+04  0.50400001928E-02 0. -1.
       -1   -1    0    0    0  501  0.00000000000E+00  0.00000000000E+00 -0.89161271056E+03  0.89161271057E+03  0.50400001928E-02 0.  1.
    10030    2    1    2    0    0  0.00000000000E+00  0.00000000000E+00  0.72713262517E+03  0.25103580463E+04  0.24027433625E+04 0.  0.
        5    1    3    3  502    0  0.10069003013E+04 -0.27206482956E+03 -0.25929254438E+03  0.10747661149E+04  0.46999998093E+01 0. -1.
       -5    1    3    3    0  502 -0.10069003013E+04  0.27206482956E+03  0.98642516955E+03  0.14355919314E+04  0.46999998093E+01 0.  1.
</event>
<event>
 5   0  0.5034479E-06  0.2396593E+04  0.7818609E-02  0.8440780E-01
        1   -1    0    0  501    0  0.00000000000E+00  0.00000000000E+00  0.14025366405E+04  0.14025366405E+04  0.50400001928E-02 0.  1.
       -1   -1    0    0    0  501  0.00000000000E+00  0.00000000000E+00 -0.10237979123E+04  0.10237979123E+04  0.50400001928E-02 0. -1.
    10030    2    1    2    0    0  0.00000000000E+00  0.00000000000E+00  0.37873872821E+03  0.24263345528E+04  0.23965926516E+04 0.  0.
        4    1    3    3  502    0  0.38327039517E+02  0.57764912121E+03  0.12515631740E+04  0.13789704350E+04  0.12699999809E+01 0.  1.
       -4    1    3    3    0  502 -0.38327039517E+02 -0.57764912121E+03 -0.87282444576E+03  0.10473641178E+04  0.12699999809E+01 0. -1.
</event>
<event>
 5   0  0.1154897E-05  0.2420481E+04  0.7818609E-02  0.8431876E-01
        2   -1    0    0  501    0  0.00000000000E+00  0.00000000000E+00  0.22928142795E+04  0.22928142795E+04  0.25500000920E-02 0.  1.
       -2   -1    0    0    0  501  0.00000000000E+00  0.00000000000E+00 -0.63881385249E+03  0.63881385250E+03  0.25500000920E-02 0. -1.
    10030    2    1    2    0    0  0.00000000000E+00  0.00000000000E+00  0.16540004270E+04  0.29316281320E+04  0.24204805498E+04 0.  0.
        4    1    3    3  502    0  0.62962684410E+03  0.77043384318E+03 -0.74655069656E+01  0.99501538491E+03  0.12699999809E+01 0. -1.
       -4    1    3    3    0  502 -0.62962684410E+03 -0.77043384318E+03  0.16614659340E+04  0.19366127471E+04  0.12699999809E+01 0.  1.
</event>
<event>
 5   0  0.1168435E-05  0.2423929E+04  0.7818609E-02  0.8430599E-01
        2   -1    0    0  501    0  0.00000000000E+00  0.00000000000E+00  0.10389959576E+04  0.10389959576E+04  0.25500000920E-02 0.  1.
       -2   -1    0    0    0  501  0.00000000000E+00  0.00000000000E+00 -0.14137279545E+04  0.14137279545E+04  0.25500000920E-02 0. -1.
    10030    2    1    2    0    0  0.00000000000E+00  0.00000000000E+00 -0.37473199689E+03  0.24527239121E+04  0.24239287365E+04 0.  0.
        1    1    3    3  502    0  0.23753131567E+03 -0.21807732237E+03  0.99479291039E+03  0.10457493863E+04  0.50400001928E-02 0.  1.
       -1    1    3    3    0  502 -0.23753131567E+03  0.21807732237E+03 -0.13695249073E+04  0.14069745258E+04  0.50400001928E-02 0. -1.
</event>
<event>
 5   0  0.1198313E-05  0.2397243E+04  0.7818609E-02  0.8440536E-01
       -2   -1    0    0    0  501  0.00000000000E+00  0.00000000000E+00  0.80835589542E+03  0.80835589542E+03  0.25500000920E-02 0. -1.
        2   -1    0    0  501    0  0.00000000000E+00  0.00000000000E+00 -0.17773035117E+04  0.17773035117E+04  0.25500000920E-02 0.  1.
    10030    2    1    2    0    0  0.00000000000E+00  0.00000000000E+00 -0.96894761628E+03  0.25856594071E+04  0.23972432264E+04 0.  0.
        5    1    3    3  502    0  0.46243184355E+03 -0.84193543412E+03  0.28879314963E+03  0.10030563585E+04  0.46999998093E+01 0. -1.
       -5    1    3    3    0  502 -0.46243184355E+03  0.84193543412E+03 -0.12577407659E+04  0.15826030486E+04  0.46999998093E+01 0.  1.
</event>
<event>
 5   0  0.1169371E-05  0.2401738E+04  0.7818609E-02  0.8438853E-01
       -2   -1    0    0    0  501  0.00000000000E+00  0.00000000000E+00  0.10316338203E+04  0.10316338203E+04  0.25500000920E-02 0.  1.
        2   -1    0    0  501    0  0.00000000000E+00  0.00000000000E+00 -0.13978667726E+04  0.13978667726E+04  0.25500000920E-02 0. -1.
    10030    2    1    2    0    0  0.00000000000E+00  0.00000000000E+00 -0.36623295227E+03  0.24295005929E+04  0.24017382362E+04 0.  0.
        2    1    3    3  502    0  0.51643340312E+03  0.10503037707E+03  0.90840791891E+03  0.10502094016E+04  0.25500000920E-02 0.  1.
       -2    1    3    3    0  502 -0.51643340312E+03 -0.10503037707E+03 -0.12746408712E+04  0.13792911913E+04  0.25500000920E-02 0. -1.
</event>
<event>
 5   0  0.5064437E-06  0.2384543E+04  0.7818609E-02  0.8445313E-01
        1   -1    0    0  501    0  0.00000000000E+00  0.00000000000E+00  0.22292820194E+04  0.22292820195E+04  0.50400001928E-02 0.  1.
       -1   -1    0    0    0  501  0.00000000000E+00  0.00000000000E+00 -0.63765422202E+03  0.63765422204E+03  0.50400001928E-02 0. -1.
    10030    2    1    2    0    0  0.00000000000E+00  0.00000000000E+00  0.15916277974E+04  0.28669362415E+04  0.23845428005E+04 0.  0.
        2    1    3    3  502    0 -0.58004574321E+03 -0.98540847527E+03  0.12018073041E+04  0.16588621774E+04  0.25500000920E-02 0.  1.
       -2    1    3    3    0  502  0.58004574321E+03  0.98540847527E+03  0.38982049331E+03  0.12080740641E+04  0.25500000920E-02 0. -1.
</event>
<event>
 5   0  0.5196696E-06  0.2406355E+04  0.7818609E-02  0.8437128E-01
       -1   -1    0    0    0  501  0.00000000000E+00  0.00000000000E+00  0.19314661402E+04  0.19314661402E+04  0.50400001928E-02 0.  1.
        1   -1    0    0  501    0  0.00000000000E+00  0.00000000000E+00 -0.74950133645E+03  0.74950133647E+03  0.50400001928E-02 0. -1.
    10030    2    1    2    0    0  0.00000000000E+00  0.00000000000E+00  0.11819648038E+04  0.26809674767E+04  0.24063552966E+04 0.  0.
        1    1    3    3  502    0  0.12374041814E+02 -0.14746409848E+03  0.19212885789E+04  0.19269791334E+04  0.50400001928E-02 0.  1.
       -1    1    3    3    0  502 -0.12374041814E+02  0.14746409848E+03 -0.73932377514E+03  0.75398834325E+03  0.50400001928E-02 0. -1.
</event>
<event>
 5   0  0.1198313E-05  0.2379331E+04  0.7818609E-02  0.8447282E-01
       -2   -1    0    0    0  501  0.00000000000E+00  0.00000000000E+00  0.10191021208E+04  0.10191021208E+04  0.25500000920E-02 0. -1.
        2   -1    0    0  501    0  0.00000000000E+00  0.00000000000E+00 -0.13887757333E+04  0.13887757333E+04  0.25500000920E-02 0.  1.
    10030    2    1    2    0    0  0.00000000000E+00  0.00000000000E+00 -0.36967361249E+03  0.24078778542E+04  0.23793312465E+04 0.  0.
        5    1    3    3  502    0  0.65920332456E+03 -0.77113377256E+03 -0.81364980052E+03  0.13004785297E+04  0.46999998093E+01 0.  1.
       -5    1    3    3    0  502 -0.65920332456E+03  0.77113377256E+03  0.44397618803E+03  0.11073993245E+04  0.46999998093E+01 0. -1.
</event>
<event>
 5   0  0.1168435E-05  0.2409958E+04  0.7818609E-02  0.8435785E-01
        2   -1    0    0  501    0  0.00000000000E+00  0.00000000000E+00  0.14672587587E+04  0.14672587587E+04  0.25500000920E-02 0. -1.
       -2   -1    0    0    0  501  0.00000000000E+00  0.00000000000E+00 -0.98958344807E+03  0.98958344807E+03  0.25500000920E-02 0.  1.
    10030    2    1    2    0    0  0.00000000000E+00  0.00000000000E+00  0.47767531063E+03  0.24568422068E+04  0.24099584906E+04 0.  0.
        1    1    3    3  502    0 -0.56730762610E+03 -0.49993489764E+03  0.11952802554E+04  0.14143789214E+04  0.50400001928E-02 0. -1.
       -1    1    3    3    0  502  0.56730762610E+03  0.49993489764E+03 -0.71760494475E+03  0.10424632853E+04  0.50400001928E-02 0.  1.
</event>
<event>
 5   0  0.5042742E-06  0.2398373E+04  0.7818609E-02  0.8440113E-01
        1   -1    0    0  501    0  0.00000000000E+00  0.00000000000E+00  0.17294739549E+04  0.17294739549E+04  0.50400001928E-02 0.  1.
       -1   -1    0    0    0  501  0.00000000000E+00  0.00000000000E+00 -0.83149471508E+03  0.83149471510E+03  0.50400001928E-02 0. -1.
    10030    2    1    2    0    0  0.00000000000E+00  0.00000000000E+00  0.89797923982E+03  0.25609686700E+04  0.23983731598E+04 0.  0.
        5    1    3    3  502    0 -0.34986022535E+03  0.11164098031E+04  0.16798862033E+03  0.11819540144E+04  0.46999998093E+01 0.  1.
       -5    1    3    3    0  502  0.34986022535E+03 -0.11164098031E+04  0.72999061949E+03  0.13790146556E+04  0.46999998093E+01 0. -1.
</event>
<event>
 5   0  0.5104174E-06  0.2398519E+04  0.7818609E-02  0.8440058E-01
       -1   -1    0    0    0  501  0.00000000000E+00  0.00000000000E+00  0.11356061951E+04  0.11356061951E+04  0.50400001928E-02 0. -1.
        1   -1    0    0  501    0  0.00000000000E+00  0.00000000000E+00 -0.12664811523E+04  0.12664811523E+04  0.50400001928E-02 0.  1.
    10030    2    1    2    0    0  0.00000000000E+00  0.00000000000E+00 -0.13087495721E+03  0.24020873475E+04  0.23985194121E+04 0.  0.
        3    1    3    3  502    0  0.61456877767E+03 -0.90148978099E+03 -0.56401860651E+03  0.12282082911E+04  0.10100000352E+00 0.  1.
       -3    1    3    3    0  502 -0.61456877767E+03  0.90148978099E+03  0.43314364930E+03  0.11738790563E+04  0.10100000352E+00 0. -1.
</event>
<event>
 5   0  0.1198313E-05  0.2397666E+04  0.7818609E-02  0.8440378E-01
       -2   -1    0    0    0  501  0.00000000000E+00  0.00000000000E+00  0.90583731406E+03  0.90583731407E+03  0.25500000920E-02 0. -1.
        2   -1    0    0  501    0  0.00000000000E+00  0.00000000000E+00 -0.15865983774E+04  0.15865983774E+04  0.25500000920E-02 0.  1.
    10030    2    1    2    0    0  0.00000000000E+00  0.00000000000E+00 -0.68076106335E+03  0.24924356915E+04  0.23976655419E+04 0.  0.
        5    1    3    3  502    0 -0.10878708053E+04 -0.48291758511E+03 -0.48923847681E+03  0.12868755419E+04  0.46999998093E+01 0. -1.
       -5    1    3    3    0  502  0.10878708053E+04  0.48291758511E+03 -0.19152258654E+03  0.12055601496E+04  0.46999998093E+01 0.  1.
</event>
<event>
 5   0  0.5104174E-06  0.2407527E+04  0.7818609E-02  0.8436691E-01
       -1   -1    0    0    0  501  0.00000000000E+00  0.00000000000E+00  0.17294230011E+04  0.17294230011E+04  0.50400001928E-02 0. -1.
        1   -1    0    0  501    0  0.00000000000E+00  0.00000000000E+00 -0.83787838152E+03  0.83787838154E+03  0.50400001928E-02 0.  1.
    10030    2    1    2    0    0  0.00000000000E+00  0.00000000000E+00  0.89154461954E+03  0.25673013826E+04  0.24075266521E+04 0.  0.
        3    1    3    3  502    0 -0.82302931027E+02 -0.70160200370E+03  0.14851507957E+04  0.16445947951E+04  0.10100000352E+00 0. -1.
       -3    1    3    3    0  502  0.82302931027E+02  0.70160200370E+03 -0.59360617613E+03  0.92270658749E+03  0.10100000352E+00 0.  1.
</event>
<event>
 5   0  0.1174210E-05  0.2347170E+04  0.7818609E-02  0.8459552E-01
        2   -1    0    0  501    0  0.00000000000E+00  0.00000000000E+00  0.18595077062E+04  0.18595077062E+04  0.25500000920E-02 0. -1.
       -2   -1    0    0    0  501  0.00000000000E+00  0.00000000000E+00 -0.74068062790E+03  0.74068062790E+03  0.25500000920E-02 0.  1.
    10030    2    1    2    0    0  0.00000000000E+00  0.00000000000E+00  0.11188270783E+04  0.26001883341E+04  0.23471696448E+04 0.  0.
        3    1    3    3  502    0 -0.10854256955E+03 -0.75701954295E+03 -0.42673846572E+03  0.87576583979E+03  0.10100000352E+00 0.  1.
       -3    1    3    3    0  502  0.10854256955E+03  0.75701954295E+03  0.15455655440E+04  0.17244224943E+04  0.10100000352E+00 0. -1.
</event>
<event>
 5   0  0.5064437E-06  0.2354931E+04  0.7818609E-02  0.8456572E-01
       -1   -1    0    0    0  501  0.00000000000E+00  0.00000000000E+00  0.84479478895E+03  0.84479478896E+03  0.50400001928E-02 0.  1.
        1   -1    0    0  501    0  0.00000000000E+00  0.00000000000E+00 -0.16411384277E+04  0.16411384277E+04  0.50400001928E-02 0. -1.
    10030    2    1    2    0    0  0.00000000000E+00  0.00000000000E+00 -0.79634363871E+03  0.24859332166E+04  0.23549311596E+04 0.  0.
        2    1    3    3  502    0 -0.11675814089E+04 -0.15070201254E+03 -0.42100242840E+03  0.12502801637E+04  0.25500000920E-02 0.  1.
       -2    1    3    3    0  502  0.11675814089E+04  0.15070201254E+03 -0.37534121032E+03  0.12356530529E+04  0.25500000920E-02 0. -1.
</event>
<event>
 5   0  0.1168435E-05  0.2406363E+04  0.7818609E-02  0.8437125E-01
        2   -1    0    0  501    0  0.00000000000E+00  0.00000000000E+00  0.10591838723E+04  0.10591838723E+04  0.25500000920E-02 0. -1.
       -2   -1    0    0    0  501  0.00000000000E+00  0.00000000000E+00 -0.13667555322E+04  0.13667555322E+04  0.25500000920E-02 0.  1.
    10030    2    1    2    0    0  0.00000000000E+00  0.00000000000E+00 -0.30757165983E+03  0.24259394045E+04  0.24063627466E+04 0.  0.
        1    1    3    3  502    0 -0.87321932107E+03  0.65068588950E+03 -0.66955453480E+03  0.12783612105E+04  0.50400001928E-02 0. -1.
       -1    1    3    3    0  502  0.87321932107E+03 -0.65068588950E+03  0.36198287497E+03  0.11475781940E+04  0.50400001928E-02 0.  1.
</event>
<event>
 5   0  0.5064437E-06  0.2420272E+04  0.7818609E-02  0.8431953E-01
        1   -1    0    0  501    0  0.00000000000E+00  0.00000000000E+00  0.11665106984E+04  0.11665106984E+04  0.50400001928E-02 0. -1.
       -1   -1    0    0    0  501  0.00000000000E+00  0.00000000000E+00 -0.12553928329E+04  0.12553928329E+04  0.50400001928E-02 0.  1.
    10030    2    1    2    0    0  0.00000000000E+00  0.00000000000E+00 -0.88882134497E+02  0.24219035313E+04  0.24202720263E+04 0.  0.
        2    1    3    3  502    0 -0.11839260132E+04 -0.25049556156E+03 -0.43858231030E+02  0.12109303760E+04  0.25500000920E-02 0.  1.
       -2    1    3    3    0  502  0.11839260132E+04  0.25049556156E+03 -0.45023903467E+02  0.12109731553E+04  0.25500000920E-02 0. -1.
</event>
<event>
 5   0  0.1154897E-05  0.2404214E+04  0.7818609E-02  0.8437928E-01
       -2   -1    0    0    0  501  0.00000000000E+00  0.00000000000E+00  0.94511578964E+03  0.94511578964E+03  0.25500000920E-02 0. -1.
        2   -1    0    0  501    0  0.00000000000E+00  0.00000000000E+00 -0.15289779011E+04  0.15289779011E+04  0.25500000920E-02 0.  1.
    10030    2    1    2    0    0  0.00000000000E+00  0.00000000000E+00 -0.58386211146E+03  0.24740936907E+04  0.24042139309E+04 0.  0.
        4    1    3    3  502    0 -0.64424543659E+03 -0.85902280963E+03 -0.84809044750E+03  0.13682950669E+04  0.12699999809E+01 0.  1.
       -4    1    3    3    0  502  0.64424543659E+03  0.85902280963E+03  0.26422833605E+03  0.11057986238E+04  0.12699999809E+01 0. -1.
</event>
<event>
 5   0  0.5034479E-06  0.2396925E+04  0.7818609E-02  0.8440656E-01
        1   -1    0    0  501    0  0.00000000000E+00  0.00000000000E+00  0.12338776505E+04  0.12338776505E+04  0.50400001928E-02 0. -1.
       -1   -1    0    0    0  501  0.00000000000E+00  0.00000000000E+00 -0.11640636567E+04  0.11640636567E+04  0.50400001928E-02 0.  1.
    10030    2    1    2    0    0  0.00000000000E+00  0.00000000000E+00  0.69813993835E+02  0.23979413072E+04  0.23969248046E+04 0.  0.
        4    1    3    3  502    0  0.76476346080E+03  0.86084704003E+03 -0.29748341944E+03  0.11892933932E+04  0.12699999809E+01 0.  1.
       -4    1    3    3    0  502 -0.76476346080E+03 -0.86084704003E+03  0.36729741328E+03  0.12086479140E+04  0.12699999809E+01 0. -1.
</event>
<event>
 5   0  0.4067750E-06  0.2421717E+04  0.7818609E-02  0.8431417E-01
        4   -1    0    0  501    0  0.00000000000E+00  0.00000000000E+00  0.74601029732E+03  0.74601137834E+03  0.12699999809E+01 0.  1.
       -4   -1    0    0    0  501  0.00000000000E+00  0.00000000000E+00 -0.19653573037E+04  0.19653577140E+04  0.12699999809E+01 0. -1.
    10030    2    1    2    0    0  0.00000000000E+00  0.00000000000E+00 -0.12193470064E+04  0.27113690924E+04  0.24217174140E+04 0.  0.
        5    1    3    3  502    0 -0.53380001298E+03  0.45584896089E+03 -0.17142973491E+04  0.18524519481E+04  0.46999998093E+01 0. -1.
       -5    1    3    3    0  502  0.53380001298E+03 -0.45584896089E+03  0.49495034269E+03  0.85891714427E+03  0.46999998093E+01 0.  1.
</event>
<event>
 5   0  0.5042742E-06  0.2394073E+04  0.7818609E-02  0.8441726E-01
       -1   -1    0    0    0  501  0.00000000000E+00  0.00000000000E+00  0.19758530811E+04  0.19758530811E+04  0.50400001928E-02 0. -1.
        1   -1    0    0  501    0  0.00000000000E+00  0.00000000000E+00 -0.72520388474E+03  0.72520388475E+03  0.50400001928E-02 0.  1.
    10030    2    1    2    0    0  0.00000000000E+00  0.00000000000E+00  0.12506491964E+04  0.27010569659E+04  0.23940729564E+04 0.  0.
        5    1    3    3  502    0 -0.74059108060E+03  0.55457467539E+03  0.14822170424E+04  0.17472886625E+04  0.46999998093E+01 0. -1.
       -5    1    3    3    0  502  0.74059108060E+03 -0.55457467539E+03 -0.23156784603E+03  0.95376830339E+03  0.46999998093E+01 0.  1.
</event>
<event>
 5   0  0.5064437E-06  0.2402300E+04  0.7818609E-02  0.8438643E-01
       -1   -1    0    0    0  501  0.00000000000E+00  0.00000000000E+00  0.90483009567E+03  0.90483009568E+03  0.50400001928E-02 0.  1.
        1   -1    0    0  501    0  0.00000000000E+00  0.00000000000E+00 -0.15945102225E+04  0.15945102225E+04  0.50400001928E-02 0. -1.
    10030    2    1    2    0    0  0.00000000000E+00  0.00000000000E+00 -0.68968012685E+03  0.24993403182E+04  0.24022995960E+04 0.  0.
        2    1    3    3  502    0 -0.91581084877E+03  0.77501526496E+03 -0.40552876679E+03  0.12664168952E+04  0.25500000920E-02 0. -1.
       -2    1    3    3    0  502  0.91581084877E+03 -0.77501526496E+03 -0.28415136006E+03  0.12329234230E+04  0.25500000920E-02 0.  1.
</event>
<event>
 5   0  0.5104174E-06  0.2447209E+04  0.7818609E-02  0.8422038E-01
        1   -1    0    0  501    0  0.00000000000E+00  0.00000000000E+00  0.11185736498E+04  0.11185736498E+04  0.50400001928E-02 0.  1.
       -1   -1    0    0    0  501  0.00000000000E+00  0.00000000000E+00 -0.13384975047E+04  0.13384975047E+04  0.50400001928E-02 0. -1.
    10030    2    1    2    0    0  0.00000000000E+00  0.00000000000E+00 -0.21992385495E+03  0.24570711545E+04  0.24472090545E+04 0.  0.
        3    1    3    3  502    0  0.32220441100E+03 -0.81234241644E+03 -0.96985489310E+03  0.13055015925E+04  0.10100000352E+00 0. -1.
       -3    1    3    3    0  502 -0.32220441100E+03  0.81234241644E+03  0.74993103815E+03  0.11515695620E+04  0.10100000352E+00 0.  1.
</event>
<event>
 5   0  0.5042742E-06  0.2405963E+04  0.7818609E-02  0.8437274E-01
        1   -1    0    0  501    0  0.00000000000E+00  0.00000000000E+00  0.77758048078E+03  0.77758048080E+03  0.50400001928E-02 0.  1.
       -1   -1    0    0    0  501  0.00000000000E+00  0.00000000000E+00 -0.18611121881E+04  0.18611121881E+04  0.50400001928E-02 0. -1.
    10030    2    1    2    0    0  0.00000000000E+00  0.00000000000E+00 -0.10835317073E+04  0.26386926689E+04  0.24059630172E+04 0.  0.
        5    1    3    3  502    0  0.44588178303E+03 -0.61498320880E+03 -0.15648027864E+04  0.17394380592E+04  0.46999998093E+01 0. -1.
       -5    1    3    3    0  502 -0.44588178303E+03  0.61498320880E+03  0.48127107905E+03  0.89925460971E+03  0.46999998093E+01 0.  1.
</event>
<event>
 5   0  0.5042742E-06  0.2401940E+04  0.7818609E-02  0.8438778E-01
        1   -1    0    0  501    0  0.00000000000E+00  0.00000000000E+00  0.13708024588E+04  0.13708024588E+04  0.50400001928E-02 0.  1.
       -1   -1    0    0    0  501  0.00000000000E+00  0.00000000000E+00 -0.10521783602E+04  0.10521783602E+04  0.50400001928E-02 0. -1.
    10030    2    1    2    0    0  0.00000000000E+00  0.00000000000E+00  0.31862409860E+03  0.24229808191E+04  0.24019397856E+04 0.  0.
        5    1    3    3  502    0  0.74444819376E+03 -0.79490849313E+03  0.66993194950E+03  0.12786373734E+04  0.46999998093E+01 0.  1.
       -5    1    3    3    0  502 -0.74444819376E+03  0.79490849313E+03 -0.35130785090E+03  0.11443434457E+04  0.46999998093E+01 0. -1.
</event>
<event>
 5   0  0.5042742E-06  0.2351607E+04  0.7818609E-02  0.8457847E-01
       -1   -1    0    0    0  501  0.00000000000E+00  0.00000000000E+00  0.10016448722E+04  0.10016448722E+04  0.50400001928E-02 0. -1.
        1   -1    0    0  501    0  0.00000000000E+00  0.00000000000E+00 -0.13802435187E+04  0.13802435188E+04  0.50400001928E-02 0.  1.
    10030    2    1    2    0    0  0.00000000000E+00  0.00000000000E+00 -0.37859864659E+03  0.23818883909E+04  0.23516069764E+04 0.  0.
        5    1    3    3  502    0 -0.62621929333E+03 -0.98820124118E+03 -0.30828307505E+03  0.12098565373E+04  0.46999998093E+01 0. -1.
       -5    1    3    3    0  502  0.62621929333E+03  0.98820124118E+03 -0.70315571545E+02  0.11720318537E+04  0.46999998093E+01 0.  1.
</event>
<event>
 5   0  0.1154897E-05  0.2409900E+04  0.7818609E-02  0.8435806E-01
       -2   -1    0    0    0  501  0.00000000000E+00  0.00000000000E+00  0.97508518438E+03  0.97508518438E+03  0.25500000920E-02 0. -1.
        2   -1    0    0  501    0  0.00000000000E+00  0.00000000000E+00 -0.14890033445E+04  0.14890033445E+04  0.25500000920E-02 0.  1.
    10030    2    1    2    0    0  0.00000000000E+00  0.00000000000E+00 -0.51391816008E+03  0.24640885288E+04  0.24099004964E+04 0.  0.
        4    1    3    3  502    0 -0.29685058595E+03  0.11475859328E+04 -0.35691345727E+02  0.11858959603E+04  0.12699999809E+01 0. -1.
       -4    1    3    3    0  502  0.29685058595E+03 -0.11475859328E+04 -0.47822681435E+03  0.12781925686E+04  0.12699999809E+01 0.  1.
</event>
<event>
 5   0  0.5034479E-06  0.2442892E+04  0.7818609E-02  0.8423618E-01
       -1   -1    0    0    0  501  0.00000000000E+00  0.00000000000E+00  0.10889023575E+04  0.10889023575E+04  0.50400001928E-02 0. -1.
        1   -1    0    0  501    0  0.00000000000E+00  0.00000000000E+00 -0.13701233018E+04  0.13701233018E+04  0.50400001928E-02 0.  1.
    10030    2    1    2    0    0  0.00000000000E+00  0.00000000000E+00 -0.28122094424E+03  0.24590256593E+04  0.24428921330E+04 0.  0.
        4    1    3    3  502    0  0.90658347632E+03  0.68849372731E+02  0.68043254910E+03  0.11356160894E+04  0.12699999809E+01 0. -1.
       -4    1    3    3    0  502 -0.90658347632E+03 -0.68849372731E+02 -0.96165349333E+03  0.13234095699E+04  0.12699999809E+01 0.  1.
</event>
<event>
 5   0  0.1174210E-05  0.2400599E+04  0.7818609E-02  0.8439279E-01
       -2   -1    0    0    0  501  0.00000000000E+00  0.00000000000E+00  0.12622858188E+04  0.12622858188E+04  0.25500000920E-02 0.  1.
        2   -1    0    0  501    0  0.00000000000E+00  0.00000000000E+00 -0.11413573280E+04  0.11413573280E+04  0.25500000920E-02 0. -1.
    10030    2    1    2    0    0  0.00000000000E+00  0.00000000000E+00  0.12092849083E+03  0.24036431468E+04  0.24005992330E+04 0.  0.
        3    1    3    3  502    0 -0.84388878110E+03  0.79844477657E+03  0.36260309767E+03  0.12170223304E+04  0.10100000352E+00 0.  1.
       -3    1    3    3    0  502  0.84388878110E+03 -0.79844477657E+03 -0.24167460684E+03  0.11866208164E+04  0.10100000352E+00 0. -1.
</event>
<event>
 5   0  0.1168435E-05  0.2403969E+04  0.7818609E-02  0.8438019E-01
       -2   -1    0    0    0  501  0.00000000000E+00  0.00000000000E+00  0.12266428770E+04  0.12266428770E+04  0.25500000920E-02 0. -1.
        2   -1    0    0  501    0  0.00000000000E+00  0.00000000000E+00 -0.11778221698E+04  0.11778221698E+04  0.25500000920E-02 0.  1.
    10030    2    1    2    0    0  0.00000000000E+00  0.00000000000E+00  0.48820707191E+02  0.24044650467E+04  0.24039693633E+04 0.  0.
        1    1    3    3  502    0  0.47767284227E+03 -0.88654359750E+03  0.68077449618E+03  0.12155594635E+04  0.50400001928E-02 0. -1.
       -1    1    3    3    0  502 -0.47767284227E+03  0.88654359750E+03 -0.63195378899E+03  0.11889055833E+04  0.50400001928E-02 0.  1.
</event>
<event>
 5   0  0.5034479E-06  0.2398548E+04  0.7818609E-02  0.8440047E-01
        1   -1    0    0  501    0  0.00000000000E+00  0.00000000000E+00  0.13658518297E+04  0.13658518297E+04  0.50400001928E-02 0.  1.
       -1   -1    0    0    0  501  0.00000000000E+00  0.00000000000E+00 -0.10530118637E+04  0.10530118637E+04  0.50400001928E-02 0. -1.
    10030    2    1    2    0    0  0.00000000000E+00  0.00000000000E+00  0.31283996594E+03  0.24188636934E+04  0.23985480448E+04 0.  0.
        4    1    3    3  502    0  0.42172926454E+03  0.79401986605E+03 -0.64398596652E+03  0.11059125907E+04  0.12699999809E+01 0. -1.
       -4    1    3    3    0  502 -0.42172926454E+03 -0.79401986605E+03  0.95682593246E+03  0.13129511027E+04  0.12699999809E+01 0.  1.
</event>
<event>
 5   0  0.1168435E-05  0.2539634E+04  0.7818609E-02  0.8389000E-01
       -2   -1    0    0    0  501  0.00000000000E+00  0.00000000000E+00  0.17453843488E+04  0.17453843488E+04  0.25500000920E-02 0.  1.
        2   -1    0    0  501    0  0.00000000000E+00  0.00000000000E+00 -0.92382805084E+03  0.92382805085E+03  0.25500000920E-02 0. -1.
    10030    2    1    2    0    0  0.00000000000E+00  0.00000000000E+00  0.82155629791E+03  0.26692123996E+04  0.25396338483E+04 0.  0.
        1    1    3    3  502    0 -0.59911887351E+03 -0.18663551703E+03  0.15710321850E+04  0.16917205346E+04  0.50400001928E-02 0.  1.
       -1    1    3    3    0  502  0.59911887351E+03  0.18663551703E+03 -0.74947588709E+03  0.97749186501E+03  0.50400001928E-02 0. -1.
</event>
<event>
 5   0  0.1168435E-05  0.2304150E+04  0.7818609E-02  0.8476287E-01
        2   -1    0    0  501    0  0.00000000000E+00  0.00000000000E+00  0.10728847233E+04  0.10728847233E+04  0.25500000920E-02 0. -1.
       -2   -1    0    0    0  501  0.00000000000E+00  0.00000000000E+00 -0.12371105793E+04  0.12371105793E+04  0.25500000920E-02 0.  1.
    10030    2    1    2    0    0  0.00000000000E+00  0.00000000000E+00 -0.16422585599E+03  0.23099953025E+04  0.23041502047E+04 0.  0.
        1    1    3    3  502    0 -0.19668405056E+03  0.29672507166E+03  0.10163611971E+04  0.10769031836E+04  0.50400001928E-02 0. -1.
       -1    1    3    3    0  502  0.19668405056E+03 -0.29672507166E+03 -0.11805870531E+04  0.12330921189E+04  0.50400001928E-02 0.  1.
</event>
<event>
 5   0  0.5064437E-06  0.2399628E+04  0.7818609E-02  0.8439643E-01
       -1   -1    0    0    0  501  0.00000000000E+00  0.00000000000E+00  0.96637500077E+03  0.96637500078E+03  0.50400001928E-02 0. -1.
        1   -1    0    0  501    0  0.00000000000E+00  0.00000000000E+00 -0.14896427357E+04  0.14896427357E+04  0.50400001928E-02 0.  1.
    10030    2    1    2    0    0  0.00000000000E+00  0.00000000000E+00 -0.52326773497E+03  0.24560177365E+04  0.23996278878E+04 0.  0.
        2    1    3    3  502    0 -0.30048872189E+03 -0.11258274467E+04  0.31045070131E+02  0.11656520528E+04  0.25500000920E-02 0. -1.
       -2    1    3    3    0  502  0.30048872189E+03  0.11258274467E+04 -0.55431280510E+03  0.12903656837E+04  0.25500000920E-02 0.  1.
</event>
<event>
 5   0  0.1168435E-05  0.2385504E+04  0.7818609E-02  0.8444951E-01
       -2   -1    0    0    0  501  0.00000000000E+00  0.00000000000E+00  0.82023268250E+03  0.82023268250E+03  0.25500000920E-02 0.  1.
        2   -1    0    0  501    0  0.00000000000E+00  0.00000000000E+00 -0.17344552953E+04  0.17344552953E+04  0.25500000920E-02 0. -1.
    10030    2    1    2    0    0  0.00000000000E+00  0.00000000000E+00 -0.91422261284E+03  0.25546879778E+04  0.23855036530E+04 0.  0.
        1    1    3    3  502    0 -0.97371402329E+03  0.68523119021E+03 -0.53280765320E+03  0.13044327420E+04  0.50400001928E-02 0.  1.
       -1    1    3    3    0  502  0.97371402329E+03 -0.68523119021E+03 -0.38141495963E+03  0.12502552358E+04  0.50400001928E-02 0. -1.
</event>
<event>
 5   0  0.5034479E-06  0.2407232E+04  0.7818609E-02  0.8436801E-01
       -1   -1    0    0    0  501  0.00000000000E+00  0.00000000000E+00  0.70445137471E+03  0.70445137472E+03  0.50400001928E-02 0. -1.
        1   -1    0    0  501    0  0.00000000000E+00  0.00000000000E+00 -0.20564824515E+04  0.20564824515E+04  0.50400001928E-02 0.  1.
    10030    2    1    2    0    0  0.00000000000E+00  0.00000000000E+00 -0.13520310768E+04  0.27609338262E+04  0.24072323445E+04 0.  0.
        4    1    3    3  502    0 -0.10663966969E+04  0.43061226093E+03 -0.26879551531E+03  0.11810510050E+04  0.12699999809E+01 0. -1.
       -4    1    3    3    0  502  0.10663966969E+04 -0.43061226093E+03 -0.10832355615E+04  0.15798828213E+04  0.12699999809E+01 0.  1.
</event>
<event>
 5   0  0.5064437E-06  0.2393286E+04  0.7818609E-02  0.8442021E-01
       -1   -1    0    0    0  501  0.00000000000E+00  0.00000000000E+00  0.70940420815E+03  0.70940420817E+03  0.50400001928E-02 0.  1.
        1   -1    0    0  501    0  0.00000000000E+00  0.00000000000E+00 -0.20185314559E+04  0.20185314560E+04  0.50400001928E-02 0. -1.
    10030    2    1    2    0    0  0.00000000000E+00  0.00000000000E+00 -0.13091272478E+04  0.27279356641E+04  0.23932862003E+04 0.  0.
        2    1    3    3  502    0 -0.21894795088E+03 -0.12824112817E+03 -0.19875152336E+04  0.20036468741E+04  0.25500000920E-02 0. -1.
       -2    1    3    3    0  502  0.21894795088E+03  0.12824112817E+03  0.67838798579E+03  0.72428879007E+03  0.25500000920E-02 0.  1.
</event>
<event>
 5   0  0.5196696E-06  0.2407533E+04  0.7818609E-02  0.8436689E-01
        1   -1    0    0  501    0  0.00000000000E+00  0.00000000000E+00  0.16083575698E+04  0.16083575698E+04  0.50400001928E-02 0.  1.
       -1   -1    0    0    0  501  0.00000000000E+00  0.00000000000E+00 -0.90095252185E+03  0.90095252187E+03  0.50400001928E-02 0. -1.
    10030    2    1    2    0    0  0.00000000000E+00  0.00000000000E+00  0.70740504794E+03  0.25093100917E+04  0.24075330183E+04 0.  0.
        1    1    3    3  502    0 -0.61389683195E+03 -0.27806109422E+03  0.13932982570E+04  0.15477297327E+04  0.50400001928E-02 0.  1.
       -1    1    3    3    0  502  0.61389683195E+03  0.27806109422E+03 -0.68589320911E+03  0.96158035895E+03  0.50400001928E-02 0. -1.
</event>
<event>
 5   0  0.1168435E-05  0.2401421E+04  0.7818609E-02  0.8438972E-01
       -2   -1    0    0    0  501  0.00000000000E+00  0.00000000000E+00  0.65982231958E+03  0.65982231958E+03  0.25500000920E-02 0.  1.
        2   -1    0    0  501    0  0.00000000000E+00  0.00000000000E+00 -0.21849905897E+04  0.21849905897E+04  0.25500000920E-02 0. -1.
    10030    2    1    2    0    0  0.00000000000E+00  0.00000000000E+00 -0.15251682702E+04  0.28448129093E+04  0.24014208787E+04 0.  0.
        1    1    3    3  502    0 -0.81795541321E+03 -0.79657233404E+03 -0.32230840538E+03  0.11863647203E+04  0.50400001928E-02 0. -1.
       -1    1    3    3    0  502  0.81795541321E+03  0.79657233404E+03 -0.12028598648E+04  0.16584481890E+04  0.50400001928E-02 0.  1.
</event>
<event>
 5   0  0.5196696E-06  0.2378193E+04  0.7818609E-02  0.8447713E-01
       -1   -1    0    0    0  501  0.00000000000E+00  0.00000000000E+00  0.16879605895E+04  0.16879605895E+04  0.50400001928E-02 0.  1.
        1   -1    0    0  501    0  0.00000000000E+00  0.00000000000E+00 -0.83766761848E+03  0.83766761850E+03  0.50400001928E-02 0. -1.
    10030    2    1    2    0    0  0.00000000000E+00  0.00000000000E+00  0.85029297100E+03  0.25256282080E+04  0.23781925297E+04 0.  0.
        1    1    3    3  502    0  0.58122401826E+03 -0.42710872979E+03 -0.57882161932E+03  0.92481224769E+03  0.50400001928E-02 0. -1.
       -1    1    3    3    0  502 -0.58122401826E+03  0.42710872979E+03  0.14291145903E+04  0.16008159603E+04  0.50400001928E-02 0.  1.
</event>
<event>
 5   0  0.5034479E-06  0.2404585E+04  0.7818609E-02  0.8437789E-01
        1   -1    0    0  501    0  0.00000000000E+00  0.00000000000E+00  0.13092920017E+04  0.13092920017E+04  0.50400001928E-02 0.  1.
       -1   -1    0    0    0  501  0.00000000000E+00  0.00000000000E+00 -0.11040374077E+04  0.11040374077E+04  0.50400001928E-02 0. -1.
    10030    2    1    2    0    0  0.00000000000E+00  0.00000000000E+00  0.20525459397E+03  0.24133294094E+04  0.24045850765E+04 0.  0.
        4    1    3    3  502    0 -0.33385117826E+03  0.16188445642E+03 -0.10451409056E+04  0.11090465779E+04  0.12699999809E+01 0. -1.
       -4    1    3    3    0  502  0.33385117826E+03 -0.16188445642E+03  0.12503954996E+04  0.13042828316E+04  0.12699999809E+01 0.  1.
</event>
<event>
 5   0  0.1169371E-05  0.2392724E+04  0.7818609E-02  0.8442233E-01
        2   -1    0    0  501    0  0.00000000000E+00  0.00000000000E+00  0.14286829725E+04  0.14286829725E+04  0.25500000920E-02 0. -1.
       -2   -1    0    0    0  501  0.00000000000E+00  0.00000000000E+00 -0.10018189931E+04  0.10018189931E+04  0.25500000920E-02 0.  1.
    10030    2    1    2    0    0  0.00000000000E+00  0.00000000000E+00  0.42686397937E+03  0.24305019657E+04  0.23927237509E+04 0.  0.
        2    1    3    3  502    0 -0.10084693689E+04 -0.61544070049E+03  0.22031898839E+02  0.11816357850E+04  0.25500000920E-02 0. -1.
       -2    1    3    3    0  502  0.10084693689E+04  0.61544070049E+03  0.40483208053E+03  0.12488661807E+04  0.25500000920E-02 0.  1.
</event>
<event>
 5   0  0.1169371E-05  0.2393433E+04  0.7818609E-02  0.8441966E-01
        2   -1    0    0  501    0  0.00000000000E+00  0.00000000000E+00  0.13804530158E+04  0.13804530158E+04  0.25500000920E-02 0. -1.
       -2   -1    0    0    0  501  0.00000000000E+00  0.00000000000E+00 -0.10374348414E+04  0.10374348414E+04  0.25500000920E-02 0.  1.
    10030    2    1    2    0    0  0.00000000000E+00  0.00000000000E+00  0.34301817440E+03  0.24178878571E+04  0.23934327276E+04 0.  0.
        2    1    3    3  502    0  0.13764860509E+03 -0.90235269997E+03 -0.61031222027E+03  0.10980293893E+04  0.25500000920E-02 0. -1.
       -2    1    3    3    0  502 -0.13764860509E+03  0.90235269997E+03  0.95333039467E+03  0.13198584678E+04  0.25500000920E-02 0.  1.
</event>
<event>
 5   0  0.1198313E-05  0.2375217E+04  0.7818609E-02  0.8448841E-01
       -2   -1    0    0    0  501  0.00000000000E+00  0.00000000000E+00  0.11680141793E+04  0.11680141793E+04  0.25500000920E-02 0.  1.
        2   -1    0    0  501    0  0.00000000000E+00  0.00000000000E+00 -0.12075315774E+04  0.12075315774E+04  0.25500000920E-02 0. -1.
    10030    2    1    2    0    0  0.00000000000E+00  0.00000000000E+00 -0.39517398087E+02  0.23755457567E+04  0.23752170463E+04 0.  0.
        5    1    3    3  502    0 -0.54681234905E+03  0.64176267058E+03 -0.85625285637E+03  0.12016880271E+04  0.46999998093E+01 0. -1.
       -5    1    3    3    0  502  0.54681234905E+03 -0.64176267058E+03  0.81673545828E+03  0.11738577296E+04  0.46999998093E+01 0.  1.
</event>
<event>
 5   0  0.1168435E-05  0.2399762E+04  0.7818609E-02  0.8439593E-01
        2   -1    0    0  501    0  0.00000000000E+00  0.00000000000E+00  0.13204156646E+04  0.13204156646E+04  0.25500000920E-02 0.  1.
       -2   -1    0    0    0  501  0.00000000000E+00  0.00000000000E+00 -0.10903496492E+04  0.10903496492E+04  0.25500000920E-02 0. -1.
    10030    2    1    2    0    0  0.00000000000E+00  0.00000000000E+00  0.23006601544E+03  0.24107653138E+04  0.23997622854E+04 0.  0.
        1    1    3    3  502    0 -0.34186966109E+02 -0.49274968836E+03  0.12135474493E+04  0.13102169346E+04  0.50400001928E-02 0.  1.
       -1    1    3    3    0  502  0.34186966109E+02  0.49274968836E+03 -0.98348143387E+03  0.11005483791E+04  0.50400001928E-02 0. -1.
</event>
<event>
 5   0  0.5104174E-06  0.2447097E+04  0.7818609E-02  0.8422079E-01
       -1   -1    0    0    0  501  0.00000000000E+00  0.00000000000E+00  0.85237892171E+03  0.85237892172E+03  0.50400001928E-02 0.  1.
        1   -1    0    0  501    0  0.00000000000E+00  0.00000000000E+00 -0.17563444555E+04  0.17563444555E+04  0.50400001928E-02 0. -1.
    10030    2    1    2    0    0  0.00000000000E+00  0.00000000000E+00 -0.90396553375E+03  0.26087233772E+04  0.24470970501E+04 0.  0.
        3    1    3    3  502    0  0.78063065990E+03 -0.83303094363E+03  0.17255515262E+02  0.11417629102E+04  0.10100000352E+00 0.  1.
       -3    1    3    3    0  502 -0.78063065990E+03  0.83303094363E+03 -0.92122104901E+03  0.14669604669E+04  0.10100000352E+00 0. -1.
</event>
<event>
 5   0  0.1154897E-05  0.2417042E+04  0.7818609E-02  0.8433151E-01
       -2   -1    0    0    0  501  0.00000000000E+00  0.00000000000E+00  0.79288482776E+03  0.79288482776E+03  0.25500000920E-02 0. -1.
        2   -1    0    0  501    0  0.00000000000E+00  0.00000000000E+00 -0.18420362678E+04  0.18420362678E+04  0.25500000920E-02 0.  1.
    10030    2    1    2    0    0  0.00000000000E+00  0.00000000000E+00 -0.10491514401E+04  0.26349210956E+04  0.24170416703E+04 0.  0.
        4    1    3    3  502    0 -0.10189201565E+04  0.41423228926E+03  0.21295716056E+02  0.11001099014E+04  0.12699999809E+01 0. -1.
       -4    1    3    3    0  502  0.10189201565E+04 -0.41423228926E+03 -0.10704471561E+04  0.15348111942E+04  0.12699999809E+01 0.  1.
</event>
<event>
 5   0  0.1198313E-05  0.2381297E+04  0.7818609E-02  0.8446539E-01
        2   -1    0    0  501    0  0.00000000000E+00  0.00000000000E+00  0.14400409796E+04  0.14400409796E+04  0.25500000920E-02 0. -1.
       -2   -1    0    0    0  501  0.00000000000E+00  0.00000000000E+00 -0.98444717175E+03  0.98444717176E+03  0.25500000920E-02 0.  1.
    10030    2    1    2    0    0  0.00000000000E+00  0.00000000000E+00  0.45559380785E+03  0.24244881514E+04  0.23812973519E+04 0.  0.
        5    1    3    3  502    0 -0.24799503765E+03  0.10269803990E+04  0.78678304841E+03  0.13172850617E+04  0.46999998093E+01 0. -1.
       -5    1    3    3    0  502  0.24799503765E+03 -0.10269803990E+04 -0.33118924057E+03  0.11072030896E+04  0.46999998093E+01 0.  1.
</event>
<event>
 5   0  0.1168435E-05  0.2278364E+04  0.7818609E-02  0.8486501E-01
        2   -1    0    0  501    0  0.00000000000E+00  0.00000000000E+00  0.14122051467E+04  0.14122051467E+04  0.25500000920E-02 0.  1.
       -2   -1    0    0    0  501  0.00000000000E+00  0.00000000000E+00 -0.91894233618E+03  0.91894233619E+03  0.25500000920E-02 0. -1.
    10030    2    1    2    0    0  0.00000000000E+00  0.00000000000E+00  0.49326281052E+03  0.23311474829E+04  0.22783635326E+04 0.  0.
        1    1    3    3  502    0 -0.29297474126E+02  0.28798840683E+03 -0.88068347401E+03  0.92703778018E+03  0.50400001928E-02 0. -1.
       -1    1    3    3    0  502  0.29297474126E+02 -0.28798840683E+03  0.13739462845E+04  0.14041097027E+04  0.50400001928E-02 0.  1.
</event>
<event>
 5   0  0.5196696E-06  0.2402230E+04  0.7818609E-02  0.8438669E-01
        1   -1    0    0  501    0  0.00000000000E+00  0.00000000000E+00  0.26541523177E+04  0.26541523177E+04  0.50400001928E-02 0.  1.
       -1   -1    0    0    0  501  0.00000000000E+00  0.00000000000E+00 -0.54355475432E+03  0.54355475435E+03  0.50400001928E-02 0. -1.
    10030    2    1    2    0    0  0.00000000000E+00  0.00000000000E+00  0.21105975634E+04  0.31977070720E+04  0.24022298899E+04 0.  0.
        1    1    3    3  502    0  0.21933623259E+03 -0.11498308856E+04  0.69698272401E+03  0.13623525116E+04  0.50400001928E-02 0. -1.
       -1    1    3    3    0  502 -0.21933623259E+03  0.11498308856E+04  0.14136148394E+04  0.18353545604E+04  0.50400001928E-02 0.  1.
</event>
<event>
 5   0  0.4067750E-06  0.2403050E+04  0.7818609E-02  0.8438362E-01
       -4   -1    0    0    0  501  0.00000000000E+00  0.00000000000E+00  0.11435903469E+04  0.11435910521E+04  0.12699999809E+01 0.  1.
        4   -1    0    0  501    0  0.00000000000E+00  0.00000000000E+00 -0.12623934624E+04  0.12623941012E+04  0.12699999809E+01 0. -1.
    10030    2    1    2    0    0  0.00000000000E+00  0.00000000000E+00 -0.11880311554E+03  0.24059851533E+04  0.24030502237E+04 0.  0.
        5    1    3    3  502    0 -0.54693364721E+02 -0.68499731840E+03  0.92741257918E+03  0.11542655121E+04  0.46999998093E+01 0.  1.
       -5    1    3    3    0  502  0.54693364721E+02  0.68499731840E+03 -0.10462156947E+04  0.12517196412E+04  0.46999998093E+01 0. -1.
</event>
<event>
 5   0  0.5064437E-06  0.2398497E+04  0.7818609E-02  0.8440066E-01
       -1   -1    0    0    0  501  0.00000000000E+00  0.00000000000E+00  0.16386535645E+04  0.16386535646E+04  0.50400001928E-02 0. -1.
        1   -1    0    0  501    0  0.00000000000E+00  0.00000000000E+00 -0.87767001244E+03  0.87767001245E+03  0.50400001928E-02 0.  1.
    10030    2    1    2    0    0  0.00000000000E+00  0.00000000000E+00  0.76098355211E+03  0.25163235770E+04  0.23984971081E+04 0.  0.
        2    1    3    3  502    0  0.60385535634E+03 -0.67465380948E+03 -0.44452226507E+03  0.10086620337E+04  0.25500000920E-02 0.  1.
       -2    1    3    3    0  502 -0.60385535634E+03  0.67465380948E+03  0.12055058172E+04  0.15076615433E+04  0.25500000920E-02 0. -1.
</event>
<event>
 5   0  0.1169371E-05  0.2400413E+04  0.7818609E-02  0.8439349E-01
        2   -1    0    0  501    0  0.00000000000E+00  0.00000000000E+00  0.13233469819E+04  0.13233469819E+04  0.25500000920E-02 0. -1.
       -2   -1    0    0    0  501  0.00000000000E+00  0.00000000000E+00 -0.10885248291E+04  0.10885248291E+04  0.25500000920E-02 0.  1.
    10030    2    1    2    0    0  0.00000000000E+00  0.00000000000E+00  0.23482215282E+03  0.24118718110E+04  0.24004133371E+04 0.  0.
        2    1    3    3  502    0 -0.18824892931E+02 -0.61692405756E+03  0.11516673791E+04  0.13066320911E+04  0.25500000920E-02 0. -1.
       -2    1    3    3    0  502  0.18824892931E+02  0.61692405756E+03 -0.91684522629E+03  0.11052397199E+04  0.25500000920E-02 0.  1.
</event>
<event>
 5   0  0.1154897E-05  0.2398295E+04  0.7818609E-02  0.8440142E-01
        2   -1    0    0  501    0  0.00000000000E+00  0.00000000000E+00  0.10440550626E+04  0.10440550626E+04  0.25500000920E-02 0. -1.
       -2   -1    0    0    0  501  0.00000000000E+00  0.00000000000E+00 -0.13772781033E+04  0.13772781033E+04  0.25500000920E-02 0.  1.
    10030    2    1    2    0    0  0.00000000000E+00  0.00000000000E+00 -0.33322304071E+03  0.24213331659E+04  0.23982945410E+04 0.  0.
        4    1    3    3  502    0  0.45859497456E+03 -0.49737080708E+03  0.83298305211E+03  0.10731027204E+04  0.12699999809E+01 0. -1.
       -4    1    3    3    0  502 -0.45859497456E+03  0.49737080708E+03 -0.11662060928E+04  0.13482304455E+04  0.12699999809E+01 0.  1.
</event>
<event>
 5   0  0.1198313E-05  0.2429415E+04  0.7818609E-02  0.8428573E-01
       -2   -1    0    0    0  501  0.00000000000E+00  0.00000000000E+00  0.12972634188E+04  0.12972634188E+04  0.25500000920E-02 0.  1.
        2   -1    0    0  501    0  0.00000000000E+00  0.00000000000E+00 -0.11374049787E+04  0.11374049787E+04  0.25500000920E-02 0. -1.
    10030    2    1    2    0    0  0.00000000000E+00  0.00000000000E+00  0.15985844014E+03  0.24346683975E+04  0.24294146384E+04 0.  0.
        5    1    3    3  502    0 -0.30447239911E+03  0.73376346350E+02  0.12560959329E+04  0.12945603936E+04  0.46999998093E+01 0.  1.
       -5    1    3    3    0  502  0.30447239911E+03 -0.73376346350E+02 -0.10962374928E+04  0.11401080039E+04  0.46999998093E+01 0. -1.
</event>
<event>
 5   0  0.5196696E-06  0.2398281E+04  0.7818609E-02  0.8440147E-01
        1   -1    0    0  501    0  0.00000000000E+00  0.00000000000E+00  0.15020017892E+04  0.15020017892E+04  0.50400001928E-02 0. -1.
       -1   -1    0    0    0  501  0.00000000000E+00  0.00000000000E+00 -0.95734765755E+03  0.95734765756E+03  0.50400001928E-02 0.  1.
    10030    2    1    2    0    0  0.00000000000E+00  0.00000000000E+00  0.54465413163E+03  0.24593494467E+04  0.23982809631E+04 0.  0.
        1    1    3    3  502    0 -0.16417694412E+03  0.11001099057E+04  0.73177819948E+03  0.13314260050E+04  0.50400001928E-02 0.  1.
       -1    1    3    3    0  502  0.16417694412E+03 -0.11001099057E+04 -0.18712406786E+03  0.11279234417E+04  0.50400001928E-02 0. -1.
</event>
<event>
 5   0  0.5034479E-06  0.2409948E+04  0.7818609E-02  0.8435788E-01
       -1   -1    0    0    0  501  0.00000000000E+00  0.00000000000E+00  0.16228123911E+04  0.16228123911E+04  0.50400001928E-02 0. -1.
        1   -1    0    0  501    0  0.00000000000E+00  0.00000000000E+00 -0.89472004647E+03  0.89472004648E+03  0.50400001928E-02 0.  1.
    10030    2    1    2    0    0  0.00000000000E+00  0.00000000000E+00  0.72809234465E+03  0.25175324376E+04  0.24099483630E+04 0.  0.
        4    1    3    3  502    0  0.10607860306E+04  0.44377216396E+03  0.74034985969E+03  0.13675965282E+04  0.12699999809E+01 0. -1.
       -4    1    3    3    0  502 -0.10607860306E+04 -0.44377216396E+03 -0.12257515044E+02  0.11499359094E+04  0.12699999809E+01 0.  1.
</event>
<event>
 5   0  0.1169371E-05  0.2398180E+04  0.7818609E-02  0.8440185E-01
       -2   -1    0    0    0  501  0.00000000000E+00  0.00000000000E+00  0.11096605666E+04  0.11096605666E+04  0.25500000920E-02 0.  1.
        2   -1    0    0  501    0  0.00000000000E+00  0.00000000000E+00 -0.12957267251E+04  0.12957267251E+04  0.25500000920E-02 0. -1.
    10030    2    1    2    0    0  0.00000000000E+00  0.00000000000E+00 -0.18606615852E+03  0.24053872917E+04  0.23981800198E+04 0.  0.
        2    1    3    3  502    0  0.53489775935E+03  0.96494563705E+03  0.37803907843E+03  0.11662543634E+04  0.25500000920E-02 0.  1.
       -2    1    3    3    0  502 -0.53489775935E+03 -0.96494563705E+03 -0.56410523696E+03  0.12391329282E+04  0.25500000920E-02 0. -1.
</event>
<event>
 5   0  0.1168435E-05  0.2409843E+04  0.7818609E-02  0.8435828E-01
       -2   -1    0    0    0  501  0.00000000000E+00  0.00000000000E+00  0.10945032219E+04  0.10945032219E+04  0.25500000920E-02 0. -1.
        2   -1    0    0  501    0  0.00000000000E+00  0.00000000000E+00 -0.13264790754E+04  0.13264790754E+04  0.25500000920E-02 0.  1.
    10030    2    1    2    0    0  0.00000000000E+00  0.00000000000E+00 -0.23197585350E+03  0.24209822974E+04  0.24098428346E+04 0.  0.
        1    1    3    3  502    0 -0.68419865211E+03 -0.98430931043E+03 -0.23838297587E+03  0.12222189073E+04  0.50400001928E-02 0. -1.
       -1    1    3    3    0  502  0.68419865211E+03  0.98430931043E+03  0.64071223744E+01  0.11987633901E+04  0.50400001928E-02 0.  1.
</event>
<event>
 5   0  0.1168435E-05  0.2395102E+04  0.7818609E-02  0.8441340E-01
       -2   -1    0    0    0  501  0.00000000000E+00  0.00000000000E+00  0.11222984726E+04  0.11222984726E+04  0.25500000920E-02 0. -1.
        2   -1    0    0  501    0  0.00000000000E+00  0.00000000000E+00 -0.12778488892E+04  0.12778488892E+04  0.25500000920E-02 0.  1.
    10030    2    1    2    0    0  0.00000000000E+00  0.00000000000E+00 -0.15555041652E+03  0.24001473618E+04  0.23951015482E+04 0.  0.
        1    1    3    3  502    0 -0.31542560678E+03 -0.95838701458E+03  0.56866431419E+03  0.11581787795E+04  0.50400001928E-02 0. -1.
       -1    1    3    3    0  502  0.31542560678E+03  0.95838701458E+03 -0.72421473071E+03  0.12419685823E+04  0.50400001928E-02 0.  1.
</event>
<event>
 5   0  0.5064437E-06  0.2415338E+04  0.7818609E-02  0.8433784E-01
       -1   -1    0    0    0  501  0.00000000000E+00  0.00000000000E+00  0.86846836575E+03  0.86846836576E+03  0.50400001928E-02 0. -1.
        1   -1    0    0  501    0  0.00000000000E+00  0.00000000000E+00 -0.16793522637E+04  0.16793522637E+04  0.50400001928E-02 0.  1.
    10030    2    1    2    0    0  0.00000000000E+00  0.00000000000E+00 -0.81088389795E+03  0.25478206295E+04  0.24153379192E+04 0.  0.
        2    1    3    3  502    0 -0.26363827841E+03 -0.57457555389E+03  0.67998962442E+03  0.92845468296E+03  0.25500000920E-02 0. -1.
       -2    1    3    3    0  502  0.26363827841E+03  0.57457555389E+03 -0.14908735224E+04  0.16193659465E+04  0.25500000920E-02 0.  1.
</event>
<event>
 5   0  0.1198313E-05  0.2408396E+04  0.7818609E-02  0.8436367E-01
       -2   -1    0    0    0  501  0.00000000000E+00  0.00000000000E+00  0.10279420096E+04  0.10279420096E+04  0.25500000920E-02 0. -1.
        2   -1    0    0  501    0  0.00000000000E+00  0.00000000000E+00 -0.14106751714E+04  0.14106751714E+04  0.25500000920E-02 0.  1.
    10030    2    1    2    0    0  0.00000000000E+00  0.00000000000E+00 -0.38273316178E+03  0.24386171810E+04  0.24083955411E+04 0.  0.
        5    1    3    3  502    0 -0.88245515080E+03  0.65261208812E+02  0.63563453793E+03  0.10895134117E+04  0.46999998093E+01 0. -1.
       -5    1    3    3    0  502  0.88245515080E+03 -0.65261208812E+02 -0.10183676997E+04  0.13491037693E+04  0.46999998093E+01 0.  1.
</event>
<event>
 5   0  0.5034479E-06  0.2391637E+04  0.7818609E-02  0.8442641E-01
       -1   -1    0    0    0  501  0.00000000000E+00  0.00000000000E+00  0.12823315497E+04  0.12823315497E+04  0.50400001928E-02 0.  1.
        1   -1    0    0  501    0  0.00000000000E+00  0.00000000000E+00 -0.11151418328E+04  0.11151418328E+04  0.50400001928E-02 0. -1.
    10030    2    1    2    0    0  0.00000000000E+00  0.00000000000E+00  0.16718971696E+03  0.23974733825E+04  0.23916367237E+04 0.  0.
        4    1    3    3  502    0  0.88251102319E+02 -0.80807996351E+03 -0.79558510716E+03  0.11374263757E+04  0.12699999809E+01 0. -1.
       -4    1    3    3    0  502 -0.88251102319E+02  0.80807996351E+03  0.96277482412E+03  0.12600470068E+04  0.12699999809E+01 0.  1.
</event>
<event>
 5   0  0.5196696E-06  0.2392361E+04  0.7818609E-02  0.8442369E-01
        1   -1    0    0  501    0  0.00000000000E+00  0.00000000000E+00  0.14055040195E+04  0.14055040195E+04  0.50400001928E-02 0. -1.
       -1   -1    0    0    0  501  0.00000000000E+00  0.00000000000E+00 -0.10180318737E+04  0.10180318737E+04  0.50400001928E-02 0.  1.
    10030    2    1    2    0    0  0.00000000000E+00  0.00000000000E+00  0.38747214579E+03  0.24235358932E+04  0.23923610852E+04 0.  0.
        1    1    3    3  502    0  0.50365709774E+03  0.10816446086E+04  0.27982796736E+03  0.12255322202E+04  0.50400001928E-02 0. -1.
       -1    1    3    3    0  502 -0.50365709774E+03 -0.10816446086E+04  0.10764417843E+03  0.11980036730E+04  0.50400001928E-02 0.  1.
</event>
<event>
 5   0  0.5196696E-06  0.2383050E+04  0.7818609E-02  0.8445877E-01
       -1   -1    0    0    0  501  0.00000000000E+00  0.00000000000E+00  0.14965614633E+04  0.14965614633E+04  0.50400001928E-02 0.  1.
        1   -1    0    0  501    0  0.00000000000E+00  0.00000000000E+00 -0.94866234338E+03  0.94866234340E+03  0.50400001928E-02 0. -1.
    10030    2    1    2    0    0  0.00000000000E+00  0.00000000000E+00  0.54789911991E+03  0.24452238067E+04  0.23830497308E+04 0.  0.
        1    1    3    3  502    0 -0.11198029995E+03 -0.10932893447E+04 -0.19839788416E+03  0.11167734324E+04  0.50400001928E-02 0.  1.
       -1    1    3    3    0  502  0.11198029995E+03  0.10932893447E+04  0.74629700408E+03  0.13284503743E+04  0.50400001928E-02 0. -1.
</event>
<event>
 5   0  0.5064437E-06  0.2401315E+04  0.7818609E-02  0.8439011E-01
        1   -1    0    0  501    0  0.00000000000E+00  0.00000000000E+00  0.71679170736E+03  0.71679170738E+03  0.50400001928E-02 0.  1.
       -1   -1    0    0    0  501  0.00000000000E+00  0.00000000000E+00 -0.20111542300E+04  0.20111542300E+04  0.50400001928E-02 0. -1.
    10030    2    1    2    0    0  0.00000000000E+00  0.00000000000E+00 -0.12943625227E+04  0.27279459374E+04  0.24013152016E+04 0.  0.
        2    1    3    3  502    0 -0.11009288249E+03 -0.11098634160E+04 -0.14211593443E+03  0.11243283256E+04  0.25500000920E-02 0.  1.
       -2    1    3    3    0  502  0.11009288249E+03  0.11098634160E+04 -0.11522465882E+04  0.16036176118E+04  0.25500000920E-02 0. -1.
</event>
<event>
 5   0  0.5104174E-06  0.2401933E+04  0.7818609E-02  0.8438780E-01
       -1   -1    0    0    0  501  0.00000000000E+00  0.00000000000E+00  0.77861066121E+03  0.77861066123E+03  0.50400001928E-02 0.  1.
        1   -1    0    0  501    0  0.00000000000E+00  0.00000000000E+00 -0.18524277209E+04  0.18524277209E+04  0.50400001928E-02 0. -1.
    10030    2    1    2    0    0  0.00000000000E+00  0.00000000000E+00 -0.10738170597E+04  0.26310383821E+04  0.24019325325E+04 0.  0.
        3    1    3    3  502    0 -0.40480053606E+02 -0.64724556983E+03  0.57032609631E+03  0.86361874038E+03  0.10100000352E+00 0.  1.
       -3    1    3    3    0  502  0.40480053606E+02  0.64724556983E+03 -0.16441431560E+04  0.17674196417E+04  0.10100000352E+00 0. -1.
</event>
<event>
 5   0  0.1168435E-05  0.2404687E+04  0.7818609E-02  0.8437751E-01
        2   -1    0    0  501    0  0.00000000000E+00  0.00000000000E+00  0.16762892006E+04  0.16762892006E+04  0.25500000920E-02 0.  1.
       -2   -1    0    0    0  501  0.00000000000E+00  0.00000000000E+00 -0.86239904090E+03  0.86239904090E+03  0.25500000920E-02 0. -1.
    10030    2    1    2    0    0  0.00000000000E+00  0.00000000000E+00  0.81389015966E+03  0.25386882415E+04  0.24046872552E+04 0.  0.
        1    1    3    3  502    0 -0.23549829740E+03 -0.43332264445E+03 -0.75070060575E+03  0.89820897444E+03  0.50400001928E-02 0. -1.
       -1    1    3    3    0  502  0.23549829740E+03  0.43332264445E+03  0.15645907654E+04  0.16404792670E+04  0.50400001928E-02 0.  1.
</event>
<event>
 5   0  0.5104174E-06  0.2392317E+04  0.7818609E-02  0.8442386E-01
        1   -1    0    0  501    0  0.00000000000E+00  0.00000000000E+00  0.16000327838E+04  0.16000327838E+04  0.50400001928E-02 0.  1.
       -1   -1    0    0    0  501  0.00000000000E+00  0.00000000000E+00 -0.89422855697E+03  0.89422855698E+03  0.50400001928E-02 0. -1.
    10030    2    1    2    0    0  0.00000000000E+00  0.00000000000E+00  0.70580422687E+03  0.24942613408E+04  0.23923168748E+04 0.  0.
        3    1    3    3  502    0  0.11419630322E+04  0.91654461261E+02  0.71152908916E+03  0.13486117908E+04  0.10100000352E+00 0. -1.
       -3    1    3    3    0  502 -0.11419630322E+04 -0.91654461261E+02 -0.57248622901E+01  0.11456495501E+04  0.10100000352E+00 0.  1.
</event>
<event>
 5   0  0.1154897E-05  0.2403657E+04  0.7818609E-02  0.8438136E-01
        2   -1    0    0  501    0  0.00000000000E+00  0.00000000000E+00  0.76176759047E+03  0.76176759048E+03  0.25500000920E-02 0. -1.
       -2   -1    0    0    0  501  0.00000000000E+00  0.00000000000E+00 -0.18961050892E+04  0.18961050892E+04  0.25500000920E-02 0.  1.
    10030    2    1    2    0    0  0.00000000000E+00  0.00000000000E+00 -0.11343374987E+04  0.26578726797E+04  0.24036567185E+04 0.  0.
        4    1    3    3  502    0  0.51889395741E+03  0.83203114061E+03 -0.13355446040E+04  0.16568668505E+04  0.12699999809E+01 0.  1.
       -4    1    3    3    0  502 -0.51889395741E+03 -0.83203114061E+03  0.20120710529E+03  0.10010058292E+04  0.12699999809E+01 0. -1.
</event>
<event>
 5   0  0.1174210E-05  0.2394261E+04  0.7818609E-02  0.8441655E-01
       -2   -1    0    0    0  501  0.00000000000E+00  0.00000000000E+00  0.79351455809E+03  0.79351455809E+03  0.25500000920E-02 0. -1.
        2   -1    0    0  501    0  0.00000000000E+00  0.00000000000E+00 -0.18060432469E+04  0.18060432469E+04  0.25500000920E-02 0.  1.
    10030    2    1    2    0    0  0.00000000000E+00  0.00000000000E+00 -0.10125286888E+04  0.25995578050E+04  0.23942611461E+04 0.  0.
        3    1    3    3  502    0  0.80501845200E+03  0.83614619326E+03 -0.18799753092E+03  0.11758138655E+04  0.10100000352E+00 0. -1.
       -3    1    3    3    0  502 -0.80501845200E+03 -0.83614619326E+03 -0.82453115786E+03  0.14237439394E+04  0.10100000352E+00 0.  1.
</event>
<event>
 5   0  0.1169371E-05  0.2401838E+04  0.7818609E-02  0.8438816E-01
        2   -1    0    0  501    0  0.00000000000E+00  0.00000000000E+00  0.13743458867E+04  0.13743458867E+04  0.25500000920E-02 0. -1.
       -2   -1    0    0    0  501  0.00000000000E+00  0.00000000000E+00 -0.10493770021E+04  0.10493770021E+04  0.25500000920E-02 0.  1.
    10030    2    1    2    0    0  0.00000000000E+00  0.00000000000E+00  0.32496888465E+03  0.24237228888E+04  0.24018384345E+04 0.  0.
        2    1    3    3  502    0 -0.75832504352E+03  0.14345439256E+03 -0.76599191681E+03  0.10873728206E+04  0.25500000920E-02 0.  1.
       -2    1    3    3    0  502  0.75832504352E+03 -0.14345439256E+03  0.10909608015E+04  0.13363500682E+04  0.25500000920E-02 0. -1.
</event>
<event>
 5   0  0.5042742E-06  0.2399941E+04  0.7818609E-02  0.8439526E-01
        1   -1    0    0  501    0  0.00000000000E+00  0.00000000000E+00  0.20053241723E+04  0.20053241723E+04  0.50400001928E-02 0.  1.
       -1   -1    0    0    0  501  0.00000000000E+00  0.00000000000E+00 -0.71805316032E+03  0.71805316034E+03  0.50400001928E-02 0. -1.
    10030    2    1    2    0    0  0.00000000000E+00  0.00000000000E+00  0.12872710120E+04  0.27233773327E+04  0.23999411321E+04 0.  0.
        5    1    3    3  502    0 -0.91930529560E+03  0.49612031112E+03  0.13136772566E+04  0.16784003141E+04  0.46999998093E+01 0.  1.
       -5    1    3    3    0  502  0.91930529560E+03 -0.49612031112E+03 -0.26406244652E+02  0.10449770186E+04  0.46999998093E+01 0. -1.
</event>
<event>
 5   0  0.5196696E-06  0.2401383E+04  0.7818609E-02  0.8438986E-01
        1   -1    0    0  501    0  0.00000000000E+00  0.00000000000E+00  0.15670036675E+04  0.15670036675E+04  0.50400001928E-02 0. -1.
       -1   -1    0    0    0  501  0.00000000000E+00  0.00000000000E+00 -0.92001088946E+03  0.92001088948E+03  0.50400001928E-02 0.  1.
    10030    2    1    2    0    0  0.00000000000E+00  0.00000000000E+00  0.64699277805E+03  0.24870145570E+04  0.24013832997E+04 0.  0.
        1    1    3    3  502    0  0.65044091358E+03  0.96084990591E+03  0.36897536837E+01  0.11603101043E+04  0.50400001928E-02 0.  1.
       -1    1    3    3    0  502 -0.65044091358E+03 -0.96084990591E+03  0.64330302437E+03  0.13267044527E+04  0.50400001928E-02 0. -1.
</event>
<event>
 5   0  0.1154897E-05  0.2411483E+04  0.7818609E-02  0.8435217E-01
        2   -1    0    0  501    0  0.00000000000E+00  0.00000000000E+00  0.10082142771E+04  0.10082142771E+04  0.25500000920E-02 0.  1.
       -2   -1    0    0    0  501  0.00000000000E+00  0.00000000000E+00 -0.14419677433E+04  0.14419677433E+04  0.25500000920E-02 0. -1.
    10030    2    1    2    0    0  0.00000000000E+00  0.00000000000E+00 -0.43375346618E+03  0.24501820204E+04  0.24114829180E+04 0.  0.
        4    1    3    3  502    0  0.37369284538E+03  0.64595760300E+03  0.74537115415E+03  0.10547451531E+04  0.12699999809E+01 0.  1.
       -4    1    3    3    0  502 -0.37369284538E+03 -0.64595760300E+03 -0.11791246203E+04  0.13954368673E+04  0.12699999809E+01 0. -1.
</event>
<event>
 5   0  0.1154897E-05  0.2397976E+04  0.7818609E-02  0.8440262E-01
       -2   -1    0    0    0  501  0.00000000000E+00  0.00000000000E+00  0.97605731760E+03  0.97605731760E+03  0.25500000920E-02 0.  1.
        2   -1    0    0  501    0  0.00000000000E+00  0.00000000000E+00 -0.14728353218E+04  0.14728353218E+04  0.25500000920E-02 0. -1.
    10030    2    1    2    0    0  0.00000000000E+00  0.00000000000E+00 -0.49677800420E+03  0.24488926394E+04  0.23979755574E+04 0.  0.
        4    1    3    3  502    0  0.49922871559E+03  0.58120506795E+02 -0.13600627447E+04  0.14499584774E+04  0.12699999809E+01 0. -1.
       -4    1    3    3    0  502 -0.49922871559E+03 -0.58120506795E+02  0.86328474054E+03  0.99893416196E+03  0.12699999809E+01 0.  1.
</event>
<event>
 5   0  0.1198313E-05  0.2379484E+04  0.7818609E-02  0.8447225E-01
       -2   -1    0    0    0  501  0.00000000000E+00  0.00000000000E+00  0.12197256665E+04  0.12197256665E+04  0.25500000920E-02 0. -1.
        2   -1    0    0  501    0  0.00000000000E+00  0.00000000000E+00 -0.11604950788E+04  0.11604950788E+04  0.25500000920E-02 0.  1.
    10030    2    1    2    0    0  0.00000000000E+00  0.00000000000E+00  0.59230587721E+02  0.23802207453E+04  0.23794836696E+04 0.  0.
        5    1    3    3  502    0  0.99785409159E+03 -0.61312972755E+03 -0.17978825447E+03  0.11848994714E+04  0.46999998093E+01 0. -1.
       -5    1    3    3    0  502 -0.99785409159E+03  0.61312972755E+03  0.23901884219E+03  0.11953212739E+04  0.46999998093E+01 0.  1.
</event>
<event>
 5   0  0.1174210E-05  0.2398575E+04  0.7818609E-02  0.8440037E-01
        2   -1    0    0  501    0  0.00000000000E+00  0.00000000000E+00  0.56910234819E+03  0.56910234819E+03  0.25500000920E-02 0. -1.
       -2   -1    0    0    0  501  0.00000000000E+00  0.00000000000E+00 -0.25272964741E+04  0.25272964741E+04  0.25500000920E-02 0.  1.
    10030    2    1    2    0    0  0.00000000000E+00  0.00000000000E+00 -0.19581941259E+04  0.30963988223E+04  0.23985748752E+04 0.  0.
        3    1    3    3  502    0 -0.54154506031E+03  0.10700557172E+04 -0.97878738728E+03  0.15480035691E+04  0.10100000352E+00 0.  1.
       -3    1    3    3    0  502  0.54154506031E+03 -0.10700557172E+04 -0.97940673859E+03  0.15483952532E+04  0.10100000352E+00 0. -1.
</event>
<event>
 5   0  0.1154897E-05  0.2371086E+04  0.7818609E-02  0.8450409E-01
       -2   -1    0    0    0  501  0.00000000000E+00  0.00000000000E+00  0.60767372571E+03  0.60767372572E+03  0.25500000920E-02 0.  1.
        2   -1    0    0  501    0  0.00000000000E+00  0.00000000000E+00 -0.23129387580E+04  0.23129387580E+04  0.25500000920E-02 0. -1.
    10030    2    1    2    0    0  0.00000000000E+00  0.00000000000E+00 -0.17052650323E+04  0.29206124837E+04  0.23710859221E+04 0.  0.
        4    1    3    3  502    0  0.41405527523E+03 -0.94759080090E+03 -0.15667785083E+04  0.18772763792E+04  0.12699999809E+01 0. -1.
       -4    1    3    3    0  502 -0.41405527523E+03  0.94759080090E+03 -0.13848652405E+03  0.10433361046E+04  0.12699999809E+01 0.  1.
</event>
<event>
 5   0  0.5042742E-06  0.2414834E+04  0.7818609E-02  0.8433971E-01
       -1   -1    0    0    0  501  0.00000000000E+00  0.00000000000E+00  0.10942811106E+04  0.10942811106E+04  0.50400001928E-02 0. -1.
        1   -1    0    0  501    0  0.00000000000E+00  0.00000000000E+00 -0.13322493027E+04  0.13322493027E+04  0.50400001928E-02 0.  1.
    10030    2    1    2    0    0  0.00000000000E+00  0.00000000000E+00 -0.23796819202E+03  0.24265304133E+04  0.24148335318E+04 0.  0.
        5    1    3    3  502    0  0.47180688161E+03 -0.10764942311E+04  0.15874496512E+03  0.11860285060E+04  0.46999998093E+01 0.  1.
       -5    1    3    3    0  502 -0.47180688161E+03  0.10764942311E+04 -0.39671315714E+03  0.12405019073E+04  0.46999998093E+01 0. -1.
</event>
<event>
 5   0  0.5064437E-06  0.2416201E+04  0.7818609E-02  0.8433463E-01
       -1   -1    0    0    0  501  0.00000000000E+00  0.00000000000E+00  0.84197020108E+03  0.84197020109E+03  0.50400001928E-02 0.  1.
        1   -1    0    0  501    0  0.00000000000E+00  0.00000000000E+00 -0.17334426152E+04  0.17334426152E+04  0.50400001928E-02 0. -1.
    10030    2    1    2    0    0  0.00000000000E+00  0.00000000000E+00 -0.89147241414E+03  0.25754128163E+04  0.24162011732E+04 0.  0.
        2    1    3    3  502    0  0.86492733810E+03  0.64042325448E+03  0.13930797566E+03  0.10851948936E+04  0.25500000920E-02 0.  1.
       -2    1    3    3    0  502 -0.86492733810E+03 -0.64042325448E+03 -0.10307803898E+04  0.14902179227E+04  0.25500000920E-02 0. -1.
</event>
<event>
 5   0  0.1154897E-05  0.2391594E+04  0.7818609E-02  0.8442657E-01
       -2   -1    0    0    0  501  0.00000000000E+00  0.00000000000E+00  0.74766171948E+03  0.74766171948E+03  0.25500000920E-02 0.  1.
        2   -1    0    0  501    0  0.00000000000E+00  0.00000000000E+00 -0.19125366787E+04  0.19125366787E+04  0.25500000920E-02 0. -1.
    10030    2    1    2    0    0  0.00000000000E+00  0.00000000000E+00 -0.11648749593E+04  0.26601983982E+04  0.23915939972E+04 0.  0.
        4    1    3    3  502    0 -0.17607263940E+03  0.11665243261E+04 -0.36518536955E+03  0.12349666169E+04  0.12699999809E+01 0. -1.
       -4    1    3    3    0  502  0.17607263940E+03 -0.11665243261E+04 -0.79968958972E+03  0.14252317814E+04  0.12699999809E+01 0.  1.
</event>
<event>
 5   0  0.1174210E-05  0.2380505E+04  0.7818609E-02  0.8446839E-01
        2   -1    0    0  501    0  0.00000000000E+00  0.00000000000E+00  0.15370767243E+04  0.15370767243E+04  0.25500000920E-02 0. -1.
       -2   -1    0    0    0  501  0.00000000000E+00  0.00000000000E+00 -0.92168497200E+03  0.92168497200E+03  0.25500000920E-02 0.  1.
    10030    2    1    2    0    0  0.00000000000E+00  0.00000000000E+00  0.61539175227E+03  0.24587616963E+04  0.23805045831E+04 0.  0.
        3    1    3    3  502    0 -0.76573637229E+03 -0.28680585902E+03 -0.58566010433E+03  0.10057870354E+04  0.10100000352E+00 0.  1.
       -3    1    3    3    0  502  0.76573637229E+03  0.28680585902E+03  0.12010518566E+04  0.14529746608E+04  0.10100000352E+00 0. -1.
</event>
<event>
 5   0  0.4067750E-06  0.2406155E+04  0.7818609E-02  0.8437203E-01
       -3   -1    0    0    0  501  0.00000000000E+00  0.00000000000E+00  0.89103596377E+03  0.89103596950E+03  0.10100000352E+00 0.  1.
        3   -1    0    0  501    0  0.00000000000E+00  0.00000000000E+00 -0.16243966360E+04  0.16243966392E+04  0.10100000352E+00 0. -1.
    10030    2    1    2    0    0  0.00000000000E+00  0.00000000000E+00 -0.73336067225E+03  0.25154326087E+04  0.24061553011E+04 0.  0.
        1    1    3    3  502    0 -0.10950395719E+02 -0.65132546181E+03  0.69071572369E+03  0.94943824409E+03  0.50400001928E-02 0.  1.
       -1    1    3    3    0  502  0.10950395719E+02  0.65132546181E+03 -0.14240763959E+04  0.15659943646E+04  0.50400001928E-02 0. -1.
</event>
<event>
 5   0  0.1169371E-05  0.2400713E+04  0.7818609E-02  0.8439237E-01
        2   -1    0    0  501    0  0.00000000000E+00  0.00000000000E+00  0.12382927284E+04  0.12382927284E+04  0.25500000920E-02 0. -1.
       -2   -1    0    0    0  501  0.00000000000E+00  0.00000000000E+00 -0.11635820417E+04  0.11635820417E+04  0.25500000920E-02 0.  1.
    10030    2    1    2    0    0  0.00000000000E+00  0.00000000000E+00  0.74710686690E+02  0.24018747702E+04  0.24007125452E+04 0.  0.
        2    1    3    3  502    0 -0.47772667825E+02  0.10262062826E+03 -0.11582302757E+04  0.11637485093E+04  0.25500000920E-02 0.  1.
       -2    1    3    3    0  502  0.47772667825E+02 -0.10262062826E+03  0.12329409624E+04  0.12381262609E+04  0.25500000920E-02 0. -1.
</event>
<event>
 5   0  0.1154897E-05  0.2405156E+04  0.7818609E-02  0.8437576E-01
        2   -1    0    0  501    0  0.00000000000E+00  0.00000000000E+00  0.12476253248E+04  0.12476253248E+04  0.25500000920E-02 0. -1.
       -2   -1    0    0    0  501  0.00000000000E+00  0.00000000000E+00 -0.11591570152E+04  0.11591570152E+04  0.25500000920E-02 0.  1.
    10030    2    1    2    0    0  0.00000000000E+00  0.00000000000E+00  0.88468309623E+02  0.24067823400E+04  0.24051558349E+04 0.  0.
        4    1    3    3  502    0 -0.80407646872E+03 -0.64144561462E+03  0.66771295587E+03  0.12263089531E+04  0.12699999809E+01 0. -1.
       -4    1    3    3    0  502  0.80407646872E+03  0.64144561462E+03 -0.57924464624E+03  0.11804733869E+04  0.12699999809E+01 0.  1.
</event>
<event>
 5   0  0.5196696E-06  0.2400707E+04  0.7818609E-02  0.8439239E-01
       -1   -1    0    0    0  501  0.00000000000E+00  0.00000000000E+00  0.14560082002E+04  0.14560082002E+04  0.50400001928E-02 0. -1.
        1   -1    0    0  501    0  0.00000000000E+00  0.00000000000E+00 -0.98958832581E+03  0.98958832582E+03  0.50400001928E-02 0.  1.
    10030    2    1    2    0    0  0.00000000000E+00  0.00000000000E+00  0.46641987436E+03  0.24455965260E+04  0.24007071602E+04 0.  0.
        1    1    3    3  502    0  0.80706357296E+03  0.72536036279E+02  0.11353394811E+04  0.13948508253E+04  0.50400001928E-02 0. -1.
       -1    1    3    3    0  502 -0.80706357296E+03 -0.72536036279E+02 -0.66891960673E+03  0.10507457008E+04  0.50400001928E-02 0.  1.
</event>
<event>
 5   0  0.1169371E-05  0.2407025E+04  0.7818609E-02  0.8436878E-01
       -2   -1    0    0    0  501  0.00000000000E+00  0.00000000000E+00  0.79732913606E+03  0.79732913606E+03  0.25500000920E-02 0. -1.
        2   -1    0    0  501    0  0.00000000000E+00  0.00000000000E+00 -0.18166182044E+04  0.18166182044E+04  0.25500000920E-02 0.  1.
    10030    2    1    2    0    0  0.00000000000E+00  0.00000000000E+00 -0.10192890683E+04  0.26139473405E+04  0.24070252375E+04 0.  0.
        2    1    3    3  502    0 -0.77343578706E+03  0.77779165767E+03 -0.10474771319E+04  0.15166974389E+04  0.25500000920E-02 0.  1.
       -2    1    3    3    0  502  0.77343578706E+03 -0.77779165767E+03  0.28188063553E+02  0.10972499015E+04  0.25500000920E-02 0. -1.
</event>
<event>
 5   0  0.5042742E-06  0.2397120E+04  0.7818609E-02  0.8440582E-01
       -1   -1    0    0    0  501  0.00000000000E+00  0.00000000000E+00  0.79243614610E+03  0.79243614611E+03  0.50400001928E-02 0.  1.
        1   -1    0    0  501    0  0.00000000000E+00  0.00000000000E+00 -0.18128227925E+04  0.18128227925E+04  0.50400001928E-02 0. -1.
    10030    2    1    2    0    0  0.00000000000E+00  0.00000000000E+00 -0.10203866464E+04  0.26052589386E+04  0.23971201949E+04 0.  0.
        5    1    3    3  502    0  0.13645634670E+03 -0.27834191154E+03 -0.17684901428E+04  0.17954592809E+04  0.46999998093E+01 0. -1.
       -5    1    3    3    0  502 -0.13645634670E+03  0.27834191154E+03  0.74810349640E+03  0.80979965769E+03  0.46999998093E+01 0.  1.
</event>
<event>
 5   0  0.5104174E-06  0.2401335E+04  0.7818609E-02  0.8439004E-01
        1   -1    0    0  501    0  0.00000000000E+00  0.00000000000E+00  0.16926260286E+04  0.16926260286E+04  0.50400001928E-02 0.  1.
       -1   -1    0    0    0  501  0.00000000000E+00  0.00000000000E+00 -0.85169565895E+03  0.85169565896E+03  0.50400001928E-02 0. -1.
    10030    2    1    2    0    0  0.00000000000E+00  0.00000000000E+00  0.84093036966E+03  0.25443216876E+04  0.24013348295E+04 0.  0.
        3    1    3    3  502    0 -0.17123776211E+03 -0.10593318603E+04  0.99114179421E+03  0.14607766522E+04  0.10100000352E+00 0. -1.
       -3    1    3    3    0  502  0.17123776211E+03  0.10593318603E+04 -0.15021142455E+03  0.10835450353E+04  0.10100000352E+00 0.  1.
</event>
<event>
 5   0  0.1198313E-05  0.2393625E+04  0.7818609E-02  0.8441894E-01
       -2   -1    0    0    0  501  0.00000000000E+00  0.00000000000E+00  0.77355666134E+03  0.77355666134E+03  0.25500000920E-02 0.  1.
        2   -1    0    0  501    0  0.00000000000E+00  0.00000000000E+00 -0.18516551669E+04  0.18516551669E+04  0.25500000920E-02 0. -1.
    10030    2    1    2    0    0  0.00000000000E+00  0.00000000000E+00 -0.10780985055E+04  0.26252118282E+04  0.23936250240E+04 0.  0.
        5    1    3    3  502    0 -0.29200972871E+02 -0.11911288940E+04 -0.66263402214E+03  0.13633586015E+04  0.46999998093E+01 0. -1.
       -5    1    3    3    0  502  0.29200972871E+02  0.11911288940E+04 -0.41546448338E+03  0.12618532267E+04  0.46999998093E+01 0.  1.
</event>
<event>
 5   0  0.5042742E-06  0.2402971E+04  0.7818609E-02  0.8438392E-01
       -1   -1    0    0    0  501  0.00000000000E+00  0.00000000000E+00  0.16602059773E+04  0.16602059773E+04  0.50400001928E-02 0.  1.
        1   -1    0    0  501    0  0.00000000000E+00  0.00000000000E+00 -0.86951069142E+03  0.86951069143E+03  0.50400001928E-02 0. -1.
    10030    2    1    2    0    0  0.00000000000E+00  0.00000000000E+00  0.79069528584E+03  0.25297166687E+04  0.24029705343E+04 0.  0.
        5    1    3    3  502    0 -0.14323678111E+02 -0.86178381991E+03 -0.48586283448E+03  0.98942473384E+03  0.46999998093E+01 0. -1.
       -5    1    3    3    0  502  0.14323678111E+02  0.86178381991E+03  0.12765581203E+04  0.15402919349E+04  0.46999998093E+01 0.  1.
</event>
<event>
 5   0  0.1174210E-05  0.2387948E+04  0.7818609E-02  0.8444029E-01
       -2   -1    0    0    0  501  0.00000000000E+00  0.00000000000E+00  0.13392006375E+04  0.13392006375E+04  0.25500000920E-02 0. -1.
        2   -1    0    0  501    0  0.00000000000E+00  0.00000000000E+00 -0.10644964988E+04  0.10644964988E+04  0.25500000920E-02 0.  1.
    10030    2    1    2    0    0  0.00000000000E+00  0.00000000000E+00  0.27470413867E+03  0.24036971363E+04  0.23879483996E+04 0.  0.
        3    1    3    3  502    0  0.60703369483E+03  0.99417019764E+03  0.40120691232E+03  0.12320029567E+04  0.10100000352E+00 0. -1.
       -3    1    3    3    0  502 -0.60703369483E+03 -0.99417019764E+03 -0.12650277365E+03  0.11716941796E+04  0.10100000352E+00 0.  1.
</event>
<event>
 5   0  0.5196696E-06  0.2412651E+04  0.7818609E-02  0.8434782E-01
        1   -1    0    0  501    0  0.00000000000E+00  0.00000000000E+00  0.10070371191E+04  0.10070371191E+04  0.50400001928E-02 0.  1.
       -1   -1    0    0    0  501  0.00000000000E+00  0.00000000000E+00 -0.14450517871E+04  0.14450517871E+04  0.50400001928E-02 0. -1.
    10030    2    1    2    0    0  0.00000000000E+00  0.00000000000E+00 -0.43801466798E+03  0.24520889062E+04  0.24126506490E+04 0.  0.
        1    1    3    3  502    0  0.91509487673E+03 -0.26994697211E+03 -0.96928222758E+03  0.13600654535E+04  0.50400001928E-02 0. -1.
       -1    1    3    3    0  502 -0.91509487673E+03  0.26994697211E+03  0.53126755960E+03  0.10920234526E+04  0.50400001928E-02 0.  1.
</event>
<event>
 5   0  0.5042742E-06  0.2398768E+04  0.7818609E-02  0.8439965E-01
       -1   -1    0    0    0  501  0.00000000000E+00  0.00000000000E+00  0.10550519304E+04  0.10550519304E+04  0.50400001928E-02 0. -1.
        1   -1    0    0  501    0  0.00000000000E+00  0.00000000000E+00 -0.13634613069E+04  0.13634613069E+04  0.50400001928E-02 0.  1.
    10030    2    1    2    0    0  0.00000000000E+00  0.00000000000E+00 -0.30840937650E+03  0.24185132372E+04  0.23987684205E+04 0.  0.
        5    1    3    3  502    0  0.61966798618E+03 -0.19951851759E+03 -0.11698215563E+04  0.13387683204E+04  0.46999998093E+01 0.  1.
       -5    1    3    3    0  502 -0.61966798618E+03  0.19951851759E+03  0.86141217983E+03  0.10797449169E+04  0.46999998093E+01 0. -1.
</event>
<event>
 5   0  0.1174210E-05  0.2399103E+04  0.7818609E-02  0.8439839E-01
       -2   -1    0    0    0  501  0.00000000000E+00  0.00000000000E+00  0.69219480847E+03  0.69219480847E+03  0.25500000920E-02 0.  1.
        2   -1    0    0  501    0  0.00000000000E+00  0.00000000000E+00 -0.20787847128E+04  0.20787847128E+04  0.25500000920E-02 0. -1.
    10030    2    1    2    0    0  0.00000000000E+00  0.00000000000E+00 -0.13865899043E+04  0.27709795212E+04  0.23991031542E+04 0.  0.
        3    1    3    3  502    0 -0.91683201996E+02  0.11730088434E+04 -0.96310311377E+03  0.15205009616E+04  0.10100000352E+00 0. -1.
       -3    1    3    3    0  502  0.91683201996E+02 -0.11730088434E+04 -0.42348679054E+03  0.12504785597E+04  0.10100000352E+00 0.  1.
</event>
<event>
 5   0  0.1198313E-05  0.2398444E+04  0.7818609E-02  0.8440086E-01
       -2   -1    0    0    0  501  0.00000000000E+00  0.00000000000E+00  0.63285225769E+03  0.63285225770E+03  0.25500000920E-02 0.  1.
        2   -1    0    0  501    0  0.00000000000E+00  0.00000000000E+00 -0.22724624951E+04  0.22724624951E+04  0.25500000920E-02 0. -1.
    10030    2    1    2    0    0  0.00000000000E+00  0.00000000000E+00 -0.16396102374E+04  0.29053147528E+04  0.23984436792E+04 0.  0.
        5    1    3    3  502    0 -0.20780126766E+03 -0.62332321038E+03  0.39539692405E+03  0.76685983660E+03  0.46999998093E+01 0.  1.
       -5    1    3    3    0  502  0.20780126766E+03  0.62332321038E+03 -0.20350071615E+04  0.21384549162E+04  0.46999998093E+01 0. -1.
</event>
<event>
 5   0  0.1198313E-05  0.2414294E+04  0.7818609E-02  0.8434171E-01
       -2   -1    0    0    0  501  0.00000000000E+00  0.00000000000E+00  0.80350005040E+03  0.80350005041E+03  0.25500000920E-02 0. -1.
        2   -1    0    0  501    0  0.00000000000E+00  0.00000000000E+00 -0.18135702274E+04  0.18135702274E+04  0.25500000920E-02 0.  1.
    10030    2    1    2    0    0  0.00000000000E+00  0.00000000000E+00 -0.10100701770E+04  0.26170702778E+04  0.24142939085E+04 0.  0.
        5    1    3    3  502    0 -0.82138826736E+03 -0.83749997928E+03 -0.81372827705E+03  0.14276766791E+04  0.46999998093E+01 0.  1.
       -5    1    3    3    0  502  0.82138826736E+03  0.83749997928E+03 -0.19634189994E+03  0.11893935987E+04  0.46999998093E+01 0. -1.
</event>
<event>
 5   0  0.5034479E-06  0.2411091E+04  0.7818609E-02  0.8435363E-01
        1   -1    0    0  501    0  0.00000000000E+00  0.00000000000E+00  0.14156501085E+04  0.14156501085E+04  0.50400001928E-02 0. -1.
       -1   -1    0    0    0  501  0.00000000000E+00  0.00000000000E+00 -0.10266233361E+04  0.10266233361E+04  0.50400001928E-02 0.  1.
    10030    2    1    2    0    0  0.00000000000E+00  0.00000000000E+00  0.38902677248E+03  0.24422734446E+04  0.24110905725E+04 0.  0.
        4    1    3    3  502    0  0.34194904785E+03  0.11436679005E+04  0.23713502411E+02  0.11939302161E+04  0.12699999809E+01 0.  1.
       -4    1    3    3    0  502 -0.34194904785E+03 -0.11436679005E+04  0.36531327007E+03  0.12483432285E+04  0.12699999809E+01 0. -1.
</event>
<event>
 5   0  0.4067750E-06  0.2400463E+04  0.7818609E-02  0.8439330E-01
       -3   -1    0    0    0  501  0.00000000000E+00  0.00000000000E+00  0.13000316859E+04  0.13000316899E+04  0.10100000352E+00 0. -1.
        3   -1    0    0  501    0  0.00000000000E+00  0.00000000000E+00 -0.11080926780E+04  0.11080926826E+04  0.10100000352E+00 0.  1.
    10030    2    1    2    0    0  0.00000000000E+00  0.00000000000E+00  0.19193900799E+03  0.24081243724E+04  0.24004629575E+04 0.  0.
        2    1    3    3  502    0 -0.68985076998E+03  0.61892962475E+03 -0.66908343476E+03  0.11430838149E+04  0.25500000920E-02 0.  1.
       -2    1    3    3    0  502  0.68985076998E+03 -0.61892962475E+03  0.86102244275E+03  0.12650405575E+04  0.25500000920E-02 0. -1.
</event>
<event>
 5   0  0.5034479E-06  0.2404610E+04  0.7818609E-02  0.8437780E-01
        1   -1    0    0  501    0  0.00000000000E+00  0.00000000000E+00  0.21277917361E+04  0.21277917361E+04  0.50400001928E-02 0.  1.
       -1   -1    0    0    0  501  0.00000000000E+00  0.00000000000E+00 -0.67936006625E+03  0.67936006627E+03  0.50400001928E-02 0. -1.
    10030    2    1    2    0    0  0.00000000000E+00  0.00000000000E+00  0.14484316699E+04  0.28071518024E+04  0.24046095191E+04 0.  0.
        4    1    3    3  502    0  0.22758166038E+03  0.38033334967E+03  0.20289375741E+04  0.20767850543E+04  0.12699999809E+01 0.  1.
       -4    1    3    3    0  502 -0.22758166038E+03 -0.38033334967E+03 -0.58050590425E+03  0.73036674814E+03  0.12699999809E+01 0. -1.
</event>
<event>
 5   0  0.5104174E-06  0.2403987E+04  0.7818609E-02  0.8438012E-01
       -1   -1    0    0    0  501  0.00000000000E+00  0.00000000000E+00  0.96592165086E+03  0.96592165088E+03  0.50400001928E-02 0.  1.
        1   -1    0    0  501    0  0.00000000000E+00  0.00000000000E+00 -0.14957611689E+04  0.14957611689E+04  0.50400001928E-02 0. -1.
    10030    2    1    2    0    0  0.00000000000E+00  0.00000000000E+00 -0.52983951800E+03  0.24616828198E+04  0.24039867700E+04 0.  0.
        3    1    3    3  502    0  0.42580005120E+03 -0.47108378896E+03  0.78014374714E+03  0.10059074988E+04  0.10100000352E+00 0.  1.
       -3    1    3    3    0  502 -0.42580005120E+03  0.47108378896E+03 -0.13099832651E+04  0.14557753209E+04  0.10100000352E+00 0. -1.
</event>
<event>
 5   0  0.5034479E-06  0.2394678E+04  0.7818609E-02  0.8441499E-01
       -1   -1    0    0    0  501  0.00000000000E+00  0.00000000000E+00  0.13452320375E+04  0.13452320375E+04  0.50400001928E-02 0. -1.
        1   -1    0    0  501    0  0.00000000000E+00  0.00000000000E+00 -0.10657054012E+04  0.10657054013E+04  0.50400001928E-02 0.  1.
    10030    2    1    2    0    0  0.00000000000E+00  0.00000000000E+00  0.27952663626E+03  0.24109374388E+04  0.23946783068E+04 0.  0.
        4    1    3    3  502    0 -0.28957979063E+03 -0.70129621268E+03  0.10723063695E+04  0.13135887469E+04  0.12699999809E+01 0. -1.
       -4    1    3    3    0  502  0.28957979063E+03  0.70129621268E+03 -0.79277973327E+03  0.10973486918E+04  0.12699999809E+01 0.  1.
</event>
<event>
 5   0  0.1174210E-05  0.2406284E+04  0.7818609E-02  0.8437155E-01
       -2   -1    0    0    0  501  0.00000000000E+00  0.00000000000E+00  0.82377264303E+03  0.82377264303E+03  0.25500000920E-02 0.  1.
        2   -1    0    0  501    0  0.00000000000E+00  0.00000000000E+00 -0.17572210584E+04  0.17572210584E+04  0.25500000920E-02 0. -1.
    10030    2    1    2    0    0  0.00000000000E+00  0.00000000000E+00 -0.93344841542E+03  0.25809937015E+04  0.24062839697E+04 0.  0.
        3    1    3    3  502    0 -0.10688578982E+04 -0.54654947176E+03 -0.55237896206E+03  0.13214749561E+04  0.10100000352E+00 0. -1.
       -3    1    3    3    0  502  0.10688578982E+04  0.54654947176E+03 -0.38106945335E+03  0.12595187454E+04  0.10100000352E+00 0.  1.
</event>
<event>
 5   0  0.1198313E-05  0.2408482E+04  0.7818609E-02  0.8436335E-01
       -2   -1    0    0    0  501  0.00000000000E+00  0.00000000000E+00  0.12406584355E+04  0.12406584355E+04  0.25500000920E-02 0. -1.
        2   -1    0    0  501    0  0.00000000000E+00  0.00000000000E+00 -0.11688927784E+04  0.11688927784E+04  0.25500000920E-02 0.  1.
    10030    2    1    2    0    0  0.00000000000E+00  0.00000000000E+00  0.71765657137E+02  0.24095512139E+04  0.24084822488E+04 0.  0.
        5    1    3    3  502    0  0.99146872679E+03 -0.31325004860E+03  0.64363806122E+03  0.12228768838E+04  0.46999998093E+01 0. -1.
       -5    1    3    3    0  502 -0.99146872679E+03  0.31325004860E+03 -0.57187240408E+03  0.11866743301E+04  0.46999998093E+01 0.  1.
</event>
<event>
 5   0  0.1198313E-05  0.2423760E+04  0.7818609E-02  0.8430661E-01
       -2   -1    0    0    0  501  0.00000000000E+00  0.00000000000E+00  0.10985576285E+04  0.10985576285E+04  0.25500000920E-02 0.  1.
        2   -1    0    0  501    0  0.00000000000E+00  0.00000000000E+00 -0.13368920672E+04  0.13368920672E+04  0.25500000920E-02 0. -1.
    10030    2    1    2    0    0  0.00000000000E+00  0.00000000000E+00 -0.23833443871E+03  0.24354496957E+04  0.24237598717E+04 0.  0.
        5    1    3    3  502    0  0.97428304561E+03  0.65832899078E+03 -0.41385009322E+03  0.12465626750E+04  0.46999998093E+01 0. -1.
       -5    1    3    3    0  502 -0.97428304561E+03 -0.65832899078E+03  0.17551565452E+03  0.11888870207E+04  0.46999998093E+01 0.  1.
</event>
<event>
 5   0  0.5196696E-06  0.2409909E+04  0.7818609E-02  0.8435803E-01
       -1   -1    0    0    0  501  0.00000000000E+00  0.00000000000E+00  0.92860505279E+03  0.92860505281E+03  0.50400001928E-02 0. -1.
        1   -1    0    0  501    0  0.00000000000E+00  0.00000000000E+00 -0.15635448956E+04  0.15635448956E+04  0.50400001928E-02 0.  1.
    10030    2    1    2    0    0  0.00000000000E+00  0.00000000000E+00 -0.63493984280E+03  0.24921499484E+04  0.24099092849E+04 0.  0.
        1    1    3    3  502    0  0.33308338845E+03  0.11161731494E+04  0.14848732920E+01  0.11648129669E+04  0.50400001928E-02 0. -1.
       -1    1    3    3    0  502 -0.33308338845E+03 -0.11161731494E+04 -0.63642471609E+03  0.13273369815E+04  0.50400001928E-02 0.  1.
</event>
<event>
 5   0  0.1168435E-05  0.2439313E+04  0.7818609E-02  0.8424930E-01
        2   -1    0    0  501    0  0.00000000000E+00  0.00000000000E+00  0.28343296894E+04  0.28343296894E+04  0.25500000920E-02 0. -1.
       -2   -1    0    0    0  501  0.00000000000E+00  0.00000000000E+00 -0.52483738688E+03  0.52483738689E+03  0.25500000920E-02 0.  1.
    10030    2    1    2    0    0  0.00000000000E+00  0.00000000000E+00  0.23094923025E+04  0.33591670763E+04  0.24393131720E+04 0.  0.
        1    1    3    3  502    0  0.26745897268E+03  0.35691824889E+03 -0.40850725830E+03  0.60481659912E+03  0.50400001928E-02 0.  1.
       -1    1    3    3    0  502 -0.26745897268E+03 -0.35691824889E+03  0.27179995608E+04  0.27543504772E+04  0.50400001928E-02 0. -1.
</event>
<event>
 5   0  0.1168435E-05  0.2413205E+04  0.7818609E-02  0.8434576E-01
       -2   -1    0    0    0  501  0.00000000000E+00  0.00000000000E+00  0.17272186466E+04  0.17272186466E+04  0.25500000920E-02 0.  1.
        2   -1    0    0  501    0  0.00000000000E+00  0.00000000000E+00 -0.84291015173E+03  0.84291015174E+03  0.25500000920E-02 0. -1.
    10030    2    1    2    0    0  0.00000000000E+00  0.00000000000E+00  0.88430849484E+03  0.25701287983E+04  0.24132054463E+04 0.  0.
        1    1    3    3  502    0  0.35187664729E+03  0.10795116467E+04  0.72793995640E+01  0.11354362862E+04  0.50400001928E-02 0. -1.
       -1    1    3    3    0  502 -0.35187664729E+03 -0.10795116467E+04  0.87702909527E+03  0.14346925121E+04  0.50400001928E-02 0.  1.
</event>
<event>
 5   0  0.5104174E-06  0.2408665E+04  0.7818609E-02  0.8436267E-01
       -1   -1    0    0    0  501  0.00000000000E+00  0.00000000000E+00  0.14541471556E+04  0.14541471556E+04  0.50400001928E-02 0. -1.
        1   -1    0    0  501    0  0.00000000000E+00  0.00000000000E+00 -0.99743478882E+03  0.99743478884E+03  0.50400001928E-02 0.  1.
    10030    2    1    2    0    0  0.00000000000E+00  0.00000000000E+00  0.45671236677E+03  0.24515819444E+04  0.24086651582E+04 0.  0.
        3    1    3    3  502    0  0.41715548450E+03  0.62965310061E+03 -0.72640627819E+03  0.10479254823E+04  0.10100000352E+00 0.  1.
       -3    1    3    3    0  502 -0.41715548450E+03 -0.62965310061E+03  0.11831186450E+04  0.14036564621E+04  0.10100000352E+00 0. -1.
</event>
<event>
 5   0  0.1154897E-05  0.2431807E+04  0.7818609E-02  0.8427691E-01
       -2   -1    0    0    0  501  0.00000000000E+00  0.00000000000E+00  0.53969316134E+03  0.53969316134E+03  0.25500000920E-02 0. -1.
        2   -1    0    0  501    0  0.00000000000E+00  0.00000000000E+00 -0.27393739604E+04  0.27393739604E+04  0.25500000920E-02 0.  1.
    10030    2    1    2    0    0  0.00000000000E+00  0.00000000000E+00 -0.21996807990E+04  0.32790671217E+04  0.24318070588E+04 0.  0.
        4    1    3    3  502    0 -0.79372080704E+03  0.82173305638E+03 -0.53869892087E+03  0.12631057263E+04  0.12699999809E+01 0. -1.
       -4    1    3    3    0  502  0.79372080704E+03 -0.82173305638E+03 -0.16609818781E+04  0.20159613954E+04  0.12699999809E+01 0.  1.
</event>
<event>
 5   0  0.5064437E-06  0.2405571E+04  0.7818609E-02  0.8437421E-01
        1   -1    0    0  501    0  0.00000000000E+00  0.00000000000E+00  0.13169913727E+04  0.13169913727E+04  0.50400001928E-02 0. -1.
       -1   -1    0    0    0  501  0.00000000000E+00  0.00000000000E+00 -0.10984831020E+04  0.10984831020E+04  0.50400001928E-02 0.  1.
    10030    2    1    2    0    0  0.00000000000E+00  0.00000000000E+00  0.21850827070E+03  0.24154744747E+04  0.24055708416E+04 0.  0.
        2    1    3    3  502    0 -0.57587471420E+03  0.25172413835E+03 -0.92049022211E+03  0.11145846658E+04  0.25500000920E-02 0.  1.
       -2    1    3    3    0  502  0.57587471420E+03 -0.25172413835E+03  0.11389984928E+04  0.13008898089E+04  0.25500000920E-02 0. -1.
</event>
<event>
 5   0  0.1169371E-05  0.2358101E+04  0.7818609E-02  0.8455358E-01
        2   -1    0    0  501    0  0.00000000000E+00  0.00000000000E+00  0.24727993268E+04  0.24727993268E+04  0.25500000920E-02 0.  1.
       -2   -1    0    0    0  501  0.00000000000E+00  0.00000000000E+00 -0.56218093965E+03  0.56218093966E+03  0.25500000920E-02 0. -1.
    10030    2    1    2    0    0  0.00000000000E+00  0.00000000000E+00  0.19106183871E+04  0.30349802665E+04  0.23581014814E+04 0.  0.
        2    1    3    3  502    0 -0.11478331019E+04 -0.26944911953E+03  0.96313704527E+03  0.15224180194E+04  0.25500000920E-02 0. -1.
       -2    1    3    3    0  502  0.11478331019E+04  0.26944911953E+03  0.94748134188E+03  0.15125622470E+04  0.25500000920E-02 0.  1.
</event>
<event>
 5   0  0.5196696E-06  0.2398645E+04  0.7818609E-02  0.8440011E-01
       -1   -1    0    0    0  501  0.00000000000E+00  0.00000000000E+00  0.83361987269E+03  0.83361987270E+03  0.50400001928E-02 0.  1.
        1   -1    0    0  501    0  0.00000000000E+00  0.00000000000E+00 -0.17254558422E+04  0.17254558422E+04  0.50400001928E-02 0. -1.
    10030    2    1    2    0    0  0.00000000000E+00  0.00000000000E+00 -0.89183596946E+03  0.25590757149E+04  0.23986448503E+04 0.  0.
        1    1    3    3  502    0  0.25399499476E+03  0.78214540973E+03 -0.13772956925E+04  0.16041222908E+04  0.50400001928E-02 0.  1.
       -1    1    3    3    0  502 -0.25399499476E+03 -0.78214540973E+03  0.48545972305E+03  0.95495342402E+03  0.50400001928E-02 0. -1.
</event>
<event>
 5   0  0.1169371E-05  0.2399270E+04  0.7818609E-02  0.8439777E-01
        2   -1    0    0  501    0  0.00000000000E+00  0.00000000000E+00  0.14226081024E+04  0.14226081024E+04  0.25500000920E-02 0.  1.
       -2   -1    0    0    0  501  0.00000000000E+00  0.00000000000E+00 -0.10116098483E+04  0.10116098484E+04  0.25500000920E-02 0. -1.
    10030    2    1    2    0    0  0.00000000000E+00  0.00000000000E+00  0.41099825408E+03  0.24342179508E+04  0.23992701947E+04 0.  0.
        2    1    3    3  502    0 -0.83484183976E+03 -0.10364631561E+03  0.10731879195E+04  0.13636112961E+04  0.25500000920E-02 0.  1.
       -2    1    3    3    0  502  0.83484183976E+03  0.10364631561E+03 -0.66218966542E+03  0.10706066547E+04  0.25500000920E-02 0. -1.
</event>
<event>
 5   0  0.1198313E-05  0.2348549E+04  0.7818609E-02  0.8459021E-01
        2   -1    0    0  501    0  0.00000000000E+00  0.00000000000E+00  0.10849813350E+04  0.10849813350E+04  0.25500000920E-02 0. -1.
       -2   -1    0    0    0  501  0.00000000000E+00  0.00000000000E+00 -0.12709164214E+04  0.12709164214E+04  0.25500000920E-02 0.  1.
    10030    2    1    2    0    0  0.00000000000E+00  0.00000000000E+00 -0.18593508638E+03  0.23558977564E+04  0.23485489950E+04 0.  0.
        5    1    3    3  502    0  0.83553828735E+03 -0.64940228542E+03 -0.60353062277E+03  0.12182441712E+04  0.46999998093E+01 0.  1.
       -5    1    3    3    0  502 -0.83553828735E+03  0.64940228542E+03  0.41759553639E+03  0.11376535852E+04  0.46999998093E+01 0. -1.
</event>
<event>
 5   0  0.1198313E-05  0.2396220E+04  0.7818609E-02  0.8440920E-01
       -2   -1    0    0    0  501  0.00000000000E+00  0.00000000000E+00  0.56149062198E+03  0.56149062199E+03  0.25500000920E-02 0.  1.
        2   -1    0    0  501    0  0.00000000000E+00  0.00000000000E+00 -0.25565290023E+04  0.25565290023E+04  0.25500000920E-02 0. -1.
    10030    2    1    2    0    0  0.00000000000E+00  0.00000000000E+00 -0.19950383804E+04  0.31180196243E+04  0.23962195723E+04 0.  0.
        5    1    3    3  502    0  0.11341611472E+04 -0.19354965549E+03 -0.56270378730E+03  0.12807968688E+04  0.46999998093E+01 0.  1.
       -5    1    3    3    0  502 -0.11341611472E+04  0.19354965549E+03 -0.14323345931E+04  0.18372227555E+04  0.46999998093E+01 0. -1.
</event>
<event>
 5   0  0.1198313E-05  0.2350826E+04  0.7818609E-02  0.8458146E-01
       -2   -1    0    0    0  501  0.00000000000E+00  0.00000000000E+00  0.62995960190E+03  0.62995960191E+03  0.25500000920E-02 0. -1.
        2   -1    0    0  501    0  0.00000000000E+00  0.00000000000E+00 -0.21931498371E+04  0.21931498371E+04  0.25500000920E-02 0.  1.
    10030    2    1    2    0    0  0.00000000000E+00  0.00000000000E+00 -0.15631902352E+04  0.28231094390E+04  0.23508260661E+04 0.  0.
        5    1    3    3  502    0 -0.35073736081E+03  0.11139466629E+02  0.56557441591E+03  0.66561046710E+03  0.46999998093E+01 0. -1.
       -5    1    3    3    0  502  0.35073736081E+03 -0.11139466629E+02 -0.21287646511E+04  0.21574989719E+04  0.46999998093E+01 0.  1.
</event>
<event>
 5   0  0.5196696E-06  0.2397515E+04  0.7818609E-02  0.8440434E-01
       -1   -1    0    0    0  501  0.00000000000E+00  0.00000000000E+00  0.13235119696E+04  0.13235119696E+04  0.50400001928E-02 0.  1.
        1   -1    0    0  501    0  0.00000000000E+00  0.00000000000E+00 -0.10857624259E+04  0.10857624260E+04  0.50400001928E-02 0. -1.
    10030    2    1    2    0    0  0.00000000000E+00  0.00000000000E+00  0.23774954369E+03  0.24092743956E+04  0.23975150193E+04 0.  0.
        1    1    3    3  502    0 -0.82296518119E+03 -0.38778504979E+03  0.90332553337E+03  0.12820475629E+04  0.50400001928E-02 0. -1.
       -1    1    3    3    0  502  0.82296518119E+03  0.38778504979E+03 -0.66557598968E+03  0.11272268327E+04  0.50400001928E-02 0.  1.
</event>
<event>
 5   0  0.5104174E-06  0.2396554E+04  0.7818609E-02  0.8440795E-01
       -1   -1    0    0    0  501  0.00000000000E+00  0.00000000000E+00  0.11203849159E+04  0.11203849159E+04  0.50400001928E-02 0.  1.
        1   -1    0    0  501    0  0.00000000000E+00  0.00000000000E+00 -0.12815847626E+04  0.12815847626E+04  0.50400001928E-02 0. -1.
    10030    2    1    2    0    0  0.00000000000E+00  0.00000000000E+00 -0.16119984672E+03  0.24019696785E+04  0.23965543903E+04 0.  0.
        3    1    3    3  502    0  0.99103319490E+02 -0.31276994267E+03  0.10744892680E+04  0.11234650428E+04  0.10100000352E+00 0.  1.
       -3    1    3    3    0  502 -0.99103319490E+02  0.31276994267E+03 -0.12356891148E+04  0.12785046357E+04  0.10100000352E+00 0. -1.
</event>
<event>
 5   0  0.5104174E-06  0.2405398E+04  0.7818609E-02  0.8437485E-01
        1   -1    0    0  501    0  0.00000000000E+00  0.00000000000E+00  0.62070179140E+03  0.62070179142E+03  0.50400001928E-02 0. -1.
       -1   -1    0    0    0  501  0.00000000000E+00  0.00000000000E+00 -0.23304025696E+04  0.23304025697E+04  0.50400001928E-02 0.  1.
    10030    2    1    2    0    0  0.00000000000E+00  0.00000000000E+00 -0.17097007782E+04  0.29511043611E+04  0.24053981373E+04 0.  0.
        3    1    3    3  502    0  0.14524919133E+03 -0.16031894159E+03  0.59663556293E+03  0.63464438528E+03  0.10100000352E+00 0. -1.
       -3    1    3    3    0  502 -0.14524919133E+03  0.16031894159E+03 -0.23063363412E+04  0.23164599758E+04  0.10100000352E+00 0.  1.
</event>
<event>
 5   0  0.1168435E-05  0.2391474E+04  0.7818609E-02  0.8442703E-01
       -2   -1    0    0    0  501  0.00000000000E+00  0.00000000000E+00  0.61091925748E+03  0.61091925749E+03  0.25500000920E-02 0.  1.
        2   -1    0    0  501    0  0.00000000000E+00  0.00000000000E+00 -0.23403857666E+04  0.23403857666E+04  0.25500000920E-02 0. -1.
    10030    2    1    2    0    0  0.00000000000E+00  0.00000000000E+00 -0.17294665091E+04  0.29513050241E+04  0.23914738006E+04 0.  0.
        1    1    3    3  502    0 -0.18647983565E+03  0.11778588984E+04 -0.75672056140E+03  0.14123570093E+04  0.50400001928E-02 0.  1.
       -1    1    3    3    0  502  0.18647983565E+03 -0.11778588984E+04 -0.97274594773E+03  0.15389480148E+04  0.50400001928E-02 0. -1.
</event>
<event>
 5   0  0.5042742E-06  0.2465847E+04  0.7818609E-02  0.8415255E-01
       -1   -1    0    0    0  501  0.00000000000E+00  0.00000000000E+00  0.16788044398E+04  0.16788044398E+04  0.50400001928E-02 0.  1.
        1   -1    0    0  501    0  0.00000000000E+00  0.00000000000E+00 -0.90546594032E+03  0.90546594034E+03  0.50400001928E-02 0. -1.
    10030    2    1    2    0    0  0.00000000000E+00  0.00000000000E+00  0.77333849952E+03  0.25842703802E+04  0.24658469058E+04 0.  0.
        5    1    3    3  502    0  0.44647456475E+03  0.32335676893E+03  0.15424370554E+04  0.16379967329E+04  0.46999998093E+01 0.  1.
       -5    1    3    3    0  502 -0.44647456475E+03 -0.32335676893E+03 -0.76909855588E+03  0.94627364733E+03  0.46999998093E+01 0. -1.
</event>
<event>
 5   0  0.1168435E-05  0.2387944E+04  0.7818609E-02  0.8444031E-01
        2   -1    0    0  501    0  0.00000000000E+00  0.00000000000E+00  0.13859120970E+04  0.13859120970E+04  0.25500000920E-02 0. -1.
       -2   -1    0    0    0  501  0.00000000000E+00  0.00000000000E+00 -0.10286145794E+04  0.10286145794E+04  0.25500000920E-02 0.  1.
    10030    2    1    2    0    0  0.00000000000E+00  0.00000000000E+00  0.35729751764E+03  0.24145266764E+04  0.23879442110E+04 0.  0.
        1    1    3    3  502    0  0.11242050066E+04  0.25437047527E+03  0.49360971083E+03  0.12538707199E+04  0.50400001928E-02 0.  1.
       -1    1    3    3    0  502 -0.11242050066E+04 -0.25437047527E+03 -0.13631219319E+03  0.11606559566E+04  0.50400001928E-02 0. -1.
</event>
<event>
 5   0  0.1174210E-05  0.2400791E+04  0.7818609E-02  0.8439207E-01
       -2   -1    0    0    0  501  0.00000000000E+00  0.00000000000E+00  0.70369229820E+03  0.70369229821E+03  0.25500000920E-02 0.  1.
        2   -1    0    0  501    0  0.00000000000E+00  0.00000000000E+00 -0.20476987594E+04  0.20476987594E+04  0.25500000920E-02 0. -1.
    10030    2    1    2    0    0  0.00000000000E+00  0.00000000000E+00 -0.13440064612E+04  0.27513910576E+04  0.24007914079E+04 0.  0.
        3    1    3    3  502    0 -0.24424250902E+03 -0.11546872924E+04 -0.92306780486E+03  0.14983361869E+04  0.10100000352E+00 0.  1.
       -3    1    3    3    0  502  0.24424250902E+03  0.11546872924E+04 -0.42093865636E+03  0.12530548707E+04  0.10100000352E+00 0. -1.
</event>
<event>
 5   0  0.1169371E-05  0.2392231E+04  0.7818609E-02  0.8442418E-01
        2   -1    0    0  501    0  0.00000000000E+00  0.00000000000E+00  0.22061182300E+04  0.22061182300E+04  0.25500000920E-02 0.  1.
       -2   -1    0    0    0  501  0.00000000000E+00  0.00000000000E+00 -0.64851105600E+03  0.64851105601E+03  0.25500000920E-02 0. -1.
    10030    2    1    2    0    0  0.00000000000E+00  0.00000000000E+00  0.15576071740E+04  0.28546292860E+04  0.23922308108E+04 0.  0.
        2    1    3    3  502    0  0.79786808291E+03 -0.52664090056E+03 -0.78996364553E+02  0.95926249874E+03  0.25500000920E-02 0.  1.
       -2    1    3    3    0  502 -0.79786808291E+03  0.52664090056E+03  0.16366035385E+04  0.18953667873E+04  0.25500000920E-02 0. -1.
</event>
<event>
 5   0  0.5064437E-06  0.2403116E+04  0.7818609E-02  0.8438338E-01
       -1   -1    0    0    0  501  0.00000000000E+00  0.00000000000E+00  0.98767644764E+03  0.98767644766E+03  0.50400001928E-02 0. -1.
        1   -1    0    0  501    0  0.00000000000E+00  0.00000000000E+00 -0.14617558099E+04  0.14617558099E+04  0.50400001928E-02 0.  1.
    10030    2    1    2    0    0  0.00000000000E+00  0.00000000000E+00 -0.47407936224E+03  0.24494322575E+04  0.24031161317E+04 0.  0.
        2    1    3    3  502    0  0.65314177546E+03  0.79981560331E+03 -0.86324411168E+03  0.13459158869E+04  0.25500000920E-02 0.  1.
       -2    1    3    3    0  502 -0.65314177546E+03 -0.79981560331E+03  0.38916474944E+03  0.11035163707E+04  0.25500000920E-02 0. -1.
</event>
<event>
 5   0  0.1198313E-05  0.2406384E+04  0.7818609E-02  0.8437117E-01
        2   -1    0    0  501    0  0.00000000000E+00  0.00000000000E+00  0.16589989904E+04  0.16589989904E+04  0.25500000920E-02 0. -1.
       -2   -1    0    0    0  501  0.00000000000E+00  0.00000000000E+00 -0.87261714601E+03  0.87261714601E+03  0.25500000920E-02 0.  1.
    10030    2    1    2    0    0  0.00000000000E+00  0.00000000000E+00  0.78638184440E+03  0.25316161364E+04  0.24063839795E+04 0.  0.
        5    1    3    3  502    0 -0.39236940791E+03  0.11364994459E+04  0.34539381632E+03  0.12509611190E+04  0.46999998093E+01 0. -1.
       -5    1    3    3    0  502  0.39236940791E+03 -0.11364994459E+04  0.44098802808E+03  0.12806550174E+04  0.46999998093E+01 0.  1.
</event>
<event>
 5   0  0.4067750E-06  0.2401082E+04  0.7818609E-02  0.8439098E-01
        3   -1    0    0  501    0  0.00000000000E+00  0.00000000000E+00  0.16623645991E+04  0.16623646022E+04  0.10100000352E+00 0.  1.
       -3   -1    0    0    0  501  0.00000000000E+00  0.00000000000E+00 -0.86701740641E+03  0.86701741230E+03  0.10100000352E+00 0. -1.
    10030    2    1    2    0    0  0.00000000000E+00  0.00000000000E+00  0.79534719272E+03  0.25293820145E+04  0.24010823014E+04 0.  0.
        5    1    3    3  502    0 -0.65717029735E+03  0.38686686499E+03  0.13744394972E+04  0.15718284870E+04  0.46999998093E+01 0.  1.
       -5    1    3    3    0  502  0.65717029735E+03 -0.38686686499E+03 -0.57909230450E+03  0.95755352752E+03  0.46999998093E+01 0. -1.
</event>
<event>
 5   0  0.1198313E-05  0.2398144E+04  0.7818609E-02  0.8440199E-01
        2   -1    0    0  501    0  0.00000000000E+00  0.00000000000E+00  0.84826191141E+03  0.84826191141E+03  0.25500000920E-02 0. -1.
       -2   -1    0    0    0  501  0.00000000000E+00  0.00000000000E+00 -0.16949642654E+04  0.16949642654E+04  0.25500000920E-02 0.  1.
    10030    2    1    2    0    0  0.00000000000E+00  0.00000000000E+00 -0.84670235401E+03  0.25432261768E+04  0.23981439720E+04 0.  0.
        5    1    3    3  502    0 -0.90095287670E+03 -0.11916864892E+03 -0.12528707490E+04  0.15477804937E+04  0.46999998093E+01 0.  1.
       -5    1    3    3    0  502  0.90095287670E+03  0.11916864892E+03  0.40616839504E+03  0.99544568312E+03  0.46999998093E+01 0. -1.
</event>
<event>
 5   0  0.1168435E-05  0.2394520E+04  0.7818609E-02  0.8441558E-01
       -2   -1    0    0    0  501  0.00000000000E+00  0.00000000000E+00  0.14698019019E+04  0.14698019019E+04  0.25500000920E-02 0.  1.
        2   -1    0    0  501    0  0.00000000000E+00  0.00000000000E+00 -0.97525490944E+03  0.97525490945E+03  0.25500000920E-02 0. -1.
    10030    2    1    2    0    0  0.00000000000E+00  0.00000000000E+00  0.49454699250E+03  0.24450568114E+04  0.23945200110E+04 0.  0.
        1    1    3    3  502    0 -0.50398725489E+03 -0.69178381443E+03 -0.60757118126E+03  0.10496240943E+04  0.50400001928E-02 0. -1.
       -1    1    3    3    0  502  0.50398725489E+03  0.69178381443E+03  0.11021181738E+04  0.13954327171E+04  0.50400001928E-02 0.  1.
</event>
<event>
 5   0  0.1154897E-05  0.2398417E+04  0.7818609E-02  0.8440096E-01
       -2   -1    0    0    0  501  0.00000000000E+00  0.00000000000E+00  0.10813083014E+04  0.10813083014E+04  0.25500000920E-02 0.  1.
        2   -1    0    0  501    0  0.00000000000E+00  0.00000000000E+00 -0.13299639758E+04  0.13299639758E+04  0.25500000920E-02 0. -1.
    10030    2    1    2    0    0  0.00000000000E+00  0.00000000000E+00 -0.24865567442E+03  0.24112722771E+04  0.23984170509E+04 0.  0.
        4    1    3    3  502    0 -0.95761897056E+03  0.66342042994E+03  0.16169433629E+03  0.11761409061E+04  0.12699999809E+01 0. -1.
       -4    1    3    3    0  502  0.95761897056E+03 -0.66342042994E+03 -0.41035001070E+03  0.12351313711E+04  0.12699999809E+01 0.  1.
</event>
<event>
 5   0  0.5064437E-06  0.2400345E+04  0.7818609E-02  0.8439375E-01
        1   -1    0    0  501    0  0.00000000000E+00  0.00000000000E+00  0.16229154422E+04  0.16229154422E+04  0.50400001928E-02 0. -1.
       -1   -1    0    0    0  501  0.00000000000E+00  0.00000000000E+00 -0.88754687083E+03  0.88754687084E+03  0.50400001928E-02 0.  1.
    10030    2    1    2    0    0  0.00000000000E+00  0.00000000000E+00  0.73536857139E+03  0.25104623131E+04  0.24003445773E+04 0.  0.
        2    1    3    3  502    0 -0.31985986047E+03  0.76133659499E+03  0.12785393069E+04  0.15220402427E+04  0.25500000920E-02 0. -1.
       -2    1    3    3    0  502  0.31985986047E+03 -0.76133659499E+03 -0.54317073551E+03  0.98842207034E+03  0.25500000920E-02 0.  1.
</event>
<event>
 5   0  0.5064437E-06  0.2398888E+04  0.7818609E-02  0.8439920E-01
       -1   -1    0    0    0  501  0.00000000000E+00  0.00000000000E+00  0.91080773615E+03  0.91080773617E+03  0.50400001928E-02 0.  1.
        1   -1    0    0  501    0  0.00000000000E+00  0.00000000000E+00 -0.15795490182E+04  0.15795490182E+04  0.50400001928E-02 0. -1.
    10030    2    1    2    0    0  0.00000000000E+00  0.00000000000E+00 -0.66874128206E+03  0.24903567544E+04  0.23988876301E+04 0.  0.
        2    1    3    3  502    0 -0.34828222847E+03 -0.57831596645E+02  0.85564515194E+03  0.92562067300E+03  0.25500000920E-02 0.  1.
       -2    1    3    3    0  502  0.34828222847E+03  0.57831596645E+02 -0.15243864340E+04  0.15647360814E+04  0.25500000920E-02 0. -1.
</event>
<event>
 5   0  0.1198313E-05  0.2395975E+04  0.7818609E-02  0.8441012E-01
       -2   -1    0    0    0  501  0.00000000000E+00  0.00000000000E+00  0.51521577580E+03  0.51521577580E+03  0.25500000920E-02 0. -1.
        2   -1    0    0  501    0  0.00000000000E+00  0.00000000000E+00 -0.27855787340E+04  0.27855787340E+04  0.25500000920E-02 0.  1.
    10030    2    1    2    0    0  0.00000000000E+00  0.00000000000E+00 -0.22703629582E+04  0.33007945098E+04  0.23959750487E+04 0.  0.
        5    1    3    3  502    0  0.54238653724E+03 -0.92689537848E+02  0.33081124650E+03  0.64205348454E+03  0.46999998093E+01 0. -1.
       -5    1    3    3    0  502 -0.54238653724E+03  0.92689537848E+02 -0.26011742047E+04  0.26587410253E+04  0.46999998093E+01 0.  1.
</event>
<event>
 5   0  0.1174210E-05  0.2398838E+04  0.7818609E-02  0.8439939E-01
        2   -1    0    0  501    0  0.00000000000E+00  0.00000000000E+00  0.16523677696E+04  0.16523677696E+04  0.25500000920E-02 0.  1.
       -2   -1    0    0    0  501  0.00000000000E+00  0.00000000000E+00 -0.87063324411E+03  0.87063324411E+03  0.25500000920E-02 0. -1.
    10030    2    1    2    0    0  0.00000000000E+00  0.00000000000E+00  0.78173452545E+03  0.25230010137E+04  0.23988383119E+04 0.  0.
        3    1    3    3  502    0 -0.25048336372E+03 -0.56298954230E+02  0.16231303664E+04  0.16433087611E+04  0.10100000352E+00 0.  1.
       -3    1    3    3    0  502  0.25048336372E+03  0.56298954230E+02 -0.84139584099E+03  0.87969225254E+03  0.10100000352E+00 0. -1.
</event>
<event>
 5   0  0.5064437E-06  0.2381504E+04  0.7818609E-02  0.8446461E-01
        1   -1    0    0  501    0  0.00000000000E+00  0.00000000000E+00  0.22251696846E+04  0.22251696847E+04  0.50400001928E-02 0.  1.
       -1   -1    0    0    0  501  0.00000000000E+00  0.00000000000E+00 -0.63720528314E+03  0.63720528316E+03  0.50400001928E-02 0. -1.
    10030    2    1    2    0    0  0.00000000000E+00  0.00000000000E+00  0.15879644015E+04  0.28623749678E+04  0.23815036250E+04 0.  0.
        2    1    3    3  502    0  0.85563432182E+03 -0.24261992775E+03 -0.15767323492E+03  0.90323605499E+03  0.25500000920E-02 0. -1.
       -2    1    3    3    0  502 -0.85563432182E+03  0.24261992775E+03  0.17456376364E+04  0.19591389128E+04  0.25500000920E-02 0.  1.
</event>
<event>
 5   0  0.1154897E-05  0.2402487E+04  0.7818609E-02  0.8438573E-01
        2   -1    0    0  501    0  0.00000000000E+00  0.00000000000E+00  0.82872677477E+03  0.82872677478E+03  0.25500000920E-02 0. -1.
       -2   -1    0    0    0  501  0.00000000000E+00  0.00000000000E+00 -0.17412081824E+04  0.17412081824E+04  0.25500000920E-02 0.  1.
    10030    2    1    2    0    0  0.00000000000E+00  0.00000000000E+00 -0.91248140758E+03  0.25699349571E+04  0.24024869125E+04 0.  0.
        4    1    3    3  502    0 -0.86928499705E+03  0.30647389813E+03  0.36777492246E+03  0.99239239357E+03  0.12699999809E+01 0. -1.
       -4    1    3    3    0  502  0.86928499705E+03 -0.30647389813E+03 -0.12802563300E+04  0.15775425636E+04  0.12699999809E+01 0.  1.
</event>
<event>
 5   0  0.5034479E-06  0.2390659E+04  0.7818609E-02  0.8443009E-01
       -1   -1    0    0    0  501  0.00000000000E+00  0.00000000000E+00  0.91080517371E+03  0.91080517372E+03  0.50400001928E-02 0. -1.
        1   -1    0    0  501    0  0.00000000000E+00  0.00000000000E+00 -0.15687358071E+04  0.15687358071E+04  0.50400001928E-02 0.  1.
    10030    2    1    2    0    0  0.00000000000E+00  0.00000000000E+00 -0.65793063340E+03  0.24795409808E+04  0.23906590634E+04 0.  0.
        4    1    3    3  502    0  0.61607713066E+02  0.47249175556E+02  0.90818648442E+03  0.91150002649E+03  0.12699999809E+01 0. -1.
       -4    1    3    3    0  502 -0.61607713066E+02 -0.47249175556E+02 -0.15661171178E+04  0.15680409544E+04  0.12699999809E+01 0.  1.
</event>
<event>
 5   0  0.5104174E-06  0.2404339E+04  0.7818609E-02  0.8437881E-01
       -1   -1    0    0    0  501  0.00000000000E+00  0.00000000000E+00  0.91633310892E+03  0.91633310893E+03  0.50400001928E-02 0.  1.
        1   -1    0    0  501    0  0.00000000000E+00  0.00000000000E+00 -0.15771682661E+04  0.15771682661E+04  0.50400001928E-02 0. -1.
    10030    2    1    2    0    0  0.00000000000E+00  0.00000000000E+00 -0.66083515717E+03  0.24935013750E+04  0.24043389949E+04 0.  0.
        3    1    3    3  502    0 -0.46685216543E+03  0.45327651759E+03 -0.13787452798E+04  0.15245816156E+04  0.10100000352E+00 0. -1.
       -3    1    3    3    0  502  0.46685216543E+03 -0.45327651759E+03  0.71791012266E+03  0.96891975942E+03  0.10100000352E+00 0.  1.
</event>
<event>
 5   0  0.1168435E-05  0.2361779E+04  0.7818609E-02  0.8453953E-01
        2   -1    0    0  501    0  0.00000000000E+00  0.00000000000E+00  0.11810212267E+04  0.11810212267E+04  0.25500000920E-02 0. -1.
       -2   -1    0    0    0  501  0.00000000000E+00  0.00000000000E+00 -0.11807580638E+04  0.11807580638E+04  0.25500000920E-02 0.  1.
    10030    2    1    2    0    0  0.00000000000E+00  0.00000000000E+00  0.26316293723E+00  0.23617792905E+04  0.23617792758E+04 0.  0.
        1    1    3    3  502    0 -0.63096576199E+03 -0.52625635864E+03 -0.84806462109E+03  0.11807951344E+04  0.50400001928E-02 0.  1.
       -1    1    3    3    0  502  0.63096576199E+03  0.52625635864E+03  0.84832778403E+03  0.11809841561E+04  0.50400001928E-02 0. -1.
</event>
<event>
 5   0  0.5064437E-06  0.2397872E+04  0.7818609E-02  0.8440301E-01
       -1   -1    0    0    0  501  0.00000000000E+00  0.00000000000E+00  0.74964580783E+03  0.74964580785E+03  0.50400001928E-02 0.  1.
        1   -1    0    0  501    0  0.00000000000E+00  0.00000000000E+00 -0.19175025122E+04  0.19175025122E+04  0.50400001928E-02 0. -1.
    10030    2    1    2    0    0  0.00000000000E+00  0.00000000000E+00 -0.11678567044E+04  0.26671483200E+04  0.23978721566E+04 0.  0.
        2    1    3    3  502    0 -0.50297213223E+03  0.64100641157E+03 -0.15622306353E+04  0.17619406185E+04  0.25500000920E-02 0. -1.
       -2    1    3    3    0  502  0.50297213223E+03 -0.64100641157E+03  0.39437393092E+03  0.90520770151E+03  0.25500000920E-02 0.  1.
</event>
<event>
 5   0  0.1168435E-05  0.2416025E+04  0.7818609E-02  0.8433528E-01
        2   -1    0    0  501    0  0.00000000000E+00  0.00000000000E+00  0.11722416062E+04  0.11722416062E+04  0.25500000920E-02 0.  1.
       -2   -1    0    0    0  501  0.00000000000E+00  0.00000000000E+00 -0.12448752964E+04  0.12448752964E+04  0.25500000920E-02 0. -1.
    10030    2    1    2    0    0  0.00000000000E+00  0.00000000000E+00 -0.72633690236E+02  0.24171169026E+04  0.24160253450E+04 0.  0.
        1    1    3    3  502    0 -0.10687866239E+04 -0.53991914272E+03  0.12337070940E+03  0.12037598847E+04  0.50400001928E-02 0. -1.
       -1    1    3    3    0  502  0.10687866239E+04  0.53991914272E+03 -0.19600439963E+03  0.12133570179E+04  0.50400001928E-02 0.  1.
</event>
<event>
 5   0  0.1174210E-05  0.2401662E+04  0.7818609E-02  0.8438882E-01
       -2   -1    0    0    0  501  0.00000000000E+00  0.00000000000E+00  0.98552458326E+03  0.98552458326E+03  0.25500000920E-02 0.  1.
        2   -1    0    0  501    0  0.00000000000E+00  0.00000000000E+00 -0.14631745589E+04  0.14631745589E+04  0.25500000920E-02 0. -1.
    10030    2    1    2    0    0  0.00000000000E+00  0.00000000000E+00 -0.47764997566E+03  0.24486991422E+04  0.24016615061E+04 0.  0.
        3    1    3    3  502    0  0.85926212389E+03 -0.81361430085E+03 -0.30632580345E+02  0.11837389887E+04  0.10100000352E+00 0.  1.
       -3    1    3    3    0  502 -0.85926212389E+03  0.81361430085E+03 -0.44701739532E+03  0.12649601535E+04  0.10100000352E+00 0. -1.
</event>
<event>
 5   0  0.5196696E-06  0.2469269E+04  0.7818609E-02  0.8414016E-01
        1   -1    0    0  501    0  0.00000000000E+00  0.00000000000E+00  0.12111403692E+04  0.12111403692E+04  0.50400001928E-02 0. -1.
       -1   -1    0    0    0  501  0.00000000000E+00  0.00000000000E+00 -0.12585845888E+04  0.12585845888E+04  0.50400001928E-02 0.  1.
    10030    2    1    2    0    0  0.00000000000E+00  0.00000000000E+00 -0.47444219616E+02  0.24697249580E+04  0.24692692065E+04 0.  0.
        1    1    3    3  502    0  0.44697615491E+01  0.12195664544E+04  0.16856396017E+03  0.12311686010E+04  0.50400001928E-02 0. -1.
       -1    1    3    3    0  502 -0.44697615491E+01 -0.12195664544E+04 -0.21600817978E+03  0.12385563569E+04  0.50400001928E-02 0.  1.
</event>
<event>
 5   0  0.5196696E-06  0.2305607E+04  0.7818609E-02  0.8475714E-01
        1   -1    0    0  501    0  0.00000000000E+00  0.00000000000E+00  0.20466756283E+04  0.20466756283E+04  0.50400001928E-02 0. -1.
       -1   -1    0    0    0  501  0.00000000000E+00  0.00000000000E+00 -0.64932405658E+03  0.64932405660E+03  0.50400001928E-02 0.  1.
    10030    2    1    2    0    0  0.00000000000E+00  0.00000000000E+00  0.13973515717E+04  0.26959996849E+04  0.23056068368E+04 0.  0.
        1    1    3    3  502    0 -0.92529969543E+03  0.68231372960E+03  0.79806254957E+03  0.13995125526E+04  0.50400001928E-02 0.  1.
       -1    1    3    3    0  502  0.92529969543E+03 -0.68231372960E+03  0.59928902212E+03  0.12964871322E+04  0.50400001928E-02 0. -1.
</event>
<event>
 5   0  0.1168435E-05  0.2396914E+04  0.7818609E-02  0.8440660E-01
        2   -1    0    0  501    0  0.00000000000E+00  0.00000000000E+00  0.25981899980E+04  0.25981899980E+04  0.25500000920E-02 0.  1.
       -2   -1    0    0    0  501  0.00000000000E+00  0.00000000000E+00 -0.55280768767E+03  0.55280768768E+03  0.25500000920E-02 0. -1.
    10030    2    1    2    0    0  0.00000000000E+00  0.00000000000E+00  0.20453823104E+04  0.31509976857E+04  0.23969141870E+04 0.  0.
        1    1    3    3  502    0  0.69528520952E+03  0.31634760099E+03  0.22366940523E+04  0.23635349819E+04  0.50400001928E-02 0.  1.
       -1    1    3    3    0  502 -0.69528520952E+03 -0.31634760099E+03 -0.19131174193E+03  0.78746270379E+03  0.50400001928E-02 0. -1.
</event>
<event>
 5   0  0.5064437E-06  0.2388958E+04  0.7818609E-02  0.8443649E-01
        1   -1    0    0  501    0  0.00000000000E+00  0.00000000000E+00  0.11976986782E+04  0.11976986782E+04  0.50400001928E-02 0. -1.
       -1   -1    0    0    0  501  0.00000000000E+00  0.00000000000E+00 -0.11912680486E+04  0.11912680486E+04  0.50400001928E-02 0.  1.
    10030    2    1    2    0    0  0.00000000000E+00  0.00000000000E+00  0.64306296090E+01  0.23889667268E+04  0.23889580718E+04 0.  0.
        2    1    3    3  502    0 -0.19198880466E+03  0.74290978764E+03  0.91864504209E+03  0.11969475206E+04  0.25500000920E-02 0. -1.
       -2    1    3    3    0  502  0.19198880466E+03 -0.74290978764E+03 -0.91221441248E+03  0.11920192062E+04  0.25500000920E-02 0.  1.
</event>
<event>
 5   0  0.5196696E-06  0.2394063E+04  0.7818609E-02  0.8441730E-01
        1   -1    0    0  501    0  0.00000000000E+00  0.00000000000E+00  0.94899656421E+03  0.94899656422E+03  0.50400001928E-02 0.  1.
       -1   -1    0    0    0  501  0.00000000000E+00  0.00000000000E+00 -0.15098936790E+04  0.15098936790E+04  0.50400001928E-02 0. -1.
    10030    2    1    2    0    0  0.00000000000E+00  0.00000000000E+00 -0.56089711475E+03  0.24588902432E+04  0.23940625837E+04 0.  0.
        1    1    3    3  502    0  0.48517898709E+03 -0.33160328950E+02 -0.14038610353E+04  0.14857065872E+04  0.50400001928E-02 0. -1.
       -1    1    3    3    0  502 -0.48517898709E+03  0.33160328950E+02  0.84296392052E+03  0.97318365597E+03  0.50400001928E-02 0.  1.
</event>
<event>
 5   0  0.1174210E-05  0.2395255E+04  0.7818609E-02  0.8441282E-01
        2   -1    0    0  501    0  0.00000000000E+00  0.00000000000E+00  0.17071825028E+04  0.17071825028E+04  0.25500000920E-02 0.  1.
       -2   -1    0    0    0  501  0.00000000000E+00  0.00000000000E+00 -0.84016326688E+03  0.84016326689E+03  0.25500000920E-02 0. -1.
    10030    2    1    2    0    0  0.00000000000E+00  0.00000000000E+00  0.86701923594E+03  0.25473457697E+04  0.23952553340E+04 0.  0.
        3    1    3    3  502    0 -0.59714765202E+02 -0.11920804815E+04  0.53819944699E+03  0.13093053053E+04  0.10100000352E+00 0. -1.
       -3    1    3    3    0  502  0.59714765202E+02  0.11920804815E+04  0.32881978895E+03  0.12380404644E+04  0.10100000352E+00 0.  1.
</event>
<event>
 5   0  0.5034479E-06  0.2405334E+04  0.7818609E-02  0.8437509E-01
        1   -1    0    0  501    0  0.00000000000E+00  0.00000000000E+00  0.16333839505E+04  0.16333839505E+04  0.50400001928E-02 0.  1.
       -1   -1    0    0    0  501  0.00000000000E+00  0.00000000000E+00 -0.88552815234E+03  0.88552815235E+03  0.50400001928E-02 0. -1.
    10030    2    1    2    0    0  0.00000000000E+00  0.00000000000E+00  0.74785579813E+03  0.25189121028E+04  0.24053336332E+04 0.  0.
        4    1    3    3  502    0  0.45163303077E+03 -0.93858072036E+03  0.10035669523E+04  0.14463935853E+04  0.12699999809E+01 0.  1.
       -4    1    3    3    0  502 -0.45163303077E+03  0.93858072036E+03 -0.25571115413E+03  0.10725185175E+04  0.12699999809E+01 0. -1.
</event>
<event>
 5   0  0.5196696E-06  0.2312039E+04  0.7818609E-02  0.8473189E-01
       -1   -1    0    0    0  501  0.00000000000E+00  0.00000000000E+00  0.11901943340E+04  0.11901943340E+04  0.50400001928E-02 0. -1.
        1   -1    0    0  501    0  0.00000000000E+00  0.00000000000E+00 -0.11228259156E+04  0.11228259156E+04  0.50400001928E-02 0.  1.
    10030    2    1    2    0    0  0.00000000000E+00  0.00000000000E+00  0.67368418428E+02  0.23130202496E+04  0.23120389640E+04 0.  0.
        1    1    3    3  502    0  0.85871502663E+01  0.65293656692E+03 -0.92064997928E+03  0.11287144386E+04  0.50400001928E-02 0.  1.
       -1    1    3    3    0  502 -0.85871502663E+01 -0.65293656692E+03  0.98801839771E+03  0.11843058109E+04  0.50400001928E-02 0. -1.
</event>
<event>
 5   0  0.5034479E-06  0.2395819E+04  0.7818609E-02  0.8441071E-01
        1   -1    0    0  501    0  0.00000000000E+00  0.00000000000E+00  0.14531498425E+04  0.14531498425E+04  0.50400001928E-02 0.  1.
       -1   -1    0    0    0  501  0.00000000000E+00  0.00000000000E+00 -0.98750083314E+03  0.98750083315E+03  0.50400001928E-02 0. -1.
    10030    2    1    2    0    0  0.00000000000E+00  0.00000000000E+00  0.46564900931E+03  0.24406506756E+04  0.23958185909E+04 0.  0.
        4    1    3    3  502    0 -0.87520588358E+03 -0.38598560394E+03  0.96743911818E+03  0.13604816373E+04  0.12699999809E+01 0.  1.
       -4    1    3    3    0  502  0.87520588358E+03  0.38598560394E+03 -0.50179010887E+03  0.10801690383E+04  0.12699999809E+01 0. -1.
</event>
<event>
 5   0  0.1169371E-05  0.2383840E+04  0.7818609E-02  0.8445578E-01
        2   -1    0    0  501    0  0.00000000000E+00  0.00000000000E+00  0.11468240751E+04  0.11468240751E+04  0.25500000920E-02 0. -1.
       -2   -1    0    0    0  501  0.00000000000E+00  0.00000000000E+00 -0.12387896175E+04  0.12387896175E+04  0.25500000920E-02 0.  1.
    10030    2    1    2    0    0  0.00000000000E+00  0.00000000000E+00 -0.91965542338E+02  0.23856136926E+04  0.23838403951E+04 0.  0.
        2    1    3    3  502    0 -0.28554316476E+03  0.21868337681E+03 -0.11831891418E+04  0.12366462160E+04  0.25500000920E-02 0.  1.
       -2    1    3    3    0  502  0.28554316476E+03 -0.21868337681E+03  0.10912235995E+04  0.11489674766E+04  0.25500000920E-02 0. -1.
</event>
<event>
 5   0  0.1154897E-05  0.2392291E+04  0.7818609E-02  0.8442395E-01
       -2   -1    0    0    0  501  0.00000000000E+00  0.00000000000E+00  0.94298614901E+03  0.94298614901E+03  0.25500000920E-02 0.  1.
        2   -1    0    0  501    0  0.00000000000E+00  0.00000000000E+00 -0.15172695846E+04  0.15172695846E+04  0.25500000920E-02 0. -1.
    10030    2    1    2    0    0  0.00000000000E+00  0.00000000000E+00 -0.57428343561E+03  0.24602557336E+04  0.23922911216E+04 0.  0.
        4    1    3    3  502    0 -0.56060826643E+03 -0.10094807330E+04  0.33863216777E+02  0.11551975195E+04  0.12699999809E+01 0.  1.
       -4    1    3    3    0  502  0.56060826643E+03  0.10094807330E+04 -0.60814665239E+03  0.13050582142E+04  0.12699999809E+01 0. -1.
</event>
<event>
 5   0  0.1174210E-05  0.2403732E+04  0.7818609E-02  0.8438108E-01
       -2   -1    0    0    0  501  0.00000000000E+00  0.00000000000E+00  0.12726929928E+04  0.12726929928E+04  0.25500000920E-02 0.  1.
        2   -1    0    0  501    0  0.00000000000E+00  0.00000000000E+00 -0.11349807673E+04  0.11349807673E+04  0.25500000920E-02 0. -1.
    10030    2    1    2    0    0  0.00000000000E+00  0.00000000000E+00  0.13771222541E+03  0.24076737601E+04  0.24037321561E+04 0.  0.
        3    1    3    3  502    0 -0.57721132001E+03 -0.10825353446E+03 -0.98147691252E+03  0.11437607598E+04  0.10100000352E+00 0. -1.
       -3    1    3    3    0  502  0.57721132001E+03  0.10825353446E+03  0.11191891379E+04  0.12639130003E+04  0.10100000352E+00 0.  1.
</event>
<event>
 5   0  0.5104174E-06  0.2400281E+04  0.7818609E-02  0.8439398E-01
       -1   -1    0    0    0  501  0.00000000000E+00  0.00000000000E+00  0.73157740010E+03  0.73157740011E+03  0.50400001928E-02 0. -1.
        1   -1    0    0  501    0  0.00000000000E+00  0.00000000000E+00 -0.19688101166E+04  0.19688101167E+04  0.50400001928E-02 0.  1.
    10030    2    1    2    0    0  0.00000000000E+00  0.00000000000E+00 -0.12372327166E+04  0.27003875168E+04  0.24002808056E+04 0.  0.
        3    1    3    3  502    0 -0.11192987975E+04  0.24248139137E+03 -0.10222339674E+04  0.15351186656E+04  0.10100000352E+00 0.  1.
       -3    1    3    3    0  502  0.11192987975E+04 -0.24248139137E+03 -0.21499874911E+03  0.11652688511E+04  0.10100000352E+00 0. -1.
</event>
<event>
 5   0  0.1174210E-05  0.2400294E+04  0.7818609E-02  0.8439394E-01
       -2   -1    0    0    0  501  0.00000000000E+00  0.00000000000E+00  0.14394046226E+04  0.14394046226E+04  0.25500000920E-02 0.  1.
        2   -1    0    0  501    0  0.00000000000E+00  0.00000000000E+00 -0.10006583951E+04  0.10006583951E+04  0.25500000920E-02 0. -1.
    10030    2    1    2    0    0  0.00000000000E+00  0.00000000000E+00  0.43874622752E+03  0.24400630177E+04  0.24002935816E+04 0.  0.
        3    1    3    3  502    0 -0.68383554871E+03 -0.56660198779E+03  0.10400175343E+04  0.13675910764E+04  0.10100000352E+00 0.  1.
       -3    1    3    3    0  502  0.68383554871E+03  0.56660198779E+03 -0.60127130682E+03  0.10724719413E+04  0.10100000352E+00 0. -1.
</event>
<event>
 5   0  0.1169371E-05  0.2402751E+04  0.7818609E-02  0.8438474E-01
       -2   -1    0    0    0  501  0.00000000000E+00  0.00000000000E+00  0.91305659140E+03  0.91305659141E+03  0.25500000920E-02 0. -1.
        2   -1    0    0  501    0  0.00000000000E+00  0.00000000000E+00 -0.15807375458E+04  0.15807375458E+04  0.25500000920E-02 0.  1.
    10030    2    1    2    0    0  0.00000000000E+00  0.00000000000E+00 -0.66768095441E+03  0.24937941372E+04  0.24027507865E+04 0.  0.
        2    1    3    3  502    0 -0.10914406068E+04  0.48424105121E+03 -0.47141821155E+03  0.12837317181E+04  0.25500000920E-02 0. -1.
       -2    1    3    3    0  502  0.10914406068E+04 -0.48424105121E+03 -0.19626274286E+03  0.12100624191E+04  0.25500000920E-02 0.  1.
</event>
<event>
 5   0  0.5104174E-06  0.2398586E+04  0.7818609E-02  0.8440033E-01
       -1   -1    0    0    0  501  0.00000000000E+00  0.00000000000E+00  0.75821024058E+03  0.75821024059E+03  0.50400001928E-02 0. -1.
        1   -1    0    0  501    0  0.00000000000E+00  0.00000000000E+00 -0.18969728657E+04  0.18969728657E+04  0.50400001928E-02 0.  1.
    10030    2    1    2    0    0  0.00000000000E+00  0.00000000000E+00 -0.11387626252E+04  0.26551831063E+04  0.23985864612E+04 0.  0.
        3    1    3    3  502    0  0.80250792146E+02  0.11330774474E+03  0.74928279102E+03  0.76203907103E+03  0.10100000352E+00 0. -1.
       -3    1    3    3    0  502 -0.80250792146E+02 -0.11330774474E+03 -0.18880454162E+04  0.18931440353E+04  0.10100000352E+00 0.  1.
</event>
<event>
 5   0  0.1198313E-05  0.2410960E+04  0.7818609E-02  0.8435412E-01
        2   -1    0    0  501    0  0.00000000000E+00  0.00000000000E+00  0.11826748634E+04  0.11826748634E+04  0.25500000920E-02 0. -1.
       -2   -1    0    0    0  501  0.00000000000E+00  0.00000000000E+00 -0.12287248959E+04  0.12287248959E+04  0.25500000920E-02 0.  1.
    10030    2    1    2    0    0  0.00000000000E+00  0.00000000000E+00 -0.46050032528E+02  0.24113997593E+04  0.24109600149E+04 0.  0.
        5    1    3    3  502    0 -0.12513846355E+03 -0.83359693582E+03  0.83888414023E+03  0.11892401680E+04  0.46999998093E+01 0. -1.
       -5    1    3    3    0  502  0.12513846355E+03  0.83359693582E+03 -0.88493417275E+03  0.12221595913E+04  0.46999998093E+01 0.  1.
</event>
<event>
 5   0  0.4067750E-06  0.2404138E+04  0.7818609E-02  0.8437956E-01
       -3   -1    0    0    0  501  0.00000000000E+00  0.00000000000E+00  0.82407184086E+03  0.82407184704E+03  0.10100000352E+00 0.  1.
        3   -1    0    0  501    0  0.00000000000E+00  0.00000000000E+00 -0.17534512606E+04  0.17534512636E+04  0.10100000352E+00 0. -1.
    10030    2    1    2    0    0  0.00000000000E+00  0.00000000000E+00 -0.92937941979E+03  0.25775231106E+04  0.24041379494E+04 0.  0.
        4    1    3    3  502    0 -0.43014502191E+02 -0.36865794900E+03 -0.16904787801E+04  0.17307452295E+04  0.12699999809E+01 0. -1.
       -4    1    3    3    0  502  0.43014502191E+02  0.36865794900E+03  0.76109936028E+03  0.84677788107E+03  0.12699999809E+01 0.  1.
</event>
<event>
 5   0  0.1198313E-05  0.2403869E+04  0.7818609E-02  0.8438057E-01
       -2   -1    0    0    0  501  0.00000000000E+00  0.00000000000E+00  0.82413747390E+03  0.82413747391E+03  0.25500000920E-02 0.  1.
        2   -1    0    0  501    0  0.00000000000E+00  0.00000000000E+00 -0.17529190071E+04  0.17529190071E+04  0.25500000920E-02 0. -1.
    10030    2    1    2    0    0  0.00000000000E+00  0.00000000000E+00 -0.92878153319E+03  0.25770564810E+04  0.24038687506E+04 0.  0.
        5    1    3    3  502    0  0.97356638710E+03 -0.23091809162E+03 -0.11783033752E+04  0.15458252195E+04  0.46999998093E+01 0. -1.
       -5    1    3    3    0  502 -0.97356638710E+03  0.23091809162E+03  0.24952184202E+03  0.10312312615E+04  0.46999998093E+01 0.  1.
</event>
<event>
 5   0  0.1168435E-05  0.2403466E+04  0.7818609E-02  0.8438207E-01
        2   -1    0    0  501    0  0.00000000000E+00  0.00000000000E+00  0.41642953360E+03  0.41642953361E+03  0.25500000920E-02 0.  1.
       -2   -1    0    0    0  501  0.00000000000E+00  0.00000000000E+00 -0.34679635810E+04  0.34679635810E+04  0.25500000920E-02 0. -1.
    10030    2    1    2    0    0  0.00000000000E+00  0.00000000000E+00 -0.30515340474E+04  0.38843931146E+04  0.24034662108E+04 0.  0.
        1    1    3    3  502    0  0.10317457596E+04 -0.40724304399E+03 -0.22730851326E+04  0.25292809708E+04  0.50400001928E-02 0. -1.
       -1    1    3    3    0  502 -0.10317457596E+04  0.40724304399E+03 -0.77844891478E+03  0.13551121438E+04  0.50400001928E-02 0.  1.
</event>
<event>
 5   0  0.1154897E-05  0.2403560E+04  0.7818609E-02  0.8438172E-01
        2   -1    0    0  501    0  0.00000000000E+00  0.00000000000E+00  0.11350614355E+04  0.11350614355E+04  0.25500000920E-02 0.  1.
       -2   -1    0    0    0  501  0.00000000000E+00  0.00000000000E+00 -0.12724206168E+04  0.12724206168E+04  0.25500000920E-02 0. -1.
    10030    2    1    2    0    0  0.00000000000E+00  0.00000000000E+00 -0.13735918134E+03  0.24074820523E+04  0.24035603358E+04 0.  0.
        4    1    3    3  502    0 -0.99320443581E+03 -0.17786122628E+03  0.58521350076E+03  0.11664330763E+04  0.12699999809E+01 0.  1.
       -4    1    3    3    0  502  0.99320443581E+03  0.17786122628E+03 -0.72257268209E+03  0.12410489760E+04  0.12699999809E+01 0. -1.
</event>
<event>
 5   0  0.5104174E-06  0.2393313E+04  0.7818609E-02  0.8442011E-01
       -1   -1    0    0    0  501  0.00000000000E+00  0.00000000000E+00  0.10865768085E+04  0.10865768085E+04  0.50400001928E-02 0. -1.
        1   -1    0    0  501    0  0.00000000000E+00  0.00000000000E+00 -0.13178878456E+04  0.13178878456E+04  0.50400001928E-02 0.  1.
    10030    2    1    2    0    0  0.00000000000E+00  0.00000000000E+00 -0.23131103717E+03  0.24044646541E+04  0.23933126576E+04 0.  0.
        3    1    3    3  502    0  0.13141999364E+03  0.12748032330E+03  0.10724214894E+04  0.10879385592E+04  0.10100000352E+00 0. -1.
       -3    1    3    3    0  502 -0.13141999364E+03 -0.12748032330E+03 -0.13037325265E+04  0.13165260949E+04  0.10100000352E+00 0.  1.
</event>
<event>
 5   0  0.5034479E-06  0.2402882E+04  0.7818609E-02  0.8438425E-01
        1   -1    0    0  501    0  0.00000000000E+00  0.00000000000E+00  0.14957127296E+04  0.14957127296E+04  0.50400001928E-02 0.  1.
       -1   -1    0    0    0  501  0.00000000000E+00  0.00000000000E+00 -0.96506521584E+03  0.96506521585E+03  0.50400001928E-02 0. -1.
    10030    2    1    2    0    0  0.00000000000E+00  0.00000000000E+00  0.53064751377E+03  0.24607779455E+04  0.24028818766E+04 0.  0.
        4    1    3    3  502    0 -0.12693614221E+03  0.10404794426E+04  0.86662371266E+03  0.13600546043E+04  0.12699999809E+01 0.  1.
       -4    1    3    3    0  502  0.12693614221E+03 -0.10404794426E+04 -0.33597619889E+03  0.11007233411E+04  0.12699999809E+01 0. -1.
</event>
<event>
 5   0  0.1168435E-05  0.2403485E+04  0.7818609E-02  0.8438200E-01
        2   -1    0    0  501    0  0.00000000000E+00  0.00000000000E+00  0.14972233701E+04  0.14972233701E+04  0.25500000920E-02 0. -1.
       -2   -1    0    0    0  501  0.00000000000E+00  0.00000000000E+00 -0.96457565764E+03  0.96457565765E+03  0.25500000920E-02 0.  1.
    10030    2    1    2    0    0  0.00000000000E+00  0.00000000000E+00  0.53264771246E+03  0.24617990278E+04  0.24034851502E+04 0.  0.
        1    1    3    3  502    0 -0.46396929302E+03  0.76961476727E+03 -0.55091340774E+03  0.10540777854E+04  0.50400001928E-02 0.  1.
       -1    1    3    3    0  502  0.46396929302E+03 -0.76961476727E+03  0.10835611202E+04  0.14077212423E+04  0.50400001928E-02 0. -1.
</event>
<event>
 5   0  0.5196696E-06  0.2391906E+04  0.7818609E-02  0.8442540E-01
        1   -1    0    0  501    0  0.00000000000E+00  0.00000000000E+00  0.15784314246E+04  0.15784314246E+04  0.50400001928E-02 0. -1.
       -1   -1    0    0    0  501  0.00000000000E+00  0.00000000000E+00 -0.90615492467E+03  0.90615492469E+03  0.50400001928E-02 0.  1.
    10030    2    1    2    0    0  0.00000000000E+00  0.00000000000E+00  0.67227649989E+03  0.24845863493E+04  0.23919058582E+04 0.  0.
        1    1    3    3  502    0  0.95157201598E+03 -0.56738152280E+03 -0.13175072370E+03  0.11156923175E+04  0.50400001928E-02 0.  1.
       -1    1    3    3    0  502 -0.95157201598E+03  0.56738152280E+03  0.80402722359E+03  0.13688940318E+04  0.50400001928E-02 0. -1.
</event>
<event>
 5   0  0.1154897E-05  0.2406336E+04  0.7818609E-02  0.8437135E-01
       -2   -1    0    0    0  501  0.00000000000E+00  0.00000000000E+00  0.18973559160E+04  0.18973559160E+04  0.25500000920E-02 0.  1.
        2   -1    0    0  501    0  0.00000000000E+00  0.00000000000E+00 -0.76296357033E+03  0.76296357033E+03  0.25500000920E-02 0. -1.
    10030    2    1    2    0    0  0.00000000000E+00  0.00000000000E+00  0.11343923457E+04  0.26603194863E+04  0.24063361726E+04 0.  0.
        4    1    3    3  502    0  0.26410221140E+03 -0.34471767990E+03 -0.67330107995E+03  0.80119673868E+03  0.12699999809E+01 0. -1.
       -4    1    3    3    0  502 -0.26410221140E+03  0.34471767990E+03  0.18076934256E+04  0.18591227476E+04  0.12699999809E+01 0.  1.
</event>
<event>
 5   0  0.1198313E-05  0.2383119E+04  0.7818609E-02  0.8445851E-01
        2   -1    0    0  501    0  0.00000000000E+00  0.00000000000E+00  0.78340923826E+03  0.78340923827E+03  0.25500000920E-02 0. -1.
       -2   -1    0    0    0  501  0.00000000000E+00  0.00000000000E+00 -0.18123528309E+04  0.18123528309E+04  0.25500000920E-02 0.  1.
    10030    2    1    2    0    0  0.00000000000E+00  0.00000000000E+00 -0.10289435927E+04  0.25957620692E+04  0.23831189234E+04 0.  0.
        5    1    3    3  502    0  0.10391504022E+04 -0.50585591151E+03 -0.83028827038E+03  0.14230686784E+04  0.46999998093E+01 0.  1.
       -5    1    3    3    0  502 -0.10391504022E+04  0.50585591151E+03 -0.19865532228E+03  0.11726933907E+04  0.46999998093E+01 0. -1.
</event>
<event>
 5   0  0.1198313E-05  0.2388314E+04  0.7818609E-02  0.8443892E-01
        2   -1    0    0  501    0  0.00000000000E+00  0.00000000000E+00  0.13298167589E+04  0.13298167590E+04  0.25500000920E-02 0.  1.
       -2   -1    0    0    0  501  0.00000000000E+00  0.00000000000E+00 -0.10723360079E+04  0.10723360079E+04  0.25500000920E-02 0. -1.
    10030    2    1    2    0    0  0.00000000000E+00  0.00000000000E+00  0.25748075105E+03  0.24021527668E+04  0.23883135427E+04 0.  0.
        5    1    3    3  502    0  0.34752913186E+03 -0.10935122704E+04 -0.20399787123E+03  0.11654110024E+04  0.46999998093E+01 0.  1.
       -5    1    3    3    0  502 -0.34752913186E+03  0.10935122704E+04  0.46147862228E+03  0.12367417644E+04  0.46999998093E+01 0. -1.
</event>
<event>
 5   0  0.5034479E-06  0.2383655E+04  0.7818609E-02  0.8445648E-01
       -1   -1    0    0    0  501  0.00000000000E+00  0.00000000000E+00  0.15641529756E+04  0.15641529756E+04  0.50400001928E-02 0.  1.
        1   -1    0    0  501    0  0.00000000000E+00  0.00000000000E+00 -0.90812919677E+03  0.90812919679E+03  0.50400001928E-02 0. -1.
    10030    2    1    2    0    0  0.00000000000E+00  0.00000000000E+00  0.65602377886E+03  0.24722821724E+04  0.23836551642E+04 0.  0.
        4    1    3    3  502    0 -0.49924450894E+03  0.60361959693E+03 -0.60363411080E+03  0.98892742410E+03  0.12699999809E+01 0. -1.
       -4    1    3    3    0  502  0.49924450894E+03 -0.60361959693E+03  0.12596578897E+04  0.14833547483E+04  0.12699999809E+01 0.  1.
</event>
<event>
 5   0  0.5034479E-06  0.2399283E+04  0.7818609E-02  0.8439772E-01
        1   -1    0    0  501    0  0.00000000000E+00  0.00000000000E+00  0.14693573609E+04  0.14693573609E+04  0.50400001928E-02 0. -1.
       -1   -1    0    0    0  501  0.00000000000E+00  0.00000000000E+00 -0.97943509839E+03  0.97943509840E+03  0.50400001928E-02 0.  1.
    10030    2    1    2    0    0  0.00000000000E+00  0.00000000000E+00  0.48992226248E+03  0.24487924593E+04  0.23992833691E+04 0.  0.
        4    1    3    3  502    0  0.96012592557E+01 -0.67212119227E+03  0.12590940709E+04  0.14272906409E+04  0.12699999809E+01 0. -1.
       -4    1    3    3    0  502 -0.96012592557E+01  0.67212119227E+03 -0.76917180840E+03  0.10215018184E+04  0.12699999809E+01 0.  1.
</event>
<event>
 5   0  0.5196696E-06  0.2407841E+04  0.7818609E-02  0.8436574E-01
        1   -1    0    0  501    0  0.00000000000E+00  0.00000000000E+00  0.17594191547E+04  0.17594191547E+04  0.50400001928E-02 0. -1.
       -1   -1    0    0    0  501  0.00000000000E+00  0.00000000000E+00 -0.82380826933E+03  0.82380826934E+03  0.50400001928E-02 0.  1.
    10030    2    1    2    0    0  0.00000000000E+00  0.00000000000E+00  0.93561088541E+03  0.25832274241E+04  0.24078405669E+04 0.  0.
        1    1    3    3  502    0 -0.11852975947E+04  0.53863488969E+02  0.24900820752E+03  0.12123682407E+04  0.50400001928E-02 0.  1.
       -1    1    3    3    0  502  0.11852975947E+04 -0.53863488969E+02  0.68660267789E+03  0.13708591834E+04  0.50400001928E-02 0. -1.
</event>
<event>
 5   0  0.1198313E-05  0.2402103E+04  0.7818609E-02  0.8438716E-01
       -2   -1    0    0    0  501  0.00000000000E+00  0.00000000000E+00  0.80670271285E+03  0.80670271285E+03  0.25500000920E-02 0.  1.
        2   -1    0    0  501    0  0.00000000000E+00  0.00000000000E+00 -0.17881744910E+04  0.17881744910E+04  0.25500000920E-02 0. -1.
    10030    2    1    2    0    0  0.00000000000E+00  0.00000000000E+00 -0.98147177813E+03  0.25948772038E+04  0.24021034224E+04 0.  0.
        5    1    3    3  502    0 -0.51399995454E+03  0.63926572398E+03  0.45696384601E+03  0.93898597736E+03  0.46999998093E+01 0.  1.
       -5    1    3    3    0  502  0.51399995454E+03 -0.63926572398E+03 -0.14384356241E+04  0.16558912265E+04  0.46999998093E+01 0. -1.
</event>
<event>
 5   0  0.1154897E-05  0.2415138E+04  0.7818609E-02  0.8433858E-01
       -2   -1    0    0    0  501  0.00000000000E+00  0.00000000000E+00  0.88561345868E+03  0.88561345868E+03  0.25500000920E-02 0. -1.
        2   -1    0    0  501    0  0.00000000000E+00  0.00000000000E+00 -0.16465676571E+04  0.16465676571E+04  0.25500000920E-02 0.  1.
    10030    2    1    2    0    0  0.00000000000E+00  0.00000000000E+00 -0.76095419839E+03  0.25321811158E+04  0.24151376588E+04 0.  0.
        4    1    3    3  502    0  0.60461612179E+03 -0.71850141962E+03 -0.11764913802E+04  0.15053034662E+04  0.12699999809E+01 0.  1.
       -4    1    3    3    0  502 -0.60461612179E+03  0.71850141962E+03  0.41553718185E+03  0.10268776495E+04  0.12699999809E+01 0. -1.
</event>
<event>
 5   0  0.1168435E-05  0.2400450E+04  0.7818609E-02  0.8439335E-01
       -2   -1    0    0    0  501  0.00000000000E+00  0.00000000000E+00  0.95227896371E+03  0.95227896372E+03  0.25500000920E-02 0. -1.
        2   -1    0    0  501    0  0.00000000000E+00  0.00000000000E+00 -0.15127287322E+04  0.15127287322E+04  0.25500000920E-02 0.  1.
    10030    2    1    2    0    0  0.00000000000E+00  0.00000000000E+00 -0.56044976848E+03  0.24650076959E+04  0.24004497491E+04 0.  0.
        1    1    3    3  502    0  0.25230590935E+02 -0.11973971444E+04 -0.36071167100E+03  0.12508035073E+04  0.50400001928E-02 0. -1.
       -1    1    3    3    0  502 -0.25230590935E+02  0.11973971444E+04 -0.19973809748E+03  0.12142041887E+04  0.50400001928E-02 0.  1.
</event>
<event>
 5   0  0.1168435E-05  0.2388891E+04  0.7818609E-02  0.8443674E-01
       -2   -1    0    0    0  501  0.00000000000E+00  0.00000000000E+00  0.45662643691E+03  0.45662643691E+03  0.25500000920E-02 0. -1.
        2   -1    0    0  501    0  0.00000000000E+00  0.00000000000E+00 -0.31244353743E+04  0.31244353743E+04  0.25500000920E-02 0.  1.
    10030    2    1    2    0    0  0.00000000000E+00  0.00000000000E+00 -0.26678089374E+04  0.35810618112E+04  0.23888907822E+04 0.  0.
        1    1    3    3  502    0  0.48290875683E+03 -0.25482923262E+03 -0.29263993283E+04  0.29769030609E+04  0.50400001928E-02 0.  1.
       -1    1    3    3    0  502 -0.48290875683E+03  0.25482923262E+03  0.25859039096E+03  0.60415875028E+03  0.50400001928E-02 0. -1.
</event>
<event>
 5   0  0.5064437E-06  0.2398791E+04  0.7818609E-02  0.8439956E-01
       -1   -1    0    0    0  501  0.00000000000E+00  0.00000000000E+00  0.97405619235E+03  0.97405619236E+03  0.50400001928E-02 0.  1.
        1   -1    0    0  501    0  0.00000000000E+00  0.00000000000E+00 -0.14768647774E+04  0.14768647774E+04  0.50400001928E-02 0. -1.
    10030    2    1    2    0    0  0.00000000000E+00  0.00000000000E+00 -0.50280858502E+03  0.24509209697E+04  0.23987907634E+04 0.  0.
        2    1    3    3  502    0 -0.10587370121E+04  0.21437466921E+03 -0.78394984201E+03  0.13347126711E+04  0.25500000920E-02 0. -1.
       -2    1    3    3    0  502  0.10587370121E+04 -0.21437466921E+03  0.28114125699E+03  0.11162082986E+04  0.25500000920E-02 0.  1.
</event>
<event>
 5   0  0.5042742E-06  0.2397888E+04  0.7818609E-02  0.8440294E-01
        1   -1    0    0  501    0  0.00000000000E+00  0.00000000000E+00  0.12991985747E+04  0.12991985747E+04  0.50400001928E-02 0. -1.
       -1   -1    0    0    0  501  0.00000000000E+00  0.00000000000E+00 -0.11064261616E+04  0.11064261616E+04  0.50400001928E-02 0.  1.
    10030    2    1    2    0    0  0.00000000000E+00  0.00000000000E+00  0.19277241313E+03  0.24056247363E+04  0.23978884813E+04 0.  0.
        5    1    3    3  502    0 -0.80789035630E+03  0.33286300975E+03  0.91998585134E+03  0.12688107297E+04  0.46999998093E+01 0. -1.
       -5    1    3    3    0  502  0.80789035630E+03 -0.33286300975E+03 -0.72721343821E+03  0.11368140067E+04  0.46999998093E+01 0.  1.
</event>
<event>
 5   0  0.1198313E-05  0.2381776E+04  0.7818609E-02  0.8446358E-01
       -2   -1    0    0    0  501  0.00000000000E+00  0.00000000000E+00  0.13026633560E+04  0.13026633560E+04  0.25500000920E-02 0. -1.
        2   -1    0    0  501    0  0.00000000000E+00  0.00000000000E+00 -0.10887035087E+04  0.10887035087E+04  0.25500000920E-02 0.  1.
    10030    2    1    2    0    0  0.00000000000E+00  0.00000000000E+00  0.21395984729E+03  0.23913668647E+04  0.23817759477E+04 0.  0.
        5    1    3    3  502    0 -0.62780664798E+03 -0.61001287342E+03  0.91765628914E+03  0.12682160888E+04  0.46999998093E+01 0. -1.
       -5    1    3    3    0  502  0.62780664798E+03  0.61001287342E+03 -0.70369644184E+03  0.11231507758E+04  0.46999998093E+01 0.  1.
</event>
<event>
 5   0  0.5034479E-06  0.2393742E+04  0.7818609E-02  0.8441850E-01
        1   -1    0    0  501    0  0.00000000000E+00  0.00000000000E+00  0.22410068560E+04  0.22410068560E+04  0.50400001928E-02 0.  1.
       -1   -1    0    0    0  501  0.00000000000E+00  0.00000000000E+00 -0.63922169131E+03  0.63922169133E+03  0.50400001928E-02 0. -1.
    10030    2    1    2    0    0  0.00000000000E+00  0.00000000000E+00  0.16017851647E+04  0.28802285474E+04  0.23937420018E+04 0.  0.
        4    1    3    3  502    0  0.11857027919E+02 -0.89572247087E+03  0.17559586424E+04  0.19712563761E+04  0.12699999809E+01 0.  1.
       -4    1    3    3    0  502 -0.11857027919E+02  0.89572247087E+03 -0.15417347764E+03  0.90897217122E+03  0.12699999809E+01 0. -1.
</event>
<event>
 5   0  0.1169371E-05  0.2403893E+04  0.7818609E-02  0.8438048E-01
       -2   -1    0    0    0  501  0.00000000000E+00  0.00000000000E+00  0.18157902267E+04  0.18157902267E+04  0.25500000920E-02 0.  1.
        2   -1    0    0  501    0  0.00000000000E+00  0.00000000000E+00 -0.79561771518E+03  0.79561771519E+03  0.25500000920E-02 0. -1.
    10030    2    1    2    0    0  0.00000000000E+00  0.00000000000E+00  0.10201725115E+04  0.26114079419E+04  0.24038925695E+04 0.  0.
        2    1    3    3  502    0 -0.62594871820E+03 -0.22641646925E+03  0.15972789669E+04  0.17304266276E+04  0.25500000920E-02 0.  1.
       -2    1    3    3    0  502  0.62594871820E+03  0.22641646925E+03 -0.57710645536E+03  0.88098131432E+03  0.25500000920E-02 0. -1.
</event>
<event>
 5   0  0.5196696E-06  0.2407613E+04  0.7818609E-02  0.8436659E-01
        1   -1    0    0  501    0  0.00000000000E+00  0.00000000000E+00  0.23159566799E+04  0.23159566799E+04  0.50400001928E-02 0. -1.
       -1   -1    0    0    0  501  0.00000000000E+00  0.00000000000E+00 -0.62572397531E+03  0.62572397533E+03  0.50400001928E-02 0.  1.
    10030    2    1    2    0    0  0.00000000000E+00  0.00000000000E+00  0.16902327046E+04  0.29416806552E+04  0.24076126104E+04 0.  0.
        1    1    3    3  502    0  0.78576003579E+03  0.13030008372E+03  0.19479799765E+04  0.21045243963E+04  0.50400001928E-02 0. -1.
       -1    1    3    3    0  502 -0.78576003579E+03 -0.13030008372E+03 -0.25774727193E+03  0.83715625894E+03  0.50400001928E-02 0.  1.
</event>
<event>
 5   0  0.1174210E-05  0.2397736E+04  0.7818609E-02  0.8440352E-01
       -2   -1    0    0    0  501  0.00000000000E+00  0.00000000000E+00  0.91321308526E+03  0.91321308526E+03  0.25500000920E-02 0. -1.
        2   -1    0    0  501    0  0.00000000000E+00  0.00000000000E+00 -0.15738764904E+04  0.15738764904E+04  0.25500000920E-02 0.  1.
    10030    2    1    2    0    0  0.00000000000E+00  0.00000000000E+00 -0.66066340509E+03  0.24870895756E+04  0.23977361036E+04 0.  0.
        3    1    3    3  502    0 -0.11263667856E+04 -0.23262809334E+03  0.20605567166E+02  0.11503228091E+04  0.10100000352E+00 0.  1.
       -3    1    3    3    0  502  0.11263667856E+04  0.23262809334E+03 -0.68126897226E+03  0.13367667666E+04  0.10100000352E+00 0. -1.
</event>
<event>
 5   0  0.1198313E-05  0.2396425E+04  0.7818609E-02  0.8440843E-01
       -2   -1    0    0    0  501  0.00000000000E+00  0.00000000000E+00  0.12228530351E+04  0.12228530351E+04  0.25500000920E-02 0.  1.
        2   -1    0    0  501    0  0.00000000000E+00  0.00000000000E+00 -0.11740680754E+04  0.11740680754E+04  0.25500000920E-02 0. -1.
    10030    2    1    2    0    0  0.00000000000E+00  0.00000000000E+00  0.48784959696E+02  0.23969211105E+04  0.23964245946E+04 0.  0.
        5    1    3    3  502    0 -0.21582476613E+03 -0.97050012476E+03 -0.64450597604E+03  0.11848463466E+04  0.46999998093E+01 0. -1.
       -5    1    3    3    0  502  0.21582476613E+03  0.97050012476E+03  0.69329093573E+03  0.12120747639E+04  0.46999998093E+01 0.  1.
</event>
<event>
 5   0  0.5196696E-06  0.2399385E+04  0.7818609E-02  0.8439734E-01
       -1   -1    0    0    0  501  0.00000000000E+00  0.00000000000E+00  0.11361014041E+04  0.11361014041E+04  0.50400001928E-02 0. -1.
        1   -1    0    0  501    0  0.00000000000E+00  0.00000000000E+00 -0.12668433209E+04  0.12668433209E+04  0.50400001928E-02 0.  1.
    10030    2    1    2    0    0  0.00000000000E+00  0.00000000000E+00 -0.13074191681E+03  0.24029447250E+04  0.23993853176E+04 0.  0.
        1    1    3    3  502    0 -0.48441160235E+03 -0.55888151072E+02 -0.11631194528E+04  0.12611998048E+04  0.50400001928E-02 0.  1.
       -1    1    3    3    0  502  0.48441160235E+03  0.55888151072E+02  0.10323775360E+04  0.11417449202E+04  0.50400001928E-02 0. -1.
</event>
<event>
 5   0  0.5034479E-06  0.2400826E+04  0.7818609E-02  0.8439194E-01
        1   -1    0    0  501    0  0.00000000000E+00  0.00000000000E+00  0.19458169815E+04  0.19458169815E+04  0.50400001928E-02 0. -1.
       -1   -1    0    0    0  501  0.00000000000E+00  0.00000000000E+00 -0.74055859635E+03  0.74055859637E+03  0.50400001928E-02 0.  1.
    10030    2    1    2    0    0  0.00000000000E+00  0.00000000000E+00  0.12052583852E+04  0.26863755779E+04  0.24008261017E+04 0.  0.
        4    1    3    3  502    0 -0.10187355460E+04  0.55845519559E+03  0.94071805067E+03  0.14948733665E+04  0.12699999809E+01 0. -1.
       -4    1    3    3    0  502  0.10187355460E+04 -0.55845519559E+03  0.26454033450E+03  0.11915022114E+04  0.12699999809E+01 0.  1.
</event>
<event>
 5   0  0.4067750E-06  0.2393263E+04  0.7818609E-02  0.8442030E-01
       -3   -1    0    0    0  501  0.00000000000E+00  0.00000000000E+00  0.73516597132E+03  0.73516597826E+03  0.10100000352E+00 0.  1.
        3   -1    0    0  501    0  0.00000000000E+00  0.00000000000E+00 -0.19477596111E+04  0.19477596137E+04  0.10100000352E+00 0. -1.
    10030    2    1    2    0    0  0.00000000000E+00  0.00000000000E+00 -0.12125936397E+04  0.26829255919E+04  0.23932627095E+04 0.  0.
        4    1    3    3  502    0  0.24637322461E+01  0.91230309440E+03 -0.14743713749E+04  0.17338037865E+04  0.12699999809E+01 0. -1.
       -4    1    3    3    0  502 -0.24637322461E+01 -0.91230309440E+03  0.26177773517E+03  0.94912180544E+03  0.12699999809E+01 0.  1.
</event>
<event>
 5   0  0.5042742E-06  0.2394448E+04  0.7818609E-02  0.8441585E-01
        1   -1    0    0  501    0  0.00000000000E+00  0.00000000000E+00  0.17613400065E+04  0.17613400065E+04  0.50400001928E-02 0.  1.
       -1   -1    0    0    0  501  0.00000000000E+00  0.00000000000E+00 -0.81378104019E+03  0.81378104020E+03  0.50400001928E-02 0. -1.
    10030    2    1    2    0    0  0.00000000000E+00  0.00000000000E+00  0.94755896635E+03  0.25751210467E+04  0.23944478300E+04 0.  0.
        5    1    3    3  502    0 -0.72361580596E+02  0.50869356362E+03 -0.68916377689E+03  0.85963605170E+03  0.46999998093E+01 0. -1.
       -5    1    3    3    0  502  0.72361580596E+02 -0.50869356362E+03  0.16367227432E+04  0.17154849950E+04  0.46999998093E+01 0.  1.
</event>
<event>
 5   0  0.1198313E-05  0.2394186E+04  0.7818609E-02  0.8441683E-01
       -2   -1    0    0    0  501  0.00000000000E+00  0.00000000000E+00  0.14560309092E+04  0.14560309092E+04  0.25500000920E-02 0.  1.
        2   -1    0    0  501    0  0.00000000000E+00  0.00000000000E+00 -0.98420425981E+03  0.98420425981E+03  0.25500000920E-02 0. -1.
    10030    2    1    2    0    0  0.00000000000E+00  0.00000000000E+00  0.47182664940E+03  0.24402351690E+04  0.23941861442E+04 0.  0.
        5    1    3    3  502    0 -0.76941153424E+03 -0.40886197742E+03  0.10725840665E+04  0.13818903340E+04  0.46999998093E+01 0.  1.
       -5    1    3    3    0  502  0.76941153424E+03  0.40886197742E+03 -0.60075741707E+03  0.10583448350E+04  0.46999998093E+01 0. -1.
</event>
<event>
 5   0  0.1198313E-05  0.2396417E+04  0.7818609E-02  0.8440846E-01
        2   -1    0    0  501    0  0.00000000000E+00  0.00000000000E+00  0.97023788599E+03  0.97023788600E+03  0.25500000920E-02 0. -1.
       -2   -1    0    0    0  501  0.00000000000E+00  0.00000000000E+00 -0.14797440561E+04  0.14797440561E+04  0.25500000920E-02 0.  1.
    10030    2    1    2    0    0  0.00000000000E+00  0.00000000000E+00 -0.50950617015E+03  0.24499819421E+04  0.23964171130E+04 0.  0.
        5    1    3    3  502    0  0.78137289651E+03  0.81868137884E+03  0.14761596691E+03  0.11413130014E+04  0.46999998093E+01 0. -1.
       -5    1    3    3    0  502 -0.78137289651E+03 -0.81868137884E+03 -0.65712213707E+03  0.13086689408E+04  0.46999998093E+01 0.  1.
</event>
<event>
 5   0  0.1174210E-05  0.2406780E+04  0.7818609E-02  0.8436970E-01
       -2   -1    0    0    0  501  0.00000000000E+00  0.00000000000E+00  0.83994718165E+03  0.83994718165E+03  0.25500000920E-02 0.  1.
        2   -1    0    0  501    0  0.00000000000E+00  0.00000000000E+00 -0.17240929059E+04  0.17240929059E+04  0.25500000920E-02 0. -1.
    10030    2    1    2    0    0  0.00000000000E+00  0.00000000000E+00 -0.88414572421E+03  0.25640400875E+04  0.24067795721E+04 0.  0.
        3    1    3    3  502    0  0.20837059271E+02  0.41959277571E+02  0.83897531502E+03  0.84028230579E+03  0.10100000352E+00 0.  1.
       -3    1    3    3    0  502 -0.20837059271E+02 -0.41959277571E+02 -0.17231210392E+04  0.17237577817E+04  0.10100000352E+00 0. -1.
</event>
<event>
 5   0  0.1198313E-05  0.2393794E+04  0.7818609E-02  0.8441831E-01
       -2   -1    0    0    0  501  0.00000000000E+00  0.00000000000E+00  0.82294552254E+03  0.82294552255E+03  0.25500000920E-02 0.  1.
        2   -1    0    0  501    0  0.00000000000E+00  0.00000000000E+00 -0.17407743240E+04  0.17407743240E+04  0.25500000920E-02 0. -1.
    10030    2    1    2    0    0  0.00000000000E+00  0.00000000000E+00 -0.91782880144E+03  0.25637198465E+04  0.23937940059E+04 0.  0.
        5    1    3    3  502    0 -0.83493903592E+03  0.62778959459E+03  0.16676270724E+03  0.10578633462E+04  0.46999998093E+01 0. -1.
       -5    1    3    3    0  502  0.83493903592E+03 -0.62778959459E+03 -0.10845915087E+04  0.15058565003E+04  0.46999998093E+01 0.  1.
</event>
<event>
 5   0  0.5064437E-06  0.2408473E+04  0.7818609E-02  0.8436338E-01
        1   -1    0    0  501    0  0.00000000000E+00  0.00000000000E+00  0.13928587944E+04  0.13928587944E+04  0.50400001928E-02 0. -1.
       -1   -1    0    0    0  501  0.00000000000E+00  0.00000000000E+00 -0.10411575178E+04  0.10411575178E+04  0.50400001928E-02 0.  1.
    10030    2    1    2    0    0  0.00000000000E+00  0.00000000000E+00  0.35170127660E+03  0.24340163122E+04  0.24084728813E+04 0.  0.
        2    1    3    3  502    0  0.10450070035E+04 -0.31279759889E+03  0.69146103873E+03  0.12915108762E+04  0.25500000920E-02 0.  1.
       -2    1    3    3    0  502 -0.10450070035E+04  0.31279759889E+03 -0.33975976214E+03  0.11425054360E+04  0.25500000920E-02 0. -1.
</event>
<event>
 5   0  0.1174210E-05  0.2417557E+04  0.7818609E-02  0.8432960E-01
        2   -1    0    0  501    0  0.00000000000E+00  0.00000000000E+00  0.12118983983E+04  0.12118983983E+04  0.25500000920E-02 0.  1.
       -2   -1    0    0    0  501  0.00000000000E+00  0.00000000000E+00 -0.12056665037E+04  0.12056665037E+04  0.25500000920E-02 0. -1.
    10030    2    1    2    0    0  0.00000000000E+00  0.00000000000E+00  0.62318945153E+01  0.24175649020E+04  0.24175568698E+04 0.  0.
        3    1    3    3  502    0 -0.80041145047E+03  0.73016575286E+03  0.53916322801E+03  0.12101642506E+04  0.10100000352E+00 0.  1.
       -3    1    3    3    0  502  0.80041145047E+03 -0.73016575286E+03 -0.53293133349E+03  0.12074006514E+04  0.10100000352E+00 0. -1.
</event>
<event>
 5   0  0.1169371E-05  0.2412158E+04  0.7818609E-02  0.8434966E-01
        2   -1    0    0  501    0  0.00000000000E+00  0.00000000000E+00  0.10252447243E+04  0.10252447243E+04  0.25500000920E-02 0.  1.
       -2   -1    0    0    0  501  0.00000000000E+00  0.00000000000E+00 -0.14188091454E+04  0.14188091454E+04  0.25500000920E-02 0. -1.
    10030    2    1    2    0    0  0.00000000000E+00  0.00000000000E+00 -0.39356442104E+03  0.24440538697E+04  0.24121580306E+04 0.  0.
        2    1    3    3  502    0 -0.31756020325E+03 -0.87116380163E+03 -0.97824957389E+03  0.13478661212E+04  0.25500000920E-02 0. -1.
       -2    1    3    3    0  502  0.31756020325E+03  0.87116380163E+03  0.58468515285E+03  0.10961877485E+04  0.25500000920E-02 0.  1.
</event>
<event>
 5   0  0.1174210E-05  0.2382879E+04  0.7818609E-02  0.8445941E-01
        2   -1    0    0  501    0  0.00000000000E+00  0.00000000000E+00  0.12433565943E+04  0.12433565943E+04  0.25500000920E-02 0.  1.
       -2   -1    0    0    0  501  0.00000000000E+00  0.00000000000E+00 -0.11416902281E+04  0.11416902281E+04  0.25500000920E-02 0. -1.
    10030    2    1    2    0    0  0.00000000000E+00  0.00000000000E+00  0.10166636621E+03  0.23850468225E+04  0.23828789930E+04 0.  0.
        3    1    3    3  502    0 -0.34762442960E+03 -0.99173816017E+03  0.61271787062E+03  0.12164746284E+04  0.10100000352E+00 0.  1.
       -3    1    3    3    0  502  0.34762442960E+03  0.99173816017E+03 -0.51105150440E+03  0.11685721941E+04  0.10100000352E+00 0. -1.
</event>
<event>
 5   0  0.5064437E-06  0.2402771E+04  0.7818609E-02  0.8438467E-01
       -1   -1    0    0    0  501  0.00000000000E+00  0.00000000000E+00  0.10428506424E+04  0.10428506424E+04  0.50400001928E-02 0.  1.
        1   -1    0    0  501    0  0.00000000000E+00  0.00000000000E+00 -0.13840210551E+04  0.13840210551E+04  0.50400001928E-02 0. -1.
    10030    2    1    2    0    0  0.00000000000E+00  0.00000000000E+00 -0.34117041269E+03  0.24268716975E+04  0.24027711056E+04 0.  0.
        2    1    3    3  502    0  0.84571710156E+03  0.63599386912E+03  0.40398058564E+03  0.11326632028E+04  0.25500000920E-02 0.  1.
       -2    1    3    3    0  502 -0.84571710156E+03 -0.63599386912E+03 -0.74515099833E+03  0.12942084947E+04  0.25500000920E-02 0. -1.
</event>
<event>
 5   0  0.1169371E-05  0.2402682E+04  0.7818609E-02  0.8438500E-01
       -2   -1    0    0    0  501  0.00000000000E+00  0.00000000000E+00  0.58351307643E+03  0.58351307644E+03  0.25500000920E-02 0.  1.
        2   -1    0    0  501    0  0.00000000000E+00  0.00000000000E+00 -0.24733292127E+04  0.24733292127E+04  0.25500000920E-02 0. -1.
    10030    2    1    2    0    0  0.00000000000E+00  0.00000000000E+00 -0.18898161362E+04  0.30568422891E+04  0.24026817833E+04 0.  0.
        2    1    3    3  502    0  0.23936317328E+03  0.80934138134E+03 -0.20325934791E+04  0.22008553909E+04  0.25500000920E-02 0. -1.
       -2    1    3    3    0  502 -0.23936317328E+03 -0.80934138134E+03  0.14277734288E+03  0.85598689821E+03  0.25500000920E-02 0.  1.
</event>
<event>
 5   0  0.5034479E-06  0.2405456E+04  0.7818609E-02  0.8437464E-01
       -1   -1    0    0    0  501  0.00000000000E+00  0.00000000000E+00  0.69991860378E+03  0.69991860379E+03  0.50400001928E-02 0.  1.
        1   -1    0    0  501    0  0.00000000000E+00  0.00000000000E+00 -0.20667474172E+04  0.20667474172E+04  0.50400001928E-02 0. -1.
    10030    2    1    2    0    0  0.00000000000E+00  0.00000000000E+00 -0.13668288134E+04  0.27666660210E+04  0.24054562699E+04 0.  0.
        4    1    3    3  502    0  0.43876064114E+03 -0.26700840349E+03 -0.19342653454E+04  0.20012966864E+04  0.12699999809E+01 0. -1.
       -4    1    3    3    0  502 -0.43876064114E+03  0.26700840349E+03  0.56743653192E+03  0.76536933464E+03  0.12699999809E+01 0.  1.
</event>
<event>
 5   0  0.5034479E-06  0.2395738E+04  0.7818609E-02  0.8441101E-01
       -1   -1    0    0    0  501  0.00000000000E+00  0.00000000000E+00  0.80545749188E+03  0.80545749189E+03  0.50400001928E-02 0. -1.
        1   -1    0    0  501    0  0.00000000000E+00  0.00000000000E+00 -0.17814599870E+04  0.17814599870E+04  0.50400001928E-02 0.  1.
    10030    2    1    2    0    0  0.00000000000E+00  0.00000000000E+00 -0.97600249512E+03  0.25869174789E+04  0.23957381268E+04 0.  0.
        4    1    3    3  502    0 -0.13015320835E+03 -0.87014750037E+03 -0.13657610098E+04  0.16246234268E+04  0.12699999809E+01 0.  1.
       -4    1    3    3    0  502  0.13015320835E+03  0.87014750037E+03  0.38975851470E+03  0.96229405211E+03  0.12699999809E+01 0. -1.
</event>
<event>
 5   0  0.1154897E-05  0.2397241E+04  0.7818609E-02  0.8440537E-01
       -2   -1    0    0    0  501  0.00000000000E+00  0.00000000000E+00  0.79794379222E+03  0.79794379223E+03  0.25500000920E-02 0.  1.
        2   -1    0    0  501    0  0.00000000000E+00  0.00000000000E+00 -0.18004910942E+04  0.18004910942E+04  0.25500000920E-02 0. -1.
    10030    2    1    2    0    0  0.00000000000E+00  0.00000000000E+00 -0.10025473020E+04  0.25984348865E+04  0.23972406568E+04 0.  0.
        4    1    3    3  502    0  0.88160425716E+03 -0.27758443724E+03  0.32593406233E+03  0.98005806559E+03  0.12699999809E+01 0.  1.
       -4    1    3    3    0  502 -0.88160425716E+03  0.27758443724E+03 -0.13284813644E+04  0.16183768209E+04  0.12699999809E+01 0. -1.
</event>
<event>
 5   0  0.5104174E-06  0.2393220E+04  0.7818609E-02  0.8442046E-01
       -1   -1    0    0    0  501  0.00000000000E+00  0.00000000000E+00  0.12609287259E+04  0.12609287259E+04  0.50400001928E-02 0. -1.
        1   -1    0    0  501    0  0.00000000000E+00  0.00000000000E+00 -0.11355716606E+04  0.11355716606E+04  0.50400001928E-02 0.  1.
    10030    2    1    2    0    0  0.00000000000E+00  0.00000000000E+00  0.12535706529E+03  0.23965003864E+04  0.23932195278E+04 0.  0.
        3    1    3    3  502    0 -0.14360287072E+03 -0.41835146990E+03  0.11760639137E+04  0.12564895846E+04  0.10100000352E+00 0. -1.
       -3    1    3    3    0  502  0.14360287072E+03  0.41835146990E+03 -0.10507068484E+04  0.11400108019E+04  0.10100000352E+00 0.  1.
</event>
<event>
 5   0  0.5064437E-06  0.2394087E+04  0.7818609E-02  0.8441721E-01
       -1   -1    0    0    0  501  0.00000000000E+00  0.00000000000E+00  0.11325411820E+04  0.11325411820E+04  0.50400001928E-02 0.  1.
        1   -1    0    0  501    0  0.00000000000E+00  0.00000000000E+00 -0.12652190075E+04  0.12652190075E+04  0.50400001928E-02 0. -1.
    10030    2    1    2    0    0  0.00000000000E+00  0.00000000000E+00 -0.13267782556E+03  0.23977601895E+04  0.23940865734E+04 0.  0.
        2    1    3    3  502    0 -0.12097762543E+03  0.43547981761E+03 -0.11764775672E+04  0.12603085826E+04  0.25500000920E-02 0. -1.
       -2    1    3    3    0  502  0.12097762543E+03 -0.43547981761E+03  0.10437997416E+04  0.11374516069E+04  0.25500000920E-02 0.  1.
</event>
<event>
 5   0  0.1168435E-05  0.2407139E+04  0.7818609E-02  0.8436836E-01
        2   -1    0    0  501    0  0.00000000000E+00  0.00000000000E+00  0.19465233845E+04  0.19465233845E+04  0.25500000920E-02 0. -1.
       -2   -1    0    0    0  501  0.00000000000E+00  0.00000000000E+00 -0.74418798924E+03  0.74418798925E+03  0.25500000920E-02 0.  1.
    10030    2    1    2    0    0  0.00000000000E+00  0.00000000000E+00  0.12023353952E+04  0.26907113737E+04  0.24071388190E+04 0.  0.
        1    1    3    3  502    0 -0.11765758015E+04 -0.13704483468E+03  0.83951823404E+03  0.14518618284E+04  0.50400001928E-02 0. -1.
       -1    1    3    3    0  502  0.11765758015E+04  0.13704483468E+03  0.36281716117E+03  0.12388495453E+04  0.50400001928E-02 0.  1.
</event>
<event>
 5   0  0.1174210E-05  0.2388828E+04  0.7818609E-02  0.8443698E-01
       -2   -1    0    0    0  501  0.00000000000E+00  0.00000000000E+00  0.13017458819E+04  0.13017458819E+04  0.25500000920E-02 0. -1.
        2   -1    0    0  501    0  0.00000000000E+00  0.00000000000E+00 -0.10959315631E+04  0.10959315631E+04  0.25500000920E-02 0.  1.
    10030    2    1    2    0    0  0.00000000000E+00  0.00000000000E+00  0.20581431887E+03  0.23976774450E+04  0.23888276615E+04 0.  0.
        3    1    3    3  502    0  0.78475468575E+03  0.47070211275E+03  0.87336015848E+03  0.12649736647E+04  0.10100000352E+00 0. -1.
       -3    1    3    3    0  502 -0.78475468575E+03 -0.47070211275E+03 -0.66754583961E+03  0.11327037803E+04  0.10100000352E+00 0.  1.
</event>
<event>
 5   0  0.1169371E-05  0.2402582E+04  0.7818609E-02  0.8438538E-01
       -2   -1    0    0    0  501  0.00000000000E+00  0.00000000000E+00  0.10032565463E+04  0.10032565463E+04  0.25500000920E-02 0.  1.
        2   -1    0    0  501    0  0.00000000000E+00  0.00000000000E+00 -0.14384157398E+04  0.14384157398E+04  0.25500000920E-02 0. -1.
    10030    2    1    2    0    0  0.00000000000E+00  0.00000000000E+00 -0.43515919356E+03  0.24416722861E+04  0.24025819506E+04 0.  0.
        2    1    3    3  502    0  0.31381741098E+03 -0.30080962335E+03 -0.13556806488E+04  0.14236705442E+04  0.25500000920E-02 0. -1.
       -2    1    3    3    0  502 -0.31381741098E+03  0.30080962335E+03  0.92052145525E+03  0.10180017419E+04  0.25500000920E-02 0.  1.
</event>
<event>
 5   0  0.5196696E-06  0.2414664E+04  0.7818609E-02  0.8434034E-01
        1   -1    0    0  501    0  0.00000000000E+00  0.00000000000E+00  0.94319941959E+03  0.94319941960E+03  0.50400001928E-02 0. -1.
       -1   -1    0    0    0  501  0.00000000000E+00  0.00000000000E+00 -0.15454315063E+04  0.15454315063E+04  0.50400001928E-02 0.  1.
    10030    2    1    2    0    0  0.00000000000E+00  0.00000000000E+00 -0.60223208668E+03  0.24886309259E+04  0.24146636203E+04 0.  0.
        1    1    3    3  502    0  0.93185810388E+03 -0.11722462999E+03 -0.10830048421E+04  0.14335273376E+04  0.50400001928E-02 0.  1.
       -1    1    3    3    0  502 -0.93185810388E+03  0.11722462999E+03  0.48077275540E+03  0.10551035883E+04  0.50400001928E-02 0. -1.
</event>
<event>
 5   0  0.1154897E-05  0.2422794E+04  0.7818609E-02  0.8431019E-01
       -2   -1    0    0    0  501  0.00000000000E+00  0.00000000000E+00  0.11460265584E+04  0.11460265584E+04  0.25500000920E-02 0.  1.
        2   -1    0    0  501    0  0.00000000000E+00  0.00000000000E+00 -0.12804957987E+04  0.12804957987E+04  0.25500000920E-02 0. -1.
    10030    2    1    2    0    0  0.00000000000E+00  0.00000000000E+00 -0.13446924037E+03  0.24265223571E+04  0.24227935886E+04 0.  0.
        4    1    3    3  502    0  0.54387683058E+03 -0.17953072784E+03 -0.11363264277E+04  0.12725064449E+04  0.12699999809E+01 0. -1.
       -4    1    3    3    0  502 -0.54387683058E+03  0.17953072784E+03  0.10018571873E+04  0.11540159123E+04  0.12699999809E+01 0.  1.
</event>
<event>
 5   0  0.5104174E-06  0.2407776E+04  0.7818609E-02  0.8436598E-01
       -1   -1    0    0    0  501  0.00000000000E+00  0.00000000000E+00  0.65139234904E+03  0.65139234905E+03  0.50400001928E-02 0.  1.
        1   -1    0    0  501    0  0.00000000000E+00  0.00000000000E+00 -0.22249966213E+04  0.22249966214E+04  0.50400001928E-02 0. -1.
    10030    2    1    2    0    0  0.00000000000E+00  0.00000000000E+00 -0.15736042723E+04  0.28763889704E+04  0.24077755508E+04 0.  0.
        3    1    3    3  502    0  0.11837901966E+03  0.26890801455E+03 -0.21815086615E+04  0.22012053886E+04  0.10100000352E+00 0. -1.
       -3    1    3    3    0  502 -0.11837901966E+03 -0.26890801455E+03  0.60790438915E+03  0.67518358180E+03  0.10100000352E+00 0.  1.
</event>
<event>
 5   0  0.1174210E-05  0.2417180E+04  0.7818609E-02  0.8433100E-01
        2   -1    0    0  501    0  0.00000000000E+00  0.00000000000E+00  0.23360053010E+04  0.23360053010E+04  0.25500000920E-02 0. -1.
       -2   -1    0    0    0  501  0.00000000000E+00  0.00000000000E+00 -0.62529375727E+03  0.62529375728E+03  0.25500000920E-02 0.  1.
    10030    2    1    2    0    0  0.00000000000E+00  0.00000000000E+00  0.17107115437E+04  0.29612990583E+04  0.24171797878E+04 0.  0.
        3    1    3    3  502    0  0.59419189185E+03 -0.10477299586E+04  0.97717489939E+03  0.15510231671E+04  0.10100000352E+00 0. -1.
       -3    1    3    3    0  502 -0.59419189185E+03  0.10477299586E+04  0.73353664435E+03  0.14102758912E+04  0.10100000352E+00 0.  1.
</event>
<event>
 5   0  0.1174210E-05  0.2402019E+04  0.7818609E-02  0.8438748E-01
       -2   -1    0    0    0  501  0.00000000000E+00  0.00000000000E+00  0.86685418445E+03  0.86685418445E+03  0.25500000920E-02 0. -1.
        2   -1    0    0  501    0  0.00000000000E+00  0.00000000000E+00 -0.16639748317E+04  0.16639748317E+04  0.25500000920E-02 0.  1.
    10030    2    1    2    0    0  0.00000000000E+00  0.00000000000E+00 -0.79712064723E+03  0.25308290161E+04  0.24020187723E+04 0.  0.
        3    1    3    3  502    0  0.28722949196E+03 -0.11648622481E+04 -0.45644934408E+03  0.12836474796E+04  0.10100000352E+00 0.  1.
       -3    1    3    3    0  502 -0.28722949196E+03  0.11648622481E+04 -0.34067130315E+03  0.12471815365E+04  0.10100000352E+00 0. -1.
</event>
<event>
 5   0  0.5034479E-06  0.2393571E+04  0.7818609E-02  0.8441914E-01
       -1   -1    0    0    0  501  0.00000000000E+00  0.00000000000E+00  0.51655430803E+03  0.51655430806E+03  0.50400001928E-02 0.  1.
        1   -1    0    0  501    0  0.00000000000E+00  0.00000000000E+00 -0.27727889215E+04  0.27727889215E+04  0.50400001928E-02 0. -1.
    10030    2    1    2    0    0  0.00000000000E+00  0.00000000000E+00 -0.22562346134E+04  0.32893432295E+04  0.23935714426E+04 0.  0.
        4    1    3    3  502    0 -0.80830969099E+03 -0.85892315240E+03 -0.84924154105E+03  0.14533844454E+04  0.12699999809E+01 0.  1.
       -4    1    3    3    0  502  0.80830969099E+03  0.85892315240E+03 -0.14069930724E+04  0.18359587841E+04  0.12699999809E+01 0. -1.
</event>
<event>
 5   0  0.5196696E-06  0.2398684E+04  0.7818609E-02  0.8439996E-01
       -1   -1    0    0    0  501  0.00000000000E+00  0.00000000000E+00  0.66022826689E+03  0.66022826691E+03  0.50400001928E-02 0.  1.
        1   -1    0    0  501    0  0.00000000000E+00  0.00000000000E+00 -0.21786733946E+04  0.21786733946E+04  0.50400001928E-02 0. -1.
    10030    2    1    2    0    0  0.00000000000E+00  0.00000000000E+00 -0.15184451277E+04  0.28389016615E+04  0.23986844390E+04 0.  0.
        1    1    3    3  502    0  0.40181880124E+03 -0.14187277368E+03  0.56761101951E+03  0.70976651262E+03  0.50400001928E-02 0.  1.
       -1    1    3    3    0  502 -0.40181880124E+03  0.14187277368E+03 -0.20860561472E+04  0.21291351489E+04  0.50400001928E-02 0. -1.
</event>
<event>
 5   0  0.1168435E-05  0.2407434E+04  0.7818609E-02  0.8436726E-01
       -2   -1    0    0    0  501  0.00000000000E+00  0.00000000000E+00  0.74091011442E+03  0.74091011442E+03  0.25500000920E-02 0. -1.
        2   -1    0    0  501    0  0.00000000000E+00  0.00000000000E+00 -0.19556141785E+04  0.19556141785E+04  0.25500000920E-02 0.  1.
    10030    2    1    2    0    0  0.00000000000E+00  0.00000000000E+00 -0.12147040640E+04  0.26965242929E+04  0.24074337580E+04 0.  0.
        1    1    3    3  502    0 -0.48098420162E+03 -0.83670148127E+03  0.19842188493E+03  0.98528494123E+03  0.50400001928E-02 0. -1.
       -1    1    3    3    0  502  0.48098420162E+03  0.83670148127E+03 -0.14131259490E+04  0.17112393516E+04  0.50400001928E-02 0.  1.
</event>
<event>
 5   0  0.5034479E-06  0.2390129E+04  0.7818609E-02  0.8443209E-01
        1   -1    0    0  501    0  0.00000000000E+00  0.00000000000E+00  0.12206858250E+04  0.12206858250E+04  0.50400001928E-02 0. -1.
       -1   -1    0    0    0  501  0.00000000000E+00  0.00000000000E+00 -0.11699805401E+04  0.11699805401E+04  0.50400001928E-02 0.  1.
    10030    2    1    2    0    0  0.00000000000E+00  0.00000000000E+00  0.50705284835E+02  0.23906663651E+04  0.23901285830E+04 0.  0.
        4    1    3    3  502    0  0.11579249487E+04  0.29517027848E+03  0.41523152821E+02  0.11956761540E+04  0.12699999809E+01 0. -1.
       -4    1    3    3    0  502 -0.11579249487E+04 -0.29517027848E+03  0.91821320143E+01  0.11949902111E+04  0.12699999809E+01 0.  1.
</event>
<event>
 5   0  0.1198313E-05  0.2403185E+04  0.7818609E-02  0.8438312E-01
        2   -1    0    0  501    0  0.00000000000E+00  0.00000000000E+00  0.13403661291E+04  0.13403661291E+04  0.25500000920E-02 0.  1.
       -2   -1    0    0    0  501  0.00000000000E+00  0.00000000000E+00 -0.10771867230E+04  0.10771867230E+04  0.25500000920E-02 0. -1.
    10030    2    1    2    0    0  0.00000000000E+00  0.00000000000E+00  0.26317940609E+03  0.24175528521E+04  0.24031850517E+04 0.  0.
        5    1    3    3  502    0  0.17740988651E+03  0.60507353850E+03  0.11605510947E+04  0.13207911221E+04  0.46999998093E+01 0.  1.
       -5    1    3    3    0  502 -0.17740988651E+03 -0.60507353850E+03 -0.89737168861E+03  0.10967617300E+04  0.46999998093E+01 0. -1.
</event>
<event>
 5   0  0.5064437E-06  0.2411735E+04  0.7818609E-02  0.8435123E-01
       -1   -1    0    0    0  501  0.00000000000E+00  0.00000000000E+00  0.12788967365E+04  0.12788967365E+04  0.50400001928E-02 0. -1.
        1   -1    0    0  501    0  0.00000000000E+00  0.00000000000E+00 -0.11370083035E+04  0.11370083035E+04  0.50400001928E-02 0.  1.
    10030    2    1    2    0    0  0.00000000000E+00  0.00000000000E+00  0.14188843296E+03  0.24159050400E+04  0.24117348186E+04 0.  0.
        2    1    3    3  502    0 -0.36354730584E+03 -0.75909499769E+03 -0.79410231373E+03  0.11571475030E+04  0.25500000920E-02 0.  1.
       -2    1    3    3    0  502  0.36354730584E+03  0.75909499769E+03  0.93599074669E+03  0.12587575370E+04  0.25500000920E-02 0. -1.
</event>
<event>
 5   0  0.5042742E-06  0.2402053E+04  0.7818609E-02  0.8438735E-01
        1   -1    0    0  501    0  0.00000000000E+00  0.00000000000E+00  0.94859576986E+03  0.94859576988E+03  0.50400001928E-02 0. -1.
       -1   -1    0    0    0  501  0.00000000000E+00  0.00000000000E+00 -0.15206321041E+04  0.15206321041E+04  0.50400001928E-02 0.  1.
    10030    2    1    2    0    0  0.00000000000E+00  0.00000000000E+00 -0.57203633420E+03  0.24692278739E+04  0.24020534394E+04 0.  0.
        5    1    3    3  502    0 -0.18754461900E+03  0.70411224784E+03 -0.12674404204E+04  0.14619761801E+04  0.46999998093E+01 0.  1.
       -5    1    3    3    0  502  0.18754461900E+03 -0.70411224784E+03  0.69540408625E+03  0.10072516939E+04  0.46999998093E+01 0. -1.
</event>
<event>
 5   0  0.5196696E-06  0.2401779E+04  0.7818609E-02  0.8438838E-01
       -1   -1    0    0    0  501  0.00000000000E+00  0.00000000000E+00  0.58460016209E+03  0.58460016211E+03  0.50400001928E-02 0. -1.
        1   -1    0    0  501    0  0.00000000000E+00  0.00000000000E+00 -0.24668760381E+04  0.24668760381E+04  0.50400001928E-02 0.  1.
    10030    2    1    2    0    0  0.00000000000E+00  0.00000000000E+00 -0.18822758760E+04  0.30514762002E+04  0.24017794501E+04 0.  0.
        1    1    3    3  502    0  0.10187423998E+03 -0.63526719003E+03 -0.22294297946E+04  0.23204094407E+04  0.50400001928E-02 0.  1.
       -1    1    3    3    0  502 -0.10187423998E+03  0.63526719003E+03  0.34715391865E+03  0.73106675944E+03  0.50400001928E-02 0. -1.
</event>
<event>
 5   0  0.1198313E-05  0.2398651E+04  0.7818609E-02  0.8440009E-01
        2   -1    0    0  501    0  0.00000000000E+00  0.00000000000E+00  0.10751420548E+04  0.10751420548E+04  0.25500000920E-02 0.  1.
       -2   -1    0    0    0  501  0.00000000000E+00  0.00000000000E+00 -0.13378530937E+04  0.13378530937E+04  0.25500000920E-02 0. -1.
    10030    2    1    2    0    0  0.00000000000E+00  0.00000000000E+00 -0.26271103894E+03  0.24129951485E+04  0.23986513912E+04 0.  0.
        5    1    3    3  502    0  0.49005748600E+03 -0.94184106999E+03  0.42977850820E+03  0.11454049925E+04  0.46999998093E+01 0.  1.
       -5    1    3    3    0  502 -0.49005748600E+03  0.94184106999E+03 -0.69248954714E+03  0.12675901560E+04  0.46999998093E+01 0. -1.
</event>
<event>
 5   0  0.5064437E-06  0.2234972E+04  0.7818609E-02  0.8504012E-01
        1   -1    0    0  501    0  0.00000000000E+00  0.00000000000E+00  0.94329118172E+03  0.94329118173E+03  0.50400001928E-02 0.  1.
       -1   -1    0    0    0  501  0.00000000000E+00  0.00000000000E+00 -0.13238485573E+04  0.13238485573E+04  0.50400001928E-02 0. -1.
    10030    2    1    2    0    0  0.00000000000E+00  0.00000000000E+00 -0.38055737559E+03  0.22671397391E+04  0.22349717404E+04 0.  0.
        2    1    3    3  502    0 -0.17228761699E+02  0.38433438009E+03  0.87399553737E+03  0.95492300491E+03  0.25500000920E-02 0.  1.
       -2    1    3    3    0  502  0.17228761699E+02 -0.38433438009E+03 -0.12545529130E+04  0.13122167341E+04  0.25500000920E-02 0. -1.
</event>
<event>
 5   0  0.5104174E-06  0.2400982E+04  0.7818609E-02  0.8439136E-01
        1   -1    0    0  501    0  0.00000000000E+00  0.00000000000E+00  0.17807586739E+04  0.17807586739E+04  0.50400001928E-02 0.  1.
       -1   -1    0    0    0  501  0.00000000000E+00  0.00000000000E+00 -0.80930609289E+03  0.80930609291E+03  0.50400001928E-02 0. -1.
    10030    2    1    2    0    0  0.00000000000E+00  0.00000000000E+00  0.97145258099E+03  0.25900647668E+04  0.24009821697E+04 0.  0.
        3    1    3    3  502    0 -0.39882695392E+03  0.37154689928E+03 -0.66811947271E+03  0.86226079440E+03  0.10100000352E+00 0. -1.
       -3    1    3    3    0  502  0.39882695392E+03 -0.37154689928E+03  0.16395720537E+04  0.17278039724E+04  0.10100000352E+00 0.  1.
</event>
<event>
 5   0  0.1174210E-05  0.2420596E+04  0.7818609E-02  0.8431833E-01
        2   -1    0    0  501    0  0.00000000000E+00  0.00000000000E+00  0.14552361256E+04  0.14552361256E+04  0.25500000920E-02 0.  1.
       -2   -1    0    0    0  501  0.00000000000E+00  0.00000000000E+00 -0.10065868624E+04  0.10065868624E+04  0.25500000920E-02 0. -1.
    10030    2    1    2    0    0  0.00000000000E+00  0.00000000000E+00  0.44864926323E+03  0.24618229880E+04  0.24205962619E+04 0.  0.
        3    1    3    3  502    0 -0.14712745242E+03  0.55294990824E+03 -0.86033924012E+03  0.10332394236E+04  0.10100000352E+00 0. -1.
       -3    1    3    3    0  502  0.14712745242E+03 -0.55294990824E+03  0.13089885034E+04  0.14285835644E+04  0.10100000352E+00 0.  1.
</event>
<event>
 5   0  0.1198313E-05  0.2402396E+04  0.7818609E-02  0.8438607E-01
        2   -1    0    0  501    0  0.00000000000E+00  0.00000000000E+00  0.13271974438E+04  0.13271974438E+04  0.25500000920E-02 0.  1.
       -2   -1    0    0    0  501  0.00000000000E+00  0.00000000000E+00 -0.10871605104E+04  0.10871605104E+04  0.25500000920E-02 0. -1.
    10030    2    1    2    0    0  0.00000000000E+00  0.00000000000E+00  0.24003693343E+03  0.24143579541E+04  0.24023960126E+04 0.  0.
        5    1    3    3  502    0 -0.20915770394E+03  0.35832523890E+03 -0.10128523618E+04  0.10945482716E+04  0.46999998093E+01 0. -1.
       -5    1    3    3    0  502  0.20915770394E+03 -0.35832523890E+03  0.12528892953E+04  0.13198096826E+04  0.46999998093E+01 0.  1.
</event>
<event>
 5   0  0.1168435E-05  0.2395769E+04  0.7818609E-02  0.8441089E-01
       -2   -1    0    0    0  501  0.00000000000E+00  0.00000000000E+00  0.70796615332E+03  0.70796615333E+03  0.25500000920E-02 0.  1.
        2   -1    0    0  501    0  0.00000000000E+00  0.00000000000E+00 -0.20268309674E+04  0.20268309674E+04  0.25500000920E-02 0. -1.
    10030    2    1    2    0    0  0.00000000000E+00  0.00000000000E+00 -0.13188648141E+04  0.27347971207E+04  0.23957693741E+04 0.  0.
        1    1    3    3  502    0 -0.81255709862E+03 -0.49255307861E+03  0.17322155414E+03  0.96584847704E+03  0.50400001928E-02 0.  1.
       -1    1    3    3    0  502  0.81255709862E+03  0.49255307861E+03 -0.14920863682E+04  0.17689486437E+04  0.50400001928E-02 0. -1.
</event>
<event>
 5   0  0.5034479E-06  0.2398940E+04  0.7818609E-02  0.8439900E-01
       -1   -1    0    0    0  501  0.00000000000E+00  0.00000000000E+00  0.11211587527E+04  0.11211587527E+04  0.50400001928E-02 0.  1.
        1   -1    0    0  501    0  0.00000000000E+00  0.00000000000E+00 -0.12832514482E+04  0.12832514482E+04  0.50400001928E-02 0. -1.
    10030    2    1    2    0    0  0.00000000000E+00  0.00000000000E+00 -0.16209269545E+03  0.24044102009E+04  0.23989402603E+04 0.  0.
        4    1    3    3  502    0 -0.14573893563E+03 -0.23671639220E+03  0.10884271232E+04  0.11233653471E+04  0.12699999809E+01 0.  1.
       -4    1    3    3    0  502  0.14573893563E+03  0.23671639220E+03 -0.12505198187E+04  0.12810448538E+04  0.12699999809E+01 0. -1.
</event>
<event>
 5   0  0.5042742E-06  0.2413631E+04  0.7818609E-02  0.8434418E-01
        1   -1    0    0  501    0  0.00000000000E+00  0.00000000000E+00  0.98649542469E+03  0.98649542470E+03  0.50400001928E-02 0.  1.
       -1   -1    0    0    0  501  0.00000000000E+00  0.00000000000E+00 -0.14763409474E+04  0.14763409474E+04  0.50400001928E-02 0. -1.
    10030    2    1    2    0    0  0.00000000000E+00  0.00000000000E+00 -0.48984552272E+03  0.24628363721E+04  0.24136309494E+04 0.  0.
        5    1    3    3  502    0  0.10957529041E+04 -0.50533167778E+03 -0.26392959379E+03  0.12351985475E+04  0.46999998093E+01 0.  1.
       -5    1    3    3    0  502 -0.10957529041E+04  0.50533167778E+03 -0.22591592893E+03  0.12276378246E+04  0.46999998093E+01 0. -1.
</event>
<event>
 5   0  0.5196696E-06  0.2414507E+04  0.7818609E-02  0.8434092E-01
        1   -1    0    0  501    0  0.00000000000E+00  0.00000000000E+00  0.14208773941E+04  0.14208773941E+04  0.50400001928E-02 0. -1.
       -1   -1    0    0    0  501  0.00000000000E+00  0.00000000000E+00 -0.10257475349E+04  0.10257475349E+04  0.50400001928E-02 0.  1.
    10030    2    1    2    0    0  0.00000000000E+00  0.00000000000E+00  0.39512985914E+03  0.24466249290E+04  0.24145073902E+04 0.  0.
        1    1    3    3  502    0 -0.46268257701E+03  0.26789271865E+03  0.12943769725E+04  0.14004475794E+04  0.50400001928E-02 0. -1.
       -1    1    3    3    0  502  0.46268257701E+03 -0.26789271865E+03 -0.89924711337E+03  0.10461773495E+04  0.50400001928E-02 0.  1.
</event>
<event>
 5   0  0.1169371E-05  0.2427455E+04  0.7818609E-02  0.8429296E-01
       -2   -1    0    0    0  501  0.00000000000E+00  0.00000000000E+00  0.11401858276E+04  0.11401858276E+04  0.25500000920E-02 0. -1.
        2   -1    0    0  501    0  0.00000000000E+00  0.00000000000E+00 -0.12920121176E+04  0.12920121176E+04  0.25500000920E-02 0.  1.
    10030    2    1    2    0    0  0.00000000000E+00  0.00000000000E+00 -0.15182629001E+03  0.24321979451E+04  0.24274545561E+04 0.  0.
        2    1    3    3  502    0  0.53292373144E+03  0.88223538184E+03 -0.71809217393E+03  0.12561860303E+04  0.25500000920E-02 0.  1.
       -2    1    3    3    0  502 -0.53292373144E+03 -0.88223538184E+03  0.56626588392E+03  0.11760119148E+04  0.25500000920E-02 0. -1.
</event>
<event>
 5   0  0.5104174E-06  0.2402811E+04  0.7818609E-02  0.8438452E-01
       -1   -1    0    0    0  501  0.00000000000E+00  0.00000000000E+00  0.14052944095E+04  0.14052944095E+04  0.50400001928E-02 0.  1.
        1   -1    0    0  501    0  0.00000000000E+00  0.00000000000E+00 -0.10270980255E+04  0.10270980255E+04  0.50400001928E-02 0. -1.
    10030    2    1    2    0    0  0.00000000000E+00  0.00000000000E+00  0.37819638397E+03  0.24323924350E+04  0.24028109482E+04 0.  0.
        3    1    3    3  502    0  0.11593968246E+04 -0.12278288122E+03  0.48266577017E+03  0.12618410711E+04  0.10100000352E+00 0. -1.
       -3    1    3    3    0  502 -0.11593968246E+04  0.12278288122E+03 -0.10446938619E+03  0.11705513639E+04  0.10100000352E+00 0.  1.
</event>
<event>
 5   0  0.4067750E-06  0.2409072E+04  0.7818609E-02  0.8436115E-01
       -4   -1    0    0    0  501  0.00000000000E+00  0.00000000000E+00  0.22213544368E+04  0.22213547999E+04  0.12699999809E+01 0. -1.
        4   -1    0    0  501    0  0.00000000000E+00  0.00000000000E+00 -0.65316214810E+03  0.65316338278E+03  0.12699999809E+01 0.  1.
    10030    2    1    2    0    0  0.00000000000E+00  0.00000000000E+00  0.15681922888E+04  0.28745181827E+04  0.24090719641E+04 0.  0.
        5    1    3    3  502    0 -0.13988602663E+03 -0.69614257500E+03 -0.37687651635E+03  0.80389090289E+03  0.46999998093E+01 0.  1.
       -5    1    3    3    0  502  0.13988602663E+03  0.69614257500E+03  0.19450688051E+04  0.20706272798E+04  0.46999998093E+01 0. -1.
</event>
<event>
 5   0  0.5034479E-06  0.2399951E+04  0.7818609E-02  0.8439522E-01
       -1   -1    0    0    0  501  0.00000000000E+00  0.00000000000E+00  0.10864079347E+04  0.10864079347E+04  0.50400001928E-02 0.  1.
        1   -1    0    0  501    0  0.00000000000E+00  0.00000000000E+00 -0.13254144138E+04  0.13254144138E+04  0.50400001928E-02 0. -1.
    10030    2    1    2    0    0  0.00000000000E+00  0.00000000000E+00 -0.23900647909E+03  0.24118223485E+04  0.23999506128E+04 0.  0.
        4    1    3    3  502    0  0.82488059395E+03 -0.74117955734E+03  0.34120095414E+03  0.11602563659E+04  0.12699999809E+01 0.  1.
       -4    1    3    3    0  502 -0.82488059395E+03  0.74117955734E+03 -0.58020743323E+03  0.12515659827E+04  0.12699999809E+01 0. -1.
</event>
<event>
 5   0  0.1168435E-05  0.2392182E+04  0.7818609E-02  0.8442436E-01
        2   -1    0    0  501    0  0.00000000000E+00  0.00000000000E+00  0.16017586406E+04  0.16017586406E+04  0.25500000920E-02 0. -1.
       -2   -1    0    0    0  501  0.00000000000E+00  0.00000000000E+00 -0.89316404518E+03  0.89316404519E+03  0.25500000920E-02 0.  1.
    10030    2    1    2    0    0  0.00000000000E+00  0.00000000000E+00  0.70859459546E+03  0.24949226858E+04  0.23921816209E+04 0.  0.
        1    1    3    3  502    0 -0.33173271962E+03 -0.11469779198E+04  0.42825317967E+03  0.12684658969E+04  0.50400001928E-02 0. -1.
       -1    1    3    3    0  502  0.33173271962E+03  0.11469779198E+04  0.28034141579E+03  0.12264567889E+04  0.50400001928E-02 0.  1.
</event>
<event>
 5   0  0.1174210E-05  0.2418551E+04  0.7818609E-02  0.8432591E-01
       -2   -1    0    0    0  501  0.00000000000E+00  0.00000000000E+00  0.57143188458E+03  0.57143188459E+03  0.25500000920E-02 0. -1.
        2   -1    0    0  501    0  0.00000000000E+00  0.00000000000E+00 -0.25590934972E+04  0.25590934972E+04  0.25500000920E-02 0.  1.
    10030    2    1    2    0    0  0.00000000000E+00  0.00000000000E+00 -0.19876616127E+04  0.31305253818E+04  0.24185513184E+04 0.  0.
        3    1    3    3  502    0  0.47868867996E+03 -0.98679328347E+03 -0.33453008905E+03  0.11466534905E+04  0.10100000352E+00 0. -1.
       -3    1    3    3    0  502 -0.47868867996E+03  0.98679328347E+03 -0.16531315236E+04  0.19838718913E+04  0.10100000352E+00 0.  1.
</event>
<event>
 5   0  0.5064437E-06  0.2500180E+04  0.7818609E-02  0.8402921E-01
        1   -1    0    0  501    0  0.00000000000E+00  0.00000000000E+00  0.13511137273E+04  0.13511137273E+04  0.50400001928E-02 0. -1.
       -1   -1    0    0    0  501  0.00000000000E+00  0.00000000000E+00 -0.11566200931E+04  0.11566200931E+04  0.50400001928E-02 0.  1.
    10030    2    1    2    0    0  0.00000000000E+00  0.00000000000E+00  0.19449363417E+03  0.25077338204E+04  0.25001802216E+04 0.  0.
        2    1    3    3  502    0  0.94499871019E+03 -0.76684308517E+03 -0.18936885421E+03  0.12316377075E+04  0.25500000920E-02 0.  1.
       -2    1    3    3    0  502 -0.94499871019E+03  0.76684308517E+03  0.38386248838E+03  0.12760961130E+04  0.25500000920E-02 0. -1.
</event>
<event>
 5   0  0.5042742E-06  0.2397045E+04  0.7818609E-02  0.8440611E-01
        1   -1    0    0  501    0  0.00000000000E+00  0.00000000000E+00  0.18932378559E+04  0.18932378560E+04  0.50400001928E-02 0. -1.
       -1   -1    0    0    0  501  0.00000000000E+00  0.00000000000E+00 -0.75872969700E+03  0.75872969702E+03  0.50400001928E-02 0.  1.
    10030    2    1    2    0    0  0.00000000000E+00  0.00000000000E+00  0.11345081589E+04  0.26519675530E+04  0.23970446678E+04 0.  0.
        5    1    3    3  502    0 -0.16692145376E+03 -0.13314843758E+03  0.18720153069E+04  0.18841588780E+04  0.46999998093E+01 0. -1.
       -5    1    3    3    0  502  0.16692145376E+03  0.13314843758E+03 -0.73750714795E+03  0.76780867501E+03  0.46999998093E+01 0.  1.
</event>
<event>
 5   0  0.1198313E-05  0.2401302E+04  0.7818609E-02  0.8439016E-01
        2   -1    0    0  501    0  0.00000000000E+00  0.00000000000E+00  0.13837292253E+04  0.13837292253E+04  0.25500000920E-02 0.  1.
       -2   -1    0    0    0  501  0.00000000000E+00  0.00000000000E+00 -0.10417954621E+04  0.10417954621E+04  0.25500000920E-02 0. -1.
    10030    2    1    2    0    0  0.00000000000E+00  0.00000000000E+00  0.34193376326E+03  0.24255246874E+04  0.24013020033E+04 0.  0.
        5    1    3    3  502    0 -0.32158635020E+03 -0.10647964846E+04  0.62755696533E+03  0.12771292687E+04  0.46999998093E+01 0. -1.
       -5    1    3    3    0  502  0.32158635020E+03  0.10647964846E+04 -0.28562320207E+03  0.11483954187E+04  0.46999998093E+01 0.  1.
</event>
<event>
 5   0  0.1168435E-05  0.2401762E+04  0.7818609E-02  0.8438844E-01
        2   -1    0    0  501    0  0.00000000000E+00  0.00000000000E+00  0.18892066026E+04  0.18892066026E+04  0.25500000920E-02 0. -1.
       -2   -1    0    0    0  501  0.00000000000E+00  0.00000000000E+00 -0.76334430814E+03  0.76334430815E+03  0.25500000920E-02 0.  1.
    10030    2    1    2    0    0  0.00000000000E+00  0.00000000000E+00  0.11258622945E+04  0.26525509108E+04  0.24017619424E+04 0.  0.
        1    1    3    3  502    0 -0.49015665226E+03  0.93268217170E+03 -0.73395725721E+02  0.10561896183E+04  0.50400001928E-02 0. -1.
       -1    1    3    3    0  502  0.49015665226E+03 -0.93268217170E+03  0.11992580202E+04  0.15963612925E+04  0.50400001928E-02 0.  1.
</event>
<event>
 5   0  0.4067750E-06  0.2399613E+04  0.7818609E-02  0.8439649E-01
        3   -1    0    0  501    0  0.00000000000E+00  0.00000000000E+00  0.13019712402E+04  0.13019712442E+04  0.10100000352E+00 0. -1.
       -3   -1    0    0    0  501  0.00000000000E+00  0.00000000000E+00 -0.11056581994E+04  0.11056582041E+04  0.10100000352E+00 0.  1.
    10030    2    1    2    0    0  0.00000000000E+00  0.00000000000E+00  0.19631304080E+03  0.24076294482E+04  0.23996126250E+04 0.  0.
        4    1    3    3  502    0  0.32404850404E+03  0.11437920687E+04 -0.64452337149E+02  0.11905559399E+04  0.12699999809E+01 0.  1.
       -4    1    3    3    0  502 -0.32404850404E+03 -0.11437920687E+04  0.26076537795E+03  0.12170735083E+04  0.12699999809E+01 0. -1.
</event>
<event>
 5   0  0.5034479E-06  0.2394746E+04  0.7818609E-02  0.8441473E-01
       -1   -1    0    0    0  501  0.00000000000E+00  0.00000000000E+00  0.12809725170E+04  0.12809725170E+04  0.50400001928E-02 0. -1.
        1   -1    0    0  501    0  0.00000000000E+00  0.00000000000E+00 -0.11192295724E+04  0.11192295724E+04  0.50400001928E-02 0.  1.
    10030    2    1    2    0    0  0.00000000000E+00  0.00000000000E+00  0.16174294465E+03  0.24002020894E+04  0.23947461848E+04 0.  0.
        4    1    3    3  502    0 -0.44423108412E+03  0.44587009934E+03 -0.94005575165E+03  0.11313035979E+04  0.12699999809E+01 0.  1.
       -4    1    3    3    0  502  0.44423108412E+03 -0.44587009934E+03  0.11017986963E+04  0.12688984915E+04  0.12699999809E+01 0. -1.
</event>
<event>
 5   0  0.1154897E-05  0.2385315E+04  0.7818609E-02  0.8445022E-01
        2   -1    0    0  501    0  0.00000000000E+00  0.00000000000E+00  0.11454199238E+04  0.11454199238E+04  0.25500000920E-02 0. -1.
       -2   -1    0    0    0  501  0.00000000000E+00  0.00000000000E+00 -0.12418435493E+04  0.12418435493E+04  0.25500000920E-02 0.  1.
    10030    2    1    2    0    0  0.00000000000E+00  0.00000000000E+00 -0.96423625544E+02  0.23872634731E+04  0.23853153616E+04 0.  0.
        4    1    3    3  502    0  0.10632118994E+04  0.37677342063E+03 -0.43589490107E+03  0.12092905900E+04  0.12699999809E+01 0.  1.
       -4    1    3    3    0  502 -0.10632118994E+04 -0.37677342063E+03  0.33947127552E+03  0.11779728831E+04  0.12699999809E+01 0. -1.
</event>
<event>
 5   0  0.1168435E-05  0.2402016E+04  0.7818609E-02  0.8438749E-01
       -2   -1    0    0    0  501  0.00000000000E+00  0.00000000000E+00  0.16271031008E+04  0.16271031008E+04  0.25500000920E-02 0.  1.
        2   -1    0    0  501    0  0.00000000000E+00  0.00000000000E+00 -0.88649563725E+03  0.88649563725E+03  0.25500000920E-02 0. -1.
    10030    2    1    2    0    0  0.00000000000E+00  0.00000000000E+00  0.74060746351E+03  0.25135987380E+04  0.24020156537E+04 0.  0.
        1    1    3    3  502    0  0.71209773567E+02  0.27844291778E+03  0.15905868146E+04  0.16163439316E+04  0.50400001928E-02 0.  1.
       -1    1    3    3    0  502 -0.71209773567E+02 -0.27844291778E+03 -0.84997935111E+03  0.89725480643E+03  0.50400001928E-02 0. -1.
</event>
<event>
 5   0  0.1198313E-05  0.2404901E+04  0.7818609E-02  0.8437671E-01
       -2   -1    0    0    0  501  0.00000000000E+00  0.00000000000E+00  0.11535937991E+04  0.11535937991E+04  0.25500000920E-02 0. -1.
        2   -1    0    0  501    0  0.00000000000E+00  0.00000000000E+00 -0.12533763611E+04  0.12533763611E+04  0.25500000920E-02 0.  1.
    10030    2    1    2    0    0  0.00000000000E+00  0.00000000000E+00 -0.99782562035E+02  0.24069701602E+04  0.24049009943E+04 0.  0.
        5    1    3    3  502    0  0.20817211154E+03 -0.94514476329E+03  0.66432683226E+03  0.11738766893E+04  0.46999998093E+01 0. -1.
       -5    1    3    3    0  502 -0.20817211154E+03  0.94514476329E+03 -0.76410939430E+03  0.12330934709E+04  0.46999998093E+01 0.  1.
</event>
<event>
 5   0  0.1198313E-05  0.2396597E+04  0.7818609E-02  0.8440779E-01
       -2   -1    0    0    0  501  0.00000000000E+00  0.00000000000E+00  0.10603557672E+04  0.10603557672E+04  0.25500000920E-02 0.  1.
        2   -1    0    0  501    0  0.00000000000E+00  0.00000000000E+00 -0.13541863279E+04  0.13541863279E+04  0.25500000920E-02 0. -1.
    10030    2    1    2    0    0  0.00000000000E+00  0.00000000000E+00 -0.29383056066E+03  0.24145420951E+04  0.23965969896E+04 0.  0.
        5    1    3    3  502    0 -0.21906243987E+03 -0.11494088532E+04  0.11341481239E+03  0.11755909467E+04  0.46999998093E+01 0.  1.
       -5    1    3    3    0  502  0.21906243987E+03  0.11494088532E+04 -0.40724537306E+03  0.12389511484E+04  0.46999998093E+01 0. -1.
</event>
<event>
 5   0  0.1198313E-05  0.2399484E+04  0.7818609E-02  0.8439697E-01
       -2   -1    0    0    0  501  0.00000000000E+00  0.00000000000E+00  0.11119935296E+04  0.11119935296E+04  0.25500000920E-02 0. -1.
        2   -1    0    0  501    0  0.00000000000E+00  0.00000000000E+00 -0.12944144944E+04  0.12944144944E+04  0.25500000920E-02 0.  1.
    10030    2    1    2    0    0  0.00000000000E+00  0.00000000000E+00 -0.18242096475E+03  0.24064080240E+04  0.23994837298E+04 0.  0.
        5    1    3    3  502    0 -0.40872072753E+03  0.62741928578E+03 -0.10312792553E+04  0.12744671772E+04  0.46999998093E+01 0.  1.
       -5    1    3    3    0  502  0.40872072753E+03 -0.62741928578E+03  0.84885829053E+03  0.11319408468E+04  0.46999998093E+01 0. -1.
</event>
<event>
 5   0  0.5042742E-06  0.2397072E+04  0.7818609E-02  0.8440601E-01
       -1   -1    0    0    0  501  0.00000000000E+00  0.00000000000E+00  0.61660529519E+03  0.61660529521E+03  0.50400001928E-02 0. -1.
        1   -1    0    0  501    0  0.00000000000E+00  0.00000000000E+00 -0.23296724992E+04  0.23296724992E+04  0.50400001928E-02 0.  1.
    10030    2    1    2    0    0  0.00000000000E+00  0.00000000000E+00 -0.17130672040E+04  0.29462777944E+04  0.23970718797E+04 0.  0.
        5    1    3    3  502    0 -0.15459992707E+03  0.52495946709E+03 -0.21671318086E+04  0.22351657535E+04  0.46999998093E+01 0.  1.
       -5    1    3    3    0  502  0.15459992707E+03 -0.52495946709E+03  0.45406460464E+03  0.71111204091E+03  0.46999998093E+01 0. -1.
</event>
<event>
 5   0  0.1168435E-05  0.2413501E+04  0.7818609E-02  0.8434466E-01
       -2   -1    0    0    0  501  0.00000000000E+00  0.00000000000E+00  0.91702673452E+03  0.91702673452E+03  0.25500000920E-02 0. -1.
        2   -1    0    0  501    0  0.00000000000E+00  0.00000000000E+00 -0.15880086221E+04  0.15880086221E+04  0.25500000920E-02 0.  1.
    10030    2    1    2    0    0  0.00000000000E+00  0.00000000000E+00 -0.67098188756E+03  0.25050353566E+04  0.24135006618E+04 0.  0.
        1    1    3    3  502    0  0.96172123253E+03 -0.72783412350E+03 -0.29402426095E+03  0.12414106921E+04  0.50400001928E-02 0. -1.
       -1    1    3    3    0  502 -0.96172123253E+03  0.72783412350E+03 -0.37695762661E+03  0.12636246645E+04  0.50400001928E-02 0.  1.
</event>
<event>
 5   0  0.5064437E-06  0.2411693E+04  0.7818609E-02  0.8435139E-01
       -1   -1    0    0    0  501  0.00000000000E+00  0.00000000000E+00  0.10059564771E+04  0.10059564771E+04  0.50400001928E-02 0.  1.
        1   -1    0    0  501    0  0.00000000000E+00  0.00000000000E+00 -0.14454565045E+04  0.14454565045E+04  0.50400001928E-02 0. -1.
    10030    2    1    2    0    0  0.00000000000E+00  0.00000000000E+00 -0.43950002733E+03  0.24514129816E+04  0.24116934574E+04 0.  0.
        2    1    3    3  502    0 -0.45926597913E+03 -0.83758514970E+03  0.52829990685E+03  0.10915928335E+04  0.25500000920E-02 0.  1.
       -2    1    3    3    0  502  0.45926597913E+03  0.83758514970E+03 -0.96779993419E+03  0.13598201481E+04  0.25500000920E-02 0. -1.
</event>
<event>
 5   0  0.5064437E-06  0.2404320E+04  0.7818609E-02  0.8437888E-01
       -1   -1    0    0    0  501  0.00000000000E+00  0.00000000000E+00  0.71322812719E+03  0.71322812721E+03  0.50400001928E-02 0.  1.
        1   -1    0    0  501    0  0.00000000000E+00  0.00000000000E+00 -0.20262643915E+04  0.20262643916E+04  0.50400001928E-02 0. -1.
    10030    2    1    2    0    0  0.00000000000E+00  0.00000000000E+00 -0.13130362644E+04  0.27394925188E+04  0.24043200762E+04 0.  0.
        2    1    3    3  502    0  0.11225663867E+04 -0.40580392752E+03 -0.49395170807E+03  0.12918283207E+04  0.25500000920E-02 0. -1.
       -2    1    3    3    0  502 -0.11225663867E+04  0.40580392752E+03 -0.81908455628E+03  0.14476641981E+04  0.25500000920E-02 0.  1.
</event>
<event>
 5   0  0.5104174E-06  0.2399138E+04  0.7818609E-02  0.8439826E-01
        1   -1    0    0  501    0  0.00000000000E+00  0.00000000000E+00  0.14992433458E+04  0.14992433458E+04  0.50400001928E-02 0. -1.
       -1   -1    0    0    0  501  0.00000000000E+00  0.00000000000E+00 -0.95979474684E+03  0.95979474685E+03  0.50400001928E-02 0.  1.
    10030    2    1    2    0    0  0.00000000000E+00  0.00000000000E+00  0.53944859896E+03  0.24590380927E+04  0.23991380849E+04 0.  0.
        3    1    3    3  502    0 -0.37699357373E+02  0.84943385205E+03  0.11370227586E+04  0.14197816291E+04  0.10100000352E+00 0. -1.
       -3    1    3    3    0  502  0.37699357373E+02 -0.84943385205E+03 -0.59757415965E+03  0.10392564636E+04  0.10100000352E+00 0.  1.
</event>
<event>
 5   0  0.1168435E-05  0.2389205E+04  0.7818609E-02  0.8443556E-01
        2   -1    0    0  501    0  0.00000000000E+00  0.00000000000E+00  0.14513313763E+04  0.14513313763E+04  0.25500000920E-02 0. -1.
       -2   -1    0    0    0  501  0.00000000000E+00  0.00000000000E+00 -0.98328708116E+03  0.98328708116E+03  0.25500000920E-02 0.  1.
    10030    2    1    2    0    0  0.00000000000E+00  0.00000000000E+00  0.46804429511E+03  0.24346184574E+04  0.23892052174E+04 0.  0.
        1    1    3    3  502    0  0.67448646709E+03 -0.70645543520E+03  0.93489212847E+03  0.13520482862E+04  0.50400001928E-02 0. -1.
       -1    1    3    3    0  502 -0.67448646709E+03  0.70645543520E+03 -0.46684783335E+03  0.10825701713E+04  0.50400001928E-02 0.  1.
</event>
<event>
 5   0  0.5034479E-06  0.2408987E+04  0.7818609E-02  0.8436147E-01
        1   -1    0    0  501    0  0.00000000000E+00  0.00000000000E+00  0.87038915007E+03  0.87038915009E+03  0.50400001928E-02 0. -1.
       -1   -1    0    0    0  501  0.00000000000E+00  0.00000000000E+00 -0.16668457997E+04  0.16668457997E+04  0.50400001928E-02 0.  1.
    10030    2    1    2    0    0  0.00000000000E+00  0.00000000000E+00 -0.79645664964E+03  0.25372349498E+04  0.24089869231E+04 0.  0.
        4    1    3    3  502    0  0.11004049059E+04 -0.63734991087E+02 -0.90972637247E+03  0.14291804615E+04  0.12699999809E+01 0.  1.
       -4    1    3    3    0  502 -0.11004049059E+04  0.63734991087E+02  0.11326972283E+03  0.11080544883E+04  0.12699999809E+01 0. -1.
</event>
<event>
 5   0  0.5034479E-06  0.2397635E+04  0.7818609E-02  0.8440390E-01
        1   -1    0    0  501    0  0.00000000000E+00  0.00000000000E+00  0.19960820635E+04  0.19960820635E+04  0.50400001928E-02 0.  1.
       -1   -1    0    0    0  501  0.00000000000E+00  0.00000000000E+00 -0.71999188192E+03  0.71999188194E+03  0.50400001928E-02 0. -1.
    10030    2    1    2    0    0  0.00000000000E+00  0.00000000000E+00  0.12760901815E+04  0.27160739454E+04  0.23976345688E+04 0.  0.
        4    1    3    3  502    0 -0.95170516699E+03  0.34526611970E+03  0.13653521128E+04  0.16997468703E+04  0.12699999809E+01 0. -1.
       -4    1    3    3    0  502  0.95170516699E+03 -0.34526611970E+03 -0.89261931278E+02  0.10163270751E+04  0.12699999809E+01 0.  1.
</event>
<event>
 5   0  0.5042742E-06  0.2394797E+04  0.7818609E-02  0.8441454E-01
       -1   -1    0    0    0  501  0.00000000000E+00  0.00000000000E+00  0.14790629056E+04  0.14790629056E+04  0.50400001928E-02 0. -1.
        1   -1    0    0  501    0  0.00000000000E+00  0.00000000000E+00 -0.96937251462E+03  0.96937251463E+03  0.50400001928E-02 0.  1.
    10030    2    1    2    0    0  0.00000000000E+00  0.00000000000E+00  0.50969039102E+03  0.24484354203E+04  0.23947967999E+04 0.  0.
        5    1    3    3  502    0  0.73973751733E+03  0.17056557016E+03  0.12015639941E+04  0.14212960038E+04  0.46999998093E+01 0. -1.
       -5    1    3    3    0  502 -0.73973751733E+03 -0.17056557016E+03 -0.69187360313E+03  0.10271394165E+04  0.46999998093E+01 0.  1.
</event>
<event>
 5   0  0.1169371E-05  0.2411865E+04  0.7818609E-02  0.8435075E-01
        2   -1    0    0  501    0  0.00000000000E+00  0.00000000000E+00  0.87261169612E+03  0.87261169613E+03  0.25500000920E-02 0. -1.
       -2   -1    0    0    0  501  0.00000000000E+00  0.00000000000E+00 -0.16665750033E+04  0.16665750033E+04  0.25500000920E-02 0.  1.
    10030    2    1    2    0    0  0.00000000000E+00  0.00000000000E+00 -0.79396330718E+03  0.25391866994E+04  0.24118647063E+04 0.  0.
        2    1    3    3  502    0  0.75329405113E+02 -0.47473308768E+03 -0.15613628647E+04  0.16336768405E+04  0.25500000920E-02 0.  1.
       -2    1    3    3    0  502 -0.75329405113E+02  0.47473308768E+03  0.76739955752E+03  0.90550985897E+03  0.25500000920E-02 0. -1.
</event>
<event>
 5   0  0.1154897E-05  0.2411762E+04  0.7818609E-02  0.8435113E-01
       -2   -1    0    0    0  501  0.00000000000E+00  0.00000000000E+00  0.87974908314E+03  0.87974908315E+03  0.25500000920E-02 0. -1.
        2   -1    0    0  501    0  0.00000000000E+00  0.00000000000E+00 -0.16529139736E+04  0.16529139736E+04  0.25500000920E-02 0.  1.
    10030    2    1    2    0    0  0.00000000000E+00  0.00000000000E+00 -0.77316489044E+03  0.25326630567E+04  0.24117624699E+04 0.  0.
        4    1    3    3  502    0  0.51179400397E+03  0.41873855119E+03 -0.14455342908E+04  0.15896056352E+04  0.12699999809E+01 0.  1.
       -4    1    3    3    0  502 -0.51179400397E+03 -0.41873855119E+03  0.67236940038E+03  0.94305742149E+03  0.12699999809E+01 0. -1.
</event>
<event>
 5   0  0.1198313E-05  0.2396673E+04  0.7818609E-02  0.8440750E-01
       -2   -1    0    0    0  501  0.00000000000E+00  0.00000000000E+00  0.25338212293E+04  0.25338212293E+04  0.25500000920E-02 0.  1.
        2   -1    0    0  501    0  0.00000000000E+00  0.00000000000E+00 -0.56673712599E+03  0.56673712600E+03  0.25500000920E-02 0. -1.
    10030    2    1    2    0    0  0.00000000000E+00  0.00000000000E+00  0.19670841033E+04  0.31005583553E+04  0.23966731619E+04 0.  0.
        5    1    3    3  502    0  0.58456287236E+02 -0.11968926529E+04  0.97785696933E+03  0.15466723966E+04  0.46999998093E+01 0.  1.
       -5    1    3    3    0  502 -0.58456287236E+02  0.11968926529E+04  0.98922713399E+03  0.15538859587E+04  0.46999998093E+01 0. -1.
</event>
<event>
 5   0  0.1174210E-05  0.2308108E+04  0.7818609E-02  0.8474731E-01
       -2   -1    0    0    0  501  0.00000000000E+00  0.00000000000E+00  0.93445795666E+03  0.93445795666E+03  0.25500000920E-02 0.  1.
        2   -1    0    0  501    0  0.00000000000E+00  0.00000000000E+00 -0.14252552937E+04  0.14252552937E+04  0.25500000920E-02 0. -1.
    10030    2    1    2    0    0  0.00000000000E+00  0.00000000000E+00 -0.49079733701E+03  0.23597132503E+04  0.23081084458E+04 0.  0.
        3    1    3    3  502    0 -0.10970898902E+04 -0.32513853078E+03 -0.91977336874E+02  0.11479464848E+04  0.10100000352E+00 0.  1.
       -3    1    3    3    0  502  0.10970898902E+04  0.32513853078E+03 -0.39882000014E+03  0.12117667655E+04  0.10100000352E+00 0. -1.
</event>
<event>
 5   0  0.1198313E-05  0.2388223E+04  0.7818609E-02  0.8443926E-01
       -2   -1    0    0    0  501  0.00000000000E+00  0.00000000000E+00  0.14450649325E+04  0.14450649325E+04  0.25500000920E-02 0. -1.
        2   -1    0    0  501    0  0.00000000000E+00  0.00000000000E+00 -0.98673949907E+03  0.98673949907E+03  0.25500000920E-02 0.  1.
    10030    2    1    2    0    0  0.00000000000E+00  0.00000000000E+00  0.45832543338E+03  0.24318044315E+04  0.23882233125E+04 0.  0.
        5    1    3    3  502    0 -0.51052559740E+03  0.18317123347E+03 -0.85406041485E+03  0.10117457035E+04  0.46999998093E+01 0.  1.
       -5    1    3    3    0  502  0.51052559740E+03 -0.18317123347E+03  0.13123858482E+04  0.14200587280E+04  0.46999998093E+01 0. -1.
</event>
<event>
 5   0  0.1169371E-05  0.2413368E+04  0.7818609E-02  0.8434516E-01
        2   -1    0    0  501    0  0.00000000000E+00  0.00000000000E+00  0.16063035496E+04  0.16063035496E+04  0.25500000920E-02 0. -1.
       -2   -1    0    0    0  501  0.00000000000E+00  0.00000000000E+00 -0.90648280335E+03  0.90648280335E+03  0.25500000920E-02 0.  1.
    10030    2    1    2    0    0  0.00000000000E+00  0.00000000000E+00  0.69982074624E+03  0.25127863529E+04  0.24133682228E+04 0.  0.
        2    1    3    3  502    0  0.79440402484E+03 -0.80186212359E+03  0.79413087428E+03  0.13801103092E+04  0.25500000920E-02 0. -1.
       -2    1    3    3    0  502 -0.79440402484E+03  0.80186212359E+03 -0.94310128037E+02  0.11326760438E+04  0.25500000920E-02 0.  1.
</event>
<event>
 5   0  0.5196696E-06  0.2541811E+04  0.7818609E-02  0.8388240E-01
        1   -1    0    0  501    0  0.00000000000E+00  0.00000000000E+00  0.22194456121E+04  0.22194456121E+04  0.50400001928E-02 0.  1.
       -1   -1    0    0    0  501  0.00000000000E+00  0.00000000000E+00 -0.72774984573E+03  0.72774984575E+03  0.50400001928E-02 0. -1.
    10030    2    1    2    0    0  0.00000000000E+00  0.00000000000E+00  0.14916957664E+04  0.29471954579E+04  0.25418113241E+04 0.  0.
        1    1    3    3  502    0 -0.82916008593E+03 -0.37533415637E+03  0.17743449446E+04  0.19941620193E+04  0.50400001928E-02 0.  1.
       -1    1    3    3    0  502  0.82916008593E+03  0.37533415637E+03 -0.28264917817E+03  0.95303343855E+03  0.50400001928E-02 0. -1.
</event>
<event>
 5   0  0.5034479E-06  0.2394723E+04  0.7818609E-02  0.8441482E-01
        1   -1    0    0  501    0  0.00000000000E+00  0.00000000000E+00  0.12587320308E+04  0.12587320308E+04  0.50400001928E-02 0. -1.
       -1   -1    0    0    0  501  0.00000000000E+00  0.00000000000E+00 -0.11389832454E+04  0.11389832454E+04  0.50400001928E-02 0.  1.
    10030    2    1    2    0    0  0.00000000000E+00  0.00000000000E+00  0.11974878546E+03  0.23977152762E+04  0.23947231101E+04 0.  0.
        4    1    3    3  502    0  0.73979889399E+03 -0.12668802287E+03 -0.87420113048E+03  0.11522072245E+04  0.12699999809E+01 0.  1.
       -4    1    3    3    0  502 -0.73979889399E+03  0.12668802287E+03  0.99394991594E+03  0.12455080517E+04  0.12699999809E+01 0. -1.
</event>
<event>
 5   0  0.1154897E-05  0.2406359E+04  0.7818609E-02  0.8437127E-01
       -2   -1    0    0    0  501  0.00000000000E+00  0.00000000000E+00  0.19938039091E+04  0.19938039091E+04  0.25500000920E-02 0. -1.
        2   -1    0    0  501    0  0.00000000000E+00  0.00000000000E+00 -0.72607005230E+03  0.72607005230E+03  0.25500000920E-02 0.  1.
    10030    2    1    2    0    0  0.00000000000E+00  0.00000000000E+00  0.12677338568E+04  0.27198739614E+04  0.24063593319E+04 0.  0.
        4    1    3    3  502    0  0.24088839315E+02 -0.84531673393E+03 -0.33350132499E+03  0.90904642319E+03  0.12699999809E+01 0.  1.
       -4    1    3    3    0  502 -0.24088839315E+02  0.84531673393E+03  0.16012351818E+04  0.18108275382E+04  0.12699999809E+01 0. -1.
</event>
<event>
 5   0  0.1154897E-05  0.2424547E+04  0.7818609E-02  0.8430370E-01
        2   -1    0    0  501    0  0.00000000000E+00  0.00000000000E+00  0.13398384051E+04  0.13398384051E+04  0.25500000920E-02 0.  1.
       -2   -1    0    0    0  501  0.00000000000E+00  0.00000000000E+00 -0.10968535867E+04  0.10968535867E+04  0.25500000920E-02 0. -1.
    10030    2    1    2    0    0  0.00000000000E+00  0.00000000000E+00  0.24298481837E+03  0.24366919918E+04  0.24245466052E+04 0.  0.
        4    1    3    3  502    0  0.39559431947E+03 -0.61905523707E+03  0.10906261526E+04  0.13149871748E+04  0.12699999809E+01 0. -1.
       -4    1    3    3    0  502 -0.39559431947E+03  0.61905523707E+03 -0.84764133425E+03  0.11217048170E+04  0.12699999809E+01 0.  1.
</event>
<event>
 5   0  0.5064437E-06  0.2400290E+04  0.7818609E-02  0.8439395E-01
        1   -1    0    0  501    0  0.00000000000E+00  0.00000000000E+00  0.87705009895E+03  0.87705009897E+03  0.50400001928E-02 0. -1.
       -1   -1    0    0    0  501  0.00000000000E+00  0.00000000000E+00 -0.16422644325E+04  0.16422644326E+04  0.50400001928E-02 0.  1.
    10030    2    1    2    0    0  0.00000000000E+00  0.00000000000E+00 -0.76521433359E+03  0.25193145315E+04  0.24002901351E+04 0.  0.
        2    1    3    3  502    0 -0.66600664290E+03 -0.97098125290E+03 -0.62646124762E+03  0.13337252853E+04  0.25500000920E-02 0. -1.
       -2    1    3    3    0  502  0.66600664290E+03  0.97098125290E+03 -0.13875308597E+03  0.11855892462E+04  0.25500000920E-02 0.  1.
</event>
<event>
 5   0  0.5064437E-06  0.2393384E+04  0.7818609E-02  0.8441985E-01
        1   -1    0    0  501    0  0.00000000000E+00  0.00000000000E+00  0.15575284789E+04  0.15575284789E+04  0.50400001928E-02 0.  1.
       -1   -1    0    0    0  501  0.00000000000E+00  0.00000000000E+00 -0.91945165739E+03  0.91945165740E+03  0.50400001928E-02 0. -1.
    10030    2    1    2    0    0  0.00000000000E+00  0.00000000000E+00  0.63807682151E+03  0.24769801363E+04  0.23933843330E+04 0.  0.
        2    1    3    3  502    0 -0.10412967459E+03 -0.74093319775E+03  0.12856007273E+04  0.14874791503E+04  0.25500000920E-02 0.  1.
       -2    1    3    3    0  502  0.10412967459E+03  0.74093319775E+03 -0.64752390579E+03  0.98950098597E+03  0.25500000920E-02 0. -1.
</event>
<event>
 5   0  0.1169371E-05  0.2334100E+04  0.7818609E-02  0.8464596E-01
        2   -1    0    0  501    0  0.00000000000E+00  0.00000000000E+00  0.92610329894E+03  0.92610329894E+03  0.25500000920E-02 0.  1.
       -2   -1    0    0    0  501  0.00000000000E+00  0.00000000000E+00 -0.14706848978E+04  0.14706848978E+04  0.25500000920E-02 0. -1.
    10030    2    1    2    0    0  0.00000000000E+00  0.00000000000E+00 -0.54458159883E+03  0.23967881967E+04  0.23341003710E+04 0.  0.
        2    1    3    3  502    0  0.70855330240E+03  0.46517875654E+03 -0.10960628241E+04  0.13855658672E+04  0.25500000920E-02 0. -1.
       -2    1    3    3    0  502 -0.70855330240E+03 -0.46517875654E+03  0.55148122530E+03  0.10112223295E+04  0.25500000920E-02 0.  1.
</event>
<event>
 5   0  0.1174210E-05  0.2398299E+04  0.7818609E-02  0.8440141E-01
        2   -1    0    0  501    0  0.00000000000E+00  0.00000000000E+00  0.12666015093E+04  0.12666015093E+04  0.25500000920E-02 0.  1.
       -2   -1    0    0    0  501  0.00000000000E+00  0.00000000000E+00 -0.11352892336E+04  0.11352892336E+04  0.25500000920E-02 0. -1.
    10030    2    1    2    0    0  0.00000000000E+00  0.00000000000E+00  0.13131227564E+03  0.24018907429E+04  0.23982986109E+04 0.  0.
        3    1    3    3  502    0 -0.63535223721E+03  0.45352487285E+03 -0.84598291457E+03  0.11511057195E+04  0.10100000352E+00 0. -1.
       -3    1    3    3    0  502  0.63535223721E+03 -0.45352487285E+03  0.97729519021E+03  0.12507850233E+04  0.10100000352E+00 0.  1.
</event>
<event>
 5   0  0.1169371E-05  0.2405280E+04  0.7818609E-02  0.8437530E-01
        2   -1    0    0  501    0  0.00000000000E+00  0.00000000000E+00  0.23458402454E+04  0.23458402454E+04  0.25500000920E-02 0.  1.
       -2   -1    0    0    0  501  0.00000000000E+00  0.00000000000E+00 -0.61655629196E+03  0.61655629197E+03  0.25500000920E-02 0. -1.
    10030    2    1    2    0    0  0.00000000000E+00  0.00000000000E+00  0.17292839534E+04  0.29623965374E+04  0.24052796621E+04 0.  0.
        2    1    3    3  502    0 -0.10828253316E+04 -0.19249946798E+03  0.14639447485E+04  0.18310382220E+04  0.25500000920E-02 0.  1.
       -2    1    3    3    0  502  0.10828253316E+04  0.19249946798E+03  0.26533920492E+03  0.11313583153E+04  0.25500000920E-02 0. -1.
</event>
<event>
 5   0  0.1168435E-05  0.2399397E+04  0.7818609E-02  0.8439729E-01
       -2   -1    0    0    0  501  0.00000000000E+00  0.00000000000E+00  0.99172983572E+03  0.99172983573E+03  0.25500000920E-02 0.  1.
        2   -1    0    0  501    0  0.00000000000E+00  0.00000000000E+00 -0.14512791444E+04  0.14512791444E+04  0.25500000920E-02 0. -1.
    10030    2    1    2    0    0  0.00000000000E+00  0.00000000000E+00 -0.45954930865E+03  0.24430089801E+04  0.23993972805E+04 0.  0.
        1    1    3    3  502    0  0.39386896279E+02  0.10202045225E+04 -0.87123225330E+03  0.13421677371E+04  0.50400001928E-02 0. -1.
       -1    1    3    3    0  502 -0.39386896279E+02 -0.10202045225E+04  0.41168294466E+03  0.11008412430E+04  0.50400001928E-02 0.  1.
</event>
<event>
 5   0  0.5042742E-06  0.2397465E+04  0.7818609E-02  0.8440453E-01
        1   -1    0    0  501    0  0.00000000000E+00  0.00000000000E+00  0.11362984998E+04  0.11362984998E+04  0.50400001928E-02 0.  1.
       -1   -1    0    0    0  501  0.00000000000E+00  0.00000000000E+00 -0.12645972341E+04  0.12645972341E+04  0.50400001928E-02 0. -1.
    10030    2    1    2    0    0  0.00000000000E+00  0.00000000000E+00 -0.12829873429E+03  0.24008957339E+04  0.23974652781E+04 0.  0.
        5    1    3    3  502    0 -0.61279069515E+03  0.99464297649E+03 -0.33306807753E+03  0.12148183078E+04  0.46999998093E+01 0. -1.
       -5    1    3    3    0  502  0.61279069515E+03 -0.99464297649E+03  0.20476934325E+03  0.11860774261E+04  0.46999998093E+01 0.  1.
</event>
<event>
 5   0  0.1198313E-05  0.2401031E+04  0.7818609E-02  0.8439118E-01
       -2   -1    0    0    0  501  0.00000000000E+00  0.00000000000E+00  0.89703429111E+03  0.89703429112E+03  0.25500000920E-02 0. -1.
        2   -1    0    0  501    0  0.00000000000E+00  0.00000000000E+00 -0.16066692023E+04  0.16066692023E+04  0.25500000920E-02 0.  1.
    10030    2    1    2    0    0  0.00000000000E+00  0.00000000000E+00 -0.70963491120E+03  0.25037034934E+04  0.24010309194E+04 0.  0.
        5    1    3    3  502    0 -0.99581520100E+02  0.72069968317E+03 -0.13505817550E+04  0.15340852907E+04  0.46999998093E+01 0.  1.
       -5    1    3    3    0  502  0.99581520100E+02 -0.72069968317E+03  0.64094684375E+03  0.96961820269E+03  0.46999998093E+01 0. -1.
</event>
<event>
 5   0  0.1154897E-05  0.2398700E+04  0.7818609E-02  0.8439990E-01
       -2   -1    0    0    0  501  0.00000000000E+00  0.00000000000E+00  0.90176053377E+03  0.90176053377E+03  0.25500000920E-02 0.  1.
        2   -1    0    0  501    0  0.00000000000E+00  0.00000000000E+00 -0.15951469605E+04  0.15951469605E+04  0.25500000920E-02 0. -1.
    10030    2    1    2    0    0  0.00000000000E+00  0.00000000000E+00 -0.69338642675E+03  0.24969074943E+04  0.23987001268E+04 0.  0.
        4    1    3    3  502    0  0.10173122460E+04  0.69867967152E+02  0.31053052322E+03  0.10659439748E+04  0.12699999809E+01 0.  1.
       -4    1    3    3    0  502 -0.10173122460E+04 -0.69867967152E+02 -0.10039169500E+04  0.14309635195E+04  0.12699999809E+01 0. -1.
</event>
<event>
 5   0  0.1169371E-05  0.2400947E+04  0.7818609E-02  0.8439149E-01
       -2   -1    0    0    0  501  0.00000000000E+00  0.00000000000E+00  0.81132078005E+03  0.81132078005E+03  0.25500000920E-02 0.  1.
        2   -1    0    0  501    0  0.00000000000E+00  0.00000000000E+00 -0.17762852856E+04  0.17762852856E+04  0.25500000920E-02 0. -1.
    10030    2    1    2    0    0  0.00000000000E+00  0.00000000000E+00 -0.96496450555E+03  0.25876060657E+04  0.24009474492E+04 0.  0.
        2    1    3    3  502    0  0.43122853846E+03  0.57258170410E+03 -0.15203272537E+04  0.16808339652E+04  0.25500000920E-02 0. -1.
       -2    1    3    3    0  502 -0.43122853846E+03 -0.57258170410E+03  0.55536274810E+03  0.90677210049E+03  0.25500000920E-02 0.  1.
</event>
<event>
 5   0  0.5042742E-06  0.2405930E+04  0.7818609E-02  0.8437287E-01
       -1   -1    0    0    0  501  0.00000000000E+00  0.00000000000E+00  0.69897880414E+03  0.69897880415E+03  0.50400001928E-02 0. -1.
        1   -1    0    0  501    0  0.00000000000E+00  0.00000000000E+00 -0.20703418252E+04  0.20703418252E+04  0.50400001928E-02 0.  1.
    10030    2    1    2    0    0  0.00000000000E+00  0.00000000000E+00 -0.13713630211E+04  0.27693206294E+04  0.24059302178E+04 0.  0.
        5    1    3    3  502    0  0.11595783741E+04 -0.31981010863E+03 -0.70205914315E+03  0.13927704914E+04  0.46999998093E+01 0. -1.
       -5    1    3    3    0  502 -0.11595783741E+04  0.31981010863E+03 -0.66930387793E+03  0.13765501380E+04  0.46999998093E+01 0.  1.
</event>
<event>
 5   0  0.5042742E-06  0.2404483E+04  0.7818609E-02  0.8437827E-01
       -1   -1    0    0    0  501  0.00000000000E+00  0.00000000000E+00  0.74112122779E+03  0.74112122780E+03  0.50400001928E-02 0.  1.
        1   -1    0    0  501    0  0.00000000000E+00  0.00000000000E+00 -0.19502678923E+04  0.19502678923E+04  0.50400001928E-02 0. -1.
    10030    2    1    2    0    0  0.00000000000E+00  0.00000000000E+00 -0.12091466645E+04  0.26913891201E+04  0.24044832583E+04 0.  0.
        5    1    3    3  502    0  0.14311126962E+02 -0.11660333829E+04 -0.27723323219E+03  0.11986321426E+04  0.46999998093E+01 0. -1.
       -5    1    3    3    0  502 -0.14311126962E+02  0.11660333829E+04 -0.93191343227E+03  0.14927569774E+04  0.46999998093E+01 0.  1.
</event>
<event>
 5   0  0.1168435E-05  0.2369358E+04  0.7818609E-02  0.8451065E-01
       -2   -1    0    0    0  501  0.00000000000E+00  0.00000000000E+00  0.88512577903E+03  0.88512577903E+03  0.25500000920E-02 0. -1.
        2   -1    0    0  501    0  0.00000000000E+00  0.00000000000E+00 -0.15856104156E+04  0.15856104156E+04  0.25500000920E-02 0.  1.
    10030    2    1    2    0    0  0.00000000000E+00  0.00000000000E+00 -0.70048463659E+03  0.24707361947E+04  0.23693582712E+04 0.  0.
        1    1    3    3  502    0 -0.76588199628E+03 -0.19994971669E+03 -0.12693806264E+04  0.14959553122E+04  0.50400001928E-02 0.  1.
       -1    1    3    3    0  502  0.76588199628E+03  0.19994971669E+03  0.56889598984E+03  0.97478088241E+03  0.50400001928E-02 0. -1.
</event>
<event>
 5   0  0.1198313E-05  0.2405555E+04  0.7818609E-02  0.8437427E-01
        2   -1    0    0  501    0  0.00000000000E+00  0.00000000000E+00  0.10669890064E+04  0.10669890064E+04  0.25500000920E-02 0.  1.
       -2   -1    0    0    0  501  0.00000000000E+00  0.00000000000E+00 -0.13558471303E+04  0.13558471303E+04  0.25500000920E-02 0. -1.
    10030    2    1    2    0    0  0.00000000000E+00  0.00000000000E+00 -0.28885812382E+03  0.24228361367E+04  0.24055552227E+04 0.  0.
        5    1    3    3  502    0 -0.11913576994E+04 -0.15658465928E+03 -0.19772392215E+03  0.12177720488E+04  0.46999998093E+01 0.  1.
       -5    1    3    3    0  502  0.11913576994E+04  0.15658465928E+03 -0.91134201668E+02  0.12050640879E+04  0.46999998093E+01 0. -1.
</event>
<event>
 5   0  0.1198313E-05  0.2368310E+04  0.7818609E-02  0.8451464E-01
       -2   -1    0    0    0  501  0.00000000000E+00  0.00000000000E+00  0.77536410868E+03  0.77536410869E+03  0.25500000920E-02 0. -1.
        2   -1    0    0  501    0  0.00000000000E+00  0.00000000000E+00 -0.18084708947E+04  0.18084708947E+04  0.25500000920E-02 0.  1.
    10030    2    1    2    0    0  0.00000000000E+00  0.00000000000E+00 -0.10331067860E+04  0.25838350033E+04  0.23683103034E+04 0.  0.
        5    1    3    3  502    0  0.89474571472E+03  0.35611138956E+03  0.23522337252E+03  0.99133109543E+03  0.46999998093E+01 0. -1.
       -5    1    3    3    0  502 -0.89474571472E+03 -0.35611138956E+03 -0.12683301585E+04  0.15925039079E+04  0.46999998093E+01 0.  1.
</event>
<event>
 5   0  0.5034479E-06  0.2410327E+04  0.7818609E-02  0.8435647E-01
        1   -1    0    0  501    0  0.00000000000E+00  0.00000000000E+00  0.22995642715E+04  0.22995642715E+04  0.50400001928E-02 0.  1.
       -1   -1    0    0    0  501  0.00000000000E+00  0.00000000000E+00 -0.63160632912E+03  0.63160632914E+03  0.50400001928E-02 0. -1.
    10030    2    1    2    0    0  0.00000000000E+00  0.00000000000E+00  0.16679579424E+04  0.29311706007E+04  0.24103272377E+04 0.  0.
        4    1    3    3  502    0  0.97874273989E+03  0.56120540083E+03  0.31871206363E+03  0.11723770064E+04  0.12699999809E+01 0. -1.
       -4    1    3    3    0  502 -0.97874273989E+03 -0.56120540083E+03  0.13492458788E+04  0.17587935942E+04  0.12699999809E+01 0.  1.
</event>
<event>
 5   0  0.5034479E-06  0.2411391E+04  0.7818609E-02  0.8435251E-01
        1   -1    0    0  501    0  0.00000000000E+00  0.00000000000E+00  0.26399874418E+04  0.26399874418E+04  0.50400001928E-02 0. -1.
       -1   -1    0    0    0  501  0.00000000000E+00  0.00000000000E+00 -0.55064721098E+03  0.55064721100E+03  0.50400001928E-02 0.  1.
    10030    2    1    2    0    0  0.00000000000E+00  0.00000000000E+00  0.20893402308E+04  0.31906346528E+04  0.24113910690E+04 0.  0.
        4    1    3    3  502    0 -0.26613223325E+03 -0.43628878863E+03 -0.40024830617E+03  0.64913372440E+03  0.12699999809E+01 0.  1.
       -4    1    3    3    0  502  0.26613223325E+03  0.43628878863E+03  0.24895885370E+04  0.25415009284E+04  0.12699999809E+01 0. -1.
</event>
<event>
 5   0  0.5064437E-06  0.2398663E+04  0.7818609E-02  0.8440004E-01
        1   -1    0    0  501    0  0.00000000000E+00  0.00000000000E+00  0.17317143437E+04  0.17317143437E+04  0.50400001928E-02 0.  1.
       -1   -1    0    0    0  501  0.00000000000E+00  0.00000000000E+00 -0.83061989221E+03  0.83061989223E+03  0.50400001928E-02 0. -1.
    10030    2    1    2    0    0  0.00000000000E+00  0.00000000000E+00  0.90109445146E+03  0.25623342359E+04  0.23986632790E+04 0.  0.
        2    1    3    3  502    0  0.87182915214E+03  0.60177793887E+03 -0.15011360281E+03  0.10699331063E+04  0.25500000920E-02 0. -1.
       -2    1    3    3    0  502 -0.87182915214E+03 -0.60177793887E+03  0.10512080543E+04  0.14924011296E+04  0.25500000920E-02 0.  1.
</event>
<event>
 5   0  0.1168435E-05  0.2286850E+04  0.7818609E-02  0.8483124E-01
        2   -1    0    0  501    0  0.00000000000E+00  0.00000000000E+00  0.12410895818E+04  0.12410895818E+04  0.25500000920E-02 0.  1.
       -2   -1    0    0    0  501  0.00000000000E+00  0.00000000000E+00 -0.10534454800E+04  0.10534454800E+04  0.25500000920E-02 0. -1.
    10030    2    1    2    0    0  0.00000000000E+00  0.00000000000E+00  0.18764410183E+03  0.22945350619E+04  0.22868495449E+04 0.  0.
        1    1    3    3  502    0 -0.62743555796E+02 -0.63464381283E+03 -0.85842527903E+03  0.10693939792E+04  0.50400001928E-02 0. -1.
       -1    1    3    3    0  502  0.62743555796E+02  0.63464381283E+03  0.10460693809E+04  0.12251410827E+04  0.50400001928E-02 0.  1.
</event>
<event>
 5   0  0.1198313E-05  0.2401010E+04  0.7818609E-02  0.8439126E-01
       -2   -1    0    0    0  501  0.00000000000E+00  0.00000000000E+00  0.13953428380E+04  0.13953428380E+04  0.25500000920E-02 0.  1.
        2   -1    0    0  501    0  0.00000000000E+00  0.00000000000E+00 -0.10328731941E+04  0.10328731941E+04  0.25500000920E-02 0. -1.
    10030    2    1    2    0    0  0.00000000000E+00  0.00000000000E+00  0.36246964388E+03  0.24282160321E+04  0.24010099658E+04 0.  0.
        5    1    3    3  502    0 -0.66962026768E+03 -0.44012905580E+02 -0.82546473437E+03  0.10638338951E+04  0.46999998093E+01 0. -1.
       -5    1    3    3    0  502  0.66962026768E+03  0.44012905580E+02  0.11879343782E+04  0.13643821370E+04  0.46999998093E+01 0.  1.
</event>
<event>
 5   0  0.1174210E-05  0.2396763E+04  0.7818609E-02  0.8440717E-01
        2   -1    0    0  501    0  0.00000000000E+00  0.00000000000E+00  0.12763229493E+04  0.12763229493E+04  0.25500000920E-02 0.  1.
       -2   -1    0    0    0  501  0.00000000000E+00  0.00000000000E+00 -0.11251992550E+04  0.11251992550E+04  0.25500000920E-02 0. -1.
    10030    2    1    2    0    0  0.00000000000E+00  0.00000000000E+00  0.15112369433E+03  0.24015222043E+04  0.23967625095E+04 0.  0.
        3    1    3    3  502    0 -0.88656428259E+03 -0.69967171373E+02 -0.72929293676E+03  0.11501129640E+04  0.10100000352E+00 0. -1.
       -3    1    3    3    0  502  0.88656428259E+03  0.69967171373E+02  0.88041663109E+03  0.12514092403E+04  0.10100000352E+00 0.  1.
</event>
<event>
 5   0  0.5034479E-06  0.2401458E+04  0.7818609E-02  0.8438958E-01
        1   -1    0    0  501    0  0.00000000000E+00  0.00000000000E+00  0.12176053004E+04  0.12176053004E+04  0.50400001928E-02 0. -1.
       -1   -1    0    0    0  501  0.00000000000E+00  0.00000000000E+00 -0.11840870141E+04  0.11840870141E+04  0.50400001928E-02 0.  1.
    10030    2    1    2    0    0  0.00000000000E+00  0.00000000000E+00  0.33518286224E+02  0.24016923145E+04  0.24014584107E+04 0.  0.
        4    1    3    3  502    0 -0.98487289690E+03 -0.23750923242E+03  0.66130911830E+03  0.12098415687E+04  0.12699999809E+01 0. -1.
       -4    1    3    3    0  502  0.98487289690E+03  0.23750923242E+03 -0.62779083207E+03  0.11918507458E+04  0.12699999809E+01 0.  1.
</event>
<event>
 5   0  0.1168435E-05  0.2391419E+04  0.7818609E-02  0.8442723E-01
        2   -1    0    0  501    0  0.00000000000E+00  0.00000000000E+00  0.16651639341E+04  0.16651639341E+04  0.25500000920E-02 0.  1.
       -2   -1    0    0    0  501  0.00000000000E+00  0.00000000000E+00 -0.85860704288E+03  0.85860704288E+03  0.25500000920E-02 0. -1.
    10030    2    1    2    0    0  0.00000000000E+00  0.00000000000E+00  0.80655689118E+03  0.25237709769E+04  0.23914192283E+04 0.  0.
        1    1    3    3  502    0  0.49204953155E+03 -0.57716105931E+03  0.13788265646E+04  0.15736550845E+04  0.50400001928E-02 0.  1.
       -1    1    3    3    0  502 -0.49204953155E+03  0.57716105931E+03 -0.57226967340E+03  0.95011589240E+03  0.50400001928E-02 0. -1.
</event>
<event>
 5   0  0.5034479E-06  0.2256500E+04  0.7818609E-02  0.8495273E-01
        1   -1    0    0  501    0  0.00000000000E+00  0.00000000000E+00  0.16095919530E+04  0.16095919530E+04  0.50400001928E-02 0. -1.
       -1   -1    0    0    0  501  0.00000000000E+00  0.00000000000E+00 -0.79085111526E+03  0.79085111528E+03  0.50400001928E-02 0.  1.
    10030    2    1    2    0    0  0.00000000000E+00  0.00000000000E+00  0.81874083770E+03  0.24004430682E+04  0.22564995822E+04 0.  0.
        4    1    3    3  502    0 -0.88253122758E+03 -0.29423022504E+03  0.10884598716E+04  0.14318447185E+04  0.12699999809E+01 0. -1.
       -4    1    3    3    0  502  0.88253122758E+03  0.29423022504E+03 -0.26971903388E+03  0.96859834974E+03  0.12699999809E+01 0.  1.
</event>
<event>
 5   0  0.1174210E-05  0.2569953E+04  0.7818609E-02  0.8378480E-01
        2   -1    0    0  501    0  0.00000000000E+00  0.00000000000E+00  0.71538621931E+03  0.71538621932E+03  0.25500000920E-02 0.  1.
       -2   -1    0    0    0  501  0.00000000000E+00  0.00000000000E+00 -0.23080738675E+04  0.23080738675E+04  0.25500000920E-02 0. -1.
    10030    2    1    2    0    0  0.00000000000E+00  0.00000000000E+00 -0.15926876481E+04  0.30234600868E+04  0.25699527139E+04 0.  0.
        3    1    3    3  502    0  0.61622015860E+03 -0.12153235734E+03  0.52248728589E+03  0.81700083958E+03  0.10100000352E+00 0.  1.
       -3    1    3    3    0  502 -0.61622015860E+03  0.12153235734E+03 -0.21151749340E+04  0.22064592472E+04  0.10100000352E+00 0. -1.
</event>
<event>
 5   0  0.1154897E-05  0.2423230E+04  0.7818609E-02  0.8430858E-01
        2   -1    0    0  501    0  0.00000000000E+00  0.00000000000E+00  0.16844801362E+04  0.16844801362E+04  0.25500000920E-02 0. -1.
       -2   -1    0    0    0  501  0.00000000000E+00  0.00000000000E+00 -0.87149183167E+03  0.87149183167E+03  0.25500000920E-02 0.  1.
    10030    2    1    2    0    0  0.00000000000E+00  0.00000000000E+00  0.81298830453E+03  0.25559719679E+04  0.24232298111E+04 0.  0.
        4    1    3    3  502    0  0.84304575166E+03  0.84183101401E+03  0.63903279080E+03  0.13519504858E+04  0.12699999809E+01 0. -1.
       -4    1    3    3    0  502 -0.84304575166E+03 -0.84183101401E+03  0.17395551373E+03  0.12040214820E+04  0.12699999809E+01 0.  1.
</event>
<event>
 5   0  0.5196696E-06  0.2497125E+04  0.7818609E-02  0.8404010E-01
       -1   -1    0    0    0  501  0.00000000000E+00  0.00000000000E+00  0.56920220835E+03  0.56920220838E+03  0.50400001928E-02 0. -1.
        1   -1    0    0  501    0  0.00000000000E+00  0.00000000000E+00 -0.27387603949E+04  0.27387603949E+04  0.50400001928E-02 0.  1.
    10030    2    1    2    0    0  0.00000000000E+00  0.00000000000E+00 -0.21695581865E+04  0.33079626033E+04  0.24971251190E+04 0.  0.
        1    1    3    3  502    0 -0.36476001465E+03  0.22374782602E+03  0.46902847073E+03  0.63490209033E+03  0.50400001928E-02 0. -1.
       -1    1    3    3    0  502  0.36476001465E+03 -0.22374782602E+03 -0.26385866572E+04  0.26730605129E+04  0.50400001928E-02 0.  1.
</event>
<event>
 5   0  0.1168435E-05  0.2406809E+04  0.7818609E-02  0.8436959E-01
        2   -1    0    0  501    0  0.00000000000E+00  0.00000000000E+00  0.17062627133E+04  0.17062627133E+04  0.25500000920E-02 0.  1.
       -2   -1    0    0    0  501  0.00000000000E+00  0.00000000000E+00 -0.84874531355E+03  0.84874531355E+03  0.25500000920E-02 0. -1.
    10030    2    1    2    0    0  0.00000000000E+00  0.00000000000E+00  0.85751739975E+03  0.25550080268E+04  0.24068090756E+04 0.  0.
        1    1    3    3  502    0  0.52301811757E+03 -0.68095337211E+03  0.13238476541E+04  0.15779157321E+04  0.50400001928E-02 0.  1.
       -1    1    3    3    0  502 -0.52301811757E+03  0.68095337211E+03 -0.46633025436E+03  0.97709229475E+03  0.50400001928E-02 0. -1.
</event>
<event>
 5   0  0.5042742E-06  0.2401010E+04  0.7818609E-02  0.8439126E-01
        1   -1    0    0  501    0  0.00000000000E+00  0.00000000000E+00  0.15640916537E+04  0.15640916537E+04  0.50400001928E-02 0.  1.
       -1   -1    0    0    0  501  0.00000000000E+00  0.00000000000E+00 -0.92143719072E+03  0.92143719073E+03  0.50400001928E-02 0. -1.
    10030    2    1    2    0    0  0.00000000000E+00  0.00000000000E+00  0.64265446294E+03  0.24855288444E+04  0.24010099703E+04 0.  0.
        5    1    3    3  502    0 -0.11968064741E+04  0.17943759375E+02  0.22576062384E+03  0.12180548691E+04  0.46999998093E+01 0.  1.
       -5    1    3    3    0  502  0.11968064741E+04 -0.17943759375E+02  0.41689383910E+03  0.12674739753E+04  0.46999998093E+01 0. -1.
</event>
<event>
 5   0  0.5042742E-06  0.2405508E+04  0.7818609E-02  0.8437444E-01
       -1   -1    0    0    0  501  0.00000000000E+00  0.00000000000E+00  0.15520781292E+04  0.15520781292E+04  0.50400001928E-02 0.  1.
        1   -1    0    0  501    0  0.00000000000E+00  0.00000000000E+00 -0.93205156729E+03  0.93205156731E+03  0.50400001928E-02 0. -1.
    10030    2    1    2    0    0  0.00000000000E+00  0.00000000000E+00  0.62002656189E+03  0.24841296965E+04  0.24055077243E+04 0.  0.
        5    1    3    3  502    0  0.12869090095E+03 -0.11467435755E+04  0.66023267871E+03  0.13294778885E+04  0.46999998093E+01 0.  1.
       -5    1    3    3    0  502 -0.12869090095E+03  0.11467435755E+04 -0.40206116816E+02  0.11546518080E+04  0.46999998093E+01 0. -1.
</event>
<event>
 5   0  0.5034479E-06  0.2398103E+04  0.7818609E-02  0.8440214E-01
       -1   -1    0    0    0  501  0.00000000000E+00  0.00000000000E+00  0.47953539402E+03  0.47953539404E+03  0.50400001928E-02 0. -1.
        1   -1    0    0  501    0  0.00000000000E+00  0.00000000000E+00 -0.29981603617E+04  0.29981603617E+04  0.50400001928E-02 0.  1.
    10030    2    1    2    0    0  0.00000000000E+00  0.00000000000E+00 -0.25186249677E+04  0.34776957557E+04  0.23981025920E+04 0.  0.
        4    1    3    3  502    0 -0.51257300841E+03 -0.48777334924E+03 -0.26631262246E+04  0.27555211540E+04  0.12699999809E+01 0.  1.
       -4    1    3    3    0  502  0.51257300841E+03  0.48777334924E+03  0.14450125695E+03  0.72217460170E+03  0.12699999809E+01 0. -1.
</event>
<event>
 5   0  0.5104174E-06  0.2397305E+04  0.7818609E-02  0.8440513E-01
       -1   -1    0    0    0  501  0.00000000000E+00  0.00000000000E+00  0.77461812562E+03  0.77461812563E+03  0.50400001928E-02 0. -1.
        1   -1    0    0  501    0  0.00000000000E+00  0.00000000000E+00 -0.18548077615E+04  0.18548077615E+04  0.50400001928E-02 0.  1.
    10030    2    1    2    0    0  0.00000000000E+00  0.00000000000E+00 -0.10801896359E+04  0.26294258871E+04  0.23973049131E+04 0.  0.
        3    1    3    3  502    0  0.83525679852E+03  0.83028544853E+03 -0.78471366794E+03  0.14152043656E+04  0.10100000352E+00 0. -1.
       -3    1    3    3    0  502 -0.83525679852E+03 -0.83028544853E+03 -0.29547596792E+03  0.12142215215E+04  0.10100000352E+00 0.  1.
</event>
<event>
 5   0  0.5104174E-06  0.2402424E+04  0.7818609E-02  0.8438597E-01
       -1   -1    0    0    0  501  0.00000000000E+00  0.00000000000E+00  0.72388263735E+03  0.72388263737E+03  0.50400001928E-02 0.  1.
        1   -1    0    0  501    0  0.00000000000E+00  0.00000000000E+00 -0.19932924286E+04  0.19932924286E+04  0.50400001928E-02 0. -1.
    10030    2    1    2    0    0  0.00000000000E+00  0.00000000000E+00 -0.12694097912E+04  0.27171750659E+04  0.24024235931E+04 0.  0.
        3    1    3    3  502    0  0.16701942535E+03  0.26770741582E+03  0.67617271141E+03  0.74617175958E+03  0.10100000352E+00 0.  1.
       -3    1    3    3    0  502 -0.16701942535E+03 -0.26770741582E+03 -0.19455825026E+04  0.19710033063E+04  0.10100000352E+00 0. -1.
</event>
<event>
 5   0  0.5034479E-06  0.2395681E+04  0.7818609E-02  0.8441122E-01
       -1   -1    0    0    0  501  0.00000000000E+00  0.00000000000E+00  0.16460069122E+04  0.16460069122E+04  0.50400001928E-02 0.  1.
        1   -1    0    0  501    0  0.00000000000E+00  0.00000000000E+00 -0.87169870616E+03  0.87169870618E+03  0.50400001928E-02 0. -1.
    10030    2    1    2    0    0  0.00000000000E+00  0.00000000000E+00  0.77430820604E+03  0.25177056184E+04  0.23956811939E+04 0.  0.
        4    1    3    3  502    0 -0.39025076818E+03 -0.10352503713E+04  0.86964837284E+03  0.14072415921E+04  0.12699999809E+01 0. -1.
       -4    1    3    3    0  502  0.39025076818E+03  0.10352503713E+04 -0.95340166799E+02  0.11104640263E+04  0.12699999809E+01 0.  1.
</event>
<event>
 5   0  0.5104174E-06  0.2404706E+04  0.7818609E-02  0.8437744E-01
        1   -1    0    0  501    0  0.00000000000E+00  0.00000000000E+00  0.10107654815E+04  0.10107654815E+04  0.50400001928E-02 0. -1.
       -1   -1    0    0    0  501  0.00000000000E+00  0.00000000000E+00 -0.14302557852E+04  0.14302557853E+04  0.50400001928E-02 0.  1.
    10030    2    1    2    0    0  0.00000000000E+00  0.00000000000E+00 -0.41949030375E+03  0.24410212668E+04  0.24047063667E+04 0.  0.
        3    1    3    3  502    0 -0.76456439892E+03 -0.19593100117E+03 -0.11304739088E+04  0.13787381716E+04  0.10100000352E+00 0.  1.
       -3    1    3    3    0  502  0.76456439892E+03  0.19593100117E+03  0.71098360504E+03  0.10622830951E+04  0.10100000352E+00 0. -1.
</event>
<event>
 5   0  0.5196696E-06  0.2272992E+04  0.7818609E-02  0.8488647E-01
       -1   -1    0    0    0  501  0.00000000000E+00  0.00000000000E+00  0.20350696343E+04  0.20350696343E+04  0.50400001928E-02 0. -1.
        1   -1    0    0  501    0  0.00000000000E+00  0.00000000000E+00 -0.63468265571E+03  0.63468265573E+03  0.50400001928E-02 0.  1.
    10030    2    1    2    0    0  0.00000000000E+00  0.00000000000E+00  0.14003869786E+04  0.26697522901E+04  0.22729922130E+04 0.  0.
        1    1    3    3  502    0 -0.80430827184E+03 -0.78629450971E+03  0.89122577619E+03  0.14350798711E+04  0.50400001928E-02 0.  1.
       -1    1    3    3    0  502  0.80430827184E+03  0.78629450971E+03  0.50916120242E+03  0.12346724190E+04  0.50400001928E-02 0. -1.
</event>
<event>
 5   0  0.5042742E-06  0.2398816E+04  0.7818609E-02  0.8439947E-01
        1   -1    0    0  501    0  0.00000000000E+00  0.00000000000E+00  0.18343399936E+04  0.18343399936E+04  0.50400001928E-02 0.  1.
       -1   -1    0    0    0  501  0.00000000000E+00  0.00000000000E+00 -0.78424884854E+03  0.78424884856E+03  0.50400001928E-02 0. -1.
    10030    2    1    2    0    0  0.00000000000E+00  0.00000000000E+00  0.10500911451E+04  0.26185888422E+04  0.23988155643E+04 0.  0.
        5    1    3    3  502    0  0.45234090645E+03  0.99921975760E+02 -0.68264064553E+03  0.82499517442E+03  0.46999998093E+01 0. -1.
       -5    1    3    3    0  502 -0.45234090645E+03 -0.99921975760E+02  0.17327317906E+04  0.17935936678E+04  0.46999998093E+01 0.  1.
</event>
<event>
 5   0  0.1174210E-05  0.2400459E+04  0.7818609E-02  0.8439332E-01
       -2   -1    0    0    0  501  0.00000000000E+00  0.00000000000E+00  0.99299402523E+03  0.99299402523E+03  0.25500000920E-02 0.  1.
        2   -1    0    0  501    0  0.00000000000E+00  0.00000000000E+00 -0.14507146836E+04  0.14507146836E+04  0.25500000920E-02 0. -1.
    10030    2    1    2    0    0  0.00000000000E+00  0.00000000000E+00 -0.45772065837E+03  0.24437087088E+04  0.24004591337E+04 0.  0.
        3    1    3    3  502    0 -0.92784881542E+02 -0.11632046686E+04 -0.51480697096E+03  0.12754138006E+04  0.10100000352E+00 0. -1.
       -3    1    3    3    0  502  0.92784881542E+02  0.11632046686E+04  0.57086312594E+02  0.11682949082E+04  0.10100000352E+00 0.  1.
</event>
<event>
 5   0  0.1169371E-05  0.2394845E+04  0.7818609E-02  0.8441436E-01
        2   -1    0    0  501    0  0.00000000000E+00  0.00000000000E+00  0.13371185938E+04  0.13371185938E+04  0.25500000920E-02 0. -1.
       -2   -1    0    0    0  501  0.00000000000E+00  0.00000000000E+00 -0.10723214739E+04  0.10723214739E+04  0.25500000920E-02 0.  1.
    10030    2    1    2    0    0  0.00000000000E+00  0.00000000000E+00  0.26479711994E+03  0.24094400677E+04  0.23948452821E+04 0.  0.
        2    1    3    3  502    0 -0.71097401596E+03 -0.92318712278E+03 -0.14507644531E+03  0.11742255703E+04  0.25500000920E-02 0.  1.
       -2    1    3    3    0  502  0.71097401596E+03  0.92318712278E+03  0.40987356525E+03  0.12352144974E+04  0.25500000920E-02 0. -1.
</event>
<event>
 5   0  0.5042742E-06  0.2378914E+04  0.7818609E-02  0.8447440E-01
       -1   -1    0    0    0  501  0.00000000000E+00  0.00000000000E+00  0.89841945139E+03  0.89841945140E+03  0.50400001928E-02 0. -1.
        1   -1    0    0  501    0  0.00000000000E+00  0.00000000000E+00 -0.15747741504E+04  0.15747741504E+04  0.50400001928E-02 0.  1.
    10030    2    1    2    0    0  0.00000000000E+00  0.00000000000E+00 -0.67635469902E+03  0.24731936018E+04  0.23789138095E+04 0.  0.
        5    1    3    3  502    0 -0.19673463240E+03  0.40887652504E+03 -0.14812525301E+04  0.15491983980E+04  0.46999998093E+01 0.  1.
       -5    1    3    3    0  502  0.19673463240E+03 -0.40887652504E+03  0.80489783107E+03  0.92399520387E+03  0.46999998093E+01 0. -1.
</event>
<event>
 5   0  0.1174210E-05  0.2400565E+04  0.7818609E-02  0.8439292E-01
       -2   -1    0    0    0  501  0.00000000000E+00  0.00000000000E+00  0.96604598146E+03  0.96604598146E+03  0.25500000920E-02 0.  1.
        2   -1    0    0  501    0  0.00000000000E+00  0.00000000000E+00 -0.14913142308E+04  0.14913142308E+04  0.25500000920E-02 0. -1.
    10030    2    1    2    0    0  0.00000000000E+00  0.00000000000E+00 -0.52526824933E+03  0.24573602123E+04  0.24005650333E+04 0.  0.
        3    1    3    3  502    0 -0.10647814141E+03  0.13496189916E+02 -0.14863920703E+04  0.14902621039E+04  0.10100000352E+00 0. -1.
       -3    1    3    3    0  502  0.10647814141E+03 -0.13496189916E+02  0.96112382093E+03  0.96709810831E+03  0.10100000352E+00 0.  1.
</event>
<event>
 5   0  0.1168435E-05  0.2410505E+04  0.7818609E-02  0.8435581E-01
        2   -1    0    0  501    0  0.00000000000E+00  0.00000000000E+00  0.13759036986E+04  0.13759036986E+04  0.25500000920E-02 0.  1.
       -2   -1    0    0    0  501  0.00000000000E+00  0.00000000000E+00 -0.10557666884E+04  0.10557666884E+04  0.25500000920E-02 0. -1.
    10030    2    1    2    0    0  0.00000000000E+00  0.00000000000E+00  0.32013701014E+03  0.24316703870E+04  0.24105047533E+04 0.  0.
        1    1    3    3  502    0 -0.18874592401E+03 -0.86849629520E+02 -0.10375649653E+04  0.10581630022E+04  0.50400001928E-02 0. -1.
       -1    1    3    3    0  502  0.18874592401E+03  0.86849629520E+02  0.13577019754E+04  0.13735073848E+04  0.50400001928E-02 0.  1.
</event>
<event>
 5   0  0.1154897E-05  0.2408079E+04  0.7818609E-02  0.8436485E-01
       -2   -1    0    0    0  501  0.00000000000E+00  0.00000000000E+00  0.10181114921E+04  0.10181114921E+04  0.25500000920E-02 0.  1.
        2   -1    0    0  501    0  0.00000000000E+00  0.00000000000E+00 -0.14239215884E+04  0.14239215884E+04  0.25500000920E-02 0. -1.
    10030    2    1    2    0    0  0.00000000000E+00  0.00000000000E+00 -0.40581009635E+03  0.24420330805E+04  0.24080788467E+04 0.  0.
        4    1    3    3  502    0 -0.67962337988E+03 -0.58729435490E+03  0.61021528891E+03  0.10858945204E+04  0.12699999809E+01 0.  1.
       -4    1    3    3    0  502  0.67962337988E+03  0.58729435490E+03 -0.10160253853E+04  0.13561385601E+04  0.12699999809E+01 0. -1.
</event>
<event>
 5   0  0.1169371E-05  0.2418132E+04  0.7818609E-02  0.8432746E-01
       -2   -1    0    0    0  501  0.00000000000E+00  0.00000000000E+00  0.57891229819E+03  0.57891229820E+03  0.25500000920E-02 0.  1.
        2   -1    0    0  501    0  0.00000000000E+00  0.00000000000E+00 -0.25251500569E+04  0.25251500569E+04  0.25500000920E-02 0. -1.
    10030    2    1    2    0    0  0.00000000000E+00  0.00000000000E+00 -0.19462377587E+04  0.31040623551E+04  0.24181318597E+04 0.  0.
        2    1    3    3  502    0  0.54836509325E+03  0.91833247055E+03 -0.24946897060E+03  0.10983048617E+04  0.25500000920E-02 0.  1.
       -2    1    3    3    0  502 -0.54836509325E+03 -0.91833247055E+03 -0.16967687881E+04  0.20057574934E+04  0.25500000920E-02 0. -1.
</event>
<event>
 5   0  0.5042742E-06  0.2397264E+04  0.7818609E-02  0.8440529E-01
       -1   -1    0    0    0  501  0.00000000000E+00  0.00000000000E+00  0.15998659390E+04  0.15998659390E+04  0.50400001928E-02 0. -1.
        1   -1    0    0  501    0  0.00000000000E+00  0.00000000000E+00 -0.89802445276E+03  0.89802445277E+03  0.50400001928E-02 0.  1.
    10030    2    1    2    0    0  0.00000000000E+00  0.00000000000E+00  0.70184148625E+03  0.24978903918E+04  0.23972640525E+04 0.  0.
        5    1    3    3  502    0  0.86347892360E+03 -0.31211772097E+03  0.11537716983E+04  0.14745251931E+04  0.46999998093E+01 0. -1.
       -5    1    3    3    0  502 -0.86347892360E+03  0.31211772097E+03 -0.45193021210E+03  0.10233651987E+04  0.46999998093E+01 0.  1.
</event>
<event>
 5   0  0.1169371E-05  0.2399656E+04  0.7818609E-02  0.8439632E-01
       -2   -1    0    0    0  501  0.00000000000E+00  0.00000000000E+00  0.99480614327E+03  0.99480614327E+03  0.25500000920E-02 0.  1.
        2   -1    0    0  501    0  0.00000000000E+00  0.00000000000E+00 -0.14471037767E+04  0.14471037767E+04  0.25500000920E-02 0. -1.
    10030    2    1    2    0    0  0.00000000000E+00  0.00000000000E+00 -0.45229763347E+03  0.24419099200E+04  0.23996564146E+04 0.  0.
        2    1    3    3  502    0  0.17328778177E+03 -0.36747146433E+02 -0.14337237522E+04  0.14446254898E+04  0.25500000920E-02 0. -1.
       -2    1    3    3    0  502 -0.17328778177E+03  0.36747146433E+02  0.98142611877E+03  0.99728443019E+03  0.25500000920E-02 0.  1.
</event>
<event>
 5   0  0.5042742E-06  0.2397011E+04  0.7818609E-02  0.8440623E-01
       -1   -1    0    0    0  501  0.00000000000E+00  0.00000000000E+00  0.12844082818E+04  0.12844082818E+04  0.50400001928E-02 0. -1.
        1   -1    0    0  501    0  0.00000000000E+00  0.00000000000E+00 -0.11183482897E+04  0.11183482897E+04  0.50400001928E-02 0.  1.
    10030    2    1    2    0    0  0.00000000000E+00  0.00000000000E+00  0.16605999210E+03  0.24027565715E+04  0.23970113102E+04 0.  0.
        5    1    3    3  502    0  0.30956281112E+03  0.35284105741E+02  0.12430936093E+04  0.12815529305E+04  0.46999998093E+01 0. -1.
       -5    1    3    3    0  502 -0.30956281112E+03 -0.35284105741E+02 -0.10770336172E+04  0.11212036411E+04  0.46999998093E+01 0.  1.
</event>
<event>
 5   0  0.5034479E-06  0.2329253E+04  0.7818609E-02  0.8466476E-01
        1   -1    0    0  501    0  0.00000000000E+00  0.00000000000E+00  0.14659552089E+04  0.14659552089E+04  0.50400001928E-02 0.  1.
       -1   -1    0    0    0  501  0.00000000000E+00  0.00000000000E+00 -0.92523632824E+03  0.92523632825E+03  0.50400001928E-02 0. -1.
    10030    2    1    2    0    0  0.00000000000E+00  0.00000000000E+00  0.54071888067E+03  0.23911915372E+04  0.23292531119E+04 0.  0.
        4    1    3    3  502    0  0.45760636714E+03  0.66112748242E+03  0.11352957213E+04  0.13911833534E+04  0.12699999809E+01 0.  1.
       -4    1    3    3    0  502 -0.45760636714E+03 -0.66112748242E+03 -0.59457684059E+03  0.10000081837E+04  0.12699999809E+01 0. -1.
</event>
<event>
 5   0  0.5064437E-06  0.2377340E+04  0.7818609E-02  0.8448036E-01
       -1   -1    0    0    0  501  0.00000000000E+00  0.00000000000E+00  0.13792401591E+04  0.13792401591E+04  0.50400001928E-02 0.  1.
        1   -1    0    0  501    0  0.00000000000E+00  0.00000000000E+00 -0.10244311801E+04  0.10244311801E+04  0.50400001928E-02 0. -1.
    10030    2    1    2    0    0  0.00000000000E+00  0.00000000000E+00  0.35480897896E+03  0.24036713392E+04  0.23773402144E+04 0.  0.
        2    1    3    3  502    0 -0.55032264484E+03  0.75873207238E+03  0.91653294093E+03  0.13109393590E+04  0.25500000920E-02 0.  1.
       -2    1    3    3    0  502  0.55032264484E+03 -0.75873207238E+03 -0.56172396197E+03  0.10927319802E+04  0.25500000920E-02 0. -1.
</event>
<event>
 5   0  0.5034479E-06  0.2418024E+04  0.7818609E-02  0.8432786E-01
       -1   -1    0    0    0  501  0.00000000000E+00  0.00000000000E+00  0.85893347438E+03  0.85893347440E+03  0.50400001928E-02 0. -1.
        1   -1    0    0  501    0  0.00000000000E+00  0.00000000000E+00 -0.17017734357E+04  0.17017734357E+04  0.50400001928E-02 0.  1.
    10030    2    1    2    0    0  0.00000000000E+00  0.00000000000E+00 -0.84283996127E+03  0.25607069101E+04  0.24180241270E+04 0.  0.
        4    1    3    3  502    0  0.15298392831E+03 -0.21041763110E+03  0.82894019086E+03  0.86880556785E+03  0.12699999809E+01 0. -1.
       -4    1    3    3    0  502 -0.15298392831E+03  0.21041763110E+03 -0.16717801521E+04  0.16919013422E+04  0.12699999809E+01 0.  1.
</event>
<event>
 5   0  0.1168435E-05  0.2404057E+04  0.7818609E-02  0.8437986E-01
        2   -1    0    0  501    0  0.00000000000E+00  0.00000000000E+00  0.16576998213E+04  0.16576998213E+04  0.25500000920E-02 0. -1.
       -2   -1    0    0    0  501  0.00000000000E+00  0.00000000000E+00 -0.87161317899E+03  0.87161317900E+03  0.25500000920E-02 0.  1.
    10030    2    1    2    0    0  0.00000000000E+00  0.00000000000E+00  0.78608664229E+03  0.25293130003E+04  0.24040574128E+04 0.  0.
        1    1    3    3  502    0  0.84979533929E+03 -0.18062955559E+03  0.12670441038E+04  0.15362877061E+04  0.50400001928E-02 0. -1.
       -1    1    3    3    0  502 -0.84979533929E+03  0.18062955559E+03 -0.48095746150E+03  0.99302529415E+03  0.50400001928E-02 0.  1.
</event>
<event>
 5   0  0.1154897E-05  0.2399715E+04  0.7818609E-02  0.8439610E-01
       -2   -1    0    0    0  501  0.00000000000E+00  0.00000000000E+00  0.10997715929E+04  0.10997715929E+04  0.25500000920E-02 0.  1.
        2   -1    0    0  501    0  0.00000000000E+00  0.00000000000E+00 -0.13090518235E+04  0.13090518235E+04  0.25500000920E-02 0. -1.
    10030    2    1    2    0    0  0.00000000000E+00  0.00000000000E+00 -0.20928023053E+03  0.24088234164E+04  0.23997149907E+04 0.  0.
        4    1    3    3  502    0 -0.69548326002E+03 -0.10738145798E+03  0.87086573294E+03  0.11196590911E+04  0.12699999809E+01 0.  1.
       -4    1    3    3    0  502  0.69548326002E+03  0.10738145798E+03 -0.10801459635E+04  0.12891643254E+04  0.12699999809E+01 0. -1.
</event>
<event>
 5   0  0.5104174E-06  0.2400697E+04  0.7818609E-02  0.8439242E-01
        1   -1    0    0  501    0  0.00000000000E+00  0.00000000000E+00  0.15634544657E+04  0.15634544657E+04  0.50400001928E-02 0. -1.
       -1   -1    0    0    0  501  0.00000000000E+00  0.00000000000E+00 -0.92157277209E+03  0.92157277210E+03  0.50400001928E-02 0.  1.
    10030    2    1    2    0    0  0.00000000000E+00  0.00000000000E+00  0.64188169356E+03  0.24850272378E+04  0.24006974536E+04 0.  0.
        3    1    3    3  502    0  0.11087665989E+04 -0.13962703124E+03  0.77448484775E+03  0.13596638807E+04  0.10100000352E+00 0. -1.
       -3    1    3    3    0  502 -0.11087665989E+04  0.13962703124E+03 -0.13260315419E+03  0.11253633571E+04  0.10100000352E+00 0.  1.
</event>
<event>
 5   0  0.1174210E-05  0.2405358E+04  0.7818609E-02  0.8437500E-01
       -2   -1    0    0    0  501  0.00000000000E+00  0.00000000000E+00  0.91994848048E+03  0.91994848049E+03  0.25500000920E-02 0.  1.
        2   -1    0    0  501    0  0.00000000000E+00  0.00000000000E+00 -0.15723017985E+04  0.15723017985E+04  0.25500000920E-02 0. -1.
    10030    2    1    2    0    0  0.00000000000E+00  0.00000000000E+00 -0.65235331803E+03  0.24922502790E+04  0.24053578947E+04 0.  0.
        3    1    3    3  502    0 -0.84070817519E+03  0.41488201630E+03  0.45437611773E+03  0.10418133181E+04  0.10100000352E+00 0.  1.
       -3    1    3    3    0  502  0.84070817519E+03 -0.41488201630E+03 -0.11067294358E+04  0.14504369609E+04  0.10100000352E+00 0. -1.
</event>
<event>
 5   0  0.5104174E-06  0.2400863E+04  0.7818609E-02  0.8439180E-01
        1   -1    0    0  501    0  0.00000000000E+00  0.00000000000E+00  0.21318799849E+04  0.21318799849E+04  0.50400001928E-02 0.  1.
       -1   -1    0    0    0  501  0.00000000000E+00  0.00000000000E+00 -0.67594629069E+03  0.67594629071E+03  0.50400001928E-02 0. -1.
    10030    2    1    2    0    0  0.00000000000E+00  0.00000000000E+00  0.14559336942E+04  0.28078262756E+04  0.24008634847E+04 0.  0.
        3    1    3    3  502    0  0.73433099070E+03  0.36184480140E+03  0.17547796654E+04  0.19363432931E+04  0.10100000352E+00 0.  1.
       -3    1    3    3    0  502 -0.73433099070E+03 -0.36184480140E+03 -0.29884597121E+03  0.87148298257E+03  0.10100000352E+00 0. -1.
</event>
<event>
 5   0  0.5064437E-06  0.2397758E+04  0.7818609E-02  0.8440343E-01
       -1   -1    0    0    0  501  0.00000000000E+00  0.00000000000E+00  0.72698312898E+03  0.72698312900E+03  0.50400001928E-02 0.  1.
        1   -1    0    0  501    0  0.00000000000E+00  0.00000000000E+00 -0.19770892839E+04  0.19770892839E+04  0.50400001928E-02 0. -1.
    10030    2    1    2    0    0  0.00000000000E+00  0.00000000000E+00 -0.12501061549E+04  0.27040724129E+04  0.23977577475E+04 0.  0.
        2    1    3    3  502    0 -0.49533939064E+03 -0.38167465995E+03 -0.17786011811E+04  0.18853272446E+04  0.25500000920E-02 0. -1.
       -2    1    3    3    0  502  0.49533939064E+03  0.38167465995E+03  0.52849502614E+03  0.81874516831E+03  0.25500000920E-02 0.  1.
</event>
<event>
 5   0  0.1169371E-05  0.2387731E+04  0.7818609E-02  0.8444111E-01
       -2   -1    0    0    0  501  0.00000000000E+00  0.00000000000E+00  0.10775211374E+04  0.10775211374E+04  0.25500000920E-02 0.  1.
        2   -1    0    0  501    0  0.00000000000E+00  0.00000000000E+00 -0.13227722421E+04  0.13227722421E+04  0.25500000920E-02 0. -1.
    10030    2    1    2    0    0  0.00000000000E+00  0.00000000000E+00 -0.24525110471E+03  0.24002933795E+04  0.23877311832E+04 0.  0.
        2    1    3    3  502    0 -0.44081149959E+03 -0.73347112934E+02 -0.12355274926E+04  0.13138579688E+04  0.25500000920E-02 0. -1.
       -2    1    3    3    0  502  0.44081149959E+03  0.73347112934E+02  0.99027638793E+03  0.10864354107E+04  0.25500000920E-02 0.  1.
</event>
<event>
 5   0  0.4067750E-06  0.2388547E+04  0.7818609E-02  0.8443804E-01
        3   -1    0    0  501    0  0.00000000000E+00  0.00000000000E+00  0.10450644740E+04  0.10450644788E+04  0.10100000352E+00 0.  1.
       -3   -1    0    0    0  501  0.00000000000E+00  0.00000000000E+00 -0.13647855657E+04  0.13647855694E+04  0.10100000352E+00 0. -1.
    10030    2    1    2    0    0  0.00000000000E+00  0.00000000000E+00 -0.31972109171E+03  0.24098500483E+04  0.23885467713E+04 0.  0.
        2    1    3    3  502    0 -0.60022033880E+03  0.77602932542E+03 -0.84696541067E+03  0.12960850188E+04  0.25500000920E-02 0. -1.
       -2    1    3    3    0  502  0.60022033880E+03 -0.77602932542E+03  0.52724431896E+03  0.11137650295E+04  0.25500000920E-02 0.  1.
</event>
<event>
 5   0  0.5196696E-06  0.2398693E+04  0.7818609E-02  0.8439993E-01
       -1   -1    0    0    0  501  0.00000000000E+00  0.00000000000E+00  0.15478331156E+04  0.15478331156E+04  0.50400001928E-02 0. -1.
        1   -1    0    0  501    0  0.00000000000E+00  0.00000000000E+00 -0.92931979073E+03  0.92931979074E+03  0.50400001928E-02 0.  1.
    10030    2    1    2    0    0  0.00000000000E+00  0.00000000000E+00  0.61851332490E+03  0.24771529064E+04  0.23986929333E+04 0.  0.
        1    1    3    3  502    0  0.34672456253E+03  0.26430898540E+03 -0.84458754574E+03  0.95047634609E+03  0.50400001928E-02 0.  1.
       -1    1    3    3    0  502 -0.34672456253E+03 -0.26430898540E+03  0.14631008706E+04  0.15266765603E+04  0.50400001928E-02 0. -1.
</event>
<event>
 5   0  0.1154897E-05  0.2388891E+04  0.7818609E-02  0.8443674E-01
       -2   -1    0    0    0  501  0.00000000000E+00  0.00000000000E+00  0.12444051041E+04  0.12444051041E+04  0.25500000920E-02 0. -1.
        2   -1    0    0  501    0  0.00000000000E+00  0.00000000000E+00 -0.11464915743E+04  0.11464915743E+04  0.25500000920E-02 0.  1.
    10030    2    1    2    0    0  0.00000000000E+00  0.00000000000E+00  0.97913529749E+02  0.23908966784E+04  0.23888909283E+04 0.  0.
        4    1    3    3  502    0  0.10059890626E+04 -0.41242016544E+03 -0.44602290054E+03  0.11751776154E+04  0.12699999809E+01 0.  1.
       -4    1    3    3    0  502 -0.10059890626E+04  0.41242016544E+03  0.54393643029E+03  0.12157190630E+04  0.12699999809E+01 0. -1.
</event>
<event>
 5   0  0.5196696E-06  0.2398615E+04  0.7818609E-02  0.8440022E-01
       -1   -1    0    0    0  501  0.00000000000E+00  0.00000000000E+00  0.19374596107E+04  0.19374596107E+04  0.50400001928E-02 0. -1.
        1   -1    0    0  501    0  0.00000000000E+00  0.00000000000E+00 -0.74238351726E+03  0.74238351728E+03  0.50400001928E-02 0.  1.
    10030    2    1    2    0    0  0.00000000000E+00  0.00000000000E+00  0.11950760934E+04  0.26798431279E+04  0.23986146671E+04 0.  0.
        1    1    3    3  502    0 -0.36601258308E+03  0.83366584785E+03 -0.27461136328E+03  0.95098651816E+03  0.50400001928E-02 0. -1.
       -1    1    3    3    0  502  0.36601258308E+03 -0.83366584785E+03  0.14696874567E+04  0.17288566098E+04  0.50400001928E-02 0.  1.
</event>
<event>
 5   0  0.1154897E-05  0.2400930E+04  0.7818609E-02  0.8439155E-01
       -2   -1    0    0    0  501  0.00000000000E+00  0.00000000000E+00  0.91412463905E+03  0.91412463905E+03  0.25500000920E-02 0.  1.
        2   -1    0    0  501    0  0.00000000000E+00  0.00000000000E+00 -0.15764992290E+04  0.15764992290E+04  0.25500000920E-02 0. -1.
    10030    2    1    2    0    0  0.00000000000E+00  0.00000000000E+00 -0.66237458993E+03  0.24906238680E+04  0.24009304768E+04 0.  0.
        4    1    3    3  502    0  0.34124170572E+03  0.10489388760E+04 -0.82258894305E+03  0.13759988552E+04  0.12699999809E+01 0. -1.
       -4    1    3    3    0  502 -0.34124170572E+03 -0.10489388760E+04  0.16021435312E+03  0.11146250128E+04  0.12699999809E+01 0.  1.
</event>
<event>
 5   0  0.1198313E-05  0.2400934E+04  0.7818609E-02  0.8439154E-01
        2   -1    0    0  501    0  0.00000000000E+00  0.00000000000E+00  0.16296866018E+04  0.16296866018E+04  0.25500000920E-02 0.  1.
       -2   -1    0    0    0  501  0.00000000000E+00  0.00000000000E+00 -0.88429337424E+03  0.88429337424E+03  0.25500000920E-02 0. -1.
    10030    2    1    2    0    0  0.00000000000E+00  0.00000000000E+00  0.74539322756E+03  0.25139799760E+04  0.24009340383E+04 0.  0.
        5    1    3    3  502    0 -0.71445348373E+03  0.72984062384E+03  0.10332630399E+04  0.14528474511E+04  0.46999998093E+01 0.  1.
       -5    1    3    3    0  502  0.71445348373E+03 -0.72984062384E+03 -0.28786981231E+03  0.10611325249E+04  0.46999998093E+01 0. -1.
</event>
<event>
 5   0  0.5034479E-06  0.2407487E+04  0.7818609E-02  0.8436706E-01
        1   -1    0    0  501    0  0.00000000000E+00  0.00000000000E+00  0.10438140544E+04  0.10438140544E+04  0.50400001928E-02 0. -1.
       -1   -1    0    0    0  501  0.00000000000E+00  0.00000000000E+00 -0.13881765592E+04  0.13881765592E+04  0.50400001928E-02 0.  1.
    10030    2    1    2    0    0  0.00000000000E+00  0.00000000000E+00 -0.34436250474E+03  0.24319906136E+04  0.24074868244E+04 0.  0.
        4    1    3    3  502    0 -0.11991131081E+04 -0.10546692616E+03 -0.17113577307E+03  0.12158472701E+04  0.12699999809E+01 0. -1.
       -4    1    3    3    0  502  0.11991131081E+04  0.10546692616E+03 -0.17322673167E+03  0.12161433435E+04  0.12699999809E+01 0.  1.
</event>
<event>
 5   0  0.1198313E-05  0.2389390E+04  0.7818609E-02  0.8443487E-01
       -2   -1    0    0    0  501  0.00000000000E+00  0.00000000000E+00  0.56580037929E+03  0.56580037929E+03  0.25500000920E-02 0.  1.
        2   -1    0    0  501    0  0.00000000000E+00  0.00000000000E+00 -0.25226136844E+04  0.25226136844E+04  0.25500000920E-02 0. -1.
    10030    2    1    2    0    0  0.00000000000E+00  0.00000000000E+00 -0.19568133051E+04  0.30884140637E+04  0.23893896957E+04 0.  0.
        5    1    3    3  502    0  0.41531844491E+03 -0.82255792927E+03 -0.19612427377E+04  0.21669301151E+04  0.46999998093E+01 0. -1.
       -5    1    3    3    0  502 -0.41531844491E+03  0.82255792927E+03  0.44294325370E+01  0.92148394861E+03  0.46999998093E+01 0.  1.
</event>
<event>
 5   0  0.5064437E-06  0.2414626E+04  0.7818609E-02  0.8434048E-01
        1   -1    0    0  501    0  0.00000000000E+00  0.00000000000E+00  0.21016408339E+04  0.21016408339E+04  0.50400001928E-02 0. -1.
       -1   -1    0    0    0  501  0.00000000000E+00  0.00000000000E+00 -0.69355528057E+03  0.69355528059E+03  0.50400001928E-02 0.  1.
    10030    2    1    2    0    0  0.00000000000E+00  0.00000000000E+00  0.14080855533E+04  0.27951961144E+04  0.24146255181E+04 0.  0.
        2    1    3    3  502    0 -0.11728114583E+04 -0.26325126027E+03  0.83509409165E+03  0.14636154155E+04  0.25500000920E-02 0.  1.
       -2    1    3    3    0  502  0.11728114583E+04  0.26325126027E+03  0.57299146164E+03  0.13315806989E+04  0.25500000920E-02 0. -1.
</event>
<event>
 5   0  0.1169371E-05  0.2388766E+04  0.7818609E-02  0.8443722E-01
       -2   -1    0    0    0  501  0.00000000000E+00  0.00000000000E+00  0.81505234057E+03  0.81505234058E+03  0.25500000920E-02 0. -1.
        2   -1    0    0  501    0  0.00000000000E+00  0.00000000000E+00 -0.17502559334E+04  0.17502559334E+04  0.25500000920E-02 0.  1.
    10030    2    1    2    0    0  0.00000000000E+00  0.00000000000E+00 -0.93520359280E+03  0.25653082739E+04  0.23887655348E+04 0.  0.
        2    1    3    3  502    0 -0.10411058034E+04  0.36499592373E+03 -0.95905508502E+03  0.14618173533E+04  0.25500000920E-02 0.  1.
       -2    1    3    3    0  502  0.10411058034E+04 -0.36499592373E+03  0.23851492218E+02  0.11034909207E+04  0.25500000920E-02 0. -1.
</event>
<event>
 5   0  0.5042742E-06  0.2399000E+04  0.7818609E-02  0.8439878E-01
        1   -1    0    0  501    0  0.00000000000E+00  0.00000000000E+00  0.87840291149E+03  0.87840291151E+03  0.50400001928E-02 0.  1.
       -1   -1    0    0    0  501  0.00000000000E+00  0.00000000000E+00 -0.16379728383E+04  0.16379728383E+04  0.50400001928E-02 0. -1.
    10030    2    1    2    0    0  0.00000000000E+00  0.00000000000E+00 -0.75956992679E+03  0.25163757498E+04  0.23989998834E+04 0.  0.
        5    1    3    3  502    0  0.11160276474E+04 -0.30523967342E+03 -0.71163246517E+03  0.13583562948E+04  0.46999998093E+01 0. -1.
       -5    1    3    3    0  502 -0.11160276474E+04  0.30523967342E+03 -0.47937461620E+02  0.11580194550E+04  0.46999998093E+01 0.  1.
</event>
</LesHouchesEvents>
