<LesHouchesEvents version="3.0">
<header>
<!--
#*********************************************************************
#                                                                    *
#                        MadGraph5_aMC@NLO                           *
#                                                                    *
#                           Going Beyond                             *
#                                                                    *
#                   http://madgraph.hep.uiuc.edu                     *
#                   http://madgraph.phys.ucl.ac.be                   *
#                   http://amcatnlo.cern.ch                          *
#                                                                    *
#                     The MadGraph5_aMC@NLO team                     *
#                                                                    *
#....................................................................*
#                                                                    *
# This file contains all the information necessary to reproduce      *
# the events generated:                                              *
#                                                                    *
# 1. software version                                                *
# 2. proc_card          : code generation info including model       *
# 3. param_card         : model primary parameters in the LH format  *
# 4. run_card           : running parameters (collider and cuts)     *
# 5. pythia_card        : present only if pythia has been run        *
# 6. pgs_card           : present only if pgs has been run           *
# 7. delphes_cards      : present only if delphes has been run       *
#                                                                    *
#                                                                    *
#*********************************************************************
-->
<MGVersion>
#5.2.2.3
</MGVersion>
<MG5ProcCard>
#************************************************************
#*                     MadGraph5_aMC@NLO                    *
#*                                                          *
#*                *                       *                 *
#*                  *        * *        *                   *
#*                    * * * * 5 * * * *                     *
#*                  *        * *        *                   *
#*                *                       *                 *
#*                                                          *
#*                                                          *
#*         VERSION 2.2.3                 2015-02-10         *
#*                                                          *
#*    The MadGraph5_aMC@NLO Development Team - Find us at   *
#*    https://server06.fynu.ucl.ac.be/projects/madgraph     *
#*                                                          *
#************************************************************
#*                                                          *
#*               Command File for MadGraph5_aMC@NLO         *
#*                                                          *
#*     run as ./bin/mg5_aMC  filename                       *
#*                                                          *
#************************************************************
set group_subprocesses Auto
set ignore_six_quark_processes False
set loop_optimized_output True
set gauge unitary
set complex_mass_scheme False
import model sm
define p = g u c d s u~ c~ d~ s~
define j = g u c d s u~ c~ d~ s~
define l+ = e+ mu+
define l- = e- mu-
define vl = ve vm vt
define vl~ = ve~ vm~ vt~
import model Zprime_UFO
generate p p > zph, zph > j j
add process p p > zph, zph > b b~
output Dijet_signal
</MG5ProcCard>
<MGProcCard>
#*********************************************************************
#                        MadGraph/MadEvent                           *
#                   http://madgraph.hep.uiuc.edu                     *
#                                                                    *
#                          proc_card.dat                             *
#*********************************************************************
#                                                                    *
#            This Files is generated by MADGRAPH 5                   *
#                                                                    *
# WARNING: This Files is generated for MADEVENT (compatibility issue)*
#          This files is NOT a valid MG4 proc_card.dat               *
#          Running this in MG4 will NEVER reproduce the result of MG5*
#                                                                    *
#*********************************************************************
#*********************************************************************
# Process(es) requested : mg2 input                                  *
#*********************************************************************
# Begin PROCESS # This is TAG. Do not modify this line
p p > zph , zph > j j           #Process
# Be carefull the coupling are here in MG5 convention
          
end_coup           # End the couplings input

done               # this tells MG there are no more procs
# End PROCESS  # This is TAG. Do not modify this line
#*********************************************************************
# Model information                                                  *
#*********************************************************************
# Begin MODEL  # This is TAG. Do not modify this line
Zprime_UFO
# End   MODEL  # This is TAG. Do not modify this line
#*********************************************************************
# Start multiparticle definitions                                    *
#*********************************************************************
# Begin MULTIPARTICLES # This is TAG. Do not modify this line

# End  MULTIPARTICLES # This is TAG. Do not modify this line
</MGProcCard>
<MGRunCard>
#*********************************************************************
#                       MadGraph5_aMC@NLO                            *
#                                                                    *
#                     run_card.dat MadEvent                          *
#                                                                    *
#  This file is used to set the parameters of the run.               *
#                                                                    *
#  Some notation/conventions:                                        *
#                                                                    *
#   Lines starting with a '# ' are info or comments                  *
#                                                                    *
#   mind the format:   value    = variable     ! comment             *
#*********************************************************************
#
#*******************                                                 
# Running parameters
#*******************                                                 
#                                                                    
#*********************************************************************
# Tag name for the run (one word)                                    *
#*********************************************************************
  tag_1     = run_tag ! name of the run 
#*********************************************************************
# Run to generate the grid pack                                      *
#*********************************************************************
  .false.     = gridpack  !True = setting up the grid pack
#*********************************************************************
# Number of events and rnd seed                                      *
# Warning: Do not generate more than 1M events in a single run       *
# If you want to run Pythia, avoid more than 50k events in a run.    *
#*********************************************************************
  2000 = nevents ! Number of unweighted events requested 
 1587 = iseed   ! rnd seed (0=assigned automatically=default))
#*********************************************************************
# Collider type and energy                                           *
# lpp: 0=No PDF, 1=proton, -1=antiproton, 2=photon from proton,      *
#                                         3=photon from electron     *
#*********************************************************************
        1     = lpp1    ! beam 1 type 
        1     = lpp2    ! beam 2 type
     4000     = ebeam1  ! beam 1 total energy in GeV
     4000     = ebeam2  ! beam 2 total energy in GeV
#*********************************************************************
# Beam polarization from -100 (left-handed) to 100 (right-handed)    *
#*********************************************************************
        0     = polbeam1 ! beam polarization for beam 1
        0     = polbeam2 ! beam polarization for beam 2
#*********************************************************************
# PDF CHOICE: this automatically fixes also alpha_s and its evol.    *
#*********************************************************************
 'nn23lo1'    = pdlabel     ! PDF set                                     
 230000    = lhaid     ! if pdlabel=lhapdf, this is the lhapdf number
#*********************************************************************
# Renormalization and factorization scales                           *
#*********************************************************************
 F        = fixed_ren_scale  ! if .true. use fixed ren scale
 F        = fixed_fac_scale  ! if .true. use fixed fac scale
 91.1880  = scale            ! fixed ren scale
 91.1880  = dsqrt_q2fact1    ! fixed fact scale for pdf1
 91.1880  = dsqrt_q2fact2    ! fixed fact scale for pdf2
 1        = scalefact        ! scale factor for event-by-event scales
#*********************************************************************
# Matching - Warning! ickkw > 1 is still beta
#*********************************************************************
 0        = ickkw            ! 0 no matching, 1 MLM, 2 CKKW matching
 1        = highestmult      ! for ickkw=2, highest mult group
 1        = ktscheme         ! for ickkw=1, 1 Durham kT, 2 Pythia pTE
 1        = alpsfact         ! scale factor for QCD emission vx
 F        = chcluster        ! cluster only according to channel diag
 T        = pdfwgt           ! for ickkw=1, perform pdf reweighting
 5        = asrwgtflavor     ! highest quark flavor for a_s reweight
 T        = clusinfo         ! include clustering tag in output
 3.0      = lhe_version       ! Change the way clustering information pass to shower.        
#*********************************************************************
#**********************************************************
#
#**********************************************************
# Automatic ptj and mjj cuts if xqcut > 0
# (turn off for VBF and single top processes)
#**********************************************************
   T  = auto_ptj_mjj  ! Automatic setting of ptj and mjj
#**********************************************************
#                                                                    
#**********************************
# BW cutoff (M+/-bwcutoff*Gamma)
#**********************************
  15  = bwcutoff      ! (M+/-bwcutoff*Gamma)
#**********************************************************
# Apply pt/E/eta/dr/mij cuts on decay products or not
# (note that etmiss/ptll/ptheavy/ht/sorted cuts always apply)
#**********************************************************
   T  = cut_decays    ! Cut decay products 
#*************************************************************
# Number of helicities to sum per event (0 = all helicities)
# 0 gives more stable result, but longer run time (needed for
# long decay chains e.g.).
# Use >=2 if most helicities contribute, e.g. pure QCD.
#*************************************************************
   0  = nhel          ! Number of helicities used per event
#*******************                                                 
# Standard Cuts
#*******************                                                 
#                                                                    
#*********************************************************************
# Minimum and maximum pt's (for max, -1 means no cut)                *
#*********************************************************************
 20  = ptj       ! minimum pt for the jets 
  0  = ptb       ! minimum pt for the b 
 10  = pta       ! minimum pt for the photons 
 10  = ptl       ! minimum pt for the charged leptons 
  0  = misset    ! minimum missing Et (sum of neutrino's momenta)
  0  = ptheavy   ! minimum pt for one heavy final state
 1.0 = ptonium   ! minimum pt for the quarkonium states
 -1  = ptjmax    ! maximum pt for the jets
 -1  = ptbmax    ! maximum pt for the b
 -1  = ptamax    ! maximum pt for the photons
 -1  = ptlmax    ! maximum pt for the charged leptons
 -1  = missetmax ! maximum missing Et (sum of neutrino's momenta)
#*********************************************************************
# Minimum and maximum E's (in the center of mass frame)              *
#*********************************************************************
  0  = ej     ! minimum E for the jets 
  0  = eb     ! minimum E for the b 
  0  = ea     ! minimum E for the photons 
  0  = el     ! minimum E for the charged leptons 
 -1   = ejmax ! maximum E for the jets
 -1   = ebmax ! maximum E for the b
 -1   = eamax ! maximum E for the photons
 -1   = elmax ! maximum E for the charged leptons
#*********************************************************************
# Maximum and minimum absolute rapidity (for max, -1 means no cut)   *
#*********************************************************************
   5  = etaj    ! max rap for the jets 
  -1  = etab    ! max rap for the b
 2.5  = etaa    ! max rap for the photons 
 2.5  = etal    ! max rap for the charged leptons 
 0.6  = etaonium ! max rap for the quarkonium states
   0  = etajmin ! min rap for the jets
   0  = etabmin ! min rap for the b
   0  = etaamin ! min rap for the photons
   0  = etalmin ! main rap for the charged leptons
#*********************************************************************
# Minimum and maximum DeltaR distance                                *
#*********************************************************************
 0.4 = drjj    ! min distance between jets 
 0   = drbb    ! min distance between b's 
 0.4 = drll    ! min distance between leptons 
 0.4 = draa    ! min distance between gammas 
 0   = drbj    ! min distance between b and jet 
 0.4 = draj    ! min distance between gamma and jet 
 0.4 = drjl    ! min distance between jet and lepton 
 0   = drab    ! min distance between gamma and b 
 0   = drbl    ! min distance between b and lepton 
 0.4 = dral    ! min distance between gamma and lepton 
 -1  = drjjmax ! max distance between jets
 -1  = drbbmax ! max distance between b's
 -1  = drllmax ! max distance between leptons
 -1  = draamax ! max distance between gammas
 -1  = drbjmax ! max distance between b and jet
 -1  = drajmax ! max distance between gamma and jet
 -1  = drjlmax ! max distance between jet and lepton
 -1  = drabmax ! max distance between gamma and b
 -1  = drblmax ! max distance between b and lepton
 -1  = dralmax ! maxdistance between gamma and lepton
#*********************************************************************
# Minimum and maximum invariant mass for pairs                       *
# WARNING: for four lepton final state mmll cut require to have      *
#          different lepton masses for each flavor!                  *           
#*********************************************************************
 0   = mmjj    ! min invariant mass of a jet pair 
 0   = mmbb    ! min invariant mass of a b pair 
 0   = mmaa    ! min invariant mass of gamma gamma pair
 0   = mmll    ! min invariant mass of l+l- (same flavour) lepton pair
 -1  = mmjjmax ! max invariant mass of a jet pair
 -1  = mmbbmax ! max invariant mass of a b pair
 -1  = mmaamax ! max invariant mass of gamma gamma pair
 -1  = mmllmax ! max invariant mass of l+l- (same flavour) lepton pair
#*********************************************************************
# Minimum and maximum invariant mass for all letpons                 *
#*********************************************************************
 0   = mmnl    ! min invariant mass for all letpons (l+- and vl) 
 -1  = mmnlmax ! max invariant mass for all letpons (l+- and vl) 
#*********************************************************************
# Minimum and maximum pt for 4-momenta sum of leptons                *
#*********************************************************************
 0   = ptllmin  ! Minimum pt for 4-momenta sum of leptons(l and vl)
 -1  = ptllmax  ! Maximum pt for 4-momenta sum of leptons(l and vl)
#*********************************************************************
# Inclusive cuts                                                     *
#*********************************************************************
 0  = xptj ! minimum pt for at least one jet  
 0  = xptb ! minimum pt for at least one b 
 0  = xpta ! minimum pt for at least one photon 
 0  = xptl ! minimum pt for at least one charged lepton 
#*********************************************************************
# Control the pt's of the jets sorted by pt                          *
#*********************************************************************
 0   = ptj1min ! minimum pt for the leading jet in pt
 0   = ptj2min ! minimum pt for the second jet in pt
 0   = ptj3min ! minimum pt for the third jet in pt
 0   = ptj4min ! minimum pt for the fourth jet in pt
 -1  = ptj1max ! maximum pt for the leading jet in pt 
 -1  = ptj2max ! maximum pt for the second jet in pt
 -1  = ptj3max ! maximum pt for the third jet in pt
 -1  = ptj4max ! maximum pt for the fourth jet in pt
 0   = cutuse  ! reject event if fails any (0) / all (1) jet pt cuts
#*********************************************************************
# Control the pt's of leptons sorted by pt                           *
#*********************************************************************
 0   = ptl1min ! minimum pt for the leading lepton in pt
 0   = ptl2min ! minimum pt for the second lepton in pt
 0   = ptl3min ! minimum pt for the third lepton in pt
 0   = ptl4min ! minimum pt for the fourth lepton in pt
 -1  = ptl1max ! maximum pt for the leading lepton in pt 
 -1  = ptl2max ! maximum pt for the second lepton in pt
 -1  = ptl3max ! maximum pt for the third lepton in pt
 -1  = ptl4max ! maximum pt for the fourth lepton in pt
#*********************************************************************
# Control the Ht(k)=Sum of k leading jets                            *
#*********************************************************************
 0   = htjmin ! minimum jet HT=Sum(jet pt)
 -1  = htjmax ! maximum jet HT=Sum(jet pt)
 0   = ihtmin  !inclusive Ht for all partons (including b)
 -1  = ihtmax  !inclusive Ht for all partons (including b)
 0   = ht2min ! minimum Ht for the two leading jets
 0   = ht3min ! minimum Ht for the three leading jets
 0   = ht4min ! minimum Ht for the four leading jets
 -1  = ht2max ! maximum Ht for the two leading jets
 -1  = ht3max ! maximum Ht for the three leading jets
 -1  = ht4max ! maximum Ht for the four leading jets
#***********************************************************************
# Photon-isolation cuts, according to hep-ph/9801442                   *
# When ptgmin=0, all the other parameters are ignored                  *
# When ptgmin>0, pta and draj are not going to be used                 *
#***********************************************************************
   0 = ptgmin ! Min photon transverse momentum
 0.4 = R0gamma ! Radius of isolation code
 1.0 = xn ! n parameter of eq.(3.4) in hep-ph/9801442
 1.0 = epsgamma ! epsilon_gamma parameter of eq.(3.4) in hep-ph/9801442
 .true. = isoEM ! isolate photons from EM energy (photons and leptons)
#*********************************************************************
# WBF cuts                                                           *
#*********************************************************************
 0   = xetamin ! minimum rapidity for two jets in the WBF case  
 0   = deltaeta ! minimum rapidity for two jets in the WBF case 
#*********************************************************************
# KT DURHAM CUT                                                      *
#*********************************************************************
 -1    =  ktdurham        
 0.4  =  dparameter 
#*********************************************************************
# maximal pdg code for quark to be considered as a light jet         *
# (otherwise b cuts are applied)                                     *
#*********************************************************************
 4 = maxjetflavor    ! Maximum jet pdg code
#*********************************************************************
# Jet measure cuts                                                   *
#*********************************************************************
 0   = xqcut   ! minimum kt jet measure between partons
#*********************************************************************
#
#*********************************************************************
# Store info for systematics studies                                 *
# WARNING: If use_syst is T, matched Pythia output is                *
#          meaningful ONLY if plotted taking matchscale              *
#          reweighting into account!                                 *
#*********************************************************************
   F  = use_syst      ! Enable systematics studies
#
#**************************************
# Parameter of the systematics study
#  will be used by SysCalc (if installed)
#**************************************                                  
#
0.5 1 2 = sys_scalefact  # factorization/renormalization scale factor
0.5 1 2 = sys_alpsfact  # \alpha_s emission scale factors
30 50 = sys_matchscale # variation of merging scale
# PDF sets and number of members (0 or none for all members).
CT10nlo.LHgrid = sys_pdf # matching scales
# MSTW2008nlo68cl.LHgrid 1  = sys_pdf
</MGRunCard>
<slha>
######################################################################
## PARAM_CARD AUTOMATICALY GENERATED BY MG5 FOLLOWING UFO MODEL   ####
######################################################################
##                                                                  ##
##  Width set on Auto will be computed following the information    ##
##        present in the decay.py files of the model.               ##
##        See  arXiv:1402.1178 for more details.                    ##
##                                                                  ##
######################################################################

###################################
## INFORMATION FOR CKMBLOCK
###################################
Block ckmblock 
    1 2.277360e-01 # cabi 

###################################
## INFORMATION FOR FRBLOCK
###################################
Block frblock 
    1 8.000000e-01 # gz 

###################################
## INFORMATION FOR MASS
###################################
Block mass 
    1 5.040000e-03 # MD 
    2 2.550000e-03 # MU 
    3 1.010000e-01 # MS 
    4 1.270000e+00 # MC 
    5 4.700000e+00 # MB 
    6 1.720000e+02 # MT 
   11 5.110000e-04 # Me 
   13 1.056600e-01 # MM 
   15 1.777000e+00 # MTA 
   23 9.118760e+01 # MZ 
   25 1.200000e+02 # MH 
  10030 1.800000e+03 # MZph 
  10031 3.000000e+02 # MZpl 
## Dependent parameters, given by model restrictions.
## Those values should be edited following the 
## analytical expression. MG5 ignores those values 
## but they are important for interfacing the output of MG5
## to external program such as Pythia.
  12 0.000000 # ve : 0.0 
  14 0.000000 # vm : 0.0 
  16 0.000000 # vt : 0.0 
  21 0.000000 # g : 0.0 
  22 0.000000 # a : 0.0 
  24 79.824360 # w+ : cmath.sqrt(MZ__exp__2/2. + cmath.sqrt(MZ__exp__4/4. - (aEW*cmath.pi*MZ__exp__2)/(Gf*sqrt__2))) 

###################################
## INFORMATION FOR SMINPUTS
###################################
Block sminputs 
    1 1.279000e+02 # aEWM1 
    2 1.166370e-05 # Gf 
    3 1.184000e-01 # aS 

###################################
## INFORMATION FOR YUKAWA
###################################
Block yukawa 
    1 5.040000e-03 # ymdo 
    2 2.550000e-03 # ymup 
    3 1.010000e-01 # yms 
    4 1.270000e+00 # ymc 
    5 4.700000e+00 # ymb 
    6 1.720000e+02 # ymt 
   11 5.110000e-04 # yme 
   13 1.056600e-01 # ymm 
   15 1.777000e+00 # ymtau 

###################################
## INFORMATION FOR DECAY
###################################
DECAY   6 1.508336e+00 # WT 
DECAY  23 2.495200e+00 # WZ 
DECAY  24 2.085000e+00 # WW 
DECAY  25 5.753088e-03 # WH 
## Dependent parameters, given by model restrictions.
## Those values should be edited following the 
## analytical expression. MG5 ignores those values 
## but they are important for interfacing the output of MG5
## to external program such as Pythia.
DECAY  1 0.000000 # d : 0.0 
DECAY  2 0.000000 # u : 0.0 
DECAY  3 0.000000 # s : 0.0 
DECAY  4 0.000000 # c : 0.0 
DECAY  5 0.000000 # b : 0.0 
DECAY  11 0.000000 # e- : 0.0 
DECAY  12 0.000000 # ve : 0.0 
DECAY  13 0.000000 # mu- : 0.0 
DECAY  14 0.000000 # vm : 0.0 
DECAY  15 0.000000 # ta- : 0.0 
DECAY  16 0.000000 # vt : 0.0 
DECAY  21 0.000000 # g : 0.0 
DECAY  22 0.000000 # a : 0.0 
DECAY  10030 0.308725 # zph : (gz__exp__2*MZph*(5 + cmath.sqrt(1 - (4*MT__exp__2)/MZph__exp__2)))/(144.*cmath.pi) 
DECAY  10031 0.132629 # zpl : (5*gz__exp__2*MZpl)/(144.*cmath.pi) 
#===========================================================
# QUANTUM NUMBERS OF NEW STATE(S) (NON SM PDG CODE)
#===========================================================

Block QNUMBERS 10030  # zph 
        1 0  # 3 times electric charge
        2 3  # number of spin states (2S+1)
        3 1  # colour rep (1: singlet, 3: triplet, 8: octet)
        4 0  # Particle/Antiparticle distinction (0=own anti)
Block QNUMBERS 10031  # zpl 
        1 0  # 3 times electric charge
        2 3  # number of spin states (2S+1)
        3 1  # colour rep (1: singlet, 3: triplet, 8: octet)
        4 0  # Particle/Antiparticle distinction (0=own anti)
</slha>
## END BANNER##
<MGGenerationInfo>
#  Number of Events        :         3907
#  Integrated weight (pb)  :  0.46564E-01
#  Max wgt                 :  0.16284E-04
#  Average wgt             :  0.11918E-04
</MGGenerationInfo>
</header>
<init>
     2212     2212  0.40000000000E+04  0.40000000000E+04 0 0  247000  247000 2   1
  0.46612477798E-01  0.93890647928E-04  0.16283970000E-04   0
</init>
<event>
 5   0  0.1573981E-04  0.1607332E+04  0.7818609E-02  0.8816056E-01
        2   -1    0    0  501    0  0.00000000000E+00  0.00000000000E+00  0.94055969012E+03  0.94055969013E+03  0.25500000920E-02 0. -1.
       -2   -1    0    0    0  501  0.00000000000E+00  0.00000000000E+00 -0.68669649768E+03  0.68669649768E+03  0.25500000920E-02 0.  1.
    10030    2    1    2    0    0  0.00000000000E+00  0.00000000000E+00  0.25386319245E+03  0.16272561878E+04  0.16073320069E+04 0.  0.
        1    1    3    3  502    0 -0.20085787178E+03 -0.32852861354E+03  0.84108632850E+03  0.92504115940E+03  0.50400001928E-02 0. -1.
       -1    1    3    3    0  502  0.20085787178E+03  0.32852861354E+03 -0.58722313606E+03  0.70221502840E+03  0.50400001928E-02 0.  1.
</event>
<event>
 5   0  0.1573981E-04  0.1830321E+04  0.7818609E-02  0.8690339E-01
        2   -1    0    0  501    0  0.00000000000E+00  0.00000000000E+00  0.75808859537E+03  0.75808859537E+03  0.25500000920E-02 0. -1.
       -2   -1    0    0    0  501  0.00000000000E+00  0.00000000000E+00 -0.11047764315E+04  0.11047764315E+04  0.25500000920E-02 0.  1.
    10030    2    1    2    0    0  0.00000000000E+00  0.00000000000E+00 -0.34668783614E+03  0.18628650269E+04  0.18303206420E+04 0.  0.
        1    1    3    3  502    0  0.19580106522E+03 -0.89008252782E+03 -0.25809180831E+03  0.94720448954E+03  0.50400001928E-02 0.  1.
       -1    1    3    3    0  502 -0.19580106522E+03  0.89008252782E+03 -0.88596027829E+02  0.91566053734E+03  0.50400001928E-02 0. -1.
</event>
<event>
 5   0  0.1628397E-04  0.1593654E+04  0.7818609E-02  0.8824456E-01
       -2   -1    0    0    0  501  0.00000000000E+00  0.00000000000E+00  0.85043731225E+03  0.85043731225E+03  0.25500000920E-02 0. -1.
        2   -1    0    0  501    0  0.00000000000E+00  0.00000000000E+00 -0.74659661378E+03  0.74659661378E+03  0.25500000920E-02 0.  1.
    10030    2    1    2    0    0  0.00000000000E+00  0.00000000000E+00  0.10384069847E+03  0.15970339260E+04  0.15936544388E+04 0.  0.
        3    1    3    3  502    0  0.55842996850E+03 -0.19768771093E+03  0.58597555004E+03  0.83324175137E+03  0.10100000352E+00 0. -1.
       -3    1    3    3    0  502 -0.55842996850E+03  0.19768771093E+03 -0.48213485157E+03  0.76379217467E+03  0.10100000352E+00 0.  1.
</event>
<event>
 5   0  0.1573981E-04  0.1803690E+04  0.7818609E-02  0.8704340E-01
       -2   -1    0    0    0  501  0.00000000000E+00  0.00000000000E+00  0.37282328304E+03  0.37282328305E+03  0.25500000920E-02 0. -1.
        2   -1    0    0  501    0  0.00000000000E+00  0.00000000000E+00 -0.21815280562E+04  0.21815280562E+04  0.25500000920E-02 0.  1.
    10030    2    1    2    0    0  0.00000000000E+00  0.00000000000E+00 -0.18087047732E+04  0.25543513393E+04  0.18036900532E+04 0.  0.
        1    1    3    3  502    0 -0.69810598954E+02 -0.17280116817E+03 -0.21539590280E+04  0.21620067663E+04  0.50400001928E-02 0.  1.
       -1    1    3    3    0  502  0.69810598954E+02  0.17280116817E+03  0.34525425478E+03  0.39234457294E+03  0.50400001928E-02 0. -1.
</event>
<event>
 5   0  0.1628397E-04  0.1821770E+04  0.7818609E-02  0.8694807E-01
        2   -1    0    0  501    0  0.00000000000E+00  0.00000000000E+00  0.16562396523E+04  0.16562396524E+04  0.25500000920E-02 0. -1.
       -2   -1    0    0    0  501  0.00000000000E+00  0.00000000000E+00 -0.50096087614E+03  0.50096087615E+03  0.25500000920E-02 0.  1.
    10030    2    1    2    0    0  0.00000000000E+00  0.00000000000E+00  0.11552787762E+04  0.21572005285E+04  0.18217697630E+04 0.  0.
        3    1    3    3  502    0 -0.85950907995E+03 -0.68821982879E+02  0.92533431272E+03  0.12648066747E+04  0.10100000352E+00 0. -1.
       -3    1    3    3    0  502  0.85950907995E+03  0.68821982879E+02  0.22994446349E+03  0.89239385381E+03  0.10100000352E+00 0.  1.
</event>
<event>
 5   0  0.8206783E-05  0.1790642E+04  0.7818609E-02  0.8711292E-01
        1   -1    0    0  501    0  0.00000000000E+00  0.00000000000E+00  0.76676717515E+03  0.76676717517E+03  0.50400001928E-02 0.  1.
       -1   -1    0    0    0  501  0.00000000000E+00  0.00000000000E+00 -0.10454278721E+04  0.10454278721E+04  0.50400001928E-02 0. -1.
    10030    2    1    2    0    0  0.00000000000E+00  0.00000000000E+00 -0.27866069693E+03  0.18121950473E+04  0.17906420930E+04 0.  0.
        1    1    3    3  502    0 -0.46623354633E+03 -0.47489626142E+03 -0.74545450736E+03  0.99930105644E+03  0.50400001928E-02 0. -1.
       -1    1    3    3    0  502  0.46623354633E+03  0.47489626142E+03  0.46679381043E+03  0.81289399082E+03  0.50400001928E-02 0.  1.
</event>
<event>
 5   0  0.8132598E-05  0.1796189E+04  0.7818609E-02  0.8708329E-01
       -1   -1    0    0    0  501  0.00000000000E+00  0.00000000000E+00  0.59424637461E+03  0.59424637463E+03  0.50400001928E-02 0. -1.
        1   -1    0    0  501    0  0.00000000000E+00  0.00000000000E+00 -0.13573052421E+04  0.13573052421E+04  0.50400001928E-02 0.  1.
    10030    2    1    2    0    0  0.00000000000E+00  0.00000000000E+00 -0.76305886752E+03  0.19515516168E+04  0.17961889872E+04 0.  0.
        3    1    3    3  502    0  0.16513140109E+03 -0.13292667139E+03 -0.13297332444E+04  0.13465245602E+04  0.10100000352E+00 0.  1.
       -3    1    3    3    0  502 -0.16513140109E+03  0.13292667139E+03  0.56667437690E+03  0.60502705661E+03  0.10100000352E+00 0. -1.
</event>
<event>
 5   0  0.1573981E-04  0.1799451E+04  0.7818609E-02  0.8706592E-01
        2   -1    0    0  501    0  0.00000000000E+00  0.00000000000E+00  0.76094501834E+03  0.76094501834E+03  0.25500000920E-02 0.  1.
       -2   -1    0    0    0  501  0.00000000000E+00  0.00000000000E+00 -0.10638161451E+04  0.10638161451E+04  0.25500000920E-02 0. -1.
    10030    2    1    2    0    0  0.00000000000E+00  0.00000000000E+00 -0.30287112677E+03  0.18247611635E+04  0.17994505784E+04 0.  0.
        1    1    3    3  502    0  0.45983797952E+03  0.64246359136E+03 -0.58794953260E+03  0.98483251700E+03  0.50400001928E-02 0. -1.
       -1    1    3    3    0  502 -0.45983797952E+03 -0.64246359136E+03  0.28507840583E+03  0.83992864645E+03  0.50400001928E-02 0.  1.
</event>
<event>
 5   0  0.8492114E-05  0.1846957E+04  0.7818609E-02  0.8681719E-01
       -1   -1    0    0    0  501  0.00000000000E+00  0.00000000000E+00  0.50929376496E+03  0.50929376499E+03  0.50400001928E-02 0. -1.
        1   -1    0    0  501    0  0.00000000000E+00  0.00000000000E+00 -0.16745001555E+04  0.16745001555E+04  0.50400001928E-02 0.  1.
    10030    2    1    2    0    0  0.00000000000E+00  0.00000000000E+00 -0.11652063906E+04  0.21837939205E+04  0.18469569445E+04 0.  0.
        2    1    3    3  502    0 -0.54481273187E+03  0.31956143165E+03  0.21396251791E+03  0.66687358658E+03  0.25500000920E-02 0. -1.
       -2    1    3    3    0  502  0.54481273187E+03 -0.31956143165E+03 -0.13791689085E+04  0.15169203339E+04  0.25500000920E-02 0.  1.
</event>
<event>
 5   0  0.1573981E-04  0.1799361E+04  0.7818609E-02  0.8706639E-01
       -2   -1    0    0    0  501  0.00000000000E+00  0.00000000000E+00  0.68820149879E+03  0.68820149880E+03  0.25500000920E-02 0.  1.
        2   -1    0    0  501    0  0.00000000000E+00  0.00000000000E+00 -0.11761455732E+04  0.11761455732E+04  0.25500000920E-02 0. -1.
    10030    2    1    2    0    0  0.00000000000E+00  0.00000000000E+00 -0.48794407437E+03  0.18643470720E+04  0.17993611603E+04 0.  0.
        1    1    3    3  502    0  0.10543470578E+03  0.73685455124E+03 -0.76754810753E+03  0.10692058755E+04  0.50400001928E-02 0.  1.
       -1    1    3    3    0  502 -0.10543470578E+03 -0.73685455124E+03  0.27960403316E+03  0.79514119643E+03  0.50400001928E-02 0. -1.
</event>
<event>
 5   0  0.5820500E-05  0.1779038E+04  0.7818609E-02  0.8717527E-01
       -4   -1    0    0    0  501  0.00000000000E+00  0.00000000000E+00  0.55133514184E+03  0.55133660456E+03  0.12699999809E+01 0.  1.
        4   -1    0    0  501    0  0.00000000000E+00  0.00000000000E+00 -0.14351387888E+04  0.14351393507E+04  0.12699999809E+01 0. -1.
    10030    2    1    2    0    0  0.00000000000E+00  0.00000000000E+00 -0.88380364695E+03  0.19864759553E+04  0.17790384579E+04 0.  0.
        4    1    3    3  502    0 -0.20825400107E+03  0.85221917077E+03 -0.60599126281E+03  0.10662430621E+04  0.12699999809E+01 0. -1.
       -4    1    3    3    0  502  0.20825400107E+03 -0.85221917077E+03 -0.27781238413E+03  0.92023289317E+03  0.12699999809E+01 0.  1.
</event>
<event>
 5   0  0.1603564E-04  0.1812678E+04  0.7818609E-02  0.8699586E-01
       -2   -1    0    0    0  501  0.00000000000E+00  0.00000000000E+00  0.80680544346E+03  0.80680544347E+03  0.25500000920E-02 0. -1.
        2   -1    0    0  501    0  0.00000000000E+00  0.00000000000E+00 -0.10181517945E+04  0.10181517945E+04  0.25500000920E-02 0.  1.
    10030    2    1    2    0    0  0.00000000000E+00  0.00000000000E+00 -0.21134635100E+03  0.18249572379E+04  0.18126780299E+04 0.  0.
        5    1    3    3  502    0 -0.86665014682E+03 -0.23449876693E+03 -0.23043263848E+03  0.92692687929E+03  0.46999998093E+01 0. -1.
       -5    1    3    3    0  502  0.86665014682E+03  0.23449876693E+03  0.19086287477E+02  0.89803035864E+03  0.46999998093E+01 0.  1.
</event>
<event>
 5   0  0.8430513E-05  0.1803282E+04  0.7818609E-02  0.8704556E-01
        1   -1    0    0  501    0  0.00000000000E+00  0.00000000000E+00  0.88391205099E+03  0.88391205101E+03  0.50400001928E-02 0. -1.
       -1   -1    0    0    0  501  0.00000000000E+00  0.00000000000E+00 -0.91972530779E+03  0.91972530780E+03  0.50400001928E-02 0.  1.
    10030    2    1    2    0    0  0.00000000000E+00  0.00000000000E+00 -0.35813256797E+02  0.18036373588E+04  0.18032817674E+04 0.  0.
        5    1    3    3  502    0 -0.35516682673E+02  0.40911056382E+03 -0.82074872447E+03  0.91776001596E+03  0.46999998093E+01 0.  1.
       -5    1    3    3    0  502  0.35516682673E+02 -0.40911056382E+03  0.78493546767E+03  0.88587734285E+03  0.46999998093E+01 0. -1.
</event>
<event>
 5   0  0.8206783E-05  0.1847880E+04  0.7818609E-02  0.8681244E-01
       -1   -1    0    0    0  501  0.00000000000E+00  0.00000000000E+00  0.12192587167E+04  0.12192587167E+04  0.50400001928E-02 0. -1.
        1   -1    0    0  501    0  0.00000000000E+00  0.00000000000E+00 -0.70015067374E+03  0.70015067376E+03  0.50400001928E-02 0.  1.
    10030    2    1    2    0    0  0.00000000000E+00  0.00000000000E+00  0.51910804299E+03  0.19194093905E+04  0.18478796628E+04 0.  0.
        1    1    3    3  502    0  0.19515542639E+03 -0.59023592148E+02 -0.67649253780E+03  0.70654906313E+03  0.50400001928E-02 0.  1.
       -1    1    3    3    0  502 -0.19515542639E+03  0.59023592148E+02  0.11956005808E+04  0.12128603274E+04  0.50400001928E-02 0. -1.
</event>
<event>
 5   0  0.8132598E-05  0.1804134E+04  0.7818609E-02  0.8704104E-01
       -1   -1    0    0    0  501  0.00000000000E+00  0.00000000000E+00  0.12968507797E+04  0.12968507797E+04  0.50400001928E-02 0.  1.
        1   -1    0    0  501    0  0.00000000000E+00  0.00000000000E+00 -0.62746232227E+03  0.62746232229E+03  0.50400001928E-02 0. -1.
    10030    2    1    2    0    0  0.00000000000E+00  0.00000000000E+00  0.66938845746E+03  0.19243131020E+04  0.18041341435E+04 0.  0.
        3    1    3    3  502    0  0.35622862205E+03 -0.22781682966E+02 -0.54892706815E+03  0.65478146934E+03  0.10100000352E+00 0. -1.
       -3    1    3    3    0  502 -0.35622862205E+03  0.22781682966E+02  0.12183155256E+04  0.12695316327E+04  0.10100000352E+00 0.  1.
</event>
<event>
 5   0  0.8132598E-05  0.1842299E+04  0.7818609E-02  0.8684123E-01
       -1   -1    0    0    0  501  0.00000000000E+00  0.00000000000E+00  0.63821136487E+03  0.63821136489E+03  0.50400001928E-02 0.  1.
        1   -1    0    0  501    0  0.00000000000E+00  0.00000000000E+00 -0.13295230659E+04  0.13295230659E+04  0.50400001928E-02 0. -1.
    10030    2    1    2    0    0  0.00000000000E+00  0.00000000000E+00 -0.69131170104E+03  0.19677344308E+04  0.18422993574E+04 0.  0.
        3    1    3    3  502    0  0.86599344456E+03  0.29754736307E+03 -0.23864640468E+03  0.94627226312E+03  0.10100000352E+00 0.  1.
       -3    1    3    3    0  502 -0.86599344456E+03 -0.29754736307E+03 -0.45266529636E+03  0.10214621677E+04  0.10100000352E+00 0. -1.
</event>
<event>
 5   0  0.1573981E-04  0.1806805E+04  0.7818609E-02  0.8702689E-01
        2   -1    0    0  501    0  0.00000000000E+00  0.00000000000E+00  0.15330570982E+04  0.15330570982E+04  0.25500000920E-02 0. -1.
       -2   -1    0    0    0  501  0.00000000000E+00  0.00000000000E+00 -0.53235874356E+03  0.53235874356E+03  0.25500000920E-02 0.  1.
    10030    2    1    2    0    0  0.00000000000E+00  0.00000000000E+00  0.10006983547E+04  0.20654158418E+04  0.18068053029E+04 0.  0.
        1    1    3    3  502    0 -0.21495474267E+03  0.42886082624E+02 -0.50150070862E+03  0.54730952692E+03  0.50400001928E-02 0.  1.
       -1    1    3    3    0  502  0.21495474267E+03 -0.42886082624E+02  0.15021990633E+04  0.15181063149E+04  0.50400001928E-02 0. -1.
</event>
<event>
 5   0  0.8254914E-05  0.1827328E+04  0.7818609E-02  0.8691900E-01
       -1   -1    0    0    0  501  0.00000000000E+00  0.00000000000E+00  0.64941760088E+03  0.64941760090E+03  0.50400001928E-02 0. -1.
        1   -1    0    0  501    0  0.00000000000E+00  0.00000000000E+00 -0.12854319092E+04  0.12854319093E+04  0.50400001928E-02 0.  1.
    10030    2    1    2    0    0  0.00000000000E+00  0.00000000000E+00 -0.63601430836E+03  0.19348495102E+04  0.18273282208E+04 0.  0.
        4    1    3    3  502    0 -0.27489859013E+03  0.38613695721E+03 -0.11450624130E+04  0.12392903320E+04  0.12699999809E+01 0.  1.
       -4    1    3    3    0  502  0.27489859013E+03 -0.38613695721E+03  0.50904810461E+03  0.69555917813E+03  0.12699999809E+01 0. -1.
</event>
<event>
 5   0  0.8206783E-05  0.1694496E+04  0.7818609E-02  0.8764510E-01
        1   -1    0    0  501    0  0.00000000000E+00  0.00000000000E+00  0.16484474438E+04  0.16484474438E+04  0.50400001928E-02 0. -1.
       -1   -1    0    0    0  501  0.00000000000E+00  0.00000000000E+00 -0.43545769653E+03  0.43545769656E+03  0.50400001928E-02 0.  1.
    10030    2    1    2    0    0  0.00000000000E+00  0.00000000000E+00  0.12129897473E+04  0.20839051404E+04  0.16944959448E+04 0.  0.
        1    1    3    3  502    0  0.73975076311E+03  0.32715455286E+03  0.29642746616E+03  0.86146998537E+03  0.50400001928E-02 0.  1.
       -1    1    3    3    0  502 -0.73975076311E+03 -0.32715455286E+03  0.91656228110E+03  0.12224351550E+04  0.50400001928E-02 0. -1.
</event>
<event>
 5   0  0.1608627E-04  0.1739366E+04  0.7818609E-02  0.8739226E-01
        2   -1    0    0  501    0  0.00000000000E+00  0.00000000000E+00  0.18618073304E+04  0.18618073304E+04  0.25500000920E-02 0. -1.
       -2   -1    0    0    0  501  0.00000000000E+00  0.00000000000E+00 -0.40624421009E+03  0.40624421010E+03  0.25500000920E-02 0.  1.
    10030    2    1    2    0    0  0.00000000000E+00  0.00000000000E+00  0.14555631203E+04  0.22680515405E+04  0.17393659170E+04 0.  0.
        2    1    3    3  502    0  0.77180797349E+03 -0.28462598673E+03  0.10957850912E+04  0.13701986959E+04  0.25500000920E-02 0. -1.
       -2    1    3    3    0  502 -0.77180797349E+03  0.28462598673E+03  0.35977802913E+03  0.89785284458E+03  0.25500000920E-02 0.  1.
</event>
<event>
 5   0  0.8132598E-05  0.1816540E+04  0.7818609E-02  0.8697553E-01
       -1   -1    0    0    0  501  0.00000000000E+00  0.00000000000E+00  0.80953700878E+03  0.80953700880E+03  0.50400001928E-02 0. -1.
        1   -1    0    0  501    0  0.00000000000E+00  0.00000000000E+00 -0.10190448120E+04  0.10190448120E+04  0.50400001928E-02 0.  1.
    10030    2    1    2    0    0  0.00000000000E+00  0.00000000000E+00 -0.20950780319E+03  0.18285818208E+04  0.18165401057E+04 0.  0.
        3    1    3    3  502    0  0.89530415880E+03 -0.14645427167E+03 -0.60461219012E+02  0.90921612374E+03  0.10100000352E+00 0. -1.
       -3    1    3    3    0  502 -0.89530415880E+03  0.14645427167E+03 -0.14904658418E+03  0.91936569705E+03  0.10100000352E+00 0.  1.
</event>
<event>
 5   0  0.1628397E-04  0.1809351E+04  0.7818609E-02  0.8701342E-01
        2   -1    0    0  501    0  0.00000000000E+00  0.00000000000E+00  0.16393519378E+04  0.16393519378E+04  0.25500000920E-02 0.  1.
       -2   -1    0    0    0  501  0.00000000000E+00  0.00000000000E+00 -0.49924496879E+03  0.49924496879E+03  0.25500000920E-02 0. -1.
    10030    2    1    2    0    0  0.00000000000E+00  0.00000000000E+00  0.11401069691E+04  0.21385969066E+04  0.18093514938E+04 0.  0.
        3    1    3    3  502    0 -0.65416417772E+03 -0.22427867997E+03  0.12594630326E+04  0.14368294396E+04  0.10100000352E+00 0.  1.
       -3    1    3    3    0  502  0.65416417772E+03  0.22427867997E+03 -0.11935606358E+03  0.70176746705E+03  0.10100000352E+00 0. -1.
</event>
<event>
 5   0  0.8206783E-05  0.1799154E+04  0.7818609E-02  0.8706750E-01
        1   -1    0    0  501    0  0.00000000000E+00  0.00000000000E+00  0.67573421278E+03  0.67573421280E+03  0.50400001928E-02 0.  1.
       -1   -1    0    0    0  501  0.00000000000E+00  0.00000000000E+00 -0.11975695448E+04  0.11975695448E+04  0.50400001928E-02 0. -1.
    10030    2    1    2    0    0  0.00000000000E+00  0.00000000000E+00 -0.52183533205E+03  0.18733037576E+04  0.17991539274E+04 0.  0.
        1    1    3    3  502    0 -0.67345113202E+03  0.59125641740E+03 -0.34235985196E+03  0.95933875486E+03  0.50400001928E-02 0. -1.
       -1    1    3    3    0  502  0.67345113202E+03 -0.59125641740E+03 -0.17947548009E+03  0.91396500278E+03  0.50400001928E-02 0.  1.
</event>
<event>
 5   0  0.1608627E-04  0.1793967E+04  0.7818609E-02  0.8709514E-01
        2   -1    0    0  501    0  0.00000000000E+00  0.00000000000E+00  0.23078286063E+04  0.23078286063E+04  0.25500000920E-02 0.  1.
       -2   -1    0    0    0  501  0.00000000000E+00  0.00000000000E+00 -0.34863049594E+03  0.34863049595E+03  0.25500000920E-02 0. -1.
    10030    2    1    2    0    0  0.00000000000E+00  0.00000000000E+00  0.19591981103E+04  0.26564591022E+04  0.17939670360E+04 0.  0.
        2    1    3    3  502    0 -0.74147090284E+03 -0.24296736937E+03  0.16347760326E+04  0.18114372523E+04  0.25500000920E-02 0.  1.
       -2    1    3    3    0  502  0.74147090284E+03  0.24296736937E+03  0.32442207779E+03  0.84502184995E+03  0.25500000920E-02 0. -1.
</event>
<event>
 5   0  0.8492114E-05  0.1779913E+04  0.7818609E-02  0.8717055E-01
        1   -1    0    0  501    0  0.00000000000E+00  0.00000000000E+00  0.18554895476E+04  0.18554895476E+04  0.50400001928E-02 0. -1.
       -1   -1    0    0    0  501  0.00000000000E+00  0.00000000000E+00 -0.42685378938E+03  0.42685378941E+03  0.50400001928E-02 0.  1.
    10030    2    1    2    0    0  0.00000000000E+00  0.00000000000E+00  0.14286357582E+04  0.22823433370E+04  0.17799131940E+04 0.  0.
        2    1    3    3  502    0  0.27010367335E+03 -0.81123566169E+03  0.10309222655E+04  0.13393505929E+04  0.25500000920E-02 0. -1.
       -2    1    3    3    0  502 -0.27010367335E+03  0.81123566169E+03  0.39771349271E+03  0.94299274411E+03  0.25500000920E-02 0.  1.
</event>
<event>
 5   0  0.1628397E-04  0.1808714E+04  0.7818609E-02  0.8701679E-01
       -2   -1    0    0    0  501  0.00000000000E+00  0.00000000000E+00  0.42971904204E+03  0.42971904205E+03  0.25500000920E-02 0. -1.
        2   -1    0    0  501    0  0.00000000000E+00  0.00000000000E+00 -0.19032472230E+04  0.19032472230E+04  0.25500000920E-02 0.  1.
    10030    2    1    2    0    0  0.00000000000E+00  0.00000000000E+00 -0.14735281810E+04  0.23329662651E+04  0.18087139889E+04 0.  0.
        3    1    3    3  502    0  0.11304134298E+03  0.51291058089E+03 -0.16863638371E+04  0.17662611955E+04  0.10100000352E+00 0.  1.
       -3    1    3    3    0  502 -0.11304134298E+03 -0.51291058089E+03  0.21283565614E+03  0.56670506962E+03  0.10100000352E+00 0. -1.
</event>
<event>
 5   0  0.1603564E-04  0.1806416E+04  0.7818609E-02  0.8702895E-01
        2   -1    0    0  501    0  0.00000000000E+00  0.00000000000E+00  0.22394712879E+04  0.22394712879E+04  0.25500000920E-02 0. -1.
       -2   -1    0    0    0  501  0.00000000000E+00  0.00000000000E+00 -0.36427543264E+03  0.36427543265E+03  0.25500000920E-02 0.  1.
    10030    2    1    2    0    0  0.00000000000E+00  0.00000000000E+00  0.18751958552E+04  0.26037467205E+04  0.18064156468E+04 0.  0.
        5    1    3    3  502    0  0.48740003370E+03 -0.52908282093E+03  0.17248057000E+04  0.18688135854E+04  0.46999998093E+01 0. -1.
       -5    1    3    3    0  502 -0.48740003370E+03  0.52908282093E+03  0.15039015518E+03  0.73493313507E+03  0.46999998093E+01 0.  1.
</event>
<event>
 5   0  0.8492114E-05  0.1783350E+04  0.7818609E-02  0.8715204E-01
       -1   -1    0    0    0  501  0.00000000000E+00  0.00000000000E+00  0.34174222441E+03  0.34174222445E+03  0.50400001928E-02 0. -1.
        1   -1    0    0  501    0  0.00000000000E+00  0.00000000000E+00 -0.23265616671E+04  0.23265616671E+04  0.50400001928E-02 0.  1.
    10030    2    1    2    0    0  0.00000000000E+00  0.00000000000E+00 -0.19848194427E+04  0.26683038915E+04  0.17833500603E+04 0.  0.
        2    1    3    3  502    0  0.50337946829E+03 -0.66913777916E+03 -0.53380059184E+03  0.99301527101E+03  0.25500000920E-02 0. -1.
       -2    1    3    3    0  502 -0.50337946829E+03  0.66913777916E+03 -0.14510188508E+04  0.16752886205E+04  0.25500000920E-02 0.  1.
</event>
<event>
 5   0  0.1628397E-04  0.1826761E+04  0.7818609E-02  0.8692197E-01
        2   -1    0    0  501    0  0.00000000000E+00  0.00000000000E+00  0.12271306464E+04  0.12271306464E+04  0.25500000920E-02 0.  1.
       -2   -1    0    0    0  501  0.00000000000E+00  0.00000000000E+00 -0.67984908782E+03  0.67984908783E+03  0.25500000920E-02 0. -1.
    10030    2    1    2    0    0  0.00000000000E+00  0.00000000000E+00  0.54728155855E+03  0.19069797342E+04  0.18267606856E+04 0.  0.
        3    1    3    3  502    0 -0.16960046759E+03 -0.37504152449E+03  0.11248259118E+04  0.11977703477E+04  0.10100000352E+00 0.  1.
       -3    1    3    3    0  502  0.16960046759E+03  0.37504152449E+03 -0.57754435328E+03  0.70920938651E+03  0.10100000352E+00 0. -1.
</event>
<event>
 5   0  0.1573981E-04  0.1693410E+04  0.7818609E-02  0.8765132E-01
        2   -1    0    0  501    0  0.00000000000E+00  0.00000000000E+00  0.73971601678E+03  0.73971601678E+03  0.25500000920E-02 0.  1.
       -2   -1    0    0    0  501  0.00000000000E+00  0.00000000000E+00 -0.96916786367E+03  0.96916786367E+03  0.25500000920E-02 0. -1.
    10030    2    1    2    0    0  0.00000000000E+00  0.00000000000E+00 -0.22945184689E+03  0.17088838805E+04  0.16934095685E+04 0.  0.
        1    1    3    3  502    0 -0.37000364176E+03  0.73941165658E+03 -0.29881188153E+03  0.87915916271E+03  0.50400001928E-02 0. -1.
       -1    1    3    3    0  502  0.37000364176E+03 -0.73941165658E+03  0.69360034636E+02  0.82972471775E+03  0.50400001928E-02 0.  1.
</event>
<event>
 5   0  0.8430513E-05  0.1802531E+04  0.7818609E-02  0.8704955E-01
        1   -1    0    0  501    0  0.00000000000E+00  0.00000000000E+00  0.10128571600E+04  0.10128571600E+04  0.50400001928E-02 0. -1.
       -1   -1    0    0    0  501  0.00000000000E+00  0.00000000000E+00 -0.80196866791E+03  0.80196866792E+03  0.50400001928E-02 0.  1.
    10030    2    1    2    0    0  0.00000000000E+00  0.00000000000E+00  0.21088849207E+03  0.18148258279E+04  0.18025312285E+04 0.  0.
        5    1    3    3  502    0  0.31744111194E+03  0.71594581885E+03  0.55447991071E+03  0.95959227616E+03  0.46999998093E+01 0. -1.
       -5    1    3    3    0  502 -0.31744111194E+03 -0.71594581885E+03 -0.34359141864E+03  0.85523355176E+03  0.46999998093E+01 0.  1.
</event>
<event>
 5   0  0.1628397E-04  0.1795736E+04  0.7818609E-02  0.8708570E-01
        2   -1    0    0  501    0  0.00000000000E+00  0.00000000000E+00  0.56801322415E+03  0.56801322416E+03  0.25500000920E-02 0.  1.
       -2   -1    0    0    0  501  0.00000000000E+00  0.00000000000E+00 -0.14192748639E+04  0.14192748639E+04  0.25500000920E-02 0. -1.
    10030    2    1    2    0    0  0.00000000000E+00  0.00000000000E+00 -0.85126163970E+03  0.19872880880E+04  0.17957359398E+04 0.  0.
        3    1    3    3  502    0 -0.18420701620E+03 -0.78336931816E+03 -0.86631249251E+03  0.11824115436E+04  0.10100000352E+00 0. -1.
       -3    1    3    3    0  502  0.18420701620E+03  0.78336931816E+03  0.15050852814E+02  0.80487654446E+03  0.10100000352E+00 0.  1.
</event>
<event>
 5   0  0.8254914E-05  0.1800845E+04  0.7818609E-02  0.8705850E-01
        1   -1    0    0  501    0  0.00000000000E+00  0.00000000000E+00  0.15862996642E+04  0.15862996642E+04  0.50400001928E-02 0.  1.
       -1   -1    0    0    0  501  0.00000000000E+00  0.00000000000E+00 -0.51110162992E+03  0.51110162994E+03  0.50400001928E-02 0. -1.
    10030    2    1    2    0    0  0.00000000000E+00  0.00000000000E+00  0.10751980342E+04  0.20974012941E+04  0.18008446284E+04 0.  0.
        4    1    3    3  502    0 -0.12819874570E+03 -0.89094685956E+03  0.56460108152E+03  0.10625428081E+04  0.12699999809E+01 0. -1.
       -4    1    3    3    0  502  0.12819874570E+03  0.89094685956E+03  0.51059695272E+03  0.10348584860E+04  0.12699999809E+01 0.  1.
</event>
<event>
 5   0  0.8206783E-05  0.1813777E+04  0.7818609E-02  0.8699007E-01
        1   -1    0    0  501    0  0.00000000000E+00  0.00000000000E+00  0.12426745146E+04  0.12426745146E+04  0.50400001928E-02 0.  1.
       -1   -1    0    0    0  501  0.00000000000E+00  0.00000000000E+00 -0.66183628120E+03  0.66183628122E+03  0.50400001928E-02 0. -1.
    10030    2    1    2    0    0  0.00000000000E+00  0.00000000000E+00  0.58083823341E+03  0.19045107958E+04  0.18137773618E+04 0.  0.
        1    1    3    3  502    0 -0.57446798610E+03  0.39623484643E+02 -0.44524550681E+03  0.72789219597E+03  0.50400001928E-02 0. -1.
       -1    1    3    3    0  502  0.57446798610E+03 -0.39623484643E+02  0.10260837402E+04  0.11766185999E+04  0.50400001928E-02 0.  1.
</event>
<event>
 5   0  0.8132598E-05  0.1814297E+04  0.7818609E-02  0.8698733E-01
       -1   -1    0    0    0  501  0.00000000000E+00  0.00000000000E+00  0.41022789090E+03  0.41022789093E+03  0.50400001928E-02 0. -1.
        1   -1    0    0  501    0  0.00000000000E+00  0.00000000000E+00 -0.20060039551E+04  0.20060039551E+04  0.50400001928E-02 0.  1.
    10030    2    1    2    0    0  0.00000000000E+00  0.00000000000E+00 -0.15957760642E+04  0.24162318460E+04  0.18142974085E+04 0.  0.
        3    1    3    3  502    0  0.18589826379E+03  0.42330416284E+03  0.24155542161E+03  0.52162592983E+03  0.10100000352E+00 0. -1.
       -3    1    3    3    0  502 -0.18589826379E+03 -0.42330416284E+03 -0.18373314858E+04  0.18946059162E+04  0.10100000352E+00 0.  1.
</event>
<event>
 5   0  0.1549012E-04  0.1797022E+04  0.7818609E-02  0.8707885E-01
        2   -1    0    0  501    0  0.00000000000E+00  0.00000000000E+00  0.14245129972E+04  0.14245129972E+04  0.25500000920E-02 0.  1.
       -2   -1    0    0    0  501  0.00000000000E+00  0.00000000000E+00 -0.56673533238E+03  0.56673533239E+03  0.25500000920E-02 0. -1.
    10030    2    1    2    0    0  0.00000000000E+00  0.00000000000E+00  0.85777766481E+03  0.19912483296E+04  0.17970218106E+04 0.  0.
        4    1    3    3  502    0  0.76291511181E+03 -0.46692442683E+03  0.33445871280E+03  0.95494614072E+03  0.12699999809E+01 0.  1.
       -4    1    3    3    0  502 -0.76291511181E+03  0.46692442683E+03  0.52331895200E+03  0.10363021889E+04  0.12699999809E+01 0. -1.
</event>
<event>
 5   0  0.1549012E-04  0.1794911E+04  0.7818609E-02  0.8709010E-01
       -2   -1    0    0    0  501  0.00000000000E+00  0.00000000000E+00  0.71867489004E+03  0.71867489004E+03  0.25500000920E-02 0. -1.
        2   -1    0    0  501    0  0.00000000000E+00  0.00000000000E+00 -0.11207108290E+04  0.11207108290E+04  0.25500000920E-02 0.  1.
    10030    2    1    2    0    0  0.00000000000E+00  0.00000000000E+00 -0.40203593894E+03  0.18393857190E+04  0.17949113981E+04 0.  0.
        4    1    3    3  502    0 -0.32361906969E+03  0.82547680877E+03 -0.34332511956E+03  0.95079704180E+03  0.12699999809E+01 0. -1.
       -4    1    3    3    0  502  0.32361906969E+03 -0.82547680877E+03 -0.58710819372E+02  0.88858867722E+03  0.12699999809E+01 0.  1.
</event>
<event>
 5   0  0.5820500E-05  0.1801042E+04  0.7818609E-02  0.8705745E-01
       -4   -1    0    0    0  501  0.00000000000E+00  0.00000000000E+00  0.15213472914E+04  0.15213478215E+04  0.12699999809E+01 0. -1.
        4   -1    0    0  501    0  0.00000000000E+00  0.00000000000E+00 -0.53303812380E+03  0.53303963673E+03  0.12699999809E+01 0.  1.
    10030    2    1    2    0    0  0.00000000000E+00  0.00000000000E+00  0.98830916763E+03  0.20543874582E+04  0.18010421477E+04 0.  0.
        5    1    3    3  502    0 -0.24144390554E+03  0.33573743169E+03 -0.41830783398E+03  0.58823321610E+03  0.46999998093E+01 0.  1.
       -5    1    3    3    0  502  0.24144390554E+03 -0.33573743169E+03  0.14066170016E+04  0.14661542421E+04  0.46999998093E+01 0. -1.
</event>
<event>
 5   0  0.8430513E-05  0.1802827E+04  0.7818609E-02  0.8704797E-01
       -1   -1    0    0    0  501  0.00000000000E+00  0.00000000000E+00  0.52458326178E+03  0.52458326180E+03  0.50400001928E-02 0.  1.
        1   -1    0    0  501    0  0.00000000000E+00  0.00000000000E+00 -0.15489370648E+04  0.15489370649E+04  0.50400001928E-02 0. -1.
    10030    2    1    2    0    0  0.00000000000E+00  0.00000000000E+00 -0.10243538031E+04  0.20735203267E+04  0.18028271773E+04 0.  0.
        5    1    3    3  502    0 -0.66291100582E+03  0.22421673437E+03  0.14128626546E+03  0.71393840380E+03  0.46999998093E+01 0.  1.
       -5    1    3    3    0  502  0.66291100582E+03 -0.22421673437E+03 -0.11656400685E+04  0.13595819229E+04  0.46999998093E+01 0. -1.
</event>
<event>
 5   0  0.8430513E-05  0.1793334E+04  0.7818609E-02  0.8709852E-01
       -1   -1    0    0    0  501  0.00000000000E+00  0.00000000000E+00  0.67338878936E+03  0.67338878938E+03  0.50400001928E-02 0. -1.
        1   -1    0    0  501    0  0.00000000000E+00  0.00000000000E+00 -0.11939787836E+04  0.11939787837E+04  0.50400001928E-02 0.  1.
    10030    2    1    2    0    0  0.00000000000E+00  0.00000000000E+00 -0.52058999429E+03  0.18673675730E+04  0.17933342440E+04 0.  0.
        5    1    3    3  502    0 -0.10135835382E+03 -0.75540863008E+03 -0.75210025677E+03  0.10707906427E+04  0.46999998093E+01 0.  1.
       -5    1    3    3    0  502  0.10135835382E+03  0.75540863008E+03  0.23151026248E+03  0.79657693032E+03  0.46999998093E+01 0. -1.
</event>
<event>
 5   0  0.1608627E-04  0.1780244E+04  0.7818609E-02  0.8716877E-01
        2   -1    0    0  501    0  0.00000000000E+00  0.00000000000E+00  0.17401574165E+04  0.17401574165E+04  0.25500000920E-02 0.  1.
       -2   -1    0    0    0  501  0.00000000000E+00  0.00000000000E+00 -0.45531331235E+03  0.45531331236E+03  0.25500000920E-02 0. -1.
    10030    2    1    2    0    0  0.00000000000E+00  0.00000000000E+00  0.12848441041E+04  0.21954707288E+04  0.17802436208E+04 0.  0.
        2    1    3    3  502    0 -0.16434221626E+03 -0.72515062466E+03  0.38933165549E+02  0.74455865040E+03  0.25500000920E-02 0. -1.
       -2    1    3    3    0  502  0.16434221626E+03  0.72515062466E+03  0.12459109386E+04  0.14509120784E+04  0.25500000920E-02 0.  1.
</event>
<event>
 5   0  0.1628397E-04  0.1798851E+04  0.7818609E-02  0.8706911E-01
       -2   -1    0    0    0  501  0.00000000000E+00  0.00000000000E+00  0.51481206790E+03  0.51481206791E+03  0.25500000920E-02 0.  1.
        2   -1    0    0  501    0  0.00000000000E+00  0.00000000000E+00 -0.15713807913E+04  0.15713807913E+04  0.25500000920E-02 0. -1.
    10030    2    1    2    0    0  0.00000000000E+00  0.00000000000E+00 -0.10565687234E+04  0.20861928592E+04  0.17988505159E+04 0.  0.
        3    1    3    3  502    0  0.84062662055E+03 -0.44089006261E+01 -0.89920656203E+03  0.12309528850E+04  0.10100000352E+00 0.  1.
       -3    1    3    3    0  502 -0.84062662055E+03  0.44089006261E+01 -0.15736216139E+03  0.85523997429E+03  0.10100000352E+00 0. -1.
</event>
<event>
 5   0  0.1573981E-04  0.1836456E+04  0.7818609E-02  0.8687149E-01
        2   -1    0    0  501    0  0.00000000000E+00  0.00000000000E+00  0.10274332043E+04  0.10274332043E+04  0.25500000920E-02 0. -1.
       -2   -1    0    0    0  501  0.00000000000E+00  0.00000000000E+00 -0.82062986201E+03  0.82062986201E+03  0.25500000920E-02 0.  1.
    10030    2    1    2    0    0  0.00000000000E+00  0.00000000000E+00  0.20680334229E+03  0.18480630663E+04  0.18364556827E+04 0.  0.
        1    1    3    3  502    0 -0.53075867996E+03  0.51172671955E+03 -0.44739071500E+03  0.86239634957E+03  0.50400001928E-02 0.  1.
       -1    1    3    3    0  502  0.53075867996E+03 -0.51172671955E+03  0.65419405729E+03  0.98566671674E+03  0.50400001928E-02 0. -1.
</event>
<event>
 5   0  0.1608627E-04  0.1797543E+04  0.7818609E-02  0.8707607E-01
        2   -1    0    0  501    0  0.00000000000E+00  0.00000000000E+00  0.15675115311E+04  0.15675115311E+04  0.25500000920E-02 0. -1.
       -2   -1    0    0    0  501  0.00000000000E+00  0.00000000000E+00 -0.51533303637E+03  0.51533303637E+03  0.25500000920E-02 0.  1.
    10030    2    1    2    0    0  0.00000000000E+00  0.00000000000E+00  0.10521784947E+04  0.20828445675E+04  0.17975432978E+04 0.  0.
        2    1    3    3  502    0  0.88978823996E+03 -0.12655343077E+03  0.53441219728E+03  0.10456267400E+04  0.25500000920E-02 0. -1.
       -2    1    3    3    0  502 -0.88978823996E+03  0.12655343077E+03  0.51776629745E+03  0.10372178275E+04  0.25500000920E-02 0.  1.
</event>
<event>
 5   0  0.1628397E-04  0.1792659E+04  0.7818609E-02  0.8710213E-01
       -2   -1    0    0    0  501  0.00000000000E+00  0.00000000000E+00  0.73100155729E+03  0.73100155729E+03  0.25500000920E-02 0.  1.
        2   -1    0    0  501    0  0.00000000000E+00  0.00000000000E+00 -0.10990491745E+04  0.10990491745E+04  0.25500000920E-02 0. -1.
    10030    2    1    2    0    0  0.00000000000E+00  0.00000000000E+00 -0.36804761720E+03  0.18300507318E+04  0.17926590954E+04 0.  0.
        3    1    3    3  502    0 -0.56880075419E+03 -0.28284234993E+03  0.46152074159E+03  0.78519774452E+03  0.10100000352E+00 0.  1.
       -3    1    3    3    0  502  0.56880075419E+03  0.28284234993E+03 -0.82956835879E+03  0.10448529873E+04  0.10100000352E+00 0. -1.
</event>
<event>
 5   0  0.8430513E-05  0.1782807E+04  0.7818609E-02  0.8715497E-01
        1   -1    0    0  501    0  0.00000000000E+00  0.00000000000E+00  0.94343543191E+03  0.94343543192E+03  0.50400001928E-02 0. -1.
       -1   -1    0    0    0  501  0.00000000000E+00  0.00000000000E+00 -0.84224080482E+03  0.84224080483E+03  0.50400001928E-02 0.  1.
    10030    2    1    2    0    0  0.00000000000E+00  0.00000000000E+00  0.10119462709E+03  0.17856762368E+04  0.17828065711E+04 0.  0.
        5    1    3    3  502    0 -0.15842576240E+03 -0.70240575533E+03  0.57690020345E+03  0.92266380771E+03  0.46999998093E+01 0. -1.
       -5    1    3    3    0  502  0.15842576240E+03  0.70240575533E+03 -0.47570557636E+03  0.86301242905E+03  0.46999998093E+01 0.  1.
</event>
<event>
 5   0  0.1603564E-04  0.1784056E+04  0.7818609E-02  0.8714824E-01
        2   -1    0    0  501    0  0.00000000000E+00  0.00000000000E+00  0.16980917818E+04  0.16980917818E+04  0.25500000920E-02 0.  1.
       -2   -1    0    0    0  501  0.00000000000E+00  0.00000000000E+00 -0.46859311851E+03  0.46859311852E+03  0.25500000920E-02 0. -1.
    10030    2    1    2    0    0  0.00000000000E+00  0.00000000000E+00  0.12294986633E+04  0.21666849003E+04  0.17840561914E+04 0.  0.
        5    1    3    3  502    0 -0.38741283327E+03  0.78083762368E+03  0.84484575420E+03  0.12139120793E+04  0.46999998093E+01 0.  1.
       -5    1    3    3    0  502  0.38741283327E+03 -0.78083762368E+03  0.38465290908E+03  0.95277282098E+03  0.46999998093E+01 0. -1.
</event>
<event>
 5   0  0.8430513E-05  0.1796084E+04  0.7818609E-02  0.8708385E-01
        1   -1    0    0  501    0  0.00000000000E+00  0.00000000000E+00  0.17205495019E+04  0.17205495019E+04  0.50400001928E-02 0. -1.
       -1   -1    0    0    0  501  0.00000000000E+00  0.00000000000E+00 -0.46873349326E+03  0.46873349329E+03  0.50400001928E-02 0.  1.
    10030    2    1    2    0    0  0.00000000000E+00  0.00000000000E+00  0.12518160086E+04  0.21892829952E+04  0.17960837156E+04 0.  0.
        5    1    3    3  502    0  0.17267745175E+03 -0.92355135368E+02 -0.44237684852E+03  0.48380403003E+03  0.46999998093E+01 0.  1.
       -5    1    3    3    0  502 -0.17267745175E+03  0.92355135368E+02  0.16941928571E+04  0.17054789652E+04  0.46999998093E+01 0. -1.
</event>
<event>
 5   0  0.8132598E-05  0.1808421E+04  0.7818609E-02  0.8701834E-01
       -1   -1    0    0    0  501  0.00000000000E+00  0.00000000000E+00  0.43163351537E+03  0.43163351540E+03  0.50400001928E-02 0. -1.
        1   -1    0    0  501    0  0.00000000000E+00  0.00000000000E+00 -0.18941909172E+04  0.18941909173E+04  0.50400001928E-02 0.  1.
    10030    2    1    2    0    0  0.00000000000E+00  0.00000000000E+00 -0.14625574019E+04  0.23258244327E+04  0.18084206197E+04 0.  0.
        3    1    3    3  502    0 -0.31492273646E+03 -0.65502321427E+03 -0.14231098755E+04  0.15979591575E+04  0.10100000352E+00 0. -1.
       -3    1    3    3    0  502  0.31492273646E+03  0.65502321427E+03 -0.39447526347E+02  0.72786527510E+03  0.10100000352E+00 0.  1.
</event>
<event>
 5   0  0.1628397E-04  0.1798770E+04  0.7818609E-02  0.8706954E-01
        2   -1    0    0  501    0  0.00000000000E+00  0.00000000000E+00  0.96401381302E+03  0.96401381302E+03  0.25500000920E-02 0. -1.
       -2   -1    0    0    0  501  0.00000000000E+00  0.00000000000E+00 -0.83908917352E+03  0.83908917352E+03  0.25500000920E-02 0.  1.
    10030    2    1    2    0    0  0.00000000000E+00  0.00000000000E+00  0.12492463950E+03  0.18031029865E+04  0.17987701950E+04 0.  0.
        3    1    3    3  502    0 -0.81154061156E+03  0.24441037246E+03 -0.23919268620E+03  0.88065188679E+03  0.10100000352E+00 0.  1.
       -3    1    3    3    0  502  0.81154061156E+03 -0.24441037246E+03  0.36411732570E+03  0.92245109976E+03  0.10100000352E+00 0. -1.
</event>
<event>
 5   0  0.8206783E-05  0.1787504E+04  0.7818609E-02  0.8712973E-01
        1   -1    0    0  501    0  0.00000000000E+00  0.00000000000E+00  0.92968163442E+03  0.92968163443E+03  0.50400001928E-02 0.  1.
       -1   -1    0    0    0  501  0.00000000000E+00  0.00000000000E+00 -0.85921099900E+03  0.85921099902E+03  0.50400001928E-02 0. -1.
    10030    2    1    2    0    0  0.00000000000E+00  0.00000000000E+00  0.70470635411E+02  0.17888926334E+04  0.17875040541E+04 0.  0.
        1    1    3    3  502    0 -0.82900510139E+03  0.25372647500E+03 -0.18211097688E+03  0.88588429841E+03  0.50400001928E-02 0.  1.
       -1    1    3    3    0  502  0.82900510139E+03 -0.25372647500E+03  0.25258161229E+03  0.90300833504E+03  0.50400001928E-02 0. -1.
</event>
<event>
 5   0  0.8132598E-05  0.1780055E+04  0.7818609E-02  0.8716979E-01
       -1   -1    0    0    0  501  0.00000000000E+00  0.00000000000E+00  0.68991036802E+03  0.68991036803E+03  0.50400001928E-02 0. -1.
        1   -1    0    0  501    0  0.00000000000E+00  0.00000000000E+00 -0.11481905526E+04  0.11481905526E+04  0.50400001928E-02 0.  1.
    10030    2    1    2    0    0  0.00000000000E+00  0.00000000000E+00 -0.45828018461E+03  0.18381009207E+04  0.17800545685E+04 0.  0.
        3    1    3    3  502    0 -0.45027067836E+03 -0.76214298490E+03 -0.13369803352E+03  0.89525459373E+03  0.10100000352E+00 0. -1.
       -3    1    3    3    0  502  0.45027067836E+03  0.76214298490E+03 -0.32458215109E+03  0.94284632695E+03  0.10100000352E+00 0.  1.
</event>
<event>
 5   0  0.8492114E-05  0.1787990E+04  0.7818609E-02  0.8712712E-01
        1   -1    0    0  501    0  0.00000000000E+00  0.00000000000E+00  0.14746784365E+04  0.14746784365E+04  0.50400001928E-02 0. -1.
       -1   -1    0    0    0  501  0.00000000000E+00  0.00000000000E+00 -0.54196713923E+03  0.54196713925E+03  0.50400001928E-02 0.  1.
    10030    2    1    2    0    0  0.00000000000E+00  0.00000000000E+00  0.93271129730E+03  0.20166455758E+04  0.17879902165E+04 0.  0.
        2    1    3    3  502    0 -0.13185834586E+03  0.31399421186E+03 -0.46594011038E+03  0.57713011958E+03  0.25500000920E-02 0.  1.
       -2    1    3    3    0  502  0.13185834586E+03 -0.31399421186E+03  0.13986514077E+04  0.14395154562E+04  0.25500000920E-02 0. -1.
</event>
<event>
 5   0  0.8430513E-05  0.1794045E+04  0.7818609E-02  0.8709473E-01
       -1   -1    0    0    0  501  0.00000000000E+00  0.00000000000E+00  0.82348366355E+03  0.82348366356E+03  0.50400001928E-02 0. -1.
        1   -1    0    0  501    0  0.00000000000E+00  0.00000000000E+00 -0.97712859261E+03  0.97712859262E+03  0.50400001928E-02 0.  1.
    10030    2    1    2    0    0  0.00000000000E+00  0.00000000000E+00 -0.15364492906E+03  0.18006122562E+04  0.17940450755E+04 0.  0.
        5    1    3    3  502    0 -0.48077525746E+02 -0.71926354773E+03 -0.61260786500E+03  0.94602430510E+03  0.46999998093E+01 0.  1.
       -5    1    3    3    0  502  0.48077525746E+02  0.71926354773E+03  0.45896293594E+03  0.85458795109E+03  0.46999998093E+01 0. -1.
</event>
<event>
 5   0  0.1549012E-04  0.1819923E+04  0.7818609E-02  0.8695776E-01
        2   -1    0    0  501    0  0.00000000000E+00  0.00000000000E+00  0.22549657674E+04  0.22549657674E+04  0.25500000920E-02 0.  1.
       -2   -1    0    0    0  501  0.00000000000E+00  0.00000000000E+00 -0.36720302946E+03  0.36720302947E+03  0.25500000920E-02 0. -1.
    10030    2    1    2    0    0  0.00000000000E+00  0.00000000000E+00  0.18877627380E+04  0.26221687969E+04  0.18199233623E+04 0.  0.
        4    1    3    3  502    0 -0.76885963434E+03  0.46436717936E+03  0.11538974789E+04  0.14622800755E+04  0.12699999809E+01 0. -1.
       -4    1    3    3    0  502  0.76885963434E+03 -0.46436717936E+03  0.73386525911E+03  0.11598887214E+04  0.12699999809E+01 0.  1.
</event>
<event>
 5   0  0.1573981E-04  0.1759501E+04  0.7818609E-02  0.8728138E-01
        2   -1    0    0  501    0  0.00000000000E+00  0.00000000000E+00  0.18863840937E+04  0.18863840937E+04  0.25500000920E-02 0.  1.
       -2   -1    0    0    0  501  0.00000000000E+00  0.00000000000E+00 -0.41028790574E+03  0.41028790575E+03  0.25500000920E-02 0. -1.
    10030    2    1    2    0    0  0.00000000000E+00  0.00000000000E+00  0.14760961879E+04  0.22966719994E+04  0.17595005873E+04 0.  0.
        1    1    3    3  502    0 -0.25161346911E+03 -0.61549664100E+03  0.14899438776E+04  0.16315876352E+04  0.50400001928E-02 0.  1.
       -1    1    3    3    0  502  0.25161346911E+03  0.61549664100E+03 -0.13847689730E+02  0.66508436416E+03  0.50400001928E-02 0. -1.
</event>
<event>
 5   0  0.8254914E-05  0.1799036E+04  0.7818609E-02  0.8706812E-01
        1   -1    0    0  501    0  0.00000000000E+00  0.00000000000E+00  0.14364226201E+04  0.14364226201E+04  0.50400001928E-02 0.  1.
       -1   -1    0    0    0  501  0.00000000000E+00  0.00000000000E+00 -0.56329690073E+03  0.56329690075E+03  0.50400001928E-02 0. -1.
    10030    2    1    2    0    0  0.00000000000E+00  0.00000000000E+00  0.87312571940E+03  0.19997195209E+04  0.17990357529E+04 0.  0.
        4    1    3    3  502    0  0.59313564722E+02 -0.70529494437E+03  0.10536204471E+04  0.12692819691E+04  0.12699999809E+01 0.  1.
       -4    1    3    3    0  502 -0.59313564722E+02  0.70529494437E+03 -0.18049472770E+03  0.73043755184E+03  0.12699999809E+01 0. -1.
</event>
<event>
 5   0  0.1608627E-04  0.1790886E+04  0.7818609E-02  0.8711161E-01
        2   -1    0    0  501    0  0.00000000000E+00  0.00000000000E+00  0.14334872225E+04  0.14334872225E+04  0.25500000920E-02 0.  1.
       -2   -1    0    0    0  501  0.00000000000E+00  0.00000000000E+00 -0.55934784909E+03  0.55934784910E+03  0.25500000920E-02 0. -1.
    10030    2    1    2    0    0  0.00000000000E+00  0.00000000000E+00  0.87413937345E+03  0.19928350716E+04  0.17908858083E+04 0.  0.
        2    1    3    3  502    0 -0.56397668821E+03  0.35037390349E+03  0.11056427785E+04  0.12896811741E+04  0.25500000920E-02 0.  1.
       -2    1    3    3    0  502  0.56397668821E+03 -0.35037390349E+03 -0.23150340506E+03  0.70315389756E+03  0.25500000920E-02 0. -1.
</event>
<event>
 5   0  0.8430513E-05  0.1814721E+04  0.7818609E-02  0.8698510E-01
       -1   -1    0    0    0  501  0.00000000000E+00  0.00000000000E+00  0.91099970591E+03  0.91099970593E+03  0.50400001928E-02 0. -1.
        1   -1    0    0  501    0  0.00000000000E+00  0.00000000000E+00 -0.90373541957E+03  0.90373541958E+03  0.50400001928E-02 0.  1.
    10030    2    1    2    0    0  0.00000000000E+00  0.00000000000E+00  0.72642863451E+01  0.18147351255E+04  0.18147205862E+04 0.  0.
        5    1    3    3  502    0 -0.28611976200E+03  0.74910333817E+03 -0.42094196164E+03  0.90566801563E+03  0.46999998093E+01 0.  1.
       -5    1    3    3    0  502  0.28611976200E+03 -0.74910333817E+03  0.42820624798E+03  0.90906710988E+03  0.46999998093E+01 0. -1.
</event>
<event>
 5   0  0.1608627E-04  0.1817810E+04  0.7818609E-02  0.8696885E-01
       -2   -1    0    0    0  501  0.00000000000E+00  0.00000000000E+00  0.59086285255E+03  0.59086285255E+03  0.25500000920E-02 0. -1.
        2   -1    0    0  501    0  0.00000000000E+00  0.00000000000E+00 -0.13981393003E+04  0.13981393003E+04  0.25500000920E-02 0.  1.
    10030    2    1    2    0    0  0.00000000000E+00  0.00000000000E+00 -0.80727644775E+03  0.19890021529E+04  0.18178103039E+04 0.  0.
        2    1    3    3  502    0  0.14823159380E+03  0.23639604524E+03 -0.13501170241E+04  0.13786484956E+04  0.25500000920E-02 0.  1.
       -2    1    3    3    0  502 -0.14823159380E+03 -0.23639604524E+03  0.54284057635E+03  0.61035365727E+03  0.25500000920E-02 0. -1.
</event>
<event>
 5   0  0.8254914E-05  0.1804631E+04  0.7818609E-02  0.8703841E-01
       -1   -1    0    0    0  501  0.00000000000E+00  0.00000000000E+00  0.42636016140E+03  0.42636016143E+03  0.50400001928E-02 0.  1.
        1   -1    0    0  501    0  0.00000000000E+00  0.00000000000E+00 -0.19095898056E+04  0.19095898056E+04  0.50400001928E-02 0. -1.
    10030    2    1    2    0    0  0.00000000000E+00  0.00000000000E+00 -0.14832296442E+04  0.23359499670E+04  0.18046307298E+04 0.  0.
        4    1    3    3  502    0  0.26525879605E+03  0.55905228432E+03  0.10844535508E+03  0.62822264638E+03  0.12699999809E+01 0.  1.
       -4    1    3    3    0  502 -0.26525879605E+03 -0.55905228432E+03 -0.15916749993E+04  0.17077273206E+04  0.12699999809E+01 0. -1.
</event>
<event>
 5   0  0.8254914E-05  0.1803373E+04  0.7818609E-02  0.8704508E-01
        1   -1    0    0  501    0  0.00000000000E+00  0.00000000000E+00  0.70291832014E+03  0.70291832016E+03  0.50400001928E-02 0.  1.
       -1   -1    0    0    0  501  0.00000000000E+00  0.00000000000E+00 -0.11566617566E+04  0.11566617566E+04  0.50400001928E-02 0. -1.
    10030    2    1    2    0    0  0.00000000000E+00  0.00000000000E+00 -0.45374343643E+03  0.18595800767E+04  0.18033732159E+04 0.  0.
        4    1    3    3  502    0 -0.21825667518E+03 -0.71446680908E+03  0.29377943712E+03  0.80274950521E+03  0.12699999809E+01 0.  1.
       -4    1    3    3    0  502  0.21825667518E+03  0.71446680908E+03 -0.74752287355E+03  0.10568305715E+04  0.12699999809E+01 0. -1.
</event>
<event>
 5   0  0.8492114E-05  0.1801098E+04  0.7818609E-02  0.8705716E-01
       -1   -1    0    0    0  501  0.00000000000E+00  0.00000000000E+00  0.55721968210E+03  0.55721968213E+03  0.50400001928E-02 0. -1.
        1   -1    0    0  501    0  0.00000000000E+00  0.00000000000E+00 -0.14554193388E+04  0.14554193388E+04  0.50400001928E-02 0.  1.
    10030    2    1    2    0    0  0.00000000000E+00  0.00000000000E+00 -0.89819965666E+03  0.20126390209E+04  0.18010977778E+04 0.  0.
        2    1    3    3  502    0  0.78763053095E+02 -0.76542678218E+03 -0.97192675969E+03  0.12396464833E+04  0.25500000920E-02 0.  1.
       -2    1    3    3    0  502 -0.78763053095E+02  0.76542678218E+03  0.73727103031E+02  0.77299253757E+03  0.25500000920E-02 0. -1.
</event>
<event>
 5   0  0.1608627E-04  0.1799939E+04  0.7818609E-02  0.8706332E-01
        2   -1    0    0  501    0  0.00000000000E+00  0.00000000000E+00  0.25571453346E+04  0.25571453346E+04  0.25500000920E-02 0.  1.
       -2   -1    0    0    0  501  0.00000000000E+00  0.00000000000E+00 -0.31673804395E+03  0.31673804396E+03  0.25500000920E-02 0. -1.
    10030    2    1    2    0    0  0.00000000000E+00  0.00000000000E+00  0.22404072906E+04  0.28738833785E+04  0.17999391227E+04 0.  0.
        2    1    3    3  502    0  0.45672220422E+03 -0.77514654954E+03  0.10845775942E+04  0.14091685147E+04  0.25500000920E-02 0. -1.
       -2    1    3    3    0  502 -0.45672220422E+03  0.77514654954E+03  0.11558296964E+04  0.14647148638E+04  0.25500000920E-02 0.  1.
</event>
<event>
 5   0  0.5820500E-05  0.1804610E+04  0.7818609E-02  0.8703852E-01
       -3   -1    0    0    0  501  0.00000000000E+00  0.00000000000E+00  0.40061313626E+03  0.40061314899E+03  0.10100000352E+00 0.  1.
        3   -1    0    0  501    0  0.00000000000E+00  0.00000000000E+00 -0.20322711297E+04  0.20322711322E+04  0.10100000352E+00 0. -1.
    10030    2    1    2    0    0  0.00000000000E+00  0.00000000000E+00 -0.16316579934E+04  0.24328842812E+04  0.18046102399E+04 0.  0.
        1    1    3    3  502    0  0.66438794481E+03 -0.60472559382E+03 -0.70263144254E+03  0.11405241467E+04  0.50400001928E-02 0.  1.
       -1    1    3    3    0  502 -0.66438794481E+03  0.60472559382E+03 -0.92902655089E+03  0.12923601345E+04  0.50400001928E-02 0. -1.
</event>
<event>
 5   0  0.1603564E-04  0.1810315E+04  0.7818609E-02  0.8700833E-01
       -2   -1    0    0    0  501  0.00000000000E+00  0.00000000000E+00  0.92805811896E+03  0.92805811896E+03  0.25500000920E-02 0.  1.
        2   -1    0    0  501    0  0.00000000000E+00  0.00000000000E+00 -0.88282157035E+03  0.88282157035E+03  0.25500000920E-02 0. -1.
    10030    2    1    2    0    0  0.00000000000E+00  0.00000000000E+00  0.45236548606E+02  0.18108796893E+04  0.18103145870E+04 0.  0.
        5    1    3    3  502    0  0.85888182228E+02  0.87921496034E+03  0.21989015314E+03  0.91036778050E+03  0.46999998093E+01 0. -1.
       -5    1    3    3    0  502 -0.85888182228E+02 -0.87921496034E+03 -0.17465360453E+03  0.90051190881E+03  0.46999998093E+01 0.  1.
</event>
<event>
 5   0  0.1603564E-04  0.1794713E+04  0.7818609E-02  0.8709116E-01
        2   -1    0    0  501    0  0.00000000000E+00  0.00000000000E+00  0.96448432453E+03  0.96448432454E+03  0.25500000920E-02 0. -1.
       -2   -1    0    0    0  501  0.00000000000E+00  0.00000000000E+00 -0.83490113676E+03  0.83490113676E+03  0.25500000920E-02 0.  1.
    10030    2    1    2    0    0  0.00000000000E+00  0.00000000000E+00  0.12958318777E+03  0.17993854613E+04  0.17947134133E+04 0.  0.
        5    1    3    3  502    0 -0.48476687699E+03  0.59175886767E+03  0.53510707907E+03  0.93356261631E+03  0.46999998093E+01 0. -1.
       -5    1    3    3    0  502  0.48476687699E+03 -0.59175886767E+03 -0.40552389130E+03  0.86582284499E+03  0.46999998093E+01 0.  1.
</event>
<event>
 5   0  0.1549012E-04  0.1799825E+04  0.7818609E-02  0.8706393E-01
        2   -1    0    0  501    0  0.00000000000E+00  0.00000000000E+00  0.79662021605E+03  0.79662021606E+03  0.25500000920E-02 0.  1.
       -2   -1    0    0    0  501  0.00000000000E+00  0.00000000000E+00 -0.10165980554E+04  0.10165980554E+04  0.25500000920E-02 0. -1.
    10030    2    1    2    0    0  0.00000000000E+00  0.00000000000E+00 -0.21997783935E+03  0.18132182715E+04  0.17998250610E+04 0.  0.
        4    1    3    3  502    0  0.49245543809E+03 -0.46178731725E+03  0.48948617273E+03  0.83388141307E+03  0.12699999809E+01 0.  1.
       -4    1    3    3    0  502 -0.49245543809E+03  0.46178731725E+03 -0.70946401208E+03  0.97933685840E+03  0.12699999809E+01 0. -1.
</event>
<event>
 5   0  0.8254914E-05  0.1806274E+04  0.7818609E-02  0.8702970E-01
       -1   -1    0    0    0  501  0.00000000000E+00  0.00000000000E+00  0.13549274041E+04  0.13549274041E+04  0.50400001928E-02 0.  1.
        1   -1    0    0  501    0  0.00000000000E+00  0.00000000000E+00 -0.60199292068E+03  0.60199292070E+03  0.50400001928E-02 0. -1.
    10030    2    1    2    0    0  0.00000000000E+00  0.00000000000E+00  0.75293448344E+03  0.19569203248E+04  0.18062742929E+04 0.  0.
        4    1    3    3  502    0  0.24765193690E+03 -0.86205415264E+03  0.26188121130E+03  0.93437263747E+03  0.12699999809E+01 0.  1.
       -4    1    3    3    0  502 -0.24765193690E+03  0.86205415264E+03  0.49105327214E+03  0.10225476873E+04  0.12699999809E+01 0. -1.
</event>
<event>
 5   0  0.8492114E-05  0.1800965E+04  0.7818609E-02  0.8705787E-01
       -1   -1    0    0    0  501  0.00000000000E+00  0.00000000000E+00  0.13139972530E+04  0.13139972530E+04  0.50400001928E-02 0.  1.
        1   -1    0    0  501    0  0.00000000000E+00  0.00000000000E+00 -0.61710069548E+03  0.61710069550E+03  0.50400001928E-02 0. -1.
    10030    2    1    2    0    0  0.00000000000E+00  0.00000000000E+00  0.69689655749E+03  0.19310979485E+04  0.18009648733E+04 0.  0.
        2    1    3    3  502    0  0.49887770217E+03 -0.23313484704E+03 -0.41552124999E+03  0.68984688724E+03  0.25500000920E-02 0. -1.
       -2    1    3    3    0  502 -0.49887770217E+03  0.23313484704E+03  0.11124178075E+04  0.12412510612E+04  0.25500000920E-02 0.  1.
</event>
<event>
 5   0  0.1608627E-04  0.1801216E+04  0.7818609E-02  0.8705653E-01
       -2   -1    0    0    0  501  0.00000000000E+00  0.00000000000E+00  0.77762671889E+03  0.77762671890E+03  0.25500000920E-02 0.  1.
        2   -1    0    0  501    0  0.00000000000E+00  0.00000000000E+00 -0.10430386584E+04  0.10430386584E+04  0.25500000920E-02 0. -1.
    10030    2    1    2    0    0  0.00000000000E+00  0.00000000000E+00 -0.26541193950E+03  0.18206653773E+04  0.18012159555E+04 0.  0.
        2    1    3    3  502    0 -0.19334375110E+03  0.70245247910E+03 -0.66783106565E+03  0.98834185571E+03  0.25500000920E-02 0. -1.
       -2    1    3    3    0  502  0.19334375110E+03 -0.70245247910E+03  0.40241912614E+03  0.83232352159E+03  0.25500000920E-02 0.  1.
</event>
<event>
 5   0  0.8492114E-05  0.1807385E+04  0.7818609E-02  0.8702382E-01
        1   -1    0    0  501    0  0.00000000000E+00  0.00000000000E+00  0.90289677122E+03  0.90289677124E+03  0.50400001928E-02 0. -1.
       -1   -1    0    0    0  501  0.00000000000E+00  0.00000000000E+00 -0.90448912999E+03  0.90448913001E+03  0.50400001928E-02 0.  1.
    10030    2    1    2    0    0  0.00000000000E+00  0.00000000000E+00 -0.15923587701E+01  0.18073859012E+04  0.18073851998E+04 0.  0.
        2    1    3    3  502    0  0.10714969939E+03 -0.46025945395E+02 -0.89693316261E+03  0.90448247298E+03  0.25500000920E-02 0.  1.
       -2    1    3    3    0  502 -0.10714969939E+03  0.46025945395E+02  0.89534080384E+03  0.90290342826E+03  0.25500000920E-02 0. -1.
</event>
<event>
 5   0  0.1628397E-04  0.1825277E+04  0.7818609E-02  0.8692972E-01
       -2   -1    0    0    0  501  0.00000000000E+00  0.00000000000E+00  0.88151202800E+03  0.88151202800E+03  0.25500000920E-02 0. -1.
        2   -1    0    0  501    0  0.00000000000E+00  0.00000000000E+00 -0.94486416179E+03  0.94486416179E+03  0.25500000920E-02 0.  1.
    10030    2    1    2    0    0  0.00000000000E+00  0.00000000000E+00 -0.63352133785E+02  0.18263761898E+04  0.18252771005E+04 0.  0.
        3    1    3    3  502    0  0.81898712008E+03 -0.26034787869E+03 -0.33908767733E+03  0.92385138627E+03  0.10100000352E+00 0. -1.
       -3    1    3    3    0  502 -0.81898712008E+03  0.26034787869E+03  0.27573554354E+03  0.90252480352E+03  0.10100000352E+00 0.  1.
</event>
<event>
 5   0  0.1603564E-04  0.1802868E+04  0.7818609E-02  0.8704776E-01
       -2   -1    0    0    0  501  0.00000000000E+00  0.00000000000E+00  0.77734231912E+03  0.77734231912E+03  0.25500000920E-02 0.  1.
        2   -1    0    0  501    0  0.00000000000E+00  0.00000000000E+00 -0.10453345855E+04  0.10453345855E+04  0.25500000920E-02 0. -1.
    10030    2    1    2    0    0  0.00000000000E+00  0.00000000000E+00 -0.26799226640E+03  0.18226769046E+04  0.18028675059E+04 0.  0.
        5    1    3    3  502    0  0.93264021943E+02 -0.87353205920E+03  0.70224098249E+02  0.88131149443E+03  0.46999998093E+01 0.  1.
       -5    1    3    3    0  502 -0.93264021943E+02  0.87353205920E+03 -0.33821636465E+03  0.94136541022E+03  0.46999998093E+01 0. -1.
</event>
<event>
 5   0  0.8430513E-05  0.1774697E+04  0.7818609E-02  0.8719872E-01
       -1   -1    0    0    0  501  0.00000000000E+00  0.00000000000E+00  0.50925919520E+03  0.50925919522E+03  0.50400001928E-02 0.  1.
        1   -1    0    0  501    0  0.00000000000E+00  0.00000000000E+00 -0.15461426393E+04  0.15461426393E+04  0.50400001928E-02 0. -1.
    10030    2    1    2    0    0  0.00000000000E+00  0.00000000000E+00 -0.10368834441E+04  0.20554018345E+04  0.17746969952E+04 0.  0.
        5    1    3    3  502    0 -0.74798558176E+03  0.16470780377E+03 -0.10373669907E+04  0.12894818551E+04  0.46999998093E+01 0. -1.
       -5    1    3    3    0  502  0.74798558176E+03 -0.16470780377E+03  0.48354659908E+00  0.76591997947E+03  0.46999998093E+01 0.  1.
</event>
<event>
 5   0  0.8132598E-05  0.1675656E+04  0.7818609E-02  0.8775371E-01
        1   -1    0    0  501    0  0.00000000000E+00  0.00000000000E+00  0.21912471350E+04  0.21912471350E+04  0.50400001928E-02 0. -1.
       -1   -1    0    0    0  501  0.00000000000E+00  0.00000000000E+00 -0.32034550204E+03  0.32034550208E+03  0.50400001928E-02 0.  1.
    10030    2    1    2    0    0  0.00000000000E+00  0.00000000000E+00  0.18709016329E+04  0.25115926371E+04  0.16756564846E+04 0.  0.
        3    1    3    3  502    0  0.55258918942E+03  0.49937265831E+03  0.36032899961E+03  0.82738434980E+03  0.10100000352E+00 0.  1.
       -3    1    3    3    0  502 -0.55258918942E+03 -0.49937265831E+03  0.15105726333E+04  0.16842082873E+04  0.10100000352E+00 0. -1.
</event>
<event>
 5   0  0.1628397E-04  0.1775195E+04  0.7818609E-02  0.8719603E-01
        2   -1    0    0  501    0  0.00000000000E+00  0.00000000000E+00  0.13964991498E+04  0.13964991498E+04  0.25500000920E-02 0.  1.
       -2   -1    0    0    0  501  0.00000000000E+00  0.00000000000E+00 -0.56414610892E+03  0.56414610893E+03  0.25500000920E-02 0. -1.
    10030    2    1    2    0    0  0.00000000000E+00  0.00000000000E+00  0.83235304087E+03  0.19606452587E+04  0.17751952698E+04 0.  0.
        3    1    3    3  502    0 -0.72544574543E+03 -0.50293714100E+03  0.51867355584E+03  0.10238357120E+04  0.10100000352E+00 0.  1.
       -3    1    3    3    0  502  0.72544574543E+03  0.50293714100E+03  0.31367948503E+03  0.93680954676E+03  0.10100000352E+00 0. -1.
</event>
<event>
 5   0  0.1573981E-04  0.1808281E+04  0.7818609E-02  0.8701908E-01
       -2   -1    0    0    0  501  0.00000000000E+00  0.00000000000E+00  0.10458397146E+04  0.10458397146E+04  0.25500000920E-02 0. -1.
        2   -1    0    0  501    0  0.00000000000E+00  0.00000000000E+00 -0.78163969945E+03  0.78163969945E+03  0.25500000920E-02 0.  1.
    10030    2    1    2    0    0  0.00000000000E+00  0.00000000000E+00  0.26420001516E+03  0.18274794141E+04  0.18082807749E+04 0.  0.
        1    1    3    3  502    0 -0.32268760127E+03  0.83915543958E+03  0.35372283822E+02  0.89975571034E+03  0.50400001928E-02 0.  1.
       -1    1    3    3    0  502  0.32268760127E+03 -0.83915543958E+03  0.22882773134E+03  0.92772370372E+03  0.50400001928E-02 0. -1.
</event>
<event>
 5   0  0.1573981E-04  0.1799932E+04  0.7818609E-02  0.8706336E-01
       -2   -1    0    0    0  501  0.00000000000E+00  0.00000000000E+00  0.39724541742E+03  0.39724541743E+03  0.25500000920E-02 0.  1.
        2   -1    0    0  501    0  0.00000000000E+00  0.00000000000E+00 -0.20388876829E+04  0.20388876829E+04  0.25500000920E-02 0. -1.
    10030    2    1    2    0    0  0.00000000000E+00  0.00000000000E+00 -0.16416422654E+04  0.24361331003E+04  0.17999319861E+04 0.  0.
        1    1    3    3  502    0 -0.45082097836E+03 -0.20607459517E+03  0.19583471998E+03  0.53297047843E+03  0.50400001928E-02 0.  1.
       -1    1    3    3    0  502  0.45082097836E+03  0.20607459517E+03 -0.18374769854E+04  0.19031626219E+04  0.50400001928E-02 0. -1.
</event>
<event>
 5   0  0.1608627E-04  0.1791651E+04  0.7818609E-02  0.8710752E-01
       -2   -1    0    0    0  501  0.00000000000E+00  0.00000000000E+00  0.13792250495E+04  0.13792250495E+04  0.25500000920E-02 0.  1.
        2   -1    0    0  501    0  0.00000000000E+00  0.00000000000E+00 -0.58185080894E+03  0.58185080895E+03  0.25500000920E-02 0. -1.
    10030    2    1    2    0    0  0.00000000000E+00  0.00000000000E+00  0.79737424051E+03  0.19610758584E+04  0.17916508708E+04 0.  0.
        2    1    3    3  502    0  0.81316915111E+03  0.62070266831E+02  0.80442403984E+03  0.11455107255E+04  0.25500000920E-02 0.  1.
       -2    1    3    3    0  502 -0.81316915111E+03 -0.62070266831E+02 -0.70497993294E+01  0.81556513291E+03  0.25500000920E-02 0. -1.
</event>
<event>
 5   0  0.8206783E-05  0.1677007E+04  0.7818609E-02  0.8774588E-01
        1   -1    0    0  501    0  0.00000000000E+00  0.00000000000E+00  0.10683759476E+04  0.10683759476E+04  0.50400001928E-02 0.  1.
       -1   -1    0    0    0  501  0.00000000000E+00  0.00000000000E+00 -0.65809046633E+03  0.65809046635E+03  0.50400001928E-02 0. -1.
    10030    2    1    2    0    0  0.00000000000E+00  0.00000000000E+00  0.41028548124E+03  0.17264664139E+04  0.16770068880E+04 0.  0.
        1    1    3    3  502    0 -0.46147768972E+03  0.13250513014E+03  0.91285348822E+03  0.10314168695E+04  0.50400001928E-02 0.  1.
       -1    1    3    3    0  502  0.46147768972E+03 -0.13250513014E+03 -0.50256800698E+03  0.69504954448E+03  0.50400001928E-02 0. -1.
</event>
<event>
 5   0  0.1573981E-04  0.1594756E+04  0.7818609E-02  0.8823776E-01
        2   -1    0    0  501    0  0.00000000000E+00  0.00000000000E+00  0.56109352756E+03  0.56109352757E+03  0.25500000920E-02 0.  1.
       -2   -1    0    0    0  501  0.00000000000E+00  0.00000000000E+00 -0.11331645382E+04  0.11331645382E+04  0.25500000920E-02 0. -1.
    10030    2    1    2    0    0  0.00000000000E+00  0.00000000000E+00 -0.57207101060E+03  0.16942580657E+04  0.15947555148E+04 0.  0.
        1    1    3    3  502    0  0.24382217971E+03 -0.59316907438E+03 -0.78942679269E+03  0.10171005197E+04  0.50400001928E-02 0. -1.
       -1    1    3    3    0  502 -0.24382217971E+03  0.59316907438E+03  0.21735578209E+03  0.67715754604E+03  0.50400001928E-02 0.  1.
</event>
<event>
 5   0  0.1549012E-04  0.1788056E+04  0.7818609E-02  0.8712677E-01
       -2   -1    0    0    0  501  0.00000000000E+00  0.00000000000E+00  0.84954667490E+03  0.84954667491E+03  0.25500000920E-02 0.  1.
        2   -1    0    0  501    0  0.00000000000E+00  0.00000000000E+00 -0.94083835491E+03  0.94083835491E+03  0.25500000920E-02 0. -1.
    10030    2    1    2    0    0  0.00000000000E+00  0.00000000000E+00 -0.91291680009E+02  0.17903850298E+04  0.17880560350E+04 0.  0.
        4    1    3    3  502    0  0.75338156613E+03  0.48087583593E+03 -0.67101054327E+02  0.89628651566E+03  0.12699999809E+01 0. -1.
       -4    1    3    3    0  502 -0.75338156613E+03 -0.48087583593E+03 -0.24190625682E+02  0.89409851416E+03  0.12699999809E+01 0.  1.
</event>
<event>
 5   0  0.1628397E-04  0.1790251E+04  0.7818609E-02  0.8711501E-01
       -2   -1    0    0    0  501  0.00000000000E+00  0.00000000000E+00  0.17023476903E+04  0.17023476903E+04  0.25500000920E-02 0. -1.
        2   -1    0    0  501    0  0.00000000000E+00  0.00000000000E+00 -0.47067334182E+03  0.47067334182E+03  0.25500000920E-02 0.  1.
    10030    2    1    2    0    0  0.00000000000E+00  0.00000000000E+00  0.12316743485E+04  0.21730210322E+04  0.17902510174E+04 0.  0.
        3    1    3    3  502    0 -0.58389407301E+02 -0.32194226416E+03 -0.39548674449E+03  0.51328931374E+03  0.10100000352E+00 0.  1.
       -3    1    3    3    0  502  0.58389407301E+02  0.32194226416E+03  0.16271610930E+04  0.16597317184E+04  0.10100000352E+00 0. -1.
</event>
<event>
 5   0  0.8430513E-05  0.1820228E+04  0.7818609E-02  0.8695616E-01
        1   -1    0    0  501    0  0.00000000000E+00  0.00000000000E+00  0.42266020678E+03  0.42266020681E+03  0.50400001928E-02 0.  1.
       -1   -1    0    0    0  501  0.00000000000E+00  0.00000000000E+00 -0.19597475680E+04  0.19597475680E+04  0.50400001928E-02 0. -1.
    10030    2    1    2    0    0  0.00000000000E+00  0.00000000000E+00 -0.15370873612E+04  0.23824077748E+04  0.18202278015E+04 0.  0.
        5    1    3    3  502    0  0.77526072843E+03  0.29368203021E+03 -0.12600289684E+04  0.15083015027E+04  0.46999998093E+01 0. -1.
       -5    1    3    3    0  502 -0.77526072843E+03 -0.29368203021E+03 -0.27705839287E+03  0.87410627213E+03  0.46999998093E+01 0.  1.
</event>
<event>
 5   0  0.8492114E-05  0.1820840E+04  0.7818609E-02  0.8695295E-01
       -1   -1    0    0    0  501  0.00000000000E+00  0.00000000000E+00  0.67583785261E+03  0.67583785263E+03  0.50400001928E-02 0. -1.
        1   -1    0    0  501    0  0.00000000000E+00  0.00000000000E+00 -0.12264254316E+04  0.12264254316E+04  0.50400001928E-02 0.  1.
    10030    2    1    2    0    0  0.00000000000E+00  0.00000000000E+00 -0.55058757901E+03  0.19022632843E+04  0.18208401688E+04 0.  0.
        2    1    3    3  502    0  0.53185668164E+03 -0.82519925690E+01  0.49661383935E+03  0.72771212071E+03  0.25500000920E-02 0. -1.
       -2    1    3    3    0  502 -0.53185668164E+03  0.82519925690E+01 -0.10472014184E+04  0.11745511636E+04  0.25500000920E-02 0.  1.
</event>
<event>
 5   0  0.1573981E-04  0.1803772E+04  0.7818609E-02  0.8704296E-01
       -2   -1    0    0    0  501  0.00000000000E+00  0.00000000000E+00  0.34547576800E+03  0.34547576801E+03  0.25500000920E-02 0.  1.
        2   -1    0    0  501    0  0.00000000000E+00  0.00000000000E+00 -0.23544287794E+04  0.23544287794E+04  0.25500000920E-02 0. -1.
    10030    2    1    2    0    0  0.00000000000E+00  0.00000000000E+00 -0.20089530114E+04  0.26999045474E+04  0.18037717048E+04 0.  0.
        1    1    3    3  502    0  0.62555591231E+03  0.23234921461E+03 -0.96353092738E+02  0.67423310173E+03  0.50400001928E-02 0.  1.
       -1    1    3    3    0  502 -0.62555591231E+03 -0.23234921461E+03 -0.19125999187E+04  0.20256714457E+04  0.50400001928E-02 0. -1.
</event>
<event>
 5   0  0.1549012E-04  0.1797965E+04  0.7818609E-02  0.8707382E-01
        2   -1    0    0  501    0  0.00000000000E+00  0.00000000000E+00  0.12343322122E+04  0.12343322122E+04  0.25500000920E-02 0.  1.
       -2   -1    0    0    0  501  0.00000000000E+00  0.00000000000E+00 -0.65474219952E+03  0.65474219952E+03  0.25500000920E-02 0. -1.
    10030    2    1    2    0    0  0.00000000000E+00  0.00000000000E+00  0.57959001272E+03  0.18890744118E+04  0.17979648357E+04 0.  0.
        4    1    3    3  502    0  0.43647307358E+02 -0.84681901320E+03 -0.23933152721E+02  0.84828175582E+03  0.12699999809E+01 0.  1.
       -4    1    3    3    0  502 -0.43647307358E+02  0.84681901320E+03  0.60352316545E+03  0.10407926560E+04  0.12699999809E+01 0. -1.
</event>
<event>
 5   0  0.1628397E-04  0.1777687E+04  0.7818609E-02  0.8718256E-01
        2   -1    0    0  501    0  0.00000000000E+00  0.00000000000E+00  0.99439038979E+03  0.99439038979E+03  0.25500000920E-02 0. -1.
       -2   -1    0    0    0  501  0.00000000000E+00  0.00000000000E+00 -0.79449954201E+03  0.79449954202E+03  0.25500000920E-02 0.  1.
    10030    2    1    2    0    0  0.00000000000E+00  0.00000000000E+00  0.19989084777E+03  0.17888899318E+04  0.17776869345E+04 0.  0.
        3    1    3    3  502    0  0.98278281045E+02  0.48107727663E+03 -0.64563454684E+03  0.81113374044E+03  0.10100000352E+00 0.  1.
       -3    1    3    3    0  502 -0.98278281045E+02 -0.48107727663E+03  0.84552539461E+03  0.97775619136E+03  0.10100000352E+00 0. -1.
</event>
<event>
 5   0  0.8206783E-05  0.1837421E+04  0.7818609E-02  0.8686649E-01
        1   -1    0    0  501    0  0.00000000000E+00  0.00000000000E+00  0.73121373887E+03  0.73121373888E+03  0.50400001928E-02 0.  1.
       -1   -1    0    0    0  501  0.00000000000E+00  0.00000000000E+00 -0.11542853936E+04  0.11542853936E+04  0.50400001928E-02 0. -1.
    10030    2    1    2    0    0  0.00000000000E+00  0.00000000000E+00 -0.42307165469E+03  0.18854991325E+04  0.18374213870E+04 0.  0.
        1    1    3    3  502    0  0.49848539245E+03  0.41861588611E+03 -0.87680668653E+03  0.10920242269E+04  0.50400001928E-02 0. -1.
       -1    1    3    3    0  502 -0.49848539245E+03 -0.41861588611E+03  0.45373503184E+03  0.79347490555E+03  0.50400001928E-02 0.  1.
</event>
<event>
 5   0  0.1608627E-04  0.1789829E+04  0.7818609E-02  0.8711727E-01
       -2   -1    0    0    0  501  0.00000000000E+00  0.00000000000E+00  0.96192324528E+03  0.96192324528E+03  0.25500000920E-02 0.  1.
        2   -1    0    0  501    0  0.00000000000E+00  0.00000000000E+00 -0.83257372287E+03  0.83257372288E+03  0.25500000920E-02 0. -1.
    10030    2    1    2    0    0  0.00000000000E+00  0.00000000000E+00  0.12934952240E+03  0.17944969682E+04  0.17898290616E+04 0.  0.
        2    1    3    3  502    0 -0.55197764467E+03 -0.37086501518E+03 -0.53576259452E+03  0.85396822974E+03  0.25500000920E-02 0. -1.
       -2    1    3    3    0  502  0.55197764467E+03  0.37086501518E+03  0.66511211693E+03  0.94052873842E+03  0.25500000920E-02 0.  1.
</event>
<event>
 5   0  0.8206783E-05  0.1801664E+04  0.7818609E-02  0.8705415E-01
       -1   -1    0    0    0  501  0.00000000000E+00  0.00000000000E+00  0.63179039375E+03  0.63179039377E+03  0.50400001928E-02 0. -1.
        1   -1    0    0  501    0  0.00000000000E+00  0.00000000000E+00 -0.12844428929E+04  0.12844428929E+04  0.50400001928E-02 0.  1.
    10030    2    1    2    0    0  0.00000000000E+00  0.00000000000E+00 -0.65265249918E+03  0.19162332867E+04  0.18016644317E+04 0.  0.
        1    1    3    3  502    0  0.85484366906E+03  0.18364657095E+03 -0.55694378347E+03  0.10366629826E+04  0.50400001928E-02 0. -1.
       -1    1    3    3    0  502 -0.85484366906E+03 -0.18364657095E+03 -0.95708715713E+02  0.87957030409E+03  0.50400001928E-02 0.  1.
</event>
<event>
 5   0  0.8492114E-05  0.1802046E+04  0.7818609E-02  0.8705212E-01
       -1   -1    0    0    0  501  0.00000000000E+00  0.00000000000E+00  0.45116087303E+03  0.45116087306E+03  0.50400001928E-02 0.  1.
        1   -1    0    0  501    0  0.00000000000E+00  0.00000000000E+00 -0.17994531773E+04  0.17994531773E+04  0.50400001928E-02 0. -1.
    10030    2    1    2    0    0  0.00000000000E+00  0.00000000000E+00 -0.13482923042E+04  0.22506140503E+04  0.18020464661E+04 0.  0.
        2    1    3    3  502    0  0.13081220708E+03  0.41250868110E+03  0.31287116746E+03  0.53400712817E+03  0.25500000920E-02 0.  1.
       -2    1    3    3    0  502 -0.13081220708E+03 -0.41250868110E+03 -0.16611634717E+04  0.17166069222E+04  0.25500000920E-02 0. -1.
</event>
<event>
 5   0  0.1603564E-04  0.1797530E+04  0.7818609E-02  0.8707614E-01
       -2   -1    0    0    0  501  0.00000000000E+00  0.00000000000E+00  0.14880321393E+04  0.14880321393E+04  0.25500000920E-02 0. -1.
        2   -1    0    0  501    0  0.00000000000E+00  0.00000000000E+00 -0.54285030532E+03  0.54285030533E+03  0.25500000920E-02 0.  1.
    10030    2    1    2    0    0  0.00000000000E+00  0.00000000000E+00  0.94518183402E+03  0.20308824447E+04  0.17975301958E+04 0.  0.
        5    1    3    3  502    0 -0.17547865277E+03 -0.25351315606E+03  0.14263977438E+04  0.14593472142E+04  0.46999998093E+01 0. -1.
       -5    1    3    3    0  502  0.17547865277E+03  0.25351315606E+03 -0.48121590981E+03  0.57153523052E+03  0.46999998093E+01 0.  1.
</event>
<event>
 5   0  0.8206783E-05  0.1808919E+04  0.7818609E-02  0.8701571E-01
        1   -1    0    0  501    0  0.00000000000E+00  0.00000000000E+00  0.12849570503E+04  0.12849570503E+04  0.50400001928E-02 0. -1.
       -1   -1    0    0    0  501  0.00000000000E+00  0.00000000000E+00 -0.63663382542E+03  0.63663382544E+03  0.50400001928E-02 0.  1.
    10030    2    1    2    0    0  0.00000000000E+00  0.00000000000E+00  0.64832322490E+03  0.19215908758E+04  0.18089191496E+04 0.  0.
        1    1    3    3  502    0 -0.73270360931E+03  0.28195241522E+03 -0.15291677828E+03  0.79983453580E+03  0.50400001928E-02 0.  1.
       -1    1    3    3    0  502  0.73270360931E+03 -0.28195241522E+03  0.80124000318E+03  0.11217563400E+04  0.50400001928E-02 0. -1.
</event>
<event>
 5   0  0.1549012E-04  0.1807638E+04  0.7818609E-02  0.8702248E-01
       -2   -1    0    0    0  501  0.00000000000E+00  0.00000000000E+00  0.86588742440E+03  0.86588742441E+03  0.25500000920E-02 0. -1.
        2   -1    0    0  501    0  0.00000000000E+00  0.00000000000E+00 -0.94341198650E+03  0.94341198650E+03  0.25500000920E-02 0.  1.
    10030    2    1    2    0    0  0.00000000000E+00  0.00000000000E+00 -0.77524562094E+02  0.18092994109E+04  0.18076377681E+04 0.  0.
        4    1    3    3  502    0  0.66560732517E+01 -0.12606611401E+03  0.85701849136E+03  0.86626743898E+03  0.12699999809E+01 0. -1.
       -4    1    3    3    0  502 -0.66560732517E+01  0.12606611401E+03 -0.93454305345E+03  0.94303197192E+03  0.12699999809E+01 0.  1.
</event>
<event>
 5   0  0.5820500E-05  0.1822791E+04  0.7818609E-02  0.8694272E-01
       -3   -1    0    0    0  501  0.00000000000E+00  0.00000000000E+00  0.63570574464E+03  0.63570575267E+03  0.10100000352E+00 0. -1.
        3   -1    0    0  501    0  0.00000000000E+00  0.00000000000E+00 -0.13066457170E+04  0.13066457209E+04  0.10100000352E+00 0.  1.
    10030    2    1    2    0    0  0.00000000000E+00  0.00000000000E+00 -0.67093997231E+03  0.19423514735E+04  0.18227914857E+04 0.  0.
        3    1    3    3  502    0 -0.81539340885E+03  0.40624698201E+03 -0.36444091942E+03  0.98118306933E+03  0.10100000352E+00 0.  1.
       -3    1    3    3    0  502  0.81539340885E+03 -0.40624698201E+03 -0.30649905289E+03  0.96116840419E+03  0.10100000352E+00 0. -1.
</event>
<event>
 5   0  0.1628397E-04  0.1683330E+04  0.7818609E-02  0.8770930E-01
       -2   -1    0    0    0  501  0.00000000000E+00  0.00000000000E+00  0.13210212031E+04  0.13210212031E+04  0.25500000920E-02 0. -1.
        2   -1    0    0  501    0  0.00000000000E+00  0.00000000000E+00 -0.53625157330E+03  0.53625157330E+03  0.25500000920E-02 0.  1.
    10030    2    1    2    0    0  0.00000000000E+00  0.00000000000E+00  0.78476962982E+03  0.18572727764E+04  0.16833296748E+04 0.  0.
        3    1    3    3  502    0  0.15898017247E+03  0.54679131651E+03 -0.29145389552E+03  0.63968806654E+03  0.10100000352E+00 0.  1.
       -3    1    3    3    0  502 -0.15898017247E+03 -0.54679131651E+03  0.10762235253E+04  0.12175847099E+04  0.10100000352E+00 0. -1.
</event>
<event>
 5   0  0.1628397E-04  0.1801448E+04  0.7818609E-02  0.8705530E-01
       -2   -1    0    0    0  501  0.00000000000E+00  0.00000000000E+00  0.88096706606E+03  0.88096706606E+03  0.25500000920E-02 0.  1.
        2   -1    0    0  501    0  0.00000000000E+00  0.00000000000E+00 -0.92092403320E+03  0.92092403320E+03  0.25500000920E-02 0. -1.
    10030    2    1    2    0    0  0.00000000000E+00  0.00000000000E+00 -0.39956967142E+02  0.18018910993E+04  0.18014480216E+04 0.  0.
        3    1    3    3  502    0 -0.35269619206E+03  0.80744708557E+03 -0.20694244330E+03  0.90509147876E+03  0.10100000352E+00 0. -1.
       -3    1    3    3    0  502  0.35269619206E+03 -0.80744708557E+03  0.16698547616E+03  0.89679962050E+03  0.10100000352E+00 0.  1.
</event>
<event>
 5   0  0.8132598E-05  0.1788250E+04  0.7818609E-02  0.8712573E-01
       -1   -1    0    0    0  501  0.00000000000E+00  0.00000000000E+00  0.63570727720E+03  0.63570727722E+03  0.50400001928E-02 0. -1.
        1   -1    0    0  501    0  0.00000000000E+00  0.00000000000E+00 -0.12575901658E+04  0.12575901658E+04  0.50400001928E-02 0.  1.
    10030    2    1    2    0    0  0.00000000000E+00  0.00000000000E+00 -0.62188288858E+03  0.18932974430E+04  0.17882496695E+04 0.  0.
        3    1    3    3  502    0 -0.42200445369E+03 -0.99555903276E+02  0.51695257805E+03  0.67471409868E+03  0.10100000352E+00 0. -1.
       -3    1    3    3    0  502  0.42200445369E+03  0.99555903276E+02 -0.11388354666E+04  0.12185833443E+04  0.10100000352E+00 0.  1.
</event>
<event>
 5   0  0.1608627E-04  0.1797130E+04  0.7818609E-02  0.8707827E-01
        2   -1    0    0  501    0  0.00000000000E+00  0.00000000000E+00  0.14891583082E+04  0.14891583082E+04  0.25500000920E-02 0.  1.
       -2   -1    0    0    0  501  0.00000000000E+00  0.00000000000E+00 -0.54219838976E+03  0.54219838976E+03  0.25500000920E-02 0. -1.
    10030    2    1    2    0    0  0.00000000000E+00  0.00000000000E+00  0.94695991847E+03  0.20313566980E+04  0.17971301976E+04 0.  0.
        2    1    3    3  502    0 -0.62541699296E+03 -0.63068080420E+03  0.62728237953E+03  0.10873766024E+04  0.25500000920E-02 0. -1.
       -2    1    3    3    0  502  0.62541699296E+03  0.63068080420E+03  0.31967753893E+03  0.94398009554E+03  0.25500000920E-02 0.  1.
</event>
<event>
 5   0  0.1549012E-04  0.1824066E+04  0.7818609E-02  0.8693605E-01
       -2   -1    0    0    0  501  0.00000000000E+00  0.00000000000E+00  0.68812479723E+03  0.68812479723E+03  0.25500000920E-02 0. -1.
        2   -1    0    0  501    0  0.00000000000E+00  0.00000000000E+00 -0.12087978205E+04  0.12087978205E+04  0.25500000920E-02 0.  1.
    10030    2    1    2    0    0  0.00000000000E+00  0.00000000000E+00 -0.52067302324E+03  0.18969226177E+04  0.18240655198E+04 0.  0.
        4    1    3    3  502    0 -0.95186807675E+02  0.61873909855E+03  0.42940745479E+03  0.75913831122E+03  0.12699999809E+01 0. -1.
       -4    1    3    3    0  502  0.95186807675E+02 -0.61873909855E+03 -0.95008047804E+03  0.11377843065E+04  0.12699999809E+01 0.  1.
</event>
<event>
 5   0  0.1549012E-04  0.1798172E+04  0.7818609E-02  0.8707272E-01
       -2   -1    0    0    0  501  0.00000000000E+00  0.00000000000E+00  0.57848045554E+03  0.57848045554E+03  0.25500000920E-02 0.  1.
        2   -1    0    0  501    0  0.00000000000E+00  0.00000000000E+00 -0.13973774270E+04  0.13973774270E+04  0.25500000920E-02 0. -1.
    10030    2    1    2    0    0  0.00000000000E+00  0.00000000000E+00 -0.81889697149E+03  0.19758578826E+04  0.17981718834E+04 0.  0.
        4    1    3    3  502    0  0.68109320312E+03 -0.29010926681E+02  0.23467102714E+03  0.72097273809E+03  0.12699999809E+01 0.  1.
       -4    1    3    3    0  502 -0.68109320312E+03  0.29010926681E+02 -0.10535679986E+04  0.12548851445E+04  0.12699999809E+01 0. -1.
</event>
<event>
 5   0  0.8254914E-05  0.1742084E+04  0.7818609E-02  0.8737720E-01
       -1   -1    0    0    0  501  0.00000000000E+00  0.00000000000E+00  0.48005475478E+03  0.48005475481E+03  0.50400001928E-02 0. -1.
        1   -1    0    0  501    0  0.00000000000E+00  0.00000000000E+00 -0.15804746174E+04  0.15804746174E+04  0.50400001928E-02 0.  1.
    10030    2    1    2    0    0  0.00000000000E+00  0.00000000000E+00 -0.11004198626E+04  0.20605293722E+04  0.17420842172E+04 0.  0.
        4    1    3    3  502    0  0.86208760622E+02  0.86438455843E+03 -0.47428840100E+03  0.98971900835E+03  0.12699999809E+01 0. -1.
       -4    1    3    3    0  502 -0.86208760622E+02 -0.86438455843E+03 -0.62613146163E+03  0.10708103639E+04  0.12699999809E+01 0.  1.
</event>
<event>
 5   0  0.8430513E-05  0.1794578E+04  0.7818609E-02  0.8709188E-01
       -1   -1    0    0    0  501  0.00000000000E+00  0.00000000000E+00  0.74513941452E+03  0.74513941454E+03  0.50400001928E-02 0.  1.
        1   -1    0    0  501    0  0.00000000000E+00  0.00000000000E+00 -0.10805063639E+04  0.10805063639E+04  0.50400001928E-02 0. -1.
    10030    2    1    2    0    0  0.00000000000E+00  0.00000000000E+00 -0.33536694938E+03  0.18256457785E+04  0.17945783677E+04 0.  0.
        5    1    3    3  502    0  0.32885846331E+03 -0.83275594714E+03 -0.10771009125E+03  0.90180591601E+03  0.46999998093E+01 0.  1.
       -5    1    3    3    0  502 -0.32885846331E+03  0.83275594714E+03 -0.22765685813E+03  0.92383986245E+03  0.46999998093E+01 0. -1.
</event>
<event>
 5   0  0.8206783E-05  0.1730423E+04  0.7818609E-02  0.8744201E-01
       -1   -1    0    0    0  501  0.00000000000E+00  0.00000000000E+00  0.99798105111E+03  0.99798105113E+03  0.50400001928E-02 0.  1.
        1   -1    0    0  501    0  0.00000000000E+00  0.00000000000E+00 -0.75010565958E+03  0.75010565960E+03  0.50400001928E-02 0. -1.
    10030    2    1    2    0    0  0.00000000000E+00  0.00000000000E+00  0.24787539154E+03  0.17480867107E+04  0.17304233408E+04 0.  0.
        1    1    3    3  502    0  0.53566796002E+02  0.12830429555E+03 -0.73874632916E+03  0.75171639118E+03  0.50400001928E-02 0. -1.
       -1    1    3    3    0  502 -0.53566796002E+02 -0.12830429555E+03  0.98662172070E+03  0.99637031954E+03  0.50400001928E-02 0.  1.
</event>
<event>
 5   0  0.8254914E-05  0.1800256E+04  0.7818609E-02  0.8706164E-01
        1   -1    0    0  501    0  0.00000000000E+00  0.00000000000E+00  0.92766725281E+03  0.92766725282E+03  0.50400001928E-02 0.  1.
       -1   -1    0    0    0  501  0.00000000000E+00  0.00000000000E+00 -0.87340595969E+03  0.87340595970E+03  0.50400001928E-02 0. -1.
    10030    2    1    2    0    0  0.00000000000E+00  0.00000000000E+00  0.54261293118E+02  0.18010732125E+04  0.18002556565E+04 0.  0.
        4    1    3    3  502    0  0.53368082104E+03 -0.40936163449E+03  0.62559652892E+03  0.91856670767E+03  0.12699999809E+01 0.  1.
       -4    1    3    3    0  502 -0.53368082104E+03  0.40936163449E+03 -0.57133523580E+03  0.88250650485E+03  0.12699999809E+01 0. -1.
</event>
<event>
 5   0  0.8206783E-05  0.1722271E+04  0.7818609E-02  0.8748763E-01
       -1   -1    0    0    0  501  0.00000000000E+00  0.00000000000E+00  0.47405367880E+03  0.47405367883E+03  0.50400001928E-02 0. -1.
        1   -1    0    0  501    0  0.00000000000E+00  0.00000000000E+00 -0.15642837485E+04  0.15642837485E+04  0.50400001928E-02 0.  1.
    10030    2    1    2    0    0  0.00000000000E+00  0.00000000000E+00 -0.10902300697E+04  0.20383374273E+04  0.17222711351E+04 0.  0.
        1    1    3    3  502    0 -0.14386776723E+02 -0.93852337690E+02 -0.15580696752E+04  0.15609600743E+04  0.50400001928E-02 0.  1.
       -1    1    3    3    0  502  0.14386776723E+02  0.93852337690E+02  0.46783960555E+03  0.47737735303E+03  0.50400001928E-02 0. -1.
</event>
<event>
 5   0  0.1608627E-04  0.1796711E+04  0.7818609E-02  0.8708051E-01
       -2   -1    0    0    0  501  0.00000000000E+00  0.00000000000E+00  0.65025213869E+03  0.65025213870E+03  0.25500000920E-02 0.  1.
        2   -1    0    0  501    0  0.00000000000E+00  0.00000000000E+00 -0.12411224272E+04  0.12411224272E+04  0.25500000920E-02 0. -1.
    10030    2    1    2    0    0  0.00000000000E+00  0.00000000000E+00 -0.59087028848E+03  0.18913745659E+04  0.17967108979E+04 0.  0.
        2    1    3    3  502    0 -0.49013410277E+03 -0.74484399408E+03 -0.18003019132E+03  0.90963447824E+03  0.25500000920E-02 0.  1.
       -2    1    3    3    0  502  0.49013410277E+03  0.74484399408E+03 -0.41084009716E+03  0.98174008763E+03  0.25500000920E-02 0. -1.
</event>
<event>
 5   0  0.8254914E-05  0.1792676E+04  0.7818609E-02  0.8710204E-01
       -1   -1    0    0    0  501  0.00000000000E+00  0.00000000000E+00  0.65011287269E+03  0.65011287271E+03  0.50400001928E-02 0. -1.
        1   -1    0    0  501    0  0.00000000000E+00  0.00000000000E+00 -0.12358191905E+04  0.12358191905E+04  0.50400001928E-02 0.  1.
    10030    2    1    2    0    0  0.00000000000E+00  0.00000000000E+00 -0.58570631784E+03  0.18859320632E+04  0.17926761717E+04 0.  0.
        4    1    3    3  502    0 -0.69332829552E+03  0.14885895813E+03  0.28389709271E+03  0.76384703111E+03  0.12699999809E+01 0.  1.
       -4    1    3    3    0  502  0.69332829552E+03 -0.14885895813E+03 -0.86960341055E+03  0.11220850321E+04  0.12699999809E+01 0. -1.
</event>
<event>
 5   0  0.1608627E-04  0.1798184E+04  0.7818609E-02  0.8707266E-01
       -2   -1    0    0    0  501  0.00000000000E+00  0.00000000000E+00  0.56225017554E+03  0.56225017554E+03  0.25500000920E-02 0. -1.
        2   -1    0    0  501    0  0.00000000000E+00  0.00000000000E+00 -0.14377339911E+04  0.14377339911E+04  0.25500000920E-02 0.  1.
    10030    2    1    2    0    0  0.00000000000E+00  0.00000000000E+00 -0.87548381561E+03  0.19999841667E+04  0.17981837380E+04 0.  0.
        2    1    3    3  502    0  0.41779132146E+03  0.66517128302E+03 -0.92428615849E+03  0.12129745780E+04  0.25500000920E-02 0.  1.
       -2    1    3    3    0  502 -0.41779132146E+03 -0.66517128302E+03  0.48802342880E+02  0.78700958871E+03  0.25500000920E-02 0. -1.
</event>
<event>
 5   0  0.8206783E-05  0.1785250E+04  0.7818609E-02  0.8714183E-01
        1   -1    0    0  501    0  0.00000000000E+00  0.00000000000E+00  0.11333130785E+04  0.11333130785E+04  0.50400001928E-02 0. -1.
       -1   -1    0    0    0  501  0.00000000000E+00  0.00000000000E+00 -0.70305288901E+03  0.70305288903E+03  0.50400001928E-02 0.  1.
    10030    2    1    2    0    0  0.00000000000E+00  0.00000000000E+00  0.43026018951E+03  0.18363659676E+04  0.17852496005E+04 0.  0.
        1    1    3    3  502    0  0.51830002859E+03  0.16872057771E+03  0.94224857017E+03  0.10885467013E+04  0.50400001928E-02 0. -1.
       -1    1    3    3    0  502 -0.51830002859E+03 -0.16872057771E+03 -0.51198838066E+03  0.74781926622E+03  0.50400001928E-02 0.  1.
</event>
<event>
 5   0  0.8132598E-05  0.1781194E+04  0.7818609E-02  0.8716364E-01
        1   -1    0    0  501    0  0.00000000000E+00  0.00000000000E+00  0.14592322490E+04  0.14592322490E+04  0.50400001928E-02 0.  1.
       -1   -1    0    0    0  501  0.00000000000E+00  0.00000000000E+00 -0.54354842295E+03  0.54354842297E+03  0.50400001928E-02 0. -1.
    10030    2    1    2    0    0  0.00000000000E+00  0.00000000000E+00  0.91568382609E+03  0.20027806720E+04  0.17811944169E+04 0.  0.
        3    1    3    3  502    0 -0.57909061372E+03 -0.19655266226E+03 -0.27014683825E+03  0.66854933427E+03  0.10100000352E+00 0. -1.
       -3    1    3    3    0  502  0.57909061372E+03  0.19655266226E+03  0.11858306643E+04  0.13342313377E+04  0.10100000352E+00 0.  1.
</event>
<event>
 5   0  0.1608627E-04  0.1770544E+04  0.7818609E-02  0.8722123E-01
        2   -1    0    0  501    0  0.00000000000E+00  0.00000000000E+00  0.23755454764E+04  0.23755454764E+04  0.25500000920E-02 0.  1.
       -2   -1    0    0    0  501  0.00000000000E+00  0.00000000000E+00 -0.32990591696E+03  0.32990591697E+03  0.25500000920E-02 0. -1.
    10030    2    1    2    0    0  0.00000000000E+00  0.00000000000E+00  0.20456395594E+04  0.27054513933E+04  0.17705439940E+04 0.  0.
        2    1    3    3  502    0  0.87496631183E+02 -0.87373212826E+03  0.11946337055E+04  0.14826372391E+04  0.25500000920E-02 0. -1.
       -2    1    3    3    0  502 -0.87496631183E+02  0.87373212826E+03  0.85100585389E+03  0.12228141542E+04  0.25500000920E-02 0.  1.
</event>
<event>
 5   0  0.1573981E-04  0.1818745E+04  0.7818609E-02  0.8696394E-01
       -2   -1    0    0    0  501  0.00000000000E+00  0.00000000000E+00  0.81907476720E+03  0.81907476720E+03  0.25500000920E-02 0. -1.
        2   -1    0    0  501    0  0.00000000000E+00  0.00000000000E+00 -0.10096253097E+04  0.10096253097E+04  0.25500000920E-02 0.  1.
    10030    2    1    2    0    0  0.00000000000E+00  0.00000000000E+00 -0.19055054251E+03  0.18287000769E+04  0.18187452988E+04 0.  0.
        1    1    3    3  502    0 -0.84168836337E+03  0.31798987346E+03  0.37362471430E+02  0.90052918607E+03  0.50400001928E-02 0.  1.
       -1    1    3    3    0  502  0.84168836337E+03 -0.31798987346E+03 -0.22791301394E+03  0.92817089084E+03  0.50400001928E-02 0. -1.
</event>
<event>
 5   0  0.1603564E-04  0.1794989E+04  0.7818609E-02  0.8708969E-01
        2   -1    0    0  501    0  0.00000000000E+00  0.00000000000E+00  0.61963622610E+03  0.61963622611E+03  0.25500000920E-02 0.  1.
       -2   -1    0    0    0  501  0.00000000000E+00  0.00000000000E+00 -0.12999497660E+04  0.12999497660E+04  0.25500000920E-02 0. -1.
    10030    2    1    2    0    0  0.00000000000E+00  0.00000000000E+00 -0.68031353988E+03  0.19195859921E+04  0.17949885427E+04 0.  0.
        5    1    3    3  502    0  0.86503431320E+03 -0.22398547907E+03 -0.42975822113E+03  0.99154832281E+03  0.46999998093E+01 0. -1.
       -5    1    3    3    0  502 -0.86503431320E+03  0.22398547907E+03 -0.25055531875E+03  0.92803766928E+03  0.46999998093E+01 0.  1.
</event>
<event>
 5   0  0.8254914E-05  0.1814035E+04  0.7818609E-02  0.8698871E-01
        1   -1    0    0  501    0  0.00000000000E+00  0.00000000000E+00  0.72831375915E+03  0.72831375917E+03  0.50400001928E-02 0. -1.
       -1   -1    0    0    0  501  0.00000000000E+00  0.00000000000E+00 -0.11295686452E+04  0.11295686452E+04  0.50400001928E-02 0.  1.
    10030    2    1    2    0    0  0.00000000000E+00  0.00000000000E+00 -0.40125488605E+03  0.18578824044E+04  0.18140346041E+04 0.  0.
        4    1    3    3  502    0  0.49353564903E+03 -0.30198067988E+02 -0.97939476911E+03  0.10971349447E+04  0.12699999809E+01 0.  1.
       -4    1    3    3    0  502 -0.49353564903E+03  0.30198067988E+02  0.57813988306E+03  0.76074745971E+03  0.12699999809E+01 0. -1.
</event>
<event>
 5   0  0.8206783E-05  0.1715733E+04  0.7818609E-02  0.8752442E-01
        1   -1    0    0  501    0  0.00000000000E+00  0.00000000000E+00  0.70002121405E+03  0.70002121407E+03  0.50400001928E-02 0.  1.
       -1   -1    0    0    0  501  0.00000000000E+00  0.00000000000E+00 -0.10513034958E+04  0.10513034958E+04  0.50400001928E-02 0. -1.
    10030    2    1    2    0    0  0.00000000000E+00  0.00000000000E+00 -0.35128228173E+03  0.17513247099E+04  0.17157327875E+04 0.  0.
        1    1    3    3  502    0  0.67236822154E+03 -0.31251725346E+03  0.26480587640E+03  0.78731709701E+03  0.50400001928E-02 0.  1.
       -1    1    3    3    0  502 -0.67236822154E+03  0.31251725346E+03 -0.61608815813E+03  0.96400761286E+03  0.50400001928E-02 0. -1.
</event>
<event>
 5   0  0.8430513E-05  0.1803616E+04  0.7818609E-02  0.8704379E-01
       -1   -1    0    0    0  501  0.00000000000E+00  0.00000000000E+00  0.64444555508E+03  0.64444555510E+03  0.50400001928E-02 0. -1.
        1   -1    0    0  501    0  0.00000000000E+00  0.00000000000E+00 -0.12619492229E+04  0.12619492229E+04  0.50400001928E-02 0.  1.
    10030    2    1    2    0    0  0.00000000000E+00  0.00000000000E+00 -0.61750366779E+03  0.19063947780E+04  0.18036158875E+04 0.  0.
        5    1    3    3  502    0 -0.44219412008E+03  0.46867336562E+03 -0.97561224548E+03  0.11692013116E+04  0.46999998093E+01 0.  1.
       -5    1    3    3    0  502  0.44219412008E+03 -0.46867336562E+03  0.35810857770E+03  0.73719346639E+03  0.46999998093E+01 0. -1.
</event>
<event>
 5   0  0.1628397E-04  0.1821963E+04  0.7818609E-02  0.8694706E-01
        2   -1    0    0  501    0  0.00000000000E+00  0.00000000000E+00  0.10123001740E+04  0.10123001740E+04  0.25500000920E-02 0. -1.
       -2   -1    0    0    0  501  0.00000000000E+00  0.00000000000E+00 -0.81980344002E+03  0.81980344002E+03  0.25500000920E-02 0.  1.
    10030    2    1    2    0    0  0.00000000000E+00  0.00000000000E+00  0.19249673394E+03  0.18321036140E+04  0.18219628591E+04 0.  0.
        3    1    3    3  502    0 -0.36683070026E+02 -0.22606576589E+03  0.98287908364E+03  0.10092089384E+04  0.10100000352E+00 0. -1.
       -3    1    3    3    0  502  0.36683070026E+02  0.22606576589E+03 -0.79038234970E+03  0.82289467556E+03  0.10100000352E+00 0.  1.
</event>
<event>
 5   0  0.1608627E-04  0.1790929E+04  0.7818609E-02  0.8711138E-01
        2   -1    0    0  501    0  0.00000000000E+00  0.00000000000E+00  0.12990985328E+04  0.12990985328E+04  0.25500000920E-02 0. -1.
       -2   -1    0    0    0  501  0.00000000000E+00  0.00000000000E+00 -0.61724064452E+03  0.61724064452E+03  0.25500000920E-02 0.  1.
    10030    2    1    2    0    0  0.00000000000E+00  0.00000000000E+00  0.68185788833E+03  0.19163391774E+04  0.17909287152E+04 0.  0.
        2    1    3    3  502    0 -0.83054577471E+03 -0.28672213992E+03  0.15608830427E+03  0.89240093464E+03  0.25500000920E-02 0.  1.
       -2    1    3    3    0  502  0.83054577471E+03  0.28672213992E+03  0.52576958405E+03  0.10239382427E+04  0.25500000920E-02 0. -1.
</event>
<event>
 5   0  0.8492114E-05  0.1783592E+04  0.7818609E-02  0.8715074E-01
        1   -1    0    0  501    0  0.00000000000E+00  0.00000000000E+00  0.16967464767E+04  0.16967464767E+04  0.50400001928E-02 0. -1.
       -1   -1    0    0    0  501  0.00000000000E+00  0.00000000000E+00 -0.46872070190E+03  0.46872070193E+03  0.50400001928E-02 0.  1.
    10030    2    1    2    0    0  0.00000000000E+00  0.00000000000E+00  0.12280257748E+04  0.21654671786E+04  0.17835921053E+04 0.  0.
        2    1    3    3  502    0  0.65864911707E+02 -0.23484959135E+03  0.16554624051E+04  0.16733344830E+04  0.25500000920E-02 0. -1.
       -2    1    3    3    0  502 -0.65864911707E+02  0.23484959135E+03 -0.42743663034E+03  0.49213269564E+03  0.25500000920E-02 0.  1.
</event>
<event>
 5   0  0.8492114E-05  0.1784970E+04  0.7818609E-02  0.8714334E-01
       -1   -1    0    0    0  501  0.00000000000E+00  0.00000000000E+00  0.72028419955E+03  0.72028419957E+03  0.50400001928E-02 0.  1.
        1   -1    0    0  501    0  0.00000000000E+00  0.00000000000E+00 -0.11058539968E+04  0.11058539968E+04  0.50400001928E-02 0. -1.
    10030    2    1    2    0    0  0.00000000000E+00  0.00000000000E+00 -0.38556979725E+03  0.18261381964E+04  0.17849696478E+04 0.  0.
        2    1    3    3  502    0 -0.89149712601E+03  0.29815805662E+02 -0.16255594588E+03  0.90668657402E+03  0.25500000920E-02 0. -1.
       -2    1    3    3    0  502  0.89149712601E+03 -0.29815805662E+02 -0.22301385137E+03  0.91945162236E+03  0.25500000920E-02 0.  1.
</event>
<event>
 5   0  0.1549012E-04  0.1801493E+04  0.7818609E-02  0.8705506E-01
        2   -1    0    0  501    0  0.00000000000E+00  0.00000000000E+00  0.15413016212E+04  0.15413016212E+04  0.25500000920E-02 0. -1.
       -2   -1    0    0    0  501  0.00000000000E+00  0.00000000000E+00 -0.52640184769E+03  0.52640184770E+03  0.25500000920E-02 0.  1.
    10030    2    1    2    0    0  0.00000000000E+00  0.00000000000E+00  0.10148997735E+04  0.20677034689E+04  0.18014927380E+04 0.  0.
        4    1    3    3  502    0 -0.34826611072E+03  0.36940442684E+03  0.13614368271E+04  0.14530178119E+04  0.12699999809E+01 0. -1.
       -4    1    3    3    0  502  0.34826611072E+03 -0.36940442684E+03 -0.34653705366E+03  0.61468565699E+03  0.12699999809E+01 0.  1.
</event>
<event>
 5   0  0.8132598E-05  0.1789016E+04  0.7818609E-02  0.8712162E-01
       -1   -1    0    0    0  501  0.00000000000E+00  0.00000000000E+00  0.96657286576E+03  0.96657286578E+03  0.50400001928E-02 0. -1.
        1   -1    0    0  501    0  0.00000000000E+00  0.00000000000E+00 -0.82781625241E+03  0.82781625243E+03  0.50400001928E-02 0.  1.
    10030    2    1    2    0    0  0.00000000000E+00  0.00000000000E+00  0.13875661335E+03  0.17943891182E+04  0.17890161849E+04 0.  0.
        3    1    3    3  502    0 -0.35188466968E+03  0.66761043426E+03  0.55104781068E+03  0.93444112310E+03  0.10100000352E+00 0. -1.
       -3    1    3    3    0  502  0.35188466968E+03 -0.66761043426E+03 -0.41229119733E+03  0.85994799510E+03  0.10100000352E+00 0.  1.
</event>
<event>
 5   0  0.1573981E-04  0.1839287E+04  0.7818609E-02  0.8685682E-01
       -2   -1    0    0    0  501  0.00000000000E+00  0.00000000000E+00  0.38287039264E+03  0.38287039265E+03  0.25500000920E-02 0. -1.
        2   -1    0    0  501    0  0.00000000000E+00  0.00000000000E+00 -0.22089575308E+04  0.22089575308E+04  0.25500000920E-02 0.  1.
    10030    2    1    2    0    0  0.00000000000E+00  0.00000000000E+00 -0.18260871382E+04  0.25918279235E+04  0.18392872937E+04 0.  0.
        1    1    3    3  502    0  0.35530755946E+03  0.13782581140E+01 -0.21083292424E+04  0.21380592966E+04  0.50400001928E-02 0.  1.
       -1    1    3    3    0  502 -0.35530755946E+03 -0.13782581140E+01  0.28224210415E+03  0.45376862693E+03  0.50400001928E-02 0. -1.
</event>
<event>
 5   0  0.8492114E-05  0.1803291E+04  0.7818609E-02  0.8704551E-01
        1   -1    0    0  501    0  0.00000000000E+00  0.00000000000E+00  0.82508168865E+03  0.82508168866E+03  0.50400001928E-02 0. -1.
       -1   -1    0    0    0  501  0.00000000000E+00  0.00000000000E+00 -0.98531394847E+03  0.98531394849E+03  0.50400001928E-02 0.  1.
    10030    2    1    2    0    0  0.00000000000E+00  0.00000000000E+00 -0.16023225983E+03  0.18103956371E+04  0.18032908767E+04 0.  0.
        2    1    3    3  502    0 -0.58865682026E+03 -0.54404567599E+03  0.33438090768E+03  0.86851202699E+03  0.25500000920E-02 0. -1.
       -2    1    3    3    0  502  0.58865682026E+03  0.54404567599E+03 -0.49461316750E+03  0.94188361016E+03  0.25500000920E-02 0.  1.
</event>
<event>
 5   0  0.8254914E-05  0.1811534E+04  0.7818609E-02  0.8700190E-01
       -1   -1    0    0    0  501  0.00000000000E+00  0.00000000000E+00  0.89101083148E+03  0.89101083149E+03  0.50400001928E-02 0.  1.
        1   -1    0    0  501    0  0.00000000000E+00  0.00000000000E+00 -0.92076746721E+03  0.92076746722E+03  0.50400001928E-02 0. -1.
    10030    2    1    2    0    0  0.00000000000E+00  0.00000000000E+00 -0.29756635726E+02  0.18117782987E+04  0.18115339208E+04 0.  0.
        4    1    3    3  502    0 -0.35981158232E+03  0.66501322848E+03 -0.51364911751E+03  0.91408095793E+03  0.12699999809E+01 0. -1.
       -4    1    3    3    0  502  0.35981158232E+03 -0.66501322848E+03  0.48389248178E+03  0.89769734079E+03  0.12699999809E+01 0.  1.
</event>
<event>
 5   0  0.1549012E-04  0.1796774E+04  0.7818609E-02  0.8708017E-01
       -2   -1    0    0    0  501  0.00000000000E+00  0.00000000000E+00  0.88202876951E+03  0.88202876951E+03  0.25500000920E-02 0.  1.
        2   -1    0    0  501    0  0.00000000000E+00  0.00000000000E+00 -0.91504818192E+03  0.91504818193E+03  0.25500000920E-02 0. -1.
    10030    2    1    2    0    0  0.00000000000E+00  0.00000000000E+00 -0.33019412414E+02  0.17970769514E+04  0.17967735772E+04 0.  0.
        4    1    3    3  502    0 -0.33545747676E+03  0.46086616712E+03 -0.71101003182E+03  0.91129919398E+03  0.12699999809E+01 0. -1.
       -4    1    3    3    0  502  0.33545747676E+03 -0.46086616712E+03  0.67799061940E+03  0.88577775746E+03  0.12699999809E+01 0.  1.
</event>
<event>
 5   0  0.1608627E-04  0.1796914E+04  0.7818609E-02  0.8707942E-01
        2   -1    0    0  501    0  0.00000000000E+00  0.00000000000E+00  0.77002828947E+03  0.77002828947E+03  0.25500000920E-02 0.  1.
       -2   -1    0    0    0  501  0.00000000000E+00  0.00000000000E+00 -0.10483052232E+04  0.10483052232E+04  0.25500000920E-02 0. -1.
    10030    2    1    2    0    0  0.00000000000E+00  0.00000000000E+00 -0.27827693377E+03  0.18183335127E+04  0.17969136628E+04 0.  0.
        2    1    3    3  502    0 -0.33780141973E+03 -0.33493158549E+03 -0.91041544718E+03  0.10272026346E+04  0.25500000920E-02 0. -1.
       -2    1    3    3    0  502  0.33780141973E+03  0.33493158549E+03  0.63213851340E+03  0.79113087809E+03  0.25500000920E-02 0.  1.
</event>
<event>
 5   0  0.8430513E-05  0.1798660E+04  0.7818609E-02  0.8707013E-01
       -1   -1    0    0    0  501  0.00000000000E+00  0.00000000000E+00  0.98105170164E+03  0.98105170166E+03  0.50400001928E-02 0.  1.
        1   -1    0    0  501    0  0.00000000000E+00  0.00000000000E+00 -0.82441545701E+03  0.82441545702E+03  0.50400001928E-02 0. -1.
    10030    2    1    2    0    0  0.00000000000E+00  0.00000000000E+00  0.15663624464E+03  0.18054671587E+04  0.17986597088E+04 0.  0.
        5    1    3    3  502    0 -0.81644469531E+03  0.37640711617E+03  0.55697540389E+02  0.90077109390E+03  0.46999998093E+01 0.  1.
       -5    1    3    3    0  502  0.81644469531E+03 -0.37640711617E+03  0.10093870425E+03  0.90469606478E+03  0.46999998093E+01 0. -1.
</event>
<event>
 5   0  0.1603564E-04  0.1675069E+04  0.7818609E-02  0.8775712E-01
       -2   -1    0    0    0  501  0.00000000000E+00  0.00000000000E+00  0.54766780064E+03  0.54766780064E+03  0.25500000920E-02 0.  1.
        2   -1    0    0  501    0  0.00000000000E+00  0.00000000000E+00 -0.12808207649E+04  0.12808207649E+04  0.25500000920E-02 0. -1.
    10030    2    1    2    0    0  0.00000000000E+00  0.00000000000E+00 -0.73315296430E+03  0.18284885656E+04  0.16750693017E+04 0.  0.
        5    1    3    3  502    0 -0.38487735151E+03  0.74341068319E+03 -0.39445333832E+03  0.92542182042E+03  0.46999998093E+01 0. -1.
       -5    1    3    3    0  502  0.38487735151E+03 -0.74341068319E+03 -0.33869962599E+03  0.90306674517E+03  0.46999998093E+01 0.  1.
</event>
<event>
 5   0  0.1608627E-04  0.1797710E+04  0.7818609E-02  0.8707518E-01
        2   -1    0    0  501    0  0.00000000000E+00  0.00000000000E+00  0.11716305143E+04  0.11716305143E+04  0.25500000920E-02 0.  1.
       -2   -1    0    0    0  501  0.00000000000E+00  0.00000000000E+00 -0.68958588968E+03  0.68958588969E+03  0.25500000920E-02 0. -1.
    10030    2    1    2    0    0  0.00000000000E+00  0.00000000000E+00  0.48204462462E+03  0.18612164040E+04  0.17977095100E+04 0.  0.
        2    1    3    3  502    0  0.26524209055E+03 -0.72171464705E+03  0.72299376206E+03  0.10554361081E+04  0.25500000920E-02 0.  1.
       -2    1    3    3    0  502 -0.26524209055E+03  0.72171464705E+03 -0.24094913744E+03  0.80578029586E+03  0.25500000920E-02 0. -1.
</event>
<event>
 5   0  0.5820500E-05  0.1779422E+04  0.7818609E-02  0.8717320E-01
       -4   -1    0    0    0  501  0.00000000000E+00  0.00000000000E+00  0.85470155487E+03  0.85470249841E+03  0.12699999809E+01 0.  1.
        4   -1    0    0  501    0  0.00000000000E+00  0.00000000000E+00 -0.92615290328E+03  0.92615377403E+03  0.12699999809E+01 0. -1.
    10030    2    1    2    0    0  0.00000000000E+00  0.00000000000E+00 -0.71451348416E+02  0.17808562724E+04  0.17794223130E+04 0.  0.
        2    1    3    3  502    0  0.38435696193E+03  0.38497930171E+03  0.66886340265E+03  0.86215867933E+03  0.25500000920E-02 0.  1.
       -2    1    3    3    0  502 -0.38435696193E+03 -0.38497930171E+03 -0.74031475107E+03  0.91869759311E+03  0.25500000920E-02 0. -1.
</event>
<event>
 5   0  0.8132598E-05  0.1790258E+04  0.7818609E-02  0.8711497E-01
       -1   -1    0    0    0  501  0.00000000000E+00  0.00000000000E+00  0.82581947763E+03  0.82581947764E+03  0.50400001928E-02 0.  1.
        1   -1    0    0  501    0  0.00000000000E+00  0.00000000000E+00 -0.97025553304E+03  0.97025553305E+03  0.50400001928E-02 0. -1.
    10030    2    1    2    0    0  0.00000000000E+00  0.00000000000E+00 -0.14443605541E+03  0.17960750107E+04  0.17902579898E+04 0.  0.
        3    1    3    3  502    0 -0.57178469704E+03  0.66433571862E+02  0.61550531665E+03  0.84273243931E+03  0.10100000352E+00 0.  1.
       -3    1    3    3    0  502  0.57178469704E+03 -0.66433571862E+02 -0.75994137206E+03  0.95334257138E+03  0.10100000352E+00 0. -1.
</event>
<event>
 5   0  0.1573981E-04  0.1825339E+04  0.7818609E-02  0.8692939E-01
       -2   -1    0    0    0  501  0.00000000000E+00  0.00000000000E+00  0.90065774940E+03  0.90065774940E+03  0.25500000920E-02 0.  1.
        2   -1    0    0  501    0  0.00000000000E+00  0.00000000000E+00 -0.92484149896E+03  0.92484149896E+03  0.25500000920E-02 0. -1.
    10030    2    1    2    0    0  0.00000000000E+00  0.00000000000E+00 -0.24183749562E+02  0.18254992484E+04  0.18253390513E+04 0.  0.
        1    1    3    3  502    0 -0.46958039713E+03  0.75363883260E+03  0.19884942705E+03  0.90995512749E+03  0.50400001928E-02 0.  1.
       -1    1    3    3    0  502  0.46958039713E+03 -0.75363883260E+03 -0.22303317661E+03  0.91554412087E+03  0.50400001928E-02 0. -1.
</event>
<event>
 5   0  0.8132598E-05  0.1791138E+04  0.7818609E-02  0.8711026E-01
        1   -1    0    0  501    0  0.00000000000E+00  0.00000000000E+00  0.44318091659E+03  0.44318091662E+03  0.50400001928E-02 0. -1.
       -1   -1    0    0    0  501  0.00000000000E+00  0.00000000000E+00 -0.18097443322E+04  0.18097443322E+04  0.50400001928E-02 0.  1.
    10030    2    1    2    0    0  0.00000000000E+00  0.00000000000E+00 -0.13665634156E+04  0.22529252488E+04  0.17911383553E+04 0.  0.
        3    1    3    3  502    0  0.28368113450E+03 -0.44964432586E+03  0.22321050765E+03  0.57660900685E+03  0.10100000352E+00 0. -1.
       -3    1    3    3    0  502 -0.28368113450E+03  0.44964432586E+03 -0.15897739232E+04  0.16763162420E+04  0.10100000352E+00 0.  1.
</event>
<event>
 5   0  0.1608627E-04  0.1851512E+04  0.7818609E-02  0.8679375E-01
       -2   -1    0    0    0  501  0.00000000000E+00  0.00000000000E+00  0.56411257253E+03  0.56411257253E+03  0.25500000920E-02 0.  1.
        2   -1    0    0  501    0  0.00000000000E+00  0.00000000000E+00 -0.15192436181E+04  0.15192436182E+04  0.25500000920E-02 0. -1.
    10030    2    1    2    0    0  0.00000000000E+00  0.00000000000E+00 -0.95513104562E+03  0.20833561907E+04  0.18515122746E+04 0.  0.
        2    1    3    3  502    0  0.55720821833E+03  0.69998752914E+03 -0.74517102255E+03  0.11643639433E+04  0.25500000920E-02 0. -1.
       -2    1    3    3    0  502 -0.55720821833E+03 -0.69998752914E+03 -0.20996002308E+03  0.91899224742E+03  0.25500000920E-02 0.  1.
</event>
<event>
 5   0  0.1628397E-04  0.1784738E+04  0.7818609E-02  0.8714458E-01
        2   -1    0    0  501    0  0.00000000000E+00  0.00000000000E+00  0.11118568891E+04  0.11118568891E+04  0.25500000920E-02 0.  1.
       -2   -1    0    0    0  501  0.00000000000E+00  0.00000000000E+00 -0.71620936049E+03  0.71620936049E+03  0.25500000920E-02 0. -1.
    10030    2    1    2    0    0  0.00000000000E+00  0.00000000000E+00  0.39564752865E+03  0.18280662496E+04  0.17847378648E+04 0.  0.
        3    1    3    3  502    0 -0.81280510191E+03 -0.22311213059E+03  0.49801063163E+03  0.97900242897E+03  0.10100000352E+00 0.  1.
       -3    1    3    3    0  502  0.81280510191E+03  0.22311213059E+03 -0.10236310298E+03  0.84906382066E+03  0.10100000352E+00 0. -1.
</event>
<event>
 5   0  0.1573981E-04  0.1806209E+04  0.7818609E-02  0.8703005E-01
       -2   -1    0    0    0  501  0.00000000000E+00  0.00000000000E+00  0.38647665111E+03  0.38647665112E+03  0.25500000920E-02 0. -1.
        2   -1    0    0  501    0  0.00000000000E+00  0.00000000000E+00 -0.21103404835E+04  0.21103404835E+04  0.25500000920E-02 0.  1.
    10030    2    1    2    0    0  0.00000000000E+00  0.00000000000E+00 -0.17238638324E+04  0.24968171346E+04  0.18062085403E+04 0.  0.
        1    1    3    3  502    0  0.75963637204E+03  0.34665123364E+03 -0.13375553001E+04  0.15767906254E+04  0.50400001928E-02 0. -1.
       -1    1    3    3    0  502 -0.75963637204E+03 -0.34665123364E+03 -0.38630853229E+03  0.92002650922E+03  0.50400001928E-02 0.  1.
</event>
<event>
 5   0  0.1603564E-04  0.1807604E+04  0.7818609E-02  0.8702266E-01
        2   -1    0    0  501    0  0.00000000000E+00  0.00000000000E+00  0.14143010256E+04  0.14143010256E+04  0.25500000920E-02 0. -1.
       -2   -1    0    0    0  501  0.00000000000E+00  0.00000000000E+00 -0.57757000219E+03  0.57757000219E+03  0.25500000920E-02 0.  1.
    10030    2    1    2    0    0  0.00000000000E+00  0.00000000000E+00  0.83673102345E+03  0.19918710278E+04  0.18076037691E+04 0.  0.
        5    1    3    3  502    0  0.28137187768E+03  0.20144947054E+03  0.13383922536E+04  0.13824138082E+04  0.46999998093E+01 0. -1.
       -5    1    3    3    0  502 -0.28137187768E+03 -0.20144947054E+03 -0.50166123012E+03  0.60945721961E+03  0.46999998093E+01 0.  1.
</event>
<event>
 5   0  0.8254914E-05  0.1811571E+04  0.7818609E-02  0.8700170E-01
       -1   -1    0    0    0  501  0.00000000000E+00  0.00000000000E+00  0.71387105052E+03  0.71387105054E+03  0.50400001928E-02 0.  1.
        1   -1    0    0  501    0  0.00000000000E+00  0.00000000000E+00 -0.11492935604E+04  0.11492935605E+04  0.50400001928E-02 0. -1.
    10030    2    1    2    0    0  0.00000000000E+00  0.00000000000E+00 -0.43542250992E+03  0.18631646110E+04  0.18115710324E+04 0.  0.
        4    1    3    3  502    0 -0.71301398596E+03  0.13082193766E+03 -0.77626441316E+03  0.10621164605E+04  0.12699999809E+01 0. -1.
       -4    1    3    3    0  502  0.71301398596E+03 -0.13082193766E+03  0.34084190324E+03  0.80104815052E+03  0.12699999809E+01 0.  1.
</event>
<event>
 5   0  0.8430513E-05  0.1792563E+04  0.7818609E-02  0.8710265E-01
        1   -1    0    0  501    0  0.00000000000E+00  0.00000000000E+00  0.12667763739E+04  0.12667763739E+04  0.50400001928E-02 0.  1.
       -1   -1    0    0    0  501  0.00000000000E+00  0.00000000000E+00 -0.63414521661E+03  0.63414521663E+03  0.50400001928E-02 0. -1.
    10030    2    1    2    0    0  0.00000000000E+00  0.00000000000E+00  0.63263115728E+03  0.19009215905E+04  0.17925626104E+04 0.  0.
        5    1    3    3  502    0  0.32329726727E+03 -0.28201007582E+03  0.11508070921E+04  0.12281815253E+04  0.46999998093E+01 0.  1.
       -5    1    3    3    0  502 -0.32329726727E+03  0.28201007582E+03 -0.51817593483E+03  0.67274006520E+03  0.46999998093E+01 0. -1.
</event>
<event>
 5   0  0.1549012E-04  0.1800623E+04  0.7818609E-02  0.8705968E-01
       -2   -1    0    0    0  501  0.00000000000E+00  0.00000000000E+00  0.58026450817E+03  0.58026450817E+03  0.25500000920E-02 0.  1.
        2   -1    0    0  501    0  0.00000000000E+00  0.00000000000E+00 -0.13968815806E+04  0.13968815806E+04  0.25500000920E-02 0. -1.
    10030    2    1    2    0    0  0.00000000000E+00  0.00000000000E+00 -0.81661707242E+03  0.19771460888E+04  0.18006230070E+04 0.  0.
        4    1    3    3  502    0  0.19684622314E+03  0.68248540598E+03  0.19911834962E+03  0.73768861655E+03  0.12699999809E+01 0. -1.
       -4    1    3    3    0  502 -0.19684622314E+03 -0.68248540598E+03 -0.10157354220E+04  0.12394574722E+04  0.12699999809E+01 0.  1.
</event>
<event>
 5   0  0.8254914E-05  0.1802555E+04  0.7818609E-02  0.8704942E-01
       -1   -1    0    0    0  501  0.00000000000E+00  0.00000000000E+00  0.59161434704E+03  0.59161434706E+03  0.50400001928E-02 0. -1.
        1   -1    0    0  501    0  0.00000000000E+00  0.00000000000E+00 -0.13730242972E+04  0.13730242972E+04  0.50400001928E-02 0.  1.
    10030    2    1    2    0    0  0.00000000000E+00  0.00000000000E+00 -0.78140995014E+03  0.19646386442E+04  0.18025547127E+04 0.  0.
        4    1    3    3  502    0 -0.14420440106E+03  0.48217370859E+02  0.57753298819E+03  0.59721502785E+03  0.12699999809E+01 0. -1.
       -4    1    3    3    0  502  0.14420440106E+03 -0.48217370859E+02 -0.13589429383E+04  0.13674236164E+04  0.12699999809E+01 0.  1.
</event>
<event>
 5   0  0.8206783E-05  0.1755054E+04  0.7818609E-02  0.8730573E-01
        1   -1    0    0  501    0  0.00000000000E+00  0.00000000000E+00  0.54674738864E+03  0.54674738866E+03  0.50400001928E-02 0.  1.
       -1   -1    0    0    0  501  0.00000000000E+00  0.00000000000E+00 -0.14084270409E+04  0.14084270409E+04  0.50400001928E-02 0. -1.
    10030    2    1    2    0    0  0.00000000000E+00  0.00000000000E+00 -0.86167965222E+03  0.19551744295E+04  0.17550541948E+04 0.  0.
        1    1    3    3  502    0  0.73425196333E+03  0.12409228359E+03 -0.94802706427E+03  0.12055206987E+04  0.50400001928E-02 0. -1.
       -1    1    3    3    0  502 -0.73425196333E+03 -0.12409228359E+03  0.86347412046E+02  0.74965373079E+03  0.50400001928E-02 0.  1.
</event>
<event>
 5   0  0.1573981E-04  0.1795240E+04  0.7818609E-02  0.8708835E-01
        2   -1    0    0  501    0  0.00000000000E+00  0.00000000000E+00  0.17320481021E+04  0.17320481021E+04  0.25500000920E-02 0.  1.
       -2   -1    0    0    0  501  0.00000000000E+00  0.00000000000E+00 -0.46518431123E+03  0.46518431123E+03  0.25500000920E-02 0. -1.
    10030    2    1    2    0    0  0.00000000000E+00  0.00000000000E+00  0.12668637909E+04  0.21972324133E+04  0.17952399320E+04 0.  0.
        1    1    3    3  502    0 -0.22089048264E+03  0.63149385468E+03 -0.99025968458E+02  0.67630114319E+03  0.50400001928E-02 0. -1.
       -1    1    3    3    0  502  0.22089048264E+03 -0.63149385468E+03  0.13658897593E+04  0.15209312701E+04  0.50400001928E-02 0.  1.
</event>
<event>
 5   0  0.8430513E-05  0.1800453E+04  0.7818609E-02  0.8706058E-01
        1   -1    0    0  501    0  0.00000000000E+00  0.00000000000E+00  0.15795372683E+04  0.15795372683E+04  0.50400001928E-02 0. -1.
       -1   -1    0    0    0  501  0.00000000000E+00  0.00000000000E+00 -0.51306682531E+03  0.51306682533E+03  0.50400001928E-02 0.  1.
    10030    2    1    2    0    0  0.00000000000E+00  0.00000000000E+00  0.10664704430E+04  0.20926040937E+04  0.18004534671E+04 0.  0.
        5    1    3    3  502    0  0.85600457022E+03 -0.18454376682E+03  0.29058652803E+03  0.92263906614E+03  0.46999998093E+01 0.  1.
       -5    1    3    3    0  502 -0.85600457022E+03  0.18454376682E+03  0.77588391499E+03  0.11699650275E+04  0.46999998093E+01 0. -1.
</event>
<event>
 5   0  0.1549012E-04  0.1793544E+04  0.7818609E-02  0.8709740E-01
       -2   -1    0    0    0  501  0.00000000000E+00  0.00000000000E+00  0.69833096703E+03  0.69833096703E+03  0.25500000920E-02 0. -1.
        2   -1    0    0  501    0  0.00000000000E+00  0.00000000000E+00 -0.11516024208E+04  0.11516024208E+04  0.25500000920E-02 0.  1.
    10030    2    1    2    0    0  0.00000000000E+00  0.00000000000E+00 -0.45327145374E+03  0.18499333878E+04  0.17935435675E+04 0.  0.
        4    1    3    3  502    0 -0.43359257759E+03  0.71774422789E+03 -0.55449545630E+03  0.10052990222E+04  0.12699999809E+01 0.  1.
       -4    1    3    3    0  502  0.43359257759E+03 -0.71774422789E+03  0.10122400256E+03  0.84463436563E+03  0.12699999809E+01 0. -1.
</event>
<event>
 5   0  0.1573981E-04  0.1807375E+04  0.7818609E-02  0.8702387E-01
        2   -1    0    0  501    0  0.00000000000E+00  0.00000000000E+00  0.17842867707E+04  0.17842867707E+04  0.25500000920E-02 0.  1.
       -2   -1    0    0    0  501  0.00000000000E+00  0.00000000000E+00 -0.45769055032E+03  0.45769055033E+03  0.25500000920E-02 0. -1.
    10030    2    1    2    0    0  0.00000000000E+00  0.00000000000E+00  0.13265962204E+04  0.22419773210E+04  0.18073751066E+04 0.  0.
        1    1    3    3  502    0  0.75339916066E+03 -0.68760603307E+02  0.12764330972E+04  0.14837856205E+04  0.50400001928E-02 0.  1.
       -1    1    3    3    0  502 -0.75339916066E+03  0.68760603307E+02  0.50163123189E+02  0.75819170057E+03  0.50400001928E-02 0. -1.
</event>
<event>
 5   0  0.1628397E-04  0.1806877E+04  0.7818609E-02  0.8702651E-01
       -2   -1    0    0    0  501  0.00000000000E+00  0.00000000000E+00  0.64443452273E+03  0.64443452274E+03  0.25500000920E-02 0.  1.
        2   -1    0    0  501    0  0.00000000000E+00  0.00000000000E+00 -0.12665390045E+04  0.12665390045E+04  0.25500000920E-02 0. -1.
    10030    2    1    2    0    0  0.00000000000E+00  0.00000000000E+00 -0.62210448181E+03  0.19109735273E+04  0.18068773715E+04 0.  0.
        3    1    3    3  502    0  0.29404533472E+03  0.45967579629E+02  0.59110040703E+03  0.66179708268E+03  0.10100000352E+00 0.  1.
       -3    1    3    3    0  502 -0.29404533472E+03 -0.45967579629E+02 -0.12132048888E+04  0.12491764446E+04  0.10100000352E+00 0. -1.
</event>
<event>
 5   0  0.1608627E-04  0.1789365E+04  0.7818609E-02  0.8711975E-01
       -2   -1    0    0    0  501  0.00000000000E+00  0.00000000000E+00  0.66652112942E+03  0.66652112942E+03  0.25500000920E-02 0. -1.
        2   -1    0    0  501    0  0.00000000000E+00  0.00000000000E+00 -0.12009477483E+04  0.12009477483E+04  0.25500000920E-02 0.  1.
    10030    2    1    2    0    0  0.00000000000E+00  0.00000000000E+00 -0.53442661886E+03  0.18674688777E+04  0.17893653060E+04 0.  0.
        2    1    3    3  502    0  0.42164334283E+03 -0.40602877779E+03  0.43894027270E+03  0.73164953355E+03  0.25500000920E-02 0. -1.
       -2    1    3    3    0  502 -0.42164334283E+03  0.40602877779E+03 -0.97336689156E+03  0.11358193441E+04  0.25500000920E-02 0.  1.
</event>
<event>
 5   0  0.1573981E-04  0.1732967E+04  0.7818609E-02  0.8742782E-01
       -2   -1    0    0    0  501  0.00000000000E+00  0.00000000000E+00  0.41018208007E+03  0.41018208008E+03  0.25500000920E-02 0. -1.
        2   -1    0    0  501    0  0.00000000000E+00  0.00000000000E+00 -0.18303916926E+04  0.18303916926E+04  0.25500000920E-02 0.  1.
    10030    2    1    2    0    0  0.00000000000E+00  0.00000000000E+00 -0.14202096125E+04  0.22405737727E+04  0.17329672493E+04 0.  0.
        1    1    3    3  502    0  0.33995334677E+03 -0.47120946842E+03  0.12097425100E+03  0.59349929279E+03  0.50400001928E-02 0. -1.
       -1    1    3    3    0  502 -0.33995334677E+03  0.47120946842E+03 -0.15411838635E+04  0.16470744799E+04  0.50400001928E-02 0.  1.
</event>
<event>
 5   0  0.1603564E-04  0.1779854E+04  0.7818609E-02  0.8717087E-01
       -2   -1    0    0    0  501  0.00000000000E+00  0.00000000000E+00  0.29217729380E+03  0.29217729382E+03  0.25500000920E-02 0. -1.
        2   -1    0    0  501    0  0.00000000000E+00  0.00000000000E+00 -0.27105790064E+04  0.27105790064E+04  0.25500000920E-02 0.  1.
    10030    2    1    2    0    0  0.00000000000E+00  0.00000000000E+00 -0.24184017126E+04  0.30027563002E+04  0.17798535207E+04 0.  0.
        5    1    3    3  502    0 -0.20211186851E+03 -0.15031273553E+01  0.25292101345E+03  0.32379406392E+03  0.46999998093E+01 0. -1.
       -5    1    3    3    0  502  0.20211186851E+03  0.15031273553E+01 -0.26713227260E+04  0.26789622363E+04  0.46999998093E+01 0.  1.
</event>
<event>
 5   0  0.1608627E-04  0.1782089E+04  0.7818609E-02  0.8715883E-01
        2   -1    0    0  501    0  0.00000000000E+00  0.00000000000E+00  0.13977151760E+04  0.13977151760E+04  0.25500000920E-02 0. -1.
       -2   -1    0    0    0  501  0.00000000000E+00  0.00000000000E+00 -0.56804158095E+03  0.56804158095E+03  0.25500000920E-02 0.  1.
    10030    2    1    2    0    0  0.00000000000E+00  0.00000000000E+00  0.82967359504E+03  0.19657567569E+04  0.17820890419E+04 0.  0.
        2    1    3    3  502    0  0.19321042378E+03  0.47508337034E+03  0.12185800088E+04  0.13221088134E+04  0.25500000920E-02 0. -1.
       -2    1    3    3    0  502 -0.19321042378E+03 -0.47508337034E+03 -0.38890641371E+03  0.64364794358E+03  0.25500000920E-02 0.  1.
</event>
<event>
 5   0  0.8132598E-05  0.1810185E+04  0.7818609E-02  0.8700902E-01
       -1   -1    0    0    0  501  0.00000000000E+00  0.00000000000E+00  0.63460069713E+03  0.63460069715E+03  0.50400001928E-02 0. -1.
        1   -1    0    0  501    0  0.00000000000E+00  0.00000000000E+00 -0.12908789054E+04  0.12908789054E+04  0.50400001928E-02 0.  1.
    10030    2    1    2    0    0  0.00000000000E+00  0.00000000000E+00 -0.65627820830E+03  0.19254796026E+04  0.18101852428E+04 0.  0.
        3    1    3    3  502    0 -0.61028256190E+02  0.78420717448E+03 -0.80441580717E+03  0.11250733939E+04  0.10100000352E+00 0.  1.
       -3    1    3    3    0  502  0.61028256190E+02 -0.78420717448E+03  0.14813759887E+03  0.80040620872E+03  0.10100000352E+00 0. -1.
</event>
<event>
 5   0  0.8206783E-05  0.1798662E+04  0.7818609E-02  0.8707011E-01
        1   -1    0    0  501    0  0.00000000000E+00  0.00000000000E+00  0.11997872744E+04  0.11997872744E+04  0.50400001928E-02 0. -1.
       -1   -1    0    0    0  501  0.00000000000E+00  0.00000000000E+00 -0.67411619593E+03  0.67411619595E+03  0.50400001928E-02 0.  1.
    10030    2    1    2    0    0  0.00000000000E+00  0.00000000000E+00  0.52567107848E+03  0.18739034704E+04  0.17986617618E+04 0.  0.
        1    1    3    3  502    0 -0.25137624030E+03  0.44782887563E+03  0.10319978649E+04  0.11527186600E+04  0.50400001928E-02 0. -1.
       -1    1    3    3    0  502  0.25137624030E+03 -0.44782887563E+03 -0.50632678640E+03  0.72118481035E+03  0.50400001928E-02 0.  1.
</event>
<event>
 5   0  0.1608627E-04  0.1802928E+04  0.7818609E-02  0.8704744E-01
       -2   -1    0    0    0  501  0.00000000000E+00  0.00000000000E+00  0.36141353662E+03  0.36141353663E+03  0.25500000920E-02 0.  1.
        2   -1    0    0  501    0  0.00000000000E+00  0.00000000000E+00 -0.22484964276E+04  0.22484964276E+04  0.25500000920E-02 0. -1.
    10030    2    1    2    0    0  0.00000000000E+00  0.00000000000E+00 -0.18870828910E+04  0.26099099643E+04  0.18029276702E+04 0.  0.
        2    1    3    3  502    0 -0.61641918105E+03 -0.66663075607E+02  0.37441536582E+01  0.62002466975E+03  0.25500000920E-02 0.  1.
       -2    1    3    3    0  502  0.61641918105E+03  0.66663075607E+02 -0.18908270447E+04  0.19898852945E+04  0.25500000920E-02 0. -1.
</event>
<event>
 5   0  0.1603564E-04  0.1720637E+04  0.7818609E-02  0.8749681E-01
       -2   -1    0    0    0  501  0.00000000000E+00  0.00000000000E+00  0.40592854928E+03  0.40592854929E+03  0.25500000920E-02 0.  1.
        2   -1    0    0  501    0  0.00000000000E+00  0.00000000000E+00 -0.18233463750E+04  0.18233463750E+04  0.25500000920E-02 0. -1.
    10030    2    1    2    0    0  0.00000000000E+00  0.00000000000E+00 -0.14174178257E+04  0.22292749243E+04  0.17206374968E+04 0.  0.
        5    1    3    3  502    0  0.46394797705E+03 -0.64957535656E+03 -0.11243764002E+04  0.13789272093E+04  0.46999998093E+01 0. -1.
       -5    1    3    3    0  502 -0.46394797705E+03  0.64957535656E+03 -0.29304142546E+03  0.85034771493E+03  0.46999998093E+01 0.  1.
</event>
<event>
 5   0  0.1603564E-04  0.1801147E+04  0.7818609E-02  0.8705690E-01
       -2   -1    0    0    0  501  0.00000000000E+00  0.00000000000E+00  0.15633394191E+04  0.15633394191E+04  0.25500000920E-02 0.  1.
        2   -1    0    0  501    0  0.00000000000E+00  0.00000000000E+00 -0.51878199390E+03  0.51878199391E+03  0.25500000920E-02 0. -1.
    10030    2    1    2    0    0  0.00000000000E+00  0.00000000000E+00  0.10445574252E+04  0.20821214130E+04  0.18011466803E+04 0.  0.
        5    1    3    3  502    0 -0.54023232568E+03 -0.14061122562E+03 -0.29463449768E+03  0.63123217575E+03  0.46999998093E+01 0. -1.
       -5    1    3    3    0  502  0.54023232568E+03  0.14061122562E+03  0.13391919229E+04  0.14508892373E+04  0.46999998093E+01 0.  1.
</event>
<event>
 5   0  0.8254914E-05  0.1801515E+04  0.7818609E-02  0.8705494E-01
        1   -1    0    0  501    0  0.00000000000E+00  0.00000000000E+00  0.90610932904E+03  0.90610932905E+03  0.50400001928E-02 0.  1.
       -1   -1    0    0    0  501  0.00000000000E+00  0.00000000000E+00 -0.89543747271E+03  0.89543747272E+03  0.50400001928E-02 0. -1.
    10030    2    1    2    0    0  0.00000000000E+00  0.00000000000E+00  0.10671856330E+02  0.18015468018E+04  0.18015151930E+04 0.  0.
        4    1    3    3  502    0  0.32231985668E+03  0.17681193293E+03 -0.81699844083E+03  0.89590212348E+03  0.12699999809E+01 0. -1.
       -4    1    3    3    0  502 -0.32231985668E+03 -0.17681193293E+03  0.82767029716E+03  0.90564467830E+03  0.12699999809E+01 0.  1.
</event>
<event>
 5   0  0.8430513E-05  0.1783226E+04  0.7818609E-02  0.8715271E-01
        1   -1    0    0  501    0  0.00000000000E+00  0.00000000000E+00  0.10975709150E+04  0.10975709150E+04  0.50400001928E-02 0. -1.
       -1   -1    0    0    0  501  0.00000000000E+00  0.00000000000E+00 -0.72430309681E+03  0.72430309682E+03  0.50400001928E-02 0.  1.
    10030    2    1    2    0    0  0.00000000000E+00  0.00000000000E+00  0.37326781815E+03  0.18218740118E+04  0.17832263039E+04 0.  0.
        5    1    3    3  502    0 -0.34554478592E+02 -0.35067828982E+03 -0.65012970868E+03  0.73949983303E+03  0.46999998093E+01 0.  1.
       -5    1    3    3    0  502  0.34554478592E+02  0.35067828982E+03  0.10233975268E+04  0.10823741788E+04  0.46999998093E+01 0. -1.
</event>
<event>
 5   0  0.1573981E-04  0.1793930E+04  0.7818609E-02  0.8709534E-01
       -2   -1    0    0    0  501  0.00000000000E+00  0.00000000000E+00  0.43732617051E+03  0.43732617052E+03  0.25500000920E-02 0.  1.
        2   -1    0    0  501    0  0.00000000000E+00  0.00000000000E+00 -0.18396932100E+04  0.18396932100E+04  0.25500000920E-02 0. -1.
    10030    2    1    2    0    0  0.00000000000E+00  0.00000000000E+00 -0.14023670395E+04  0.22770193805E+04  0.17939297494E+04 0.  0.
        1    1    3    3  502    0  0.38021022263E+03  0.72360595473E+03 -0.23243750759E+03  0.84981914904E+03  0.50400001928E-02 0.  1.
       -1    1    3    3    0  502 -0.38021022263E+03 -0.72360595473E+03 -0.11699295319E+04  0.14272002315E+04  0.50400001928E-02 0. -1.
</event>
<event>
 5   0  0.1549012E-04  0.1792119E+04  0.7818609E-02  0.8710502E-01
        2   -1    0    0  501    0  0.00000000000E+00  0.00000000000E+00  0.25534702846E+04  0.25534702846E+04  0.25500000920E-02 0.  1.
       -2   -1    0    0    0  501  0.00000000000E+00  0.00000000000E+00 -0.31444365606E+03  0.31444365607E+03  0.25500000920E-02 0. -1.
    10030    2    1    2    0    0  0.00000000000E+00  0.00000000000E+00  0.22390266286E+04  0.28679139407E+04  0.17921188933E+04 0.  0.
        4    1    3    3  502    0  0.41866168052E+03  0.78068978618E+03  0.13352073837E+04  0.16023528061E+04  0.12699999809E+01 0.  1.
       -4    1    3    3    0  502 -0.41866168052E+03 -0.78068978618E+03  0.90381924490E+03  0.12655611346E+04  0.12699999809E+01 0. -1.
</event>
<event>
 5   0  0.1608627E-04  0.1807177E+04  0.7818609E-02  0.8702492E-01
        2   -1    0    0  501    0  0.00000000000E+00  0.00000000000E+00  0.14162049118E+04  0.14162049118E+04  0.25500000920E-02 0. -1.
       -2   -1    0    0    0  501  0.00000000000E+00  0.00000000000E+00 -0.57652130923E+03  0.57652130923E+03  0.25500000920E-02 0.  1.
    10030    2    1    2    0    0  0.00000000000E+00  0.00000000000E+00  0.83968360257E+03  0.19927262210E+04  0.18071771467E+04 0.  0.
        2    1    3    3  502    0 -0.39765077435E+03  0.51008975108E+03  0.11156231581E+04  0.12895474878E+04  0.25500000920E-02 0. -1.
       -2    1    3    3    0  502  0.39765077435E+03 -0.51008975108E+03 -0.27593955554E+03  0.70317873319E+03  0.25500000920E-02 0.  1.
</event>
<event>
 5   0  0.1608627E-04  0.1777553E+04  0.7818609E-02  0.8718329E-01
       -2   -1    0    0    0  501  0.00000000000E+00  0.00000000000E+00  0.70168249902E+03  0.70168249903E+03  0.25500000920E-02 0. -1.
        2   -1    0    0  501    0  0.00000000000E+00  0.00000000000E+00 -0.11257561354E+04  0.11257561354E+04  0.25500000920E-02 0.  1.
    10030    2    1    2    0    0  0.00000000000E+00  0.00000000000E+00 -0.42407363636E+03  0.18274386344E+04  0.17775526753E+04 0.  0.
        2    1    3    3  502    0  0.49530787911E+03 -0.67394646230E+03  0.97049423209E+02  0.84199306393E+03  0.25500000920E-02 0. -1.
       -2    1    3    3    0  502 -0.49530787911E+03  0.67394646230E+03 -0.52112305957E+03  0.98544557048E+03  0.25500000920E-02 0.  1.
</event>
<event>
 5   0  0.5820500E-05  0.1804264E+04  0.7818609E-02  0.8704035E-01
        4   -1    0    0  501    0  0.00000000000E+00  0.00000000000E+00  0.69261213780E+03  0.69261330216E+03  0.12699999809E+01 0. -1.
       -4   -1    0    0    0  501  0.00000000000E+00  0.00000000000E+00 -0.11750303786E+04  0.11750310649E+04  0.12699999809E+01 0.  1.
    10030    2    1    2    0    0  0.00000000000E+00  0.00000000000E+00 -0.48241824080E+03  0.18676443671E+04  0.18042638728E+04 0.  0.
        5    1    3    3  502    0  0.37251022172E+03  0.57153845883E+03  0.36977949549E+03  0.77600195908E+03  0.46999998093E+01 0. -1.
       -5    1    3    3    0  502 -0.37251022172E+03 -0.57153845883E+03 -0.85219773629E+03  0.10916424080E+04  0.46999998093E+01 0.  1.
</event>
<event>
 5   0  0.8132598E-05  0.1799027E+04  0.7818609E-02  0.8706817E-01
       -1   -1    0    0    0  501  0.00000000000E+00  0.00000000000E+00  0.12057174525E+04  0.12057174525E+04  0.50400001928E-02 0. -1.
        1   -1    0    0  501    0  0.00000000000E+00  0.00000000000E+00 -0.67107317038E+03  0.67107317040E+03  0.50400001928E-02 0.  1.
    10030    2    1    2    0    0  0.00000000000E+00  0.00000000000E+00  0.53464428209E+03  0.18767906229E+04  0.17990271076E+04 0.  0.
        3    1    3    3  502    0 -0.81156777922E+03 -0.26325096595E+03  0.56456134990E+03  0.10230703101E+04  0.10100000352E+00 0. -1.
       -3    1    3    3    0  502  0.81156777922E+03  0.26325096595E+03 -0.29917067819E+02  0.85372031280E+03  0.10100000352E+00 0.  1.
</event>
<event>
 5   0  0.1603564E-04  0.1789354E+04  0.7818609E-02  0.8711981E-01
        2   -1    0    0  501    0  0.00000000000E+00  0.00000000000E+00  0.72721426274E+03  0.72721426274E+03  0.25500000920E-02 0. -1.
       -2   -1    0    0    0  501  0.00000000000E+00  0.00000000000E+00 -0.11007035023E+04  0.11007035023E+04  0.25500000920E-02 0.  1.
    10030    2    1    2    0    0  0.00000000000E+00  0.00000000000E+00 -0.37348923958E+03  0.18279177651E+04  0.17893543930E+04 0.  0.
        5    1    3    3  502    0  0.74384394659E+03  0.44854184232E+03 -0.40568005158E+03  0.95869285772E+03  0.46999998093E+01 0. -1.
       -5    1    3    3    0  502 -0.74384394659E+03 -0.44854184232E+03  0.32190811998E+02  0.86922490735E+03  0.46999998093E+01 0.  1.
</event>
<event>
 5   0  0.1573981E-04  0.1812343E+04  0.7818609E-02  0.8699763E-01
        2   -1    0    0  501    0  0.00000000000E+00  0.00000000000E+00  0.17023751249E+04  0.17023751250E+04  0.25500000920E-02 0.  1.
       -2   -1    0    0    0  501  0.00000000000E+00  0.00000000000E+00 -0.48235335813E+03  0.48235335814E+03  0.25500000920E-02 0. -1.
    10030    2    1    2    0    0  0.00000000000E+00  0.00000000000E+00  0.12200217668E+04  0.21847284831E+04  0.18123425265E+04 0.  0.
        1    1    3    3  502    0  0.74246118246E+03 -0.69637285421E+02  0.12306223313E+04  0.14389333832E+04  0.50400001928E-02 0.  1.
       -1    1    3    3    0  502 -0.74246118246E+03  0.69637285421E+02 -0.10600564505E+02  0.74579509986E+03  0.50400001928E-02 0. -1.
</event>
<event>
 5   0  0.8254914E-05  0.1702762E+04  0.7818609E-02  0.8759791E-01
       -1   -1    0    0    0  501  0.00000000000E+00  0.00000000000E+00  0.51771337266E+03  0.51771337269E+03  0.50400001928E-02 0.  1.
        1   -1    0    0  501    0  0.00000000000E+00  0.00000000000E+00 -0.14000979963E+04  0.14000979964E+04  0.50400001928E-02 0. -1.
    10030    2    1    2    0    0  0.00000000000E+00  0.00000000000E+00 -0.88238462368E+03  0.19178113690E+04  0.17027618222E+04 0.  0.
        4    1    3    3  502    0  0.53120129117E+03  0.61720853188E+03 -0.16136611418E+03  0.83015770747E+03  0.12699999809E+01 0. -1.
       -4    1    3    3    0  502 -0.53120129117E+03 -0.61720853188E+03 -0.72101850950E+03  0.10876536616E+04  0.12699999809E+01 0.  1.
</event>
<event>
 5   0  0.8132598E-05  0.1806962E+04  0.7818609E-02  0.8702606E-01
        1   -1    0    0  501    0  0.00000000000E+00  0.00000000000E+00  0.11560732420E+04  0.11560732420E+04  0.50400001928E-02 0.  1.
       -1   -1    0    0    0  501  0.00000000000E+00  0.00000000000E+00 -0.70607840415E+03  0.70607840417E+03  0.50400001928E-02 0. -1.
    10030    2    1    2    0    0  0.00000000000E+00  0.00000000000E+00  0.44999483782E+03  0.18621516462E+04  0.18069624786E+04 0.  0.
        3    1    3    3  502    0  0.62247985586E+03 -0.28539213791E+03 -0.38236598760E+03  0.78430453397E+03  0.10100000352E+00 0. -1.
       -3    1    3    3    0  502 -0.62247985586E+03  0.28539213791E+03  0.83236082542E+03  0.10778471122E+04  0.10100000352E+00 0.  1.
</event>
<event>
 5   0  0.1603564E-04  0.1797902E+04  0.7818609E-02  0.8707416E-01
       -2   -1    0    0    0  501  0.00000000000E+00  0.00000000000E+00  0.60701651545E+03  0.60701651545E+03  0.25500000920E-02 0. -1.
        2   -1    0    0  501    0  0.00000000000E+00  0.00000000000E+00 -0.13312870993E+04  0.13312870993E+04  0.25500000920E-02 0.  1.
    10030    2    1    2    0    0  0.00000000000E+00  0.00000000000E+00 -0.72427058385E+03  0.19383036148E+04  0.17979023957E+04 0.  0.
        5    1    3    3  502    0  0.31323843815E+03  0.43096361883E+03  0.41845312060E+03  0.67747550807E+03  0.46999998093E+01 0. -1.
       -5    1    3    3    0  502 -0.31323843815E+03 -0.43096361883E+03 -0.11427237044E+04  0.12608281067E+04  0.46999998093E+01 0.  1.
</event>
<event>
 5   0  0.1603564E-04  0.1843440E+04  0.7818609E-02  0.8683534E-01
        2   -1    0    0  501    0  0.00000000000E+00  0.00000000000E+00  0.16002466335E+04  0.16002466335E+04  0.25500000920E-02 0. -1.
       -2   -1    0    0    0  501  0.00000000000E+00  0.00000000000E+00 -0.53089818554E+03  0.53089818554E+03  0.25500000920E-02 0.  1.
    10030    2    1    2    0    0  0.00000000000E+00  0.00000000000E+00  0.10693484480E+04  0.21311448191E+04  0.18434402992E+04 0.  0.
        5    1    3    3  502    0  0.17709649578E+03  0.86689741159E+03  0.83318120838E+03  0.12153548071E+04  0.46999998093E+01 0. -1.
       -5    1    3    3    0  502 -0.17709649578E+03 -0.86689741159E+03  0.23616723961E+03  0.91579001201E+03  0.46999998093E+01 0.  1.
</event>
<event>
 5   0  0.1608627E-04  0.1846531E+04  0.7818609E-02  0.8681939E-01
       -2   -1    0    0    0  501  0.00000000000E+00  0.00000000000E+00  0.70839446346E+03  0.70839446346E+03  0.25500000920E-02 0. -1.
        2   -1    0    0  501    0  0.00000000000E+00  0.00000000000E+00 -0.12033115557E+04  0.12033115557E+04  0.25500000920E-02 0.  1.
    10030    2    1    2    0    0  0.00000000000E+00  0.00000000000E+00 -0.49491709228E+03  0.19117060192E+04  0.18465310654E+04 0.  0.
        2    1    3    3  502    0 -0.32516557951E+03 -0.45322921730E+03 -0.10091365499E+04  0.11530420434E+04  0.25500000920E-02 0.  1.
       -2    1    3    3    0  502  0.32516557951E+03  0.45322921730E+03  0.51421945764E+03  0.75866397577E+03  0.25500000920E-02 0. -1.
</event>
<event>
 5   0  0.1549012E-04  0.1804216E+04  0.7818609E-02  0.8704061E-01
        2   -1    0    0  501    0  0.00000000000E+00  0.00000000000E+00  0.16971892123E+04  0.16971892123E+04  0.25500000920E-02 0. -1.
       -2   -1    0    0    0  501  0.00000000000E+00  0.00000000000E+00 -0.47949809119E+03  0.47949809120E+03  0.25500000920E-02 0.  1.
    10030    2    1    2    0    0  0.00000000000E+00  0.00000000000E+00  0.12176911211E+04  0.21766873035E+04  0.18042161596E+04 0.  0.
        4    1    3    3  502    0 -0.36350752977E+03  0.64885790034E+03 -0.70833247255E+01  0.74377825017E+03  0.12699999809E+01 0.  1.
       -4    1    3    3    0  502  0.36350752977E+03 -0.64885790034E+03  0.12247744458E+04  0.14329090533E+04  0.12699999809E+01 0. -1.
</event>
<event>
 5   0  0.8206783E-05  0.1805011E+04  0.7818609E-02  0.8703639E-01
        1   -1    0    0  501    0  0.00000000000E+00  0.00000000000E+00  0.82171124034E+03  0.82171124036E+03  0.50400001928E-02 0. -1.
       -1   -1    0    0    0  501  0.00000000000E+00  0.00000000000E+00 -0.99124409795E+03  0.99124409796E+03  0.50400001928E-02 0.  1.
    10030    2    1    2    0    0  0.00000000000E+00  0.00000000000E+00 -0.16953285761E+03  0.18129553383E+04  0.18050112656E+04 0.  0.
        1    1    3    3  502    0 -0.59804069349E+03 -0.55481267730E+03  0.30299828181E+03  0.87021706302E+03  0.50400001928E-02 0. -1.
       -1    1    3    3    0  502  0.59804069349E+03  0.55481267730E+03 -0.47253113942E+03  0.94273827530E+03  0.50400001928E-02 0.  1.
</event>
<event>
 5   0  0.8206783E-05  0.1803042E+04  0.7818609E-02  0.8704684E-01
       -1   -1    0    0    0  501  0.00000000000E+00  0.00000000000E+00  0.14513993606E+04  0.14513993606E+04  0.50400001928E-02 0.  1.
        1   -1    0    0  501    0  0.00000000000E+00  0.00000000000E+00 -0.55996979828E+03  0.55996979831E+03  0.50400001928E-02 0. -1.
    10030    2    1    2    0    0  0.00000000000E+00  0.00000000000E+00  0.89142956232E+03  0.20113691589E+04  0.18030416603E+04 0.  0.
        1    1    3    3  502    0  0.15092442270E+03  0.44582886604E+03 -0.41201915725E+03  0.62554084209E+03  0.50400001928E-02 0. -1.
       -1    1    3    3    0  502 -0.15092442270E+03 -0.44582886604E+03  0.13034487196E+04  0.13858283168E+04  0.50400001928E-02 0.  1.
</event>
<event>
 5   0  0.8430513E-05  0.1788843E+04  0.7818609E-02  0.8712255E-01
       -1   -1    0    0    0  501  0.00000000000E+00  0.00000000000E+00  0.45557613725E+03  0.45557613728E+03  0.50400001928E-02 0.  1.
        1   -1    0    0  501    0  0.00000000000E+00  0.00000000000E+00 -0.17559951154E+04  0.17559951155E+04  0.50400001928E-02 0. -1.
    10030    2    1    2    0    0  0.00000000000E+00  0.00000000000E+00 -0.13004189782E+04  0.22115712527E+04  0.17888426110E+04 0.  0.
        5    1    3    3  502    0  0.43827872347E+03  0.44814949994E+03 -0.14389751089E+04  0.15695851897E+04  0.46999998093E+01 0. -1.
       -5    1    3    3    0  502 -0.43827872347E+03 -0.44814949994E+03  0.13855613071E+03  0.64198606301E+03  0.46999998093E+01 0.  1.
</event>
<event>
 5   0  0.1573981E-04  0.1803098E+04  0.7818609E-02  0.8704654E-01
        2   -1    0    0  501    0  0.00000000000E+00  0.00000000000E+00  0.16783895115E+04  0.16783895115E+04  0.25500000920E-02 0. -1.
       -2   -1    0    0    0  501  0.00000000000E+00  0.00000000000E+00 -0.48426812690E+03  0.48426812690E+03  0.25500000920E-02 0.  1.
    10030    2    1    2    0    0  0.00000000000E+00  0.00000000000E+00  0.11941213846E+04  0.21626576384E+04  0.18030979396E+04 0.  0.
        1    1    3    3  502    0 -0.63980408972E+03  0.46342981428E+03  0.11180449200E+04  0.13689926622E+04  0.50400001928E-02 0. -1.
       -1    1    3    3    0  502  0.63980408972E+03 -0.46342981428E+03  0.76076464621E+02  0.79366497622E+03  0.50400001928E-02 0.  1.
</event>
<event>
 5   0  0.1549012E-04  0.1817125E+04  0.7818609E-02  0.8697246E-01
        2   -1    0    0  501    0  0.00000000000E+00  0.00000000000E+00  0.12045271420E+04  0.12045271420E+04  0.25500000920E-02 0. -1.
       -2   -1    0    0    0  501  0.00000000000E+00  0.00000000000E+00 -0.68531903507E+03  0.68531903507E+03  0.25500000920E-02 0.  1.
    10030    2    1    2    0    0  0.00000000000E+00  0.00000000000E+00  0.51920810695E+03  0.18898461771E+04  0.18171245182E+04 0.  0.
        4    1    3    3  502    0  0.55054384548E+03 -0.49797431422E+03  0.80440671494E+03  0.10945997987E+04  0.12699999809E+01 0. -1.
       -4    1    3    3    0  502 -0.55054384548E+03  0.49797431422E+03 -0.28519860799E+03  0.79524637837E+03  0.12699999809E+01 0.  1.
</event>
<event>
 5   0  0.8254914E-05  0.1828034E+04  0.7818609E-02  0.8691532E-01
       -1   -1    0    0    0  501  0.00000000000E+00  0.00000000000E+00  0.12046859096E+04  0.12046859096E+04  0.50400001928E-02 0. -1.
        1   -1    0    0  501    0  0.00000000000E+00  0.00000000000E+00 -0.69348086859E+03  0.69348086861E+03  0.50400001928E-02 0.  1.
    10030    2    1    2    0    0  0.00000000000E+00  0.00000000000E+00  0.51120504103E+03  0.18981667782E+04  0.18280335128E+04 0.  0.
        4    1    3    3  502    0  0.41478500510E+02 -0.57004795490E+02  0.12018576971E+04  0.12039242292E+04  0.12699999809E+01 0. -1.
       -4    1    3    3    0  502 -0.41478500510E+02  0.57004795490E+02 -0.69065265604E+03  0.69424254905E+03  0.12699999809E+01 0.  1.
</event>
<event>
 5   0  0.8430513E-05  0.1802073E+04  0.7818609E-02  0.8705198E-01
        1   -1    0    0  501    0  0.00000000000E+00  0.00000000000E+00  0.13352170096E+04  0.13352170096E+04  0.50400001928E-02 0. -1.
       -1   -1    0    0    0  501  0.00000000000E+00  0.00000000000E+00 -0.60804138425E+03  0.60804138427E+03  0.50400001928E-02 0.  1.
    10030    2    1    2    0    0  0.00000000000E+00  0.00000000000E+00  0.72717562533E+03  0.19432583939E+04  0.18020734711E+04 0.  0.
        5    1    3    3  502    0 -0.44383843503E+03 -0.70077954492E+03 -0.15770172642E+02  0.82967181182E+03  0.46999998093E+01 0.  1.
       -5    1    3    3    0  502  0.44383843503E+03  0.70077954492E+03  0.74294579797E+03  0.11135865820E+04  0.46999998093E+01 0. -1.
</event>
<event>
 5   0  0.1573981E-04  0.1810234E+04  0.7818609E-02  0.8700876E-01
        2   -1    0    0  501    0  0.00000000000E+00  0.00000000000E+00  0.21689429668E+04  0.21689429668E+04  0.25500000920E-02 0. -1.
       -2   -1    0    0    0  501  0.00000000000E+00  0.00000000000E+00 -0.37771236256E+03  0.37771236257E+03  0.25500000920E-02 0.  1.
    10030    2    1    2    0    0  0.00000000000E+00  0.00000000000E+00  0.17912306043E+04  0.25466553294E+04  0.18102337664E+04 0.  0.
        1    1    3    3  502    0  0.62382193105E+03  0.24361156264E+03  0.39035178662E+02  0.67083838613E+03  0.50400001928E-02 0.  1.
       -1    1    3    3    0  502 -0.62382193105E+03 -0.24361156264E+03  0.17521954256E+04  0.18758169433E+04  0.50400001928E-02 0. -1.
</event>
<event>
 5   0  0.8132598E-05  0.1759651E+04  0.7818609E-02  0.8728056E-01
        1   -1    0    0  501    0  0.00000000000E+00  0.00000000000E+00  0.93544177897E+03  0.93544177898E+03  0.50400001928E-02 0.  1.
       -1   -1    0    0    0  501  0.00000000000E+00  0.00000000000E+00 -0.82751548887E+03  0.82751548889E+03  0.50400001928E-02 0. -1.
    10030    2    1    2    0    0  0.00000000000E+00  0.00000000000E+00  0.10792629010E+03  0.17629572679E+04  0.17596506029E+04 0.  0.
        3    1    3    3  502    0  0.53171454176E+03 -0.49096080352E+03 -0.44730663200E+03  0.85079145373E+03  0.10100000352E+00 0. -1.
       -3    1    3    3    0  502 -0.53171454176E+03  0.49096080352E+03  0.55523292210E+03  0.91216581414E+03  0.10100000352E+00 0.  1.
</event>
<event>
 5   0  0.1608627E-04  0.1799670E+04  0.7818609E-02  0.8706475E-01
        2   -1    0    0  501    0  0.00000000000E+00  0.00000000000E+00  0.10403699518E+04  0.10403699518E+04  0.25500000920E-02 0.  1.
       -2   -1    0    0    0  501  0.00000000000E+00  0.00000000000E+00 -0.77828399084E+03  0.77828399084E+03  0.25500000920E-02 0. -1.
    10030    2    1    2    0    0  0.00000000000E+00  0.00000000000E+00  0.26208596094E+03  0.18186539426E+04  0.17996702787E+04 0.  0.
        2    1    3    3  502    0  0.71948800742E+03 -0.44853148093E+03 -0.17356620987E+03  0.86542978423E+03  0.25500000920E-02 0. -1.
       -2    1    3    3    0  502 -0.71948800742E+03  0.44853148093E+03  0.43565217082E+03  0.95322415840E+03  0.25500000920E-02 0.  1.
</event>
<event>
 5   0  0.1608627E-04  0.1805209E+04  0.7818609E-02  0.8703534E-01
       -2   -1    0    0    0  501  0.00000000000E+00  0.00000000000E+00  0.38388110946E+03  0.38388110947E+03  0.25500000920E-02 0. -1.
        2   -1    0    0  501    0  0.00000000000E+00  0.00000000000E+00 -0.21222582518E+04  0.21222582518E+04  0.25500000920E-02 0.  1.
    10030    2    1    2    0    0  0.00000000000E+00  0.00000000000E+00 -0.17383771423E+04  0.25061393612E+04  0.18052089655E+04 0.  0.
        2    1    3    3  502    0 -0.33496135358E+03 -0.22463445605E+02 -0.20323595298E+04  0.20599002338E+04  0.25500000920E-02 0.  1.
       -2    1    3    3    0  502  0.33496135358E+03  0.22463445605E+02  0.29398238744E+03  0.44623912750E+03  0.25500000920E-02 0. -1.
</event>
<event>
 5   0  0.1549012E-04  0.1803303E+04  0.7818609E-02  0.8704545E-01
       -2   -1    0    0    0  501  0.00000000000E+00  0.00000000000E+00  0.57452815788E+03  0.57452815789E+03  0.25500000920E-02 0. -1.
        2   -1    0    0  501    0  0.00000000000E+00  0.00000000000E+00 -0.14150317868E+04  0.14150317868E+04  0.25500000920E-02 0.  1.
    10030    2    1    2    0    0  0.00000000000E+00  0.00000000000E+00 -0.84050362891E+03  0.19895599447E+04  0.18033031978E+04 0.  0.
        4    1    3    3  502    0  0.57636233586E+03 -0.18351893920E+03 -0.11579712374E+04  0.13064347449E+04  0.12699999809E+01 0.  1.
       -4    1    3    3    0  502 -0.57636233586E+03  0.18351893920E+03  0.31746760845E+03  0.68312519977E+03  0.12699999809E+01 0. -1.
</event>
<event>
 5   0  0.1628397E-04  0.1800656E+04  0.7818609E-02  0.8705951E-01
       -2   -1    0    0    0  501  0.00000000000E+00  0.00000000000E+00  0.78463670683E+03  0.78463670684E+03  0.25500000920E-02 0.  1.
        2   -1    0    0  501    0  0.00000000000E+00  0.00000000000E+00 -0.10330769111E+04  0.10330769111E+04  0.25500000920E-02 0. -1.
    10030    2    1    2    0    0  0.00000000000E+00  0.00000000000E+00 -0.24844020428E+03  0.18177136180E+04  0.18006555089E+04 0.  0.
        3    1    3    3  502    0  0.34911798961E+03 -0.22012745523E+03  0.68351660546E+03  0.79845753009E+03  0.10100000352E+00 0.  1.
       -3    1    3    3    0  502 -0.34911798961E+03  0.22012745523E+03 -0.93195680975E+03  0.10192560879E+04  0.10100000352E+00 0. -1.
</event>
<event>
 5   0  0.1573981E-04  0.1793742E+04  0.7818609E-02  0.8709634E-01
        2   -1    0    0  501    0  0.00000000000E+00  0.00000000000E+00  0.10213012111E+04  0.10213012111E+04  0.25500000920E-02 0.  1.
       -2   -1    0    0    0  501  0.00000000000E+00  0.00000000000E+00 -0.78760102877E+03  0.78760102878E+03  0.25500000920E-02 0. -1.
    10030    2    1    2    0    0  0.00000000000E+00  0.00000000000E+00  0.23370018235E+03  0.18089022399E+04  0.17937423277E+04 0.  0.
        1    1    3    3  502    0  0.16512878463E+03 -0.18154491952E+03  0.98678310309E+03  0.10168416621E+04  0.50400001928E-02 0.  1.
       -1    1    3    3    0  502 -0.16512878463E+03  0.18154491952E+03 -0.75308292073E+03  0.79206057776E+03  0.50400001928E-02 0. -1.
</event>
<event>
 5   0  0.1603564E-04  0.1774143E+04  0.7818609E-02  0.8720172E-01
        2   -1    0    0  501    0  0.00000000000E+00  0.00000000000E+00  0.11326928208E+04  0.11326928208E+04  0.25500000920E-02 0. -1.
       -2   -1    0    0    0  501  0.00000000000E+00  0.00000000000E+00 -0.69471261812E+03  0.69471261813E+03  0.25500000920E-02 0.  1.
    10030    2    1    2    0    0  0.00000000000E+00  0.00000000000E+00  0.43798020266E+03  0.18274054389E+04  0.17741431679E+04 0.  0.
        5    1    3    3  502    0 -0.56559587969E+03  0.44179002553E+02 -0.48340854145E+03  0.74535655316E+03  0.46999998093E+01 0.  1.
       -5    1    3    3    0  502  0.56559587969E+03 -0.44179002553E+02  0.92138874411E+03  0.10820488858E+04  0.46999998093E+01 0. -1.
</event>
<event>
 5   0  0.8254914E-05  0.1803886E+04  0.7818609E-02  0.8704236E-01
        1   -1    0    0  501    0  0.00000000000E+00  0.00000000000E+00  0.70390955313E+03  0.70390955315E+03  0.50400001928E-02 0. -1.
       -1   -1    0    0    0  501  0.00000000000E+00  0.00000000000E+00 -0.11556893980E+04  0.11556893980E+04  0.50400001928E-02 0.  1.
    10030    2    1    2    0    0  0.00000000000E+00  0.00000000000E+00 -0.45177984491E+03  0.18595989512E+04  0.18038855925E+04 0.  0.
        4    1    3    3  502    0 -0.50221683840E+03  0.64662798399E+02 -0.99533103363E+03  0.11167311716E+04  0.12699999809E+01 0.  1.
       -4    1    3    3    0  502  0.50221683840E+03 -0.64662798399E+02  0.54355118872E+03  0.74286777957E+03  0.12699999809E+01 0. -1.
</event>
<event>
 5   0  0.8430513E-05  0.1760638E+04  0.7818609E-02  0.8727516E-01
        1   -1    0    0  501    0  0.00000000000E+00  0.00000000000E+00  0.56268438264E+03  0.56268438267E+03  0.50400001928E-02 0. -1.
       -1   -1    0    0    0  501  0.00000000000E+00  0.00000000000E+00 -0.13772581468E+04  0.13772581469E+04  0.50400001928E-02 0.  1.
    10030    2    1    2    0    0  0.00000000000E+00  0.00000000000E+00 -0.81457376420E+03  0.19399425295E+04  0.17606381231E+04 0.  0.
        5    1    3    3  502    0  0.39534711869E+03 -0.75510256850E+03 -0.16473093203E+03  0.86812303458E+03  0.46999998093E+01 0. -1.
       -5    1    3    3    0  502 -0.39534711869E+03  0.75510256850E+03 -0.64984283217E+03  0.10718194949E+04  0.46999998093E+01 0.  1.
</event>
<event>
 5   0  0.1549012E-04  0.1793319E+04  0.7818609E-02  0.8709860E-01
       -2   -1    0    0    0  501  0.00000000000E+00  0.00000000000E+00  0.36732031496E+03  0.36732031496E+03  0.25500000920E-02 0. -1.
        2   -1    0    0  501    0  0.00000000000E+00  0.00000000000E+00 -0.21888211313E+04  0.21888211313E+04  0.25500000920E-02 0.  1.
    10030    2    1    2    0    0  0.00000000000E+00  0.00000000000E+00 -0.18215008163E+04  0.25561414463E+04  0.17933192324E+04 0.  0.
        4    1    3    3  502    0 -0.64714846746E+03  0.26038294395E+03 -0.17137739924E+04  0.18503035768E+04  0.12699999809E+01 0. -1.
       -4    1    3    3    0  502  0.64714846746E+03 -0.26038294395E+03 -0.10772682392E+03  0.70583786943E+03  0.12699999809E+01 0.  1.
</event>
<event>
 5   0  0.1608627E-04  0.1801109E+04  0.7818609E-02  0.8705710E-01
       -2   -1    0    0    0  501  0.00000000000E+00  0.00000000000E+00  0.15020060163E+04  0.15020060163E+04  0.25500000920E-02 0.  1.
        2   -1    0    0  501    0  0.00000000000E+00  0.00000000000E+00 -0.53994340718E+03  0.53994340718E+03  0.25500000920E-02 0. -1.
    10030    2    1    2    0    0  0.00000000000E+00  0.00000000000E+00  0.96206260910E+03  0.20419494235E+04  0.18011088207E+04 0.  0.
        2    1    3    3  502    0 -0.88349266736E+03  0.67913562462E+02  0.29883502963E+03  0.93513310292E+03  0.25500000920E-02 0. -1.
       -2    1    3    3    0  502  0.88349266736E+03 -0.67913562462E+02  0.66322757947E+03  0.11068163205E+04  0.25500000920E-02 0.  1.
</event>
<event>
 5   0  0.8430513E-05  0.1797066E+04  0.7818609E-02  0.8707861E-01
       -1   -1    0    0    0  501  0.00000000000E+00  0.00000000000E+00  0.42554304175E+03  0.42554304178E+03  0.50400001928E-02 0. -1.
        1   -1    0    0  501    0  0.00000000000E+00  0.00000000000E+00 -0.18972494776E+04  0.18972494776E+04  0.50400001928E-02 0.  1.
    10030    2    1    2    0    0  0.00000000000E+00  0.00000000000E+00 -0.14717064358E+04  0.23227925194E+04  0.17970657347E+04 0.  0.
        5    1    3    3  502    0 -0.35229026337E+03  0.91569901027E+02 -0.17976678677E+04  0.18341552086E+04  0.46999998093E+01 0.  1.
       -5    1    3    3    0  502  0.35229026337E+03 -0.91569901027E+02  0.32596143189E+03  0.48863731081E+03  0.46999998093E+01 0. -1.
</event>
<event>
 5   0  0.8254914E-05  0.1787673E+04  0.7818609E-02  0.8712882E-01
       -1   -1    0    0    0  501  0.00000000000E+00  0.00000000000E+00  0.62777988318E+03  0.62777988320E+03  0.50400001928E-02 0.  1.
        1   -1    0    0  501    0  0.00000000000E+00  0.00000000000E+00 -0.12726497786E+04  0.12726497787E+04  0.50400001928E-02 0. -1.
    10030    2    1    2    0    0  0.00000000000E+00  0.00000000000E+00 -0.64486989547E+03  0.19004296619E+04  0.17876732692E+04 0.  0.
        4    1    3    3  502    0 -0.24586623096E+03  0.58951329995E+03  0.34227664136E+03  0.72465926232E+03  0.12699999809E+01 0.  1.
       -4    1    3    3    0  502  0.24586623096E+03 -0.58951329995E+03 -0.98714653683E+03  0.11757703995E+04  0.12699999809E+01 0. -1.
</event>
<event>
 5   0  0.1603564E-04  0.1799724E+04  0.7818609E-02  0.8706446E-01
        2   -1    0    0  501    0  0.00000000000E+00  0.00000000000E+00  0.18379249498E+04  0.18379249498E+04  0.25500000920E-02 0. -1.
       -2   -1    0    0    0  501  0.00000000000E+00  0.00000000000E+00 -0.44057908509E+03  0.44057908509E+03  0.25500000920E-02 0.  1.
    10030    2    1    2    0    0  0.00000000000E+00  0.00000000000E+00  0.13973458647E+04  0.22785040349E+04  0.17997236375E+04 0.  0.
        5    1    3    3  502    0 -0.58333590521E+03  0.57839814401E+03  0.23366922719E+03  0.85407762472E+03  0.46999998093E+01 0.  1.
       -5    1    3    3    0  502  0.58333590521E+03 -0.57839814401E+03  0.11636766375E+04  0.14244264102E+04  0.46999998093E+01 0. -1.
</event>
<event>
 5   0  0.8492114E-05  0.1823490E+04  0.7818609E-02  0.8693907E-01
        1   -1    0    0  501    0  0.00000000000E+00  0.00000000000E+00  0.66595359842E+03  0.66595359844E+03  0.50400001928E-02 0. -1.
       -1   -1    0    0    0  501  0.00000000000E+00  0.00000000000E+00 -0.12482537033E+04  0.12482537033E+04  0.50400001928E-02 0.  1.
    10030    2    1    2    0    0  0.00000000000E+00  0.00000000000E+00 -0.58230010484E+03  0.19142073017E+04  0.18234901101E+04 0.  0.
        2    1    3    3  502    0  0.27374191359E+03 -0.67150519682E+02 -0.12013711319E+04  0.12339920681E+04  0.25500000920E-02 0.  1.
       -2    1    3    3    0  502 -0.27374191359E+03  0.67150519682E+02  0.61907102704E+03  0.68021523364E+03  0.25500000920E-02 0. -1.
</event>
<event>
 5   0  0.8132598E-05  0.1787063E+04  0.7818609E-02  0.8713210E-01
       -1   -1    0    0    0  501  0.00000000000E+00  0.00000000000E+00  0.57300748305E+03  0.57300748307E+03  0.50400001928E-02 0.  1.
        1   -1    0    0  501    0  0.00000000000E+00  0.00000000000E+00 -0.13933467466E+04  0.13933467466E+04  0.50400001928E-02 0. -1.
    10030    2    1    2    0    0  0.00000000000E+00  0.00000000000E+00 -0.82033926358E+03  0.19663542297E+04  0.17870625197E+04 0.  0.
        3    1    3    3  502    0  0.50470498079E+03  0.18797303120E+03 -0.11946786207E+04  0.13104648011E+04  0.10100000352E+00 0. -1.
       -3    1    3    3    0  502 -0.50470498079E+03 -0.18797303120E+03  0.37433935707E+03  0.65588942860E+03  0.10100000352E+00 0.  1.
</event>
<event>
 5   0  0.8206783E-05  0.1794611E+04  0.7818609E-02  0.8709170E-01
       -1   -1    0    0    0  501  0.00000000000E+00  0.00000000000E+00  0.50354003320E+03  0.50354003323E+03  0.50400001928E-02 0.  1.
        1   -1    0    0  501    0  0.00000000000E+00  0.00000000000E+00 -0.15989936255E+04  0.15989936255E+04  0.50400001928E-02 0. -1.
    10030    2    1    2    0    0  0.00000000000E+00  0.00000000000E+00 -0.10954535923E+04  0.21025336587E+04  0.17946111593E+04 0.  0.
        1    1    3    3  502    0 -0.22550124179E+03 -0.35857930550E+03  0.37902870079E+03  0.56841242460E+03  0.50400001928E-02 0.  1.
       -1    1    3    3    0  502  0.22550124179E+03  0.35857930550E+03 -0.14744822931E+04  0.15341212341E+04  0.50400001928E-02 0. -1.
</event>
<event>
 5   0  0.1573981E-04  0.1778723E+04  0.7818609E-02  0.8717697E-01
       -2   -1    0    0    0  501  0.00000000000E+00  0.00000000000E+00  0.13075630481E+04  0.13075630481E+04  0.25500000920E-02 0.  1.
        2   -1    0    0  501    0  0.00000000000E+00  0.00000000000E+00 -0.60491471495E+03  0.60491471496E+03  0.25500000920E-02 0. -1.
    10030    2    1    2    0    0  0.00000000000E+00  0.00000000000E+00  0.70264833319E+03  0.19124777631E+04  0.17787232821E+04 0.  0.
        1    1    3    3  502    0  0.58718168495E+03  0.19579435000E+03 -0.33532722586E+03  0.70396172273E+03  0.50400001928E-02 0. -1.
       -1    1    3    3    0  502 -0.58718168495E+03 -0.19579435000E+03  0.10379755590E+04  0.12085160404E+04  0.50400001928E-02 0.  1.
</event>
<event>
 5   0  0.1628397E-04  0.1794097E+04  0.7818609E-02  0.8709445E-01
       -2   -1    0    0    0  501  0.00000000000E+00  0.00000000000E+00  0.28936713747E+03  0.28936713748E+03  0.25500000920E-02 0.  1.
        2   -1    0    0  501    0  0.00000000000E+00  0.00000000000E+00 -0.27808832738E+04  0.27808832738E+04  0.25500000920E-02 0. -1.
    10030    2    1    2    0    0  0.00000000000E+00  0.00000000000E+00 -0.24915161364E+04  0.30702504113E+04  0.17940972466E+04 0.  0.
        3    1    3    3  502    0 -0.13629357046E+02 -0.83843141659E+03 -0.70043572795E+03  0.10925947185E+04  0.10100000352E+00 0.  1.
       -3    1    3    3    0  502  0.13629357046E+02  0.83843141659E+03 -0.17910804084E+04  0.19776556928E+04  0.10100000352E+00 0. -1.
</event>
<event>
 5   0  0.1603564E-04  0.1808049E+04  0.7818609E-02  0.8702031E-01
        2   -1    0    0  501    0  0.00000000000E+00  0.00000000000E+00  0.76839518912E+03  0.76839518912E+03  0.25500000920E-02 0. -1.
       -2   -1    0    0    0  501  0.00000000000E+00  0.00000000000E+00 -0.10635941030E+04  0.10635941031E+04  0.25500000920E-02 0.  1.
    10030    2    1    2    0    0  0.00000000000E+00  0.00000000000E+00 -0.29519891393E+03  0.18319892922E+04  0.18080493267E+04 0.  0.
        5    1    3    3  502    0  0.68043283620E+03  0.58309057949E+03 -0.26857477639E+03  0.93548809130E+03  0.46999998093E+01 0. -1.
       -5    1    3    3    0  502 -0.68043283620E+03 -0.58309057949E+03 -0.26624137542E+02  0.89650120087E+03  0.46999998093E+01 0.  1.
</event>
<event>
 5   0  0.1549012E-04  0.1810961E+04  0.7818609E-02  0.8700492E-01
       -2   -1    0    0    0  501  0.00000000000E+00  0.00000000000E+00  0.91490979590E+03  0.91490979591E+03  0.25500000920E-02 0.  1.
        2   -1    0    0  501    0  0.00000000000E+00  0.00000000000E+00 -0.89614878914E+03  0.89614878915E+03  0.25500000920E-02 0. -1.
    10030    2    1    2    0    0  0.00000000000E+00  0.00000000000E+00  0.18761006761E+02  0.18110585851E+04  0.18109614085E+04 0.  0.
        4    1    3    3  502    0 -0.44301657672E+03 -0.44040797479E+03  0.66490848528E+03  0.91231999770E+03  0.12699999809E+01 0.  1.
       -4    1    3    3    0  502  0.44301657672E+03  0.44040797479E+03 -0.64614747851E+03  0.89873858735E+03  0.12699999809E+01 0. -1.
</event>
<event>
 5   0  0.1573981E-04  0.1802875E+04  0.7818609E-02  0.8704772E-01
       -2   -1    0    0    0  501  0.00000000000E+00  0.00000000000E+00  0.93149407427E+03  0.93149407427E+03  0.25500000920E-02 0.  1.
        2   -1    0    0  501    0  0.00000000000E+00  0.00000000000E+00 -0.87235102304E+03  0.87235102304E+03  0.25500000920E-02 0. -1.
    10030    2    1    2    0    0  0.00000000000E+00  0.00000000000E+00  0.59143051226E+02  0.18038450973E+04  0.18028752687E+04 0.  0.
        1    1    3    3  502    0 -0.82721287328E+03 -0.57014294632E+02 -0.32425417066E+03  0.89032159062E+03  0.50400001928E-02 0. -1.
       -1    1    3    3    0  502  0.82721287328E+03  0.57014294632E+02  0.38339722188E+03  0.91352350669E+03  0.50400001928E-02 0.  1.
</event>
<event>
 5   0  0.8492114E-05  0.1805454E+04  0.7818609E-02  0.8703404E-01
       -1   -1    0    0    0  501  0.00000000000E+00  0.00000000000E+00  0.62357715900E+03  0.62357715902E+03  0.50400001928E-02 0. -1.
        1   -1    0    0  501    0  0.00000000000E+00  0.00000000000E+00 -0.13068407199E+04  0.13068407199E+04  0.50400001928E-02 0.  1.
    10030    2    1    2    0    0  0.00000000000E+00  0.00000000000E+00 -0.68326356092E+03  0.19304178790E+04  0.18054539855E+04 0.  0.
        2    1    3    3  502    0  0.73098559530E+03 -0.25878466150E+03 -0.83579705307E+03  0.11401167289E+04  0.25500000920E-02 0.  1.
       -2    1    3    3    0  502 -0.73098559530E+03  0.25878466150E+03  0.15253349214E+03  0.79030115007E+03  0.25500000920E-02 0. -1.
</event>
<event>
 5   0  0.8132598E-05  0.1938399E+04  0.7818609E-02  0.8635975E-01
       -1   -1    0    0    0  501  0.00000000000E+00  0.00000000000E+00  0.83920317299E+03  0.83920317300E+03  0.50400001928E-02 0.  1.
        1   -1    0    0  501    0  0.00000000000E+00  0.00000000000E+00 -0.11193330667E+04  0.11193330667E+04  0.50400001928E-02 0. -1.
    10030    2    1    2    0    0  0.00000000000E+00  0.00000000000E+00 -0.28012989370E+03  0.19585362397E+04  0.19383991965E+04 0.  0.
        3    1    3    3  502    0  0.94310619970E+03  0.21790507217E+03 -0.90402254265E+02  0.97216485339E+03  0.10100000352E+00 0.  1.
       -3    1    3    3    0  502 -0.94310619970E+03 -0.21790507217E+03 -0.18972763944E+03  0.98637138632E+03  0.10100000352E+00 0. -1.
</event>
<event>
 5   0  0.1628397E-04  0.1805999E+04  0.7818609E-02  0.8703116E-01
       -2   -1    0    0    0  501  0.00000000000E+00  0.00000000000E+00  0.12092493494E+04  0.12092493494E+04  0.25500000920E-02 0.  1.
        2   -1    0    0  501    0  0.00000000000E+00  0.00000000000E+00 -0.67430947546E+03  0.67430947547E+03  0.25500000920E-02 0. -1.
    10030    2    1    2    0    0  0.00000000000E+00  0.00000000000E+00  0.53493987396E+03  0.18835588249E+04  0.18059992187E+04 0.  0.
        3    1    3    3  502    0  0.16457184065E+03 -0.32925094776E+03 -0.59251325942E+03  0.69753999894E+03  0.10100000352E+00 0. -1.
       -3    1    3    3    0  502 -0.16457184065E+03  0.32925094776E+03  0.11274531334E+04  0.11860188260E+04  0.10100000352E+00 0.  1.
</event>
<event>
 5   0  0.1628397E-04  0.1788794E+04  0.7818609E-02  0.8712281E-01
       -2   -1    0    0    0  501  0.00000000000E+00  0.00000000000E+00  0.10514564664E+04  0.10514564664E+04  0.25500000920E-02 0.  1.
        2   -1    0    0  501    0  0.00000000000E+00  0.00000000000E+00 -0.76079842727E+03  0.76079842728E+03  0.25500000920E-02 0. -1.
    10030    2    1    2    0    0  0.00000000000E+00  0.00000000000E+00  0.29065803917E+03  0.18122548937E+04  0.17887944835E+04 0.  0.
        3    1    3    3  502    0  0.71741080786E+03 -0.53385856395E+03  0.12889335903E+03  0.90349141763E+03  0.10100000352E+00 0.  1.
       -3    1    3    3    0  502 -0.71741080786E+03  0.53385856395E+03  0.16176468014E+03  0.90876347609E+03  0.10100000352E+00 0. -1.
</event>
<event>
 5   0  0.8492114E-05  0.1811223E+04  0.7818609E-02  0.8700354E-01
       -1   -1    0    0    0  501  0.00000000000E+00  0.00000000000E+00  0.94742117058E+03  0.94742117060E+03  0.50400001928E-02 0.  1.
        1   -1    0    0  501    0  0.00000000000E+00  0.00000000000E+00 -0.86564672047E+03  0.86564672049E+03  0.50400001928E-02 0. -1.
    10030    2    1    2    0    0  0.00000000000E+00  0.00000000000E+00  0.81774450111E+02  0.18130678911E+04  0.18112228237E+04 0.  0.
        2    1    3    3  502    0  0.37499696248E+03 -0.82231479626E+03 -0.16683823544E+02  0.90393732968E+03  0.25500000920E-02 0. -1.
       -2    1    3    3    0  502 -0.37499696248E+03  0.82231479626E+03  0.98458273655E+02  0.90913056140E+03  0.25500000920E-02 0.  1.
</event>
<event>
 5   0  0.8206783E-05  0.1812667E+04  0.7818609E-02  0.8699592E-01
        1   -1    0    0  501    0  0.00000000000E+00  0.00000000000E+00  0.57373009920E+03  0.57373009922E+03  0.50400001928E-02 0. -1.
       -1   -1    0    0    0  501  0.00000000000E+00  0.00000000000E+00 -0.14317537962E+04  0.14317537962E+04  0.50400001928E-02 0.  1.
    10030    2    1    2    0    0  0.00000000000E+00  0.00000000000E+00 -0.85802369695E+03  0.20054838954E+04  0.18126668172E+04 0.  0.
        1    1    3    3  502    0  0.35783804348E+02 -0.34622225394E+03 -0.13548607830E+04  0.13988559865E+04  0.50400001928E-02 0.  1.
       -1    1    3    3    0  502 -0.35783804348E+02  0.34622225394E+03  0.49683708600E+03  0.60662790888E+03  0.50400001928E-02 0. -1.
</event>
<event>
 5   0  0.1603564E-04  0.1801058E+04  0.7818609E-02  0.8705737E-01
       -2   -1    0    0    0  501  0.00000000000E+00  0.00000000000E+00  0.12685863703E+04  0.12685863703E+04  0.25500000920E-02 0.  1.
        2   -1    0    0  501    0  0.00000000000E+00  0.00000000000E+00 -0.63925707531E+03  0.63925707532E+03  0.25500000920E-02 0. -1.
    10030    2    1    2    0    0  0.00000000000E+00  0.00000000000E+00  0.62932929497E+03  0.19078434456E+04  0.18010583698E+04 0.  0.
        5    1    3    3  502    0  0.20279654675E+03 -0.87154203298E+03  0.20758320297E+03  0.91859938536E+03  0.46999998093E+01 0.  1.
       -5    1    3    3    0  502 -0.20279654675E+03  0.87154203298E+03  0.42174609200E+03  0.98924406025E+03  0.46999998093E+01 0. -1.
</event>
<event>
 5   0  0.8254914E-05  0.1793561E+04  0.7818609E-02  0.8709731E-01
       -1   -1    0    0    0  501  0.00000000000E+00  0.00000000000E+00  0.42734581456E+03  0.42734581459E+03  0.50400001928E-02 0.  1.
        1   -1    0    0  501    0  0.00000000000E+00  0.00000000000E+00 -0.18818842426E+04  0.18818842426E+04  0.50400001928E-02 0. -1.
    10030    2    1    2    0    0  0.00000000000E+00  0.00000000000E+00 -0.14545384281E+04  0.23092300572E+04  0.17935610997E+04 0.  0.
        4    1    3    3  502    0  0.74282835089E+03 -0.50233731178E+03 -0.71597076058E+03  0.11474983558E+04  0.12699999809E+01 0.  1.
       -4    1    3    3    0  502 -0.74282835089E+03  0.50233731178E+03 -0.73856766748E+03  0.11617317014E+04  0.12699999809E+01 0. -1.
</event>
<event>
 5   0  0.8206783E-05  0.1784082E+04  0.7818609E-02  0.8714810E-01
        1   -1    0    0  501    0  0.00000000000E+00  0.00000000000E+00  0.59942461134E+03  0.59942461136E+03  0.50400001928E-02 0. -1.
       -1   -1    0    0    0  501  0.00000000000E+00  0.00000000000E+00 -0.13275023502E+04  0.13275023502E+04  0.50400001928E-02 0.  1.
    10030    2    1    2    0    0  0.00000000000E+00  0.00000000000E+00 -0.72807773883E+03  0.19269269615E+04  0.17840824873E+04 0.  0.
        1    1    3    3  502    0 -0.35634940072E+03  0.76333566038E+03 -0.68090778824E+03  0.10831904920E+04  0.50400001928E-02 0.  1.
       -1    1    3    3    0  502  0.35634940072E+03 -0.76333566038E+03 -0.47169950583E+02  0.84373646956E+03  0.50400001928E-02 0. -1.
</event>
<event>
 5   0  0.1549012E-04  0.1795863E+04  0.7818609E-02  0.8708503E-01
        2   -1    0    0  501    0  0.00000000000E+00  0.00000000000E+00  0.19533629507E+04  0.19533629507E+04  0.25500000920E-02 0.  1.
       -2   -1    0    0    0  501  0.00000000000E+00  0.00000000000E+00 -0.41276537669E+03  0.41276537670E+03  0.25500000920E-02 0. -1.
    10030    2    1    2    0    0  0.00000000000E+00  0.00000000000E+00  0.15405975740E+04  0.23661283274E+04  0.17958625718E+04 0.  0.
        4    1    3    3  502    0  0.19175548353E+03 -0.56886094950E+03  0.16501046896E+04  0.17559100332E+04  0.12699999809E+01 0.  1.
       -4    1    3    3    0  502 -0.19175548353E+03  0.56886094950E+03 -0.10950711554E+03  0.61021829420E+03  0.12699999809E+01 0. -1.
</event>
<event>
 5   0  0.8132598E-05  0.1808412E+04  0.7818609E-02  0.8701839E-01
       -1   -1    0    0    0  501  0.00000000000E+00  0.00000000000E+00  0.94577478140E+03  0.94577478142E+03  0.50400001928E-02 0. -1.
        1   -1    0    0  501    0  0.00000000000E+00  0.00000000000E+00 -0.86446458710E+03  0.86446458712E+03  0.50400001928E-02 0.  1.
    10030    2    1    2    0    0  0.00000000000E+00  0.00000000000E+00  0.81310194300E+02  0.18102393685E+04  0.18084123489E+04 0.  0.
        3    1    3    3  502    0 -0.37025156325E+03 -0.72692998404E+03  0.43101750492E+03  0.92265352193E+03  0.10100000352E+00 0. -1.
       -3    1    3    3    0  502  0.37025156325E+03  0.72692998404E+03 -0.34970731062E+03  0.88758584660E+03  0.10100000352E+00 0.  1.
</event>
<event>
 5   0  0.8132598E-05  0.1800596E+04  0.7818609E-02  0.8705983E-01
       -1   -1    0    0    0  501  0.00000000000E+00  0.00000000000E+00  0.68191187439E+03  0.68191187441E+03  0.50400001928E-02 0.  1.
        1   -1    0    0  501    0  0.00000000000E+00  0.00000000000E+00 -0.11886230865E+04  0.11886230865E+04  0.50400001928E-02 0. -1.
    10030    2    1    2    0    0  0.00000000000E+00  0.00000000000E+00 -0.50671121210E+03  0.18705349609E+04  0.18005956758E+04 0.  0.
        3    1    3    3  502    0  0.23947425698E+03  0.40585687722E+03 -0.10502691780E+04  0.11511442486E+04  0.10100000352E+00 0. -1.
       -3    1    3    3    0  502 -0.23947425698E+03 -0.40585687722E+03  0.54355796589E+03  0.71939071236E+03  0.10100000352E+00 0.  1.
</event>
<event>
 5   0  0.8206783E-05  0.1798864E+04  0.7818609E-02  0.8706904E-01
        1   -1    0    0  501    0  0.00000000000E+00  0.00000000000E+00  0.16104056067E+04  0.16104056067E+04  0.50400001928E-02 0.  1.
       -1   -1    0    0    0  501  0.00000000000E+00  0.00000000000E+00 -0.50234434596E+03  0.50234434599E+03  0.50400001928E-02 0. -1.
    10030    2    1    2    0    0  0.00000000000E+00  0.00000000000E+00  0.11080612608E+04  0.21127499527E+04  0.17988642542E+04 0.  0.
        1    1    3    3  502    0  0.60253478702E+02  0.40577175680E+03  0.14941349266E+04  0.15494258224E+04  0.50400001928E-02 0.  1.
       -1    1    3    3    0  502 -0.60253478702E+02 -0.40577175680E+03 -0.38607366583E+03  0.56332413030E+03  0.50400001928E-02 0. -1.
</event>
<event>
 5   0  0.8430513E-05  0.1774045E+04  0.7818609E-02  0.8720225E-01
        1   -1    0    0  501    0  0.00000000000E+00  0.00000000000E+00  0.16706379817E+04  0.16706379817E+04  0.50400001928E-02 0. -1.
       -1   -1    0    0    0  501  0.00000000000E+00  0.00000000000E+00 -0.47096321025E+03  0.47096321027E+03  0.50400001928E-02 0.  1.
    10030    2    1    2    0    0  0.00000000000E+00  0.00000000000E+00  0.11996747714E+04  0.21416011919E+04  0.17740451257E+04 0.  0.
        5    1    3    3  502    0 -0.40579547564E+03  0.31295108667E+03 -0.27416692551E+03  0.58120387450E+03  0.46999998093E+01 0.  1.
       -5    1    3    3    0  502  0.40579547564E+03 -0.31295108667E+03  0.14738416969E+04  0.15603973174E+04  0.46999998093E+01 0. -1.
</event>
<event>
 5   0  0.8430513E-05  0.1794421E+04  0.7818609E-02  0.8709272E-01
       -1   -1    0    0    0  501  0.00000000000E+00  0.00000000000E+00  0.10523098595E+04  0.10523098595E+04  0.50400001928E-02 0. -1.
        1   -1    0    0  501    0  0.00000000000E+00  0.00000000000E+00 -0.76497077102E+03  0.76497077104E+03  0.50400001928E-02 0.  1.
    10030    2    1    2    0    0  0.00000000000E+00  0.00000000000E+00  0.28733908852E+03  0.18172806306E+04  0.17944205579E+04 0.  0.
        5    1    3    3  502    0 -0.51547176007E+03  0.45657232563E+03  0.72614426160E+03  0.10007382288E+04  0.46999998093E+01 0.  1.
       -5    1    3    3    0  502  0.51547176007E+03 -0.45657232563E+03 -0.43880517308E+03  0.81654240177E+03  0.46999998093E+01 0. -1.
</event>
<event>
 5   0  0.8492114E-05  0.1791289E+04  0.7818609E-02  0.8710945E-01
       -1   -1    0    0    0  501  0.00000000000E+00  0.00000000000E+00  0.67846536585E+03  0.67846536587E+03  0.50400001928E-02 0.  1.
        1   -1    0    0  501    0  0.00000000000E+00  0.00000000000E+00 -0.11823439790E+04  0.11823439790E+04  0.50400001928E-02 0. -1.
    10030    2    1    2    0    0  0.00000000000E+00  0.00000000000E+00 -0.50387861315E+03  0.18608093449E+04  0.17912894130E+04 0.  0.
        2    1    3    3  502    0  0.49093940123E+02 -0.65935573126E+03 -0.87955529769E+03  0.11003534509E+04  0.25500000920E-02 0. -1.
       -2    1    3    3    0  502 -0.49093940123E+02  0.65935573126E+03  0.37567668454E+03  0.76045589393E+03  0.25500000920E-02 0.  1.
</event>
<event>
 5   0  0.8492114E-05  0.1804214E+04  0.7818609E-02  0.8704062E-01
       -1   -1    0    0    0  501  0.00000000000E+00  0.00000000000E+00  0.12796684389E+04  0.12796684389E+04  0.50400001928E-02 0.  1.
        1   -1    0    0  501    0  0.00000000000E+00  0.00000000000E+00 -0.63594373010E+03  0.63594373012E+03  0.50400001928E-02 0. -1.
    10030    2    1    2    0    0  0.00000000000E+00  0.00000000000E+00  0.64372470875E+03  0.19156121690E+04  0.18042140897E+04 0.  0.
        2    1    3    3  502    0  0.44633550936E+03 -0.15237064043E+03  0.11383456368E+04  0.12321781477E+04  0.25500000920E-02 0.  1.
       -2    1    3    3    0  502 -0.44633550936E+03  0.15237064043E+03 -0.49462092801E+03  0.68343402126E+03  0.25500000920E-02 0. -1.
</event>
<event>
 5   0  0.8492114E-05  0.1799359E+04  0.7818609E-02  0.8706641E-01
        1   -1    0    0  501    0  0.00000000000E+00  0.00000000000E+00  0.97625018606E+03  0.97625018607E+03  0.50400001928E-02 0.  1.
       -1   -1    0    0    0  501  0.00000000000E+00  0.00000000000E+00 -0.82911418563E+03  0.82911418565E+03  0.50400001928E-02 0. -1.
    10030    2    1    2    0    0  0.00000000000E+00  0.00000000000E+00  0.14713600042E+03  0.18053643717E+04  0.17993586391E+04 0.  0.
        2    1    3    3  502    0  0.23644398923E+03  0.85797885017E+03  0.20587705462E+03  0.91346528615E+03  0.25500000920E-02 0.  1.
       -2    1    3    3    0  502 -0.23644398923E+03 -0.85797885017E+03 -0.58741054196E+02  0.89189908556E+03  0.25500000920E-02 0. -1.
</event>
<event>
 5   0  0.1603564E-04  0.1794689E+04  0.7818609E-02  0.8709129E-01
       -2   -1    0    0    0  501  0.00000000000E+00  0.00000000000E+00  0.41632071092E+03  0.41632071092E+03  0.25500000920E-02 0. -1.
        2   -1    0    0  501    0  0.00000000000E+00  0.00000000000E+00 -0.19341513680E+04  0.19341513680E+04  0.25500000920E-02 0.  1.
    10030    2    1    2    0    0  0.00000000000E+00  0.00000000000E+00 -0.15178306571E+04  0.23504720790E+04  0.17946891347E+04 0.  0.
        5    1    3    3  502    0  0.24249178705E+03  0.61921543667E+03 -0.15479649486E+04  0.16847693005E+04  0.46999998093E+01 0.  1.
       -5    1    3    3    0  502 -0.24249178705E+03 -0.61921543667E+03  0.30134291429E+02  0.66570277851E+03  0.46999998093E+01 0. -1.
</event>
<event>
 5   0  0.8206783E-05  0.1781105E+04  0.7818609E-02  0.8716413E-01
       -1   -1    0    0    0  501  0.00000000000E+00  0.00000000000E+00  0.91779185576E+03  0.91779185577E+03  0.50400001928E-02 0. -1.
        1   -1    0    0  501    0  0.00000000000E+00  0.00000000000E+00 -0.86412175053E+03  0.86412175054E+03  0.50400001928E-02 0.  1.
    10030    2    1    2    0    0  0.00000000000E+00  0.00000000000E+00  0.53670105229E+02  0.17819136063E+04  0.17811051682E+04 0.  0.
        1    1    3    3  502    0  0.25221535564E+03 -0.77596198647E+03 -0.33019429161E+03  0.88020330624E+03  0.50400001928E-02 0.  1.
       -1    1    3    3    0  502 -0.25221535564E+03  0.77596198647E+03  0.38386439684E+03  0.90171030007E+03  0.50400001928E-02 0. -1.
</event>
<event>
 5   0  0.5820500E-05  0.1798224E+04  0.7818609E-02  0.8707244E-01
        3   -1    0    0  501    0  0.00000000000E+00  0.00000000000E+00  0.12918612876E+04  0.12918612916E+04  0.10100000352E+00 0.  1.
       -3   -1    0    0    0  501  0.00000000000E+00  0.00000000000E+00 -0.62576580060E+03  0.62576580875E+03  0.10100000352E+00 0. -1.
    10030    2    1    2    0    0  0.00000000000E+00  0.00000000000E+00  0.66609548702E+03  0.19176271003E+04  0.17982242624E+04 0.  0.
        5    1    3    3  502    0 -0.66413104880E+03 -0.20078151625E+03  0.94285468991E+03  0.11706324460E+04  0.46999998093E+01 0.  1.
       -5    1    3    3    0  502  0.66413104880E+03  0.20078151625E+03 -0.27675920289E+03  0.74699465435E+03  0.46999998093E+01 0. -1.
</event>
<event>
 5   0  0.1628397E-04  0.1803284E+04  0.7818609E-02  0.8704555E-01
        2   -1    0    0  501    0  0.00000000000E+00  0.00000000000E+00  0.93031015594E+03  0.93031015595E+03  0.25500000920E-02 0.  1.
       -2   -1    0    0    0  501  0.00000000000E+00  0.00000000000E+00 -0.87385727385E+03  0.87385727385E+03  0.25500000920E-02 0. -1.
    10030    2    1    2    0    0  0.00000000000E+00  0.00000000000E+00  0.56452882097E+02  0.18041674298E+04  0.18032840006E+04 0.  0.
        3    1    3    3  502    0  0.41300715874E+03  0.61601967521E+03  0.54121843786E+03  0.91813537188E+03  0.10100000352E+00 0.  1.
       -3    1    3    3    0  502 -0.41300715874E+03 -0.61601967521E+03 -0.48476555576E+03  0.88603205792E+03  0.10100000352E+00 0. -1.
</event>
<event>
 5   0  0.8254914E-05  0.1816778E+04  0.7818609E-02  0.8697427E-01
        1   -1    0    0  501    0  0.00000000000E+00  0.00000000000E+00  0.11572842708E+04  0.11572842708E+04  0.50400001928E-02 0.  1.
       -1   -1    0    0    0  501  0.00000000000E+00  0.00000000000E+00 -0.71302359986E+03  0.71302359988E+03  0.50400001928E-02 0. -1.
    10030    2    1    2    0    0  0.00000000000E+00  0.00000000000E+00  0.44426067092E+03  0.18703078707E+04  0.18167784640E+04 0.  0.
        4    1    3    3  502    0 -0.10119246883E+03  0.83458554536E+02  0.11474827674E+04  0.11549560859E+04  0.12699999809E+01 0.  1.
       -4    1    3    3    0  502  0.10119246883E+03 -0.83458554536E+02 -0.70322209647E+03  0.71535178474E+03  0.12699999809E+01 0. -1.
</event>
<event>
 5   0  0.1549012E-04  0.1653522E+04  0.7818609E-02  0.8788326E-01
        2   -1    0    0  501    0  0.00000000000E+00  0.00000000000E+00  0.74026023948E+03  0.74026023948E+03  0.25500000920E-02 0.  1.
       -2   -1    0    0    0  501  0.00000000000E+00  0.00000000000E+00 -0.92336934023E+03  0.92336934023E+03  0.25500000920E-02 0. -1.
    10030    2    1    2    0    0  0.00000000000E+00  0.00000000000E+00 -0.18310910075E+03  0.16636295797E+04  0.16535218280E+04 0.  0.
        4    1    3    3  502    0 -0.17791231922E+03 -0.79795766666E+03  0.32253615918E+02  0.81818771669E+03  0.12699999809E+01 0. -1.
       -4    1    3    3    0  502  0.17791231922E+03  0.79795766666E+03 -0.21536271667E+03  0.84544186302E+03  0.12699999809E+01 0.  1.
</event>
<event>
 5   0  0.1573981E-04  0.1787870E+04  0.7818609E-02  0.8712777E-01
        2   -1    0    0  501    0  0.00000000000E+00  0.00000000000E+00  0.81110633603E+03  0.81110633603E+03  0.25500000920E-02 0.  1.
       -2   -1    0    0    0  501  0.00000000000E+00  0.00000000000E+00 -0.98522251427E+03  0.98522251428E+03  0.25500000920E-02 0. -1.
    10030    2    1    2    0    0  0.00000000000E+00  0.00000000000E+00 -0.17411617824E+03  0.17963288503E+04  0.17878704917E+04 0.  0.
        1    1    3    3  502    0  0.70102102247E+03  0.35822665841E+03  0.33845871516E+03  0.85691954968E+03  0.50400001928E-02 0.  1.
       -1    1    3    3    0  502 -0.70102102247E+03 -0.35822665841E+03 -0.51257489340E+03  0.93940930063E+03  0.50400001928E-02 0. -1.
</event>
<event>
 5   0  0.8132598E-05  0.1780919E+04  0.7818609E-02  0.8716513E-01
        1   -1    0    0  501    0  0.00000000000E+00  0.00000000000E+00  0.11011229804E+04  0.11011229804E+04  0.50400001928E-02 0. -1.
       -1   -1    0    0    0  501  0.00000000000E+00  0.00000000000E+00 -0.72009968745E+03  0.72009968747E+03  0.50400001928E-02 0.  1.
    10030    2    1    2    0    0  0.00000000000E+00  0.00000000000E+00  0.38102329299E+03  0.18212226679E+04  0.17809192167E+04 0.  0.
        3    1    3    3  502    0  0.11402936220E+03  0.68744607967E+03 -0.37641095992E+03  0.79200380608E+03  0.10100000352E+00 0.  1.
       -3    1    3    3    0  502 -0.11402936220E+03 -0.68744607967E+03  0.75743425291E+03  0.10292188618E+04  0.10100000352E+00 0. -1.
</event>
<event>
 5   0  0.1628397E-04  0.1782244E+04  0.7818609E-02  0.8715800E-01
        2   -1    0    0  501    0  0.00000000000E+00  0.00000000000E+00  0.11623173119E+04  0.11623173119E+04  0.25500000920E-02 0. -1.
       -2   -1    0    0    0  501  0.00000000000E+00  0.00000000000E+00 -0.68320243513E+03  0.68320243514E+03  0.25500000920E-02 0.  1.
    10030    2    1    2    0    0  0.00000000000E+00  0.00000000000E+00  0.47911487674E+03  0.18455197470E+04  0.17822435500E+04 0.  0.
        3    1    3    3  502    0  0.25126745333E+03 -0.25036598943E+03  0.10860647804E+04  0.11425214131E+04  0.10100000352E+00 0. -1.
       -3    1    3    3    0  502 -0.25126745333E+03  0.25036598943E+03 -0.60694990370E+03  0.70299833397E+03  0.10100000352E+00 0.  1.
</event>
<event>
 5   0  0.8254914E-05  0.1795253E+04  0.7818609E-02  0.8708828E-01
        1   -1    0    0  501    0  0.00000000000E+00  0.00000000000E+00  0.32429469775E+04  0.32429469775E+04  0.50400001928E-02 0. -1.
       -1   -1    0    0    0  501  0.00000000000E+00  0.00000000000E+00 -0.24845726457E+03  0.24845726462E+03  0.50400001928E-02 0.  1.
    10030    2    1    2    0    0  0.00000000000E+00  0.00000000000E+00  0.29944897129E+04  0.34914042421E+04  0.17952534476E+04 0.  0.
        4    1    3    3  502    0 -0.68466961225E+03  0.19961004890E+03  0.43716886105E+03  0.83650156935E+03  0.12699999809E+01 0.  1.
       -4    1    3    3    0  502  0.68466961225E+03 -0.19961004890E+03  0.25573208518E+04  0.26549026727E+04  0.12699999809E+01 0. -1.
</event>
<event>
 5   0  0.1608627E-04  0.1802747E+04  0.7818609E-02  0.8704840E-01
        2   -1    0    0  501    0  0.00000000000E+00  0.00000000000E+00  0.22864141628E+04  0.22864141629E+04  0.25500000920E-02 0. -1.
       -2   -1    0    0    0  501  0.00000000000E+00  0.00000000000E+00 -0.35534868270E+03  0.35534868271E+03  0.25500000920E-02 0.  1.
    10030    2    1    2    0    0  0.00000000000E+00  0.00000000000E+00  0.19310654801E+04  0.26417628456E+04  0.18027470825E+04 0.  0.
        2    1    3    3  502    0 -0.60059401671E+03 -0.65449638220E+03  0.11896760990E+04  0.14847248593E+04  0.25500000920E-02 0. -1.
       -2    1    3    3    0  502  0.60059401671E+03  0.65449638220E+03  0.74138938119E+03  0.11570379863E+04  0.25500000920E-02 0.  1.
</event>
<event>
 5   0  0.8254914E-05  0.1790817E+04  0.7818609E-02  0.8711198E-01
        1   -1    0    0  501    0  0.00000000000E+00  0.00000000000E+00  0.48195316492E+03  0.48195316495E+03  0.50400001928E-02 0. -1.
       -1   -1    0    0    0  501  0.00000000000E+00  0.00000000000E+00 -0.16635570072E+04  0.16635570072E+04  0.50400001928E-02 0.  1.
    10030    2    1    2    0    0  0.00000000000E+00  0.00000000000E+00 -0.11816038423E+04  0.21455101721E+04  0.17908172042E+04 0.  0.
        4    1    3    3  502    0  0.53696279846E+03  0.70957635518E+03 -0.71017184458E+03  0.11384960749E+04  0.12699999809E+01 0.  1.
       -4    1    3    3    0  502 -0.53696279846E+03 -0.70957635518E+03 -0.47143199767E+03  0.10070140973E+04  0.12699999809E+01 0. -1.
</event>
<event>
 5   0  0.8254914E-05  0.1811340E+04  0.7818609E-02  0.8700292E-01
       -1   -1    0    0    0  501  0.00000000000E+00  0.00000000000E+00  0.13079398878E+04  0.13079398879E+04  0.50400001928E-02 0. -1.
        1   -1    0    0  501    0  0.00000000000E+00  0.00000000000E+00 -0.62712212751E+03  0.62712212753E+03  0.50400001928E-02 0.  1.
    10030    2    1    2    0    0  0.00000000000E+00  0.00000000000E+00  0.68081776033E+03  0.19350620154E+04  0.18113398854E+04 0.  0.
        4    1    3    3  502    0 -0.49108777330E+03  0.27803474488E+03 -0.41632907030E+03  0.70128598169E+03  0.12699999809E+01 0.  1.
       -4    1    3    3    0  502  0.49108777330E+03 -0.27803474488E+03  0.10971468306E+04  0.12337760337E+04  0.12699999809E+01 0. -1.
</event>
<event>
 5   0  0.8492114E-05  0.1787219E+04  0.7818609E-02  0.8713126E-01
       -1   -1    0    0    0  501  0.00000000000E+00  0.00000000000E+00  0.40683365170E+03  0.40683365173E+03  0.50400001928E-02 0. -1.
        1   -1    0    0  501    0  0.00000000000E+00  0.00000000000E+00 -0.19628112932E+04  0.19628112932E+04  0.50400001928E-02 0.  1.
    10030    2    1    2    0    0  0.00000000000E+00  0.00000000000E+00 -0.15559776415E+04  0.23696449449E+04  0.17872187175E+04 0.  0.
        2    1    3    3  502    0 -0.13199976857E+02  0.67215585496E+03 -0.15585393602E+04  0.16973546094E+04  0.25500000920E-02 0.  1.
       -2    1    3    3    0  502  0.13199976857E+02 -0.67215585496E+03  0.25617187826E+01  0.67229033546E+03  0.25500000920E-02 0. -1.
</event>
<event>
 5   0  0.1608627E-04  0.1809711E+04  0.7818609E-02  0.8701152E-01
       -2   -1    0    0    0  501  0.00000000000E+00  0.00000000000E+00  0.42248625756E+03  0.42248625757E+03  0.25500000920E-02 0.  1.
        2   -1    0    0  501    0  0.00000000000E+00  0.00000000000E+00 -0.19379656015E+04  0.19379656015E+04  0.25500000920E-02 0. -1.
    10030    2    1    2    0    0  0.00000000000E+00  0.00000000000E+00 -0.15154793439E+04  0.23604518591E+04  0.18097113961E+04 0.  0.
        2    1    3    3  502    0 -0.27139596183E+03 -0.62980797640E+02 -0.18806275359E+04  0.19011528812E+04  0.25500000920E-02 0. -1.
       -2    1    3    3    0  502  0.27139596183E+03  0.62980797640E+02  0.36514819195E+03  0.45929897786E+03  0.25500000920E-02 0.  1.
</event>
<event>
 5   0  0.1573981E-04  0.1827208E+04  0.7818609E-02  0.8691963E-01
       -2   -1    0    0    0  501  0.00000000000E+00  0.00000000000E+00  0.98073036316E+03  0.98073036317E+03  0.25500000920E-02 0. -1.
        2   -1    0    0  501    0  0.00000000000E+00  0.00000000000E+00 -0.85107199466E+03  0.85107199466E+03  0.25500000920E-02 0.  1.
    10030    2    1    2    0    0  0.00000000000E+00  0.00000000000E+00  0.12965836851E+03  0.18318023578E+04  0.18272078660E+04 0.  0.
        1    1    3    3  502    0 -0.60788630211E+02 -0.33876557732E+03 -0.78359354492E+03  0.85584824449E+03  0.50400001928E-02 0.  1.
       -1    1    3    3    0  502  0.60788630211E+02  0.33876557732E+03  0.91325191342E+03  0.97595411333E+03  0.50400001928E-02 0. -1.
</event>
<event>
 5   0  0.1603564E-04  0.1787144E+04  0.7818609E-02  0.8713166E-01
       -2   -1    0    0    0  501  0.00000000000E+00  0.00000000000E+00  0.55707906845E+03  0.55707906846E+03  0.25500000920E-02 0. -1.
        2   -1    0    0  501    0  0.00000000000E+00  0.00000000000E+00 -0.14333168091E+04  0.14333168091E+04  0.25500000920E-02 0.  1.
    10030    2    1    2    0    0  0.00000000000E+00  0.00000000000E+00 -0.87623774063E+03  0.19903958775E+04  0.17871438586E+04 0.  0.
        5    1    3    3  502    0  0.87226287686E+03  0.14588133839E+03 -0.58041858824E+03  0.10578429556E+04  0.46999998093E+01 0.  1.
       -5    1    3    3    0  502 -0.87226287686E+03 -0.14588133839E+03 -0.29581915239E+03  0.93255292190E+03  0.46999998093E+01 0. -1.
</event>
<event>
 5   0  0.1573981E-04  0.1812957E+04  0.7818609E-02  0.8699439E-01
       -2   -1    0    0    0  501  0.00000000000E+00  0.00000000000E+00  0.79163120213E+03  0.79163120214E+03  0.25500000920E-02 0.  1.
        2   -1    0    0  501    0  0.00000000000E+00  0.00000000000E+00 -0.10379874341E+04  0.10379874341E+04  0.25500000920E-02 0. -1.
    10030    2    1    2    0    0  0.00000000000E+00  0.00000000000E+00 -0.24635623200E+03  0.18296186363E+04  0.18129569662E+04 0.  0.
        1    1    3    3  502    0  0.85279623864E+03 -0.20326308237E+02  0.18628093972E+03  0.87314098058E+03  0.50400001928E-02 0.  1.
       -1    1    3    3    0  502 -0.85279623864E+03  0.20326308237E+02 -0.43263717172E+03  0.95647765569E+03  0.50400001928E-02 0. -1.
</event>
<event>
 5   0  0.8206783E-05  0.1808260E+04  0.7818609E-02  0.8701919E-01
        1   -1    0    0  501    0  0.00000000000E+00  0.00000000000E+00  0.18085547034E+04  0.18085547034E+04  0.50400001928E-02 0.  1.
       -1   -1    0    0    0  501  0.00000000000E+00  0.00000000000E+00 -0.45199118476E+03  0.45199118479E+03  0.50400001928E-02 0. -1.
    10030    2    1    2    0    0  0.00000000000E+00  0.00000000000E+00  0.13565635187E+04  0.22605458882E+04  0.18082596972E+04 0.  0.
        1    1    3    3  502    0 -0.35247504718E+03 -0.48155901271E+02 -0.36081971944E+03  0.50670358166E+03  0.50400001928E-02 0. -1.
       -1    1    3    3    0  502  0.35247504718E+03  0.48155901271E+02  0.17173832381E+04  0.17538423066E+04  0.50400001928E-02 0.  1.
</event>
<event>
 5   0  0.1603564E-04  0.1786252E+04  0.7818609E-02  0.8713645E-01
       -2   -1    0    0    0  501  0.00000000000E+00  0.00000000000E+00  0.75937333581E+03  0.75937333582E+03  0.25500000920E-02 0.  1.
        2   -1    0    0  501    0  0.00000000000E+00  0.00000000000E+00 -0.10504372878E+04  0.10504372878E+04  0.25500000920E-02 0. -1.
    10030    2    1    2    0    0  0.00000000000E+00  0.00000000000E+00 -0.29106395201E+03  0.18098106236E+04  0.17862520173E+04 0.  0.
        5    1    3    3  502    0  0.25844403828E+03  0.80830376887E+03 -0.42759849902E+03  0.95026884093E+03  0.46999998093E+01 0. -1.
       -5    1    3    3    0  502 -0.25844403828E+03 -0.80830376887E+03  0.13653454701E+03  0.85954178270E+03  0.46999998093E+01 0.  1.
</event>
<event>
 5   0  0.1549012E-04  0.1904150E+04  0.7818609E-02  0.8652794E-01
       -2   -1    0    0    0  501  0.00000000000E+00  0.00000000000E+00  0.59718309156E+03  0.59718309156E+03  0.25500000920E-02 0. -1.
        2   -1    0    0  501    0  0.00000000000E+00  0.00000000000E+00 -0.15178702121E+04  0.15178702121E+04  0.25500000920E-02 0.  1.
    10030    2    1    2    0    0  0.00000000000E+00  0.00000000000E+00 -0.92068712055E+03  0.21150533037E+04  0.19041496011E+04 0.  0.
        4    1    3    3  502    0 -0.23722212788E+03  0.63812357644E+01  0.56380476534E+03  0.61171274668E+03  0.12699999809E+01 0. -1.
       -4    1    3    3    0  502  0.23722212788E+03 -0.63812357644E+01 -0.14844918859E+04  0.15033405570E+04  0.12699999809E+01 0.  1.
</event>
<event>
 5   0  0.1549012E-04  0.1713923E+04  0.7818609E-02  0.8753463E-01
       -2   -1    0    0    0  501  0.00000000000E+00  0.00000000000E+00  0.48392341929E+03  0.48392341929E+03  0.25500000920E-02 0. -1.
        2   -1    0    0  501    0  0.00000000000E+00  0.00000000000E+00 -0.15175601295E+04  0.15175601295E+04  0.25500000920E-02 0.  1.
    10030    2    1    2    0    0  0.00000000000E+00  0.00000000000E+00 -0.10336367102E+04  0.20014835488E+04  0.17139228534E+04 0.  0.
        4    1    3    3  502    0 -0.89079004925E+02 -0.39130894297E+02  0.47745154401E+03  0.48726572400E+03  0.12699999809E+01 0. -1.
       -4    1    3    3    0  502  0.89079004925E+02  0.39130894297E+02 -0.15110882542E+04  0.15142178248E+04  0.12699999809E+01 0.  1.
</event>
<event>
 5   0  0.8492114E-05  0.1712356E+04  0.7818609E-02  0.8754349E-01
        1   -1    0    0  501    0  0.00000000000E+00  0.00000000000E+00  0.75195164907E+03  0.75195164909E+03  0.50400001928E-02 0. -1.
       -1   -1    0    0    0  501  0.00000000000E+00  0.00000000000E+00 -0.97485048899E+03  0.97485048900E+03  0.50400001928E-02 0.  1.
    10030    2    1    2    0    0  0.00000000000E+00  0.00000000000E+00 -0.22289883992E+03  0.17268021381E+04  0.17123556089E+04 0.  0.
        2    1    3    3  502    0  0.80646217440E+03  0.20250370548E+03 -0.31725807990E+03  0.88996723464E+03  0.25500000920E-02 0.  1.
       -2    1    3    3    0  502 -0.80646217440E+03 -0.20250370548E+03  0.94359239986E+02  0.83683490346E+03  0.25500000920E-02 0. -1.
</event>
<event>
 5   0  0.8132598E-05  0.1807254E+04  0.7818609E-02  0.8702451E-01
       -1   -1    0    0    0  501  0.00000000000E+00  0.00000000000E+00  0.12760914109E+04  0.12760914109E+04  0.50400001928E-02 0.  1.
        1   -1    0    0  501    0  0.00000000000E+00  0.00000000000E+00 -0.63987726712E+03  0.63987726714E+03  0.50400001928E-02 0. -1.
    10030    2    1    2    0    0  0.00000000000E+00  0.00000000000E+00  0.63621414374E+03  0.19159686780E+04  0.18072541433E+04 0.  0.
        3    1    3    3  502    0 -0.25444438989E+03 -0.11509972254E+03  0.12291937775E+04  0.12605186419E+04  0.10100000352E+00 0.  1.
       -3    1    3    3    0  502  0.25444438989E+03  0.11509972254E+03 -0.59297963374E+03  0.65545003616E+03  0.10100000352E+00 0. -1.
</event>
<event>
 5   0  0.8430513E-05  0.1822925E+04  0.7818609E-02  0.8694203E-01
       -1   -1    0    0    0  501  0.00000000000E+00  0.00000000000E+00  0.13063005354E+04  0.13063005354E+04  0.50400001928E-02 0.  1.
        1   -1    0    0  501    0  0.00000000000E+00  0.00000000000E+00 -0.63596659313E+03  0.63596659315E+03  0.50400001928E-02 0. -1.
    10030    2    1    2    0    0  0.00000000000E+00  0.00000000000E+00  0.67033394230E+03  0.19422671286E+04  0.18229245746E+04 0.  0.
        5    1    3    3  502    0 -0.23653268989E+03  0.73597002012E+03 -0.17929154226E+03  0.79357868609E+03  0.46999998093E+01 0. -1.
       -5    1    3    3    0  502  0.23653268989E+03 -0.73597002012E+03  0.84962548456E+03  0.11486884425E+04  0.46999998093E+01 0.  1.
</event>
<event>
 5   0  0.1549012E-04  0.1823632E+04  0.7818609E-02  0.8693832E-01
        2   -1    0    0  501    0  0.00000000000E+00  0.00000000000E+00  0.12949701146E+04  0.12949701146E+04  0.25500000920E-02 0. -1.
       -2   -1    0    0    0  501  0.00000000000E+00  0.00000000000E+00 -0.64202922858E+03  0.64202922859E+03  0.25500000920E-02 0.  1.
    10030    2    1    2    0    0  0.00000000000E+00  0.00000000000E+00  0.65294088605E+03  0.19369993432E+04  0.18236322697E+04 0.  0.
        4    1    3    3  502    0  0.71051383526E+03  0.29334834849E+03  0.84739077891E+03  0.11440961099E+04  0.12699999809E+01 0. -1.
       -4    1    3    3    0  502 -0.71051383526E+03 -0.29334834849E+03 -0.19444989286E+03  0.79290323331E+03  0.12699999809E+01 0.  1.
</event>
<event>
 5   0  0.1603564E-04  0.1787286E+04  0.7818609E-02  0.8713090E-01
       -2   -1    0    0    0  501  0.00000000000E+00  0.00000000000E+00  0.50961743112E+03  0.50961743112E+03  0.25500000920E-02 0. -1.
        2   -1    0    0  501    0  0.00000000000E+00  0.00000000000E+00 -0.15670536386E+04  0.15670536386E+04  0.25500000920E-02 0.  1.
    10030    2    1    2    0    0  0.00000000000E+00  0.00000000000E+00 -0.10574362075E+04  0.20766710698E+04  0.17872860429E+04 0.  0.
        5    1    3    3  502    0  0.14061333676E+03 -0.83401828921E+03 -0.86389961016E+03  0.12090091992E+04  0.46999998093E+01 0.  1.
       -5    1    3    3    0  502 -0.14061333676E+03  0.83401828921E+03 -0.19353659737E+03  0.86766187062E+03  0.46999998093E+01 0. -1.
</event>
<event>
 5   0  0.1573981E-04  0.1784011E+04  0.7818609E-02  0.8714849E-01
        2   -1    0    0  501    0  0.00000000000E+00  0.00000000000E+00  0.52300707695E+03  0.52300707696E+03  0.25500000920E-02 0. -1.
       -2   -1    0    0    0  501  0.00000000000E+00  0.00000000000E+00 -0.15213435563E+04  0.15213435563E+04  0.25500000920E-02 0.  1.
    10030    2    1    2    0    0  0.00000000000E+00  0.00000000000E+00 -0.99833647933E+03  0.20443506332E+04  0.17840105901E+04 0.  0.
        1    1    3    3  502    0 -0.11341586651E+03 -0.42912578083E+03 -0.13858107872E+04  0.14551575971E+04  0.50400001928E-02 0.  1.
       -1    1    3    3    0  502  0.11341586651E+03  0.42912578083E+03  0.38747430785E+03  0.58919303612E+03  0.50400001928E-02 0. -1.
</event>
<event>
 5   0  0.1573981E-04  0.1798764E+04  0.7818609E-02  0.8706957E-01
        2   -1    0    0  501    0  0.00000000000E+00  0.00000000000E+00  0.20008449767E+04  0.20008449767E+04  0.25500000920E-02 0.  1.
       -2   -1    0    0    0  501  0.00000000000E+00  0.00000000000E+00 -0.40427324065E+03  0.40427324066E+03  0.25500000920E-02 0. -1.
    10030    2    1    2    0    0  0.00000000000E+00  0.00000000000E+00  0.15965717360E+04  0.24051182174E+04  0.17987641121E+04 0.  0.
        1    1    3    3  502    0 -0.11364121933E+02  0.87949365310E+03  0.10493246810E+04  0.13692043366E+04  0.50400001928E-02 0.  1.
       -1    1    3    3    0  502  0.11364121933E+02 -0.87949365310E+03  0.54724705503E+03  0.10359138808E+04  0.50400001928E-02 0. -1.
</event>
<event>
 5   0  0.5820500E-05  0.1799585E+04  0.7818609E-02  0.8706520E-01
        3   -1    0    0  501    0  0.00000000000E+00  0.00000000000E+00  0.86192453588E+03  0.86192454180E+03  0.10100000352E+00 0.  1.
       -3   -1    0    0    0  501  0.00000000000E+00  0.00000000000E+00 -0.93932461621E+03  0.93932462164E+03  0.10100000352E+00 0. -1.
    10030    2    1    2    0    0  0.00000000000E+00  0.00000000000E+00 -0.77400080331E+02  0.18012491634E+04  0.17995854457E+04 0.  0.
        4    1    3    3  502    0 -0.29201350399E+03  0.58827393949E+03 -0.65431923545E+03  0.92707787654E+03  0.12699999809E+01 0. -1.
       -4    1    3    3    0  502  0.29201350399E+03 -0.58827393949E+03  0.57691915511E+03  0.87417128690E+03  0.12699999809E+01 0.  1.
</event>
<event>
 5   0  0.5820500E-05  0.1786993E+04  0.7818609E-02  0.8713247E-01
        3   -1    0    0  501    0  0.00000000000E+00  0.00000000000E+00  0.11999702381E+04  0.11999702423E+04  0.10100000352E+00 0.  1.
       -3   -1    0    0    0  501  0.00000000000E+00  0.00000000000E+00 -0.66529685904E+03  0.66529686671E+03  0.10100000352E+00 0. -1.
    10030    2    1    2    0    0  0.00000000000E+00  0.00000000000E+00  0.53467337904E+03  0.18652671090E+04  0.17869934991E+04 0.  0.
        1    1    3    3  502    0  0.42769041490E+03  0.58791851973E+02 -0.54920786300E+03  0.69857343899E+03  0.50400001928E-02 0. -1.
       -1    1    3    3    0  502 -0.42769041490E+03 -0.58791851973E+02  0.10838812420E+04  0.11666936700E+04  0.50400001928E-02 0.  1.
</event>
<event>
 5   0  0.1549012E-04  0.1795471E+04  0.7818609E-02  0.8708712E-01
       -2   -1    0    0    0  501  0.00000000000E+00  0.00000000000E+00  0.11294888670E+04  0.11294888670E+04  0.25500000920E-02 0.  1.
        2   -1    0    0  501    0  0.00000000000E+00  0.00000000000E+00 -0.71353397523E+03  0.71353397524E+03  0.25500000920E-02 0. -1.
    10030    2    1    2    0    0  0.00000000000E+00  0.00000000000E+00  0.41595489174E+03  0.18430228422E+04  0.17954706138E+04 0.  0.
        4    1    3    3  502    0 -0.23222719515E+03 -0.15537401841E+03  0.10837176791E+04  0.11191586914E+04  0.12699999809E+01 0.  1.
       -4    1    3    3    0  502  0.23222719515E+03  0.15537401841E+03 -0.66776278733E+03  0.72386415079E+03  0.12699999809E+01 0. -1.
</event>
<event>
 5   0  0.8254914E-05  0.1804734E+04  0.7818609E-02  0.8703786E-01
       -1   -1    0    0    0  501  0.00000000000E+00  0.00000000000E+00  0.76293279655E+03  0.76293279656E+03  0.50400001928E-02 0. -1.
        1   -1    0    0  501    0  0.00000000000E+00  0.00000000000E+00 -0.10672845302E+04  0.10672845302E+04  0.50400001928E-02 0.  1.
    10030    2    1    2    0    0  0.00000000000E+00  0.00000000000E+00 -0.30435173363E+03  0.18302173268E+04  0.18047341869E+04 0.  0.
        4    1    3    3  502    0 -0.32223251713E+03 -0.52208946946E+03  0.51887254760E+03  0.80351822803E+03  0.12699999809E+01 0. -1.
       -4    1    3    3    0  502  0.32223251713E+03  0.52208946946E+03 -0.82322428123E+03  0.10266990987E+04  0.12699999809E+01 0.  1.
</event>
<event>
 5   0  0.1549012E-04  0.1803463E+04  0.7818609E-02  0.8704460E-01
       -2   -1    0    0    0  501  0.00000000000E+00  0.00000000000E+00  0.99700685105E+03  0.99700685106E+03  0.25500000920E-02 0. -1.
        2   -1    0    0  501    0  0.00000000000E+00  0.00000000000E+00 -0.81556039224E+03  0.81556039224E+03  0.25500000920E-02 0.  1.
    10030    2    1    2    0    0  0.00000000000E+00  0.00000000000E+00  0.18144645882E+03  0.18125672433E+04  0.18034625569E+04 0.  0.
        4    1    3    3  502    0 -0.44429881361E+03  0.20332722696E+03 -0.67097771238E+03  0.83003379474E+03  0.12699999809E+01 0.  1.
       -4    1    3    3    0  502  0.44429881361E+03 -0.20332722696E+03  0.85242417120E+03  0.98253344856E+03  0.12699999809E+01 0. -1.
</event>
<event>
 5   0  0.8132598E-05  0.1804709E+04  0.7818609E-02  0.8703799E-01
        1   -1    0    0  501    0  0.00000000000E+00  0.00000000000E+00  0.57223641792E+03  0.57223641794E+03  0.50400001928E-02 0. -1.
       -1   -1    0    0    0  501  0.00000000000E+00  0.00000000000E+00 -0.14229143897E+04  0.14229143897E+04  0.50400001928E-02 0.  1.
    10030    2    1    2    0    0  0.00000000000E+00  0.00000000000E+00 -0.85067797174E+03  0.19951508076E+04  0.18047087670E+04 0.  0.
        3    1    3    3  502    0 -0.34411946358E+03  0.79934818856E+03 -0.68897297389E+03  0.11099817569E+04  0.10100000352E+00 0.  1.
       -3    1    3    3    0  502  0.34411946358E+03 -0.79934818856E+03 -0.16170499786E+03  0.88516905069E+03  0.10100000352E+00 0. -1.
</event>
<event>
 5   0  0.8254914E-05  0.1798522E+04  0.7818609E-02  0.8707086E-01
       -1   -1    0    0    0  501  0.00000000000E+00  0.00000000000E+00  0.96896056097E+03  0.96896056098E+03  0.50400001928E-02 0.  1.
        1   -1    0    0  501    0  0.00000000000E+00  0.00000000000E+00 -0.83457531138E+03  0.83457531140E+03  0.50400001928E-02 0. -1.
    10030    2    1    2    0    0  0.00000000000E+00  0.00000000000E+00  0.13438524959E+03  0.18035358724E+04  0.17985222400E+04 0.  0.
        4    1    3    3  502    0  0.65223302867E+03 -0.48642420993E+02 -0.55169467997E+03  0.85565334197E+03  0.12699999809E+01 0. -1.
       -4    1    3    3    0  502 -0.65223302867E+03  0.48642420993E+02  0.68607992956E+03  0.94788253041E+03  0.12699999809E+01 0.  1.
</event>
<event>
 5   0  0.8492114E-05  0.1799434E+04  0.7818609E-02  0.8706600E-01
        1   -1    0    0  501    0  0.00000000000E+00  0.00000000000E+00  0.10798934023E+04  0.10798934023E+04  0.50400001928E-02 0.  1.
       -1   -1    0    0    0  501  0.00000000000E+00  0.00000000000E+00 -0.74960251928E+03  0.74960251930E+03  0.50400001928E-02 0. -1.
    10030    2    1    2    0    0  0.00000000000E+00  0.00000000000E+00  0.33029088300E+03  0.18294959216E+04  0.17994341499E+04 0.  0.
        2    1    3    3  502    0  0.73038221139E+02 -0.63735356741E+03  0.80650631842E+03  0.10305370412E+04  0.25500000920E-02 0. -1.
       -2    1    3    3    0  502 -0.73038221139E+02  0.63735356741E+03 -0.47621543541E+03  0.79895888040E+03  0.25500000920E-02 0.  1.
</event>
<event>
 5   0  0.1573981E-04  0.1803263E+04  0.7818609E-02  0.8704566E-01
       -2   -1    0    0    0  501  0.00000000000E+00  0.00000000000E+00  0.69794851581E+03  0.69794851581E+03  0.25500000920E-02 0.  1.
        2   -1    0    0  501    0  0.00000000000E+00  0.00000000000E+00 -0.11647557718E+04  0.11647557718E+04  0.25500000920E-02 0. -1.
    10030    2    1    2    0    0  0.00000000000E+00  0.00000000000E+00 -0.46680725599E+03  0.18627042876E+04  0.18032632223E+04 0.  0.
        1    1    3    3  502    0 -0.60242108390E+02 -0.42424239444E+03 -0.10528557923E+04  0.11367128222E+04  0.50400001928E-02 0. -1.
       -1    1    3    3    0  502  0.60242108390E+02  0.42424239444E+03  0.58604853630E+03  0.72599146537E+03  0.50400001928E-02 0.  1.
</event>
<event>
 5   0  0.8132598E-05  0.1796620E+04  0.7818609E-02  0.8708099E-01
        1   -1    0    0  501    0  0.00000000000E+00  0.00000000000E+00  0.94194744977E+03  0.94194744979E+03  0.50400001928E-02 0. -1.
       -1   -1    0    0    0  501  0.00000000000E+00  0.00000000000E+00 -0.85669454089E+03  0.85669454091E+03  0.50400001928E-02 0.  1.
    10030    2    1    2    0    0  0.00000000000E+00  0.00000000000E+00  0.85252908880E+02  0.17986419907E+04  0.17966204252E+04 0.  0.
        3    1    3    3  502    0  0.35379526783E+03  0.29588756132E+03 -0.72911101672E+03  0.86274180691E+03  0.10100000352E+00 0.  1.
       -3    1    3    3    0  502 -0.35379526783E+03 -0.29588756132E+03  0.81436392560E+03  0.93590018378E+03  0.10100000352E+00 0. -1.
</event>
<event>
 5   0  0.1573981E-04  0.1801765E+04  0.7818609E-02  0.8705361E-01
       -2   -1    0    0    0  501  0.00000000000E+00  0.00000000000E+00  0.56750973439E+03  0.56750973439E+03  0.25500000920E-02 0.  1.
        2   -1    0    0  501    0  0.00000000000E+00  0.00000000000E+00 -0.14300891544E+04  0.14300891544E+04  0.25500000920E-02 0. -1.
    10030    2    1    2    0    0  0.00000000000E+00  0.00000000000E+00 -0.86257942002E+03  0.19975988888E+04  0.18017652635E+04 0.  0.
        1    1    3    3  502    0  0.47347618834E+03 -0.27869076666E+03  0.36027236266E+03  0.65699651420E+03  0.50400001928E-02 0.  1.
       -1    1    3    3    0  502 -0.47347618834E+03  0.27869076666E+03 -0.12228517827E+04  0.13406023746E+04  0.50400001928E-02 0. -1.
</event>
<event>
 5   0  0.1608627E-04  0.1819571E+04  0.7818609E-02  0.8695961E-01
       -2   -1    0    0    0  501  0.00000000000E+00  0.00000000000E+00  0.72104013649E+03  0.72104013650E+03  0.25500000920E-02 0.  1.
        2   -1    0    0  501    0  0.00000000000E+00  0.00000000000E+00 -0.11479383212E+04  0.11479383212E+04  0.25500000920E-02 0. -1.
    10030    2    1    2    0    0  0.00000000000E+00  0.00000000000E+00 -0.42689818467E+03  0.18689784577E+04  0.18195709426E+04 0.  0.
        2    1    3    3  502    0  0.88791151625E+03  0.15523927276E+03 -0.34018296892E+03  0.96343684010E+03  0.25500000920E-02 0. -1.
       -2    1    3    3    0  502 -0.88791151625E+03 -0.15523927276E+03 -0.86715215751E+02  0.90554161757E+03  0.25500000920E-02 0.  1.
</event>
<event>
 5   0  0.1549012E-04  0.1863487E+04  0.7818609E-02  0.8673248E-01
       -2   -1    0    0    0  501  0.00000000000E+00  0.00000000000E+00  0.54224773524E+03  0.54224773525E+03  0.25500000920E-02 0. -1.
        2   -1    0    0  501    0  0.00000000000E+00  0.00000000000E+00 -0.16010130017E+04  0.16010130017E+04  0.25500000920E-02 0.  1.
    10030    2    1    2    0    0  0.00000000000E+00  0.00000000000E+00 -0.10587652665E+04  0.21432607369E+04  0.18634867043E+04 0.  0.
        4    1    3    3  502    0  0.86524437822E+03 -0.21121286765E+03 -0.84411915933E+03  0.12271093992E+04  0.12699999809E+01 0.  1.
       -4    1    3    3    0  502 -0.86524437822E+03  0.21121286765E+03 -0.21464610712E+03  0.91615133777E+03  0.12699999809E+01 0. -1.
</event>
<event>
 5   0  0.8254914E-05  0.1857925E+04  0.7818609E-02  0.8676088E-01
        1   -1    0    0  501    0  0.00000000000E+00  0.00000000000E+00  0.92786466076E+03  0.92786466077E+03  0.50400001928E-02 0.  1.
       -1   -1    0    0    0  501  0.00000000000E+00  0.00000000000E+00 -0.93006158036E+03  0.93006158037E+03  0.50400001928E-02 0. -1.
    10030    2    1    2    0    0  0.00000000000E+00  0.00000000000E+00 -0.21969196013E+01  0.18579262411E+04  0.18579249423E+04 0.  0.
        4    1    3    3  502    0  0.55044688101E+03  0.27218588475E+03  0.69596209322E+03  0.92813887580E+03  0.12699999809E+01 0.  1.
       -4    1    3    3    0  502 -0.55044688101E+03 -0.27218588475E+03 -0.69815901282E+03  0.92978736534E+03  0.12699999809E+01 0. -1.
</event>
<event>
 5   0  0.8206783E-05  0.1778461E+04  0.7818609E-02  0.8717838E-01
       -1   -1    0    0    0  501  0.00000000000E+00  0.00000000000E+00  0.74380313376E+03  0.74380313378E+03  0.50400001928E-02 0.  1.
        1   -1    0    0  501    0  0.00000000000E+00  0.00000000000E+00 -0.10630913126E+04  0.10630913126E+04  0.50400001928E-02 0. -1.
    10030    2    1    2    0    0  0.00000000000E+00  0.00000000000E+00 -0.31928817885E+03  0.18068944464E+04  0.17784607388E+04 0.  0.
        1    1    3    3  502    0 -0.29717031468E+03 -0.57818132541E+03  0.45679081800E+03  0.79451978731E+03  0.50400001928E-02 0.  1.
       -1    1    3    3    0  502  0.29717031468E+03  0.57818132541E+03 -0.77607899685E+03  0.10123746591E+04  0.50400001928E-02 0. -1.
</event>
<event>
 5   0  0.1549012E-04  0.1801169E+04  0.7818609E-02  0.8705678E-01
       -2   -1    0    0    0  501  0.00000000000E+00  0.00000000000E+00  0.34269599917E+03  0.34269599918E+03  0.25500000920E-02 0.  1.
        2   -1    0    0  501    0  0.00000000000E+00  0.00000000000E+00 -0.23666828094E+04  0.23666828094E+04  0.25500000920E-02 0. -1.
    10030    2    1    2    0    0  0.00000000000E+00  0.00000000000E+00 -0.20239868102E+04  0.27093788085E+04  0.18011693203E+04 0.  0.
        4    1    3    3  502    0  0.46603982529E+03  0.57698047169E+03 -0.24357967623E+03  0.78066142151E+03  0.12699999809E+01 0.  1.
       -4    1    3    3    0  502 -0.46603982529E+03 -0.57698047169E+03 -0.17804071340E+04  0.19287173870E+04  0.12699999809E+01 0. -1.
</event>
<event>
 5   0  0.1603564E-04  0.1861358E+04  0.7818609E-02  0.8674334E-01
        2   -1    0    0  501    0  0.00000000000E+00  0.00000000000E+00  0.95716954949E+03  0.95716954949E+03  0.25500000920E-02 0.  1.
       -2   -1    0    0    0  501  0.00000000000E+00  0.00000000000E+00 -0.90492140948E+03  0.90492140948E+03  0.25500000920E-02 0. -1.
    10030    2    1    2    0    0  0.00000000000E+00  0.00000000000E+00  0.52248140012E+02  0.18620909590E+04  0.18613578032E+04 0.  0.
        5    1    3    3  502    0  0.36184099236E+03 -0.85440909383E+03  0.98244937621E+02  0.93306910845E+03  0.46999998093E+01 0.  1.
       -5    1    3    3    0  502 -0.36184099236E+03  0.85440909383E+03 -0.45996797609E+02  0.92902185053E+03  0.46999998093E+01 0. -1.
</event>
<event>
 5   0  0.8492114E-05  0.1801028E+04  0.7818609E-02  0.8705753E-01
       -1   -1    0    0    0  501  0.00000000000E+00  0.00000000000E+00  0.21023917746E+04  0.21023917746E+04  0.50400001928E-02 0.  1.
        1   -1    0    0  501    0  0.00000000000E+00  0.00000000000E+00 -0.38571567375E+03  0.38571567378E+03  0.50400001928E-02 0. -1.
    10030    2    1    2    0    0  0.00000000000E+00  0.00000000000E+00  0.17166761008E+04  0.24881074484E+04  0.18010279952E+04 0.  0.
        2    1    3    3  502    0  0.37943248219E+03  0.23990477850E+03  0.19367896485E+04  0.19881341639E+04  0.25500000920E-02 0.  1.
       -2    1    3    3    0  502 -0.37943248219E+03 -0.23990477850E+03 -0.22011354765E+03  0.49997328444E+03  0.25500000920E-02 0. -1.
</event>
<event>
 5   0  0.8132598E-05  0.1811174E+04  0.7818609E-02  0.8700380E-01
        1   -1    0    0  501    0  0.00000000000E+00  0.00000000000E+00  0.57013717592E+03  0.57013717595E+03  0.50400001928E-02 0. -1.
       -1   -1    0    0    0  501  0.00000000000E+00  0.00000000000E+00 -0.14384037326E+04  0.14384037326E+04  0.50400001928E-02 0.  1.
    10030    2    1    2    0    0  0.00000000000E+00  0.00000000000E+00 -0.86826655664E+03  0.20085409085E+04  0.18111735885E+04 0.  0.
        3    1    3    3  502    0 -0.35156705150E+03 -0.53810996640E+03 -0.11415546352E+04  0.13100796628E+04  0.10100000352E+00 0.  1.
       -3    1    3    3    0  502  0.35156705150E+03  0.53810996640E+03  0.27328807855E+03  0.69846124568E+03  0.10100000352E+00 0. -1.
</event>
<event>
 5   0  0.1608627E-04  0.1803680E+04  0.7818609E-02  0.8704345E-01
        2   -1    0    0  501    0  0.00000000000E+00  0.00000000000E+00  0.15236732800E+04  0.15236732800E+04  0.25500000920E-02 0. -1.
       -2   -1    0    0    0  501  0.00000000000E+00  0.00000000000E+00 -0.53378613247E+03  0.53378613248E+03  0.25500000920E-02 0.  1.
    10030    2    1    2    0    0  0.00000000000E+00  0.00000000000E+00  0.98988714748E+03  0.20574594124E+04  0.18036803123E+04 0.  0.
        2    1    3    3  502    0  0.19582093132E+03  0.87932565250E+03  0.54274733117E+03  0.10517291028E+04  0.25500000920E-02 0.  1.
       -2    1    3    3    0  502 -0.19582093132E+03 -0.87932565250E+03  0.44713981631E+03  0.10057303096E+04  0.25500000920E-02 0. -1.
</event>
<event>
 5   0  0.1549012E-04  0.1797947E+04  0.7818609E-02  0.8707392E-01
       -2   -1    0    0    0  501  0.00000000000E+00  0.00000000000E+00  0.37977958634E+03  0.37977958635E+03  0.25500000920E-02 0. -1.
        2   -1    0    0  501    0  0.00000000000E+00  0.00000000000E+00 -0.21279529001E+04  0.21279529001E+04  0.25500000920E-02 0.  1.
    10030    2    1    2    0    0  0.00000000000E+00  0.00000000000E+00 -0.17481733137E+04  0.25077324864E+04  0.17979466868E+04 0.  0.
        4    1    3    3  502    0 -0.66964967187E+03 -0.38321889165E+03 -0.23057626563E+03  0.80526668199E+03  0.12699999809E+01 0. -1.
       -4    1    3    3    0  502  0.66964967187E+03  0.38321889165E+03 -0.15175970481E+04  0.17024658044E+04  0.12699999809E+01 0.  1.
</event>
<event>
 5   0  0.8206783E-05  0.1802935E+04  0.7818609E-02  0.8704740E-01
       -1   -1    0    0    0  501  0.00000000000E+00  0.00000000000E+00  0.81936026858E+03  0.81936026860E+03  0.50400001928E-02 0. -1.
        1   -1    0    0  501    0  0.00000000000E+00  0.00000000000E+00 -0.99180269965E+03  0.99180269966E+03  0.50400001928E-02 0.  1.
    10030    2    1    2    0    0  0.00000000000E+00  0.00000000000E+00 -0.17244243107E+03  0.18111629683E+04  0.18029350808E+04 0.  0.
        1    1    3    3  502    0  0.33280695659E+03  0.70469958306E+03  0.36892675987E+03  0.86224644209E+03  0.50400001928E-02 0. -1.
       -1    1    3    3    0  502 -0.33280695659E+03 -0.70469958306E+03 -0.54136919094E+03  0.94891652617E+03  0.50400001928E-02 0.  1.
</event>
<event>
 5   0  0.8206783E-05  0.1786896E+04  0.7818609E-02  0.8713299E-01
        1   -1    0    0  501    0  0.00000000000E+00  0.00000000000E+00  0.89991166619E+03  0.89991166621E+03  0.50400001928E-02 0. -1.
       -1   -1    0    0    0  501  0.00000000000E+00  0.00000000000E+00 -0.88703108114E+03  0.88703108115E+03  0.50400001928E-02 0.  1.
    10030    2    1    2    0    0  0.00000000000E+00  0.00000000000E+00  0.12880585052E+02  0.17869427474E+04  0.17868963240E+04 0.  0.
        1    1    3    3  502    0 -0.51344804230E+03  0.62897983898E+03  0.37928384009E+03  0.89615889293E+03  0.50400001928E-02 0. -1.
       -1    1    3    3    0  502  0.51344804230E+03 -0.62897983898E+03 -0.36640325504E+03  0.89078385443E+03  0.50400001928E-02 0.  1.
</event>
<event>
 5   0  0.1628397E-04  0.1785361E+04  0.7818609E-02  0.8714123E-01
       -2   -1    0    0    0  501  0.00000000000E+00  0.00000000000E+00  0.40977130691E+03  0.40977130692E+03  0.25500000920E-02 0. -1.
        2   -1    0    0  501    0  0.00000000000E+00  0.00000000000E+00 -0.19446905481E+04  0.19446905481E+04  0.25500000920E-02 0.  1.
    10030    2    1    2    0    0  0.00000000000E+00  0.00000000000E+00 -0.15349192412E+04  0.23544618550E+04  0.17853609018E+04 0.  0.
        3    1    3    3  502    0  0.18700297279E+03  0.65555696871E+03 -0.74222586050E+01  0.68174786481E+03  0.10100000352E+00 0. -1.
       -3    1    3    3    0  502 -0.18700297279E+03 -0.65555696871E+03 -0.15274969826E+04  0.16727139902E+04  0.10100000352E+00 0.  1.
</event>
<event>
 5   0  0.8254914E-05  0.1797611E+04  0.7818609E-02  0.8707571E-01
        1   -1    0    0  501    0  0.00000000000E+00  0.00000000000E+00  0.10966309535E+04  0.10966309535E+04  0.50400001928E-02 0. -1.
       -1   -1    0    0    0  501  0.00000000000E+00  0.00000000000E+00 -0.73666652103E+03  0.73666652105E+03  0.50400001928E-02 0.  1.
    10030    2    1    2    0    0  0.00000000000E+00  0.00000000000E+00  0.35996443242E+03  0.18332974745E+04  0.17976109806E+04 0.  0.
        4    1    3    3  502    0 -0.45739268658E+03  0.52737308816E+03  0.75736560957E+03  0.10300168558E+04  0.12699999809E+01 0. -1.
       -4    1    3    3    0  502  0.45739268658E+03 -0.52737308816E+03 -0.39740117714E+03  0.80328061868E+03  0.12699999809E+01 0.  1.
</event>
<event>
 5   0  0.8132598E-05  0.1830766E+04  0.7818609E-02  0.8690108E-01
        1   -1    0    0  501    0  0.00000000000E+00  0.00000000000E+00  0.16658030225E+04  0.16658030225E+04  0.50400001928E-02 0.  1.
       -1   -1    0    0    0  501  0.00000000000E+00  0.00000000000E+00 -0.50301600910E+03  0.50301600912E+03  0.50400001928E-02 0. -1.
    10030    2    1    2    0    0  0.00000000000E+00  0.00000000000E+00  0.11627870134E+04  0.21688190317E+04  0.18307655102E+04 0.  0.
        3    1    3    3  502    0 -0.53344822011E+03  0.33502869477E+03 -0.20540981664E+03  0.66257409611E+03  0.10100000352E+00 0. -1.
       -3    1    3    3    0  502  0.53344822011E+03 -0.33502869477E+03  0.13681968301E+04  0.15062449356E+04  0.10100000352E+00 0.  1.
</event>
<event>
 5   0  0.8206783E-05  0.1799736E+04  0.7818609E-02  0.8706440E-01
       -1   -1    0    0    0  501  0.00000000000E+00  0.00000000000E+00  0.97310996782E+03  0.97310996784E+03  0.50400001928E-02 0.  1.
        1   -1    0    0  501    0  0.00000000000E+00  0.00000000000E+00 -0.83213876356E+03  0.83213876357E+03  0.50400001928E-02 0. -1.
    10030    2    1    2    0    0  0.00000000000E+00  0.00000000000E+00  0.14097120426E+03  0.18052487314E+04  0.17997361201E+04 0.  0.
        1    1    3    3  502    0 -0.19114150717E+03 -0.45588497794E+03 -0.68374597465E+03  0.84372670145E+03  0.50400001928E-02 0. -1.
       -1    1    3    3    0  502  0.19114150717E+03  0.45588497794E+03  0.82471717891E+03  0.96152202996E+03  0.50400001928E-02 0.  1.
</event>
<event>
 5   0  0.8132598E-05  0.1784253E+04  0.7818609E-02  0.8714718E-01
       -1   -1    0    0    0  501  0.00000000000E+00  0.00000000000E+00  0.59911646501E+03  0.59911646503E+03  0.50400001928E-02 0. -1.
        1   -1    0    0  501    0  0.00000000000E+00  0.00000000000E+00 -0.13284394145E+04  0.13284394145E+04  0.50400001928E-02 0.  1.
    10030    2    1    2    0    0  0.00000000000E+00  0.00000000000E+00 -0.72932294947E+03  0.19275558795E+04  0.17842532623E+04 0.  0.
        3    1    3    3  502    0 -0.26672173337E+03 -0.56332157597E+03  0.32489637853E+03  0.70287221313E+03  0.10100000352E+00 0. -1.
       -3    1    3    3    0  502  0.26672173337E+03  0.56332157597E+03 -0.10542193280E+04  0.12246836664E+04  0.10100000352E+00 0.  1.
</event>
<event>
 5   0  0.1603564E-04  0.1870666E+04  0.7818609E-02  0.8669597E-01
        2   -1    0    0  501    0  0.00000000000E+00  0.00000000000E+00  0.15805488481E+04  0.15805488481E+04  0.25500000920E-02 0.  1.
       -2   -1    0    0    0  501  0.00000000000E+00  0.00000000000E+00 -0.55350904175E+03  0.55350904175E+03  0.25500000920E-02 0. -1.
    10030    2    1    2    0    0  0.00000000000E+00  0.00000000000E+00  0.10270398063E+04  0.21340578898E+04  0.18706662753E+04 0.  0.
        5    1    3    3  502    0 -0.90100991551E+03 -0.21084887659E+02  0.79886281810E+03  0.12043534915E+04  0.46999998093E+01 0. -1.
       -5    1    3    3    0  502  0.90100991551E+03  0.21084887659E+02  0.22817698822E+03  0.92970439833E+03  0.46999998093E+01 0.  1.
</event>
<event>
 5   0  0.8254914E-05  0.1810022E+04  0.7818609E-02  0.8700988E-01
        1   -1    0    0  501    0  0.00000000000E+00  0.00000000000E+00  0.96729889327E+03  0.96729889328E+03  0.50400001928E-02 0.  1.
       -1   -1    0    0    0  501  0.00000000000E+00  0.00000000000E+00 -0.84673395790E+03  0.84673395791E+03  0.50400001928E-02 0. -1.
    10030    2    1    2    0    0  0.00000000000E+00  0.00000000000E+00  0.12056493537E+03  0.18140328512E+04  0.18100219009E+04 0.  0.
        4    1    3    3  502    0  0.17311856547E+03 -0.55859578743E+02  0.94878684544E+03  0.96606853858E+03  0.12699999809E+01 0.  1.
       -4    1    3    3    0  502 -0.17311856547E+03  0.55859578743E+02 -0.82822191007E+03  0.84796431262E+03  0.12699999809E+01 0. -1.
</event>
<event>
 5   0  0.8206783E-05  0.1791231E+04  0.7818609E-02  0.8710977E-01
       -1   -1    0    0    0  501  0.00000000000E+00  0.00000000000E+00  0.41175061871E+03  0.41175061875E+03  0.50400001928E-02 0.  1.
        1   -1    0    0  501    0  0.00000000000E+00  0.00000000000E+00 -0.19480899044E+04  0.19480899044E+04  0.50400001928E-02 0. -1.
    10030    2    1    2    0    0  0.00000000000E+00  0.00000000000E+00 -0.15363392857E+04  0.23598405232E+04  0.17912311113E+04 0.  0.
        1    1    3    3  502    0 -0.60152749177E+03 -0.33091019060E+02 -0.16412629443E+04  0.17483347480E+04  0.50400001928E-02 0. -1.
       -1    1    3    3    0  502  0.60152749177E+03  0.33091019060E+02  0.10492365855E+03  0.61150577516E+03  0.50400001928E-02 0.  1.
</event>
<event>
 5   0  0.8132598E-05  0.1817199E+04  0.7818609E-02  0.8697206E-01
       -1   -1    0    0    0  501  0.00000000000E+00  0.00000000000E+00  0.60558972811E+03  0.60558972813E+03  0.50400001928E-02 0.  1.
        1   -1    0    0  501    0  0.00000000000E+00  0.00000000000E+00 -0.13632222295E+04  0.13632222296E+04  0.50400001928E-02 0. -1.
    10030    2    1    2    0    0  0.00000000000E+00  0.00000000000E+00 -0.75763250144E+03  0.19688119577E+04  0.18171993610E+04 0.  0.
        3    1    3    3  502    0  0.39877616440E+03 -0.78993622459E+03 -0.15537773444E+03  0.89842301772E+03  0.10100000352E+00 0.  1.
       -3    1    3    3    0  502 -0.39877616440E+03  0.78993622459E+03 -0.60225476699E+03  0.10703889400E+04  0.10100000352E+00 0. -1.
</event>
<event>
 5   0  0.1603564E-04  0.1799613E+04  0.7818609E-02  0.8706505E-01
        2   -1    0    0  501    0  0.00000000000E+00  0.00000000000E+00  0.14882002349E+04  0.14882002349E+04  0.25500000920E-02 0. -1.
       -2   -1    0    0    0  501  0.00000000000E+00  0.00000000000E+00 -0.54404772983E+03  0.54404772983E+03  0.25500000920E-02 0.  1.
    10030    2    1    2    0    0  0.00000000000E+00  0.00000000000E+00  0.94415250505E+03  0.20322479647E+04  0.17996132466E+04 0.  0.
        5    1    3    3  502    0 -0.38601518387E+03 -0.41049602399E+02  0.13887599095E+04  0.14420017227E+04  0.46999998093E+01 0. -1.
       -5    1    3    3    0  502  0.38601518387E+03  0.41049602399E+02 -0.44460740449E+03  0.59024624197E+03  0.46999998093E+01 0.  1.
</event>
<event>
 5   0  0.1549012E-04  0.1835189E+04  0.7818609E-02  0.8687807E-01
       -2   -1    0    0    0  501  0.00000000000E+00  0.00000000000E+00  0.49466293616E+03  0.49466293617E+03  0.25500000920E-02 0. -1.
        2   -1    0    0  501    0  0.00000000000E+00  0.00000000000E+00 -0.17021281726E+04  0.17021281726E+04  0.25500000920E-02 0.  1.
    10030    2    1    2    0    0  0.00000000000E+00  0.00000000000E+00 -0.12074652364E+04  0.21967911088E+04  0.18351890579E+04 0.  0.
        4    1    3    3  502    0  0.68757452182E+03 -0.74615745405E+02  0.11812387284E+03  0.70162746152E+03  0.12699999809E+01 0. -1.
       -4    1    3    3    0  502 -0.68757452182E+03  0.74615745405E+02 -0.13255891093E+04  0.14951636472E+04  0.12699999809E+01 0.  1.
</event>
<event>
 5   0  0.8430513E-05  0.1806412E+04  0.7818609E-02  0.8702897E-01
       -1   -1    0    0    0  501  0.00000000000E+00  0.00000000000E+00  0.92150536371E+03  0.92150536372E+03  0.50400001928E-02 0.  1.
        1   -1    0    0  501    0  0.00000000000E+00  0.00000000000E+00 -0.88527035927E+03  0.88527035929E+03  0.50400001928E-02 0. -1.
    10030    2    1    2    0    0  0.00000000000E+00  0.00000000000E+00  0.36235004435E+02  0.18067757230E+04  0.18064123388E+04 0.  0.
        5    1    3    3  502    0  0.25871425459E+03  0.45414878731E+03 -0.71862765213E+03  0.88861238960E+03  0.46999998093E+01 0. -1.
       -5    1    3    3    0  502 -0.25871425459E+03 -0.45414878731E+03  0.75486265657E+03  0.91816333341E+03  0.46999998093E+01 0.  1.
</event>
<event>
 5   0  0.1549012E-04  0.1797743E+04  0.7818609E-02  0.8707501E-01
        2   -1    0    0  501    0  0.00000000000E+00  0.00000000000E+00  0.12013941954E+04  0.12013941954E+04  0.25500000920E-02 0.  1.
       -2   -1    0    0    0  501  0.00000000000E+00  0.00000000000E+00 -0.67252706114E+03  0.67252706114E+03  0.25500000920E-02 0. -1.
    10030    2    1    2    0    0  0.00000000000E+00  0.00000000000E+00  0.52886713424E+03  0.18739212565E+04  0.17977431491E+04 0.  0.
        4    1    3    3  502    0  0.74667561315E+03  0.32666647607E+03  0.65961997213E+03  0.10484920498E+04  0.12699999809E+01 0. -1.
       -4    1    3    3    0  502 -0.74667561315E+03 -0.32666647607E+03 -0.13075283789E+03  0.82542920677E+03  0.12699999809E+01 0.  1.
</event>
<event>
 5   0  0.8132598E-05  0.1798514E+04  0.7818609E-02  0.8707090E-01
       -1   -1    0    0    0  501  0.00000000000E+00  0.00000000000E+00  0.44378208511E+03  0.44378208514E+03  0.50400001928E-02 0.  1.
        1   -1    0    0  501    0  0.00000000000E+00  0.00000000000E+00 -0.18222083310E+04  0.18222083310E+04  0.50400001928E-02 0. -1.
    10030    2    1    2    0    0  0.00000000000E+00  0.00000000000E+00 -0.13784262459E+04  0.22659904161E+04  0.17985142898E+04 0.  0.
        3    1    3    3  502    0 -0.51110075114E+03 -0.61586291053E+03 -0.17256413614E+03  0.81871209450E+03  0.10100000352E+00 0.  1.
       -3    1    3    3    0  502  0.51110075114E+03  0.61586291053E+03 -0.12058621097E+04  0.14472783216E+04  0.10100000352E+00 0. -1.
</event>
<event>
 5   0  0.1608627E-04  0.1808879E+04  0.7818609E-02  0.8701592E-01
        2   -1    0    0  501    0  0.00000000000E+00  0.00000000000E+00  0.98922654333E+03  0.98922654334E+03  0.25500000920E-02 0. -1.
       -2   -1    0    0    0  501  0.00000000000E+00  0.00000000000E+00 -0.82691936113E+03  0.82691936114E+03  0.25500000920E-02 0.  1.
    10030    2    1    2    0    0  0.00000000000E+00  0.00000000000E+00  0.16230718220E+03  0.18161459045E+04  0.18088787480E+04 0.  0.
        2    1    3    3  502    0 -0.86711663377E+03  0.59668257721E+02  0.33227645783E+03  0.93051555709E+03  0.25500000920E-02 0. -1.
       -2    1    3    3    0  502  0.86711663377E+03 -0.59668257721E+02 -0.16996927563E+03  0.88563034738E+03  0.25500000920E-02 0.  1.
</event>
<event>
 5   0  0.1573981E-04  0.1802651E+04  0.7818609E-02  0.8704891E-01
        2   -1    0    0  501    0  0.00000000000E+00  0.00000000000E+00  0.15620884460E+04  0.15620884460E+04  0.25500000920E-02 0.  1.
       -2   -1    0    0    0  501  0.00000000000E+00  0.00000000000E+00 -0.52006521854E+03  0.52006521854E+03  0.25500000920E-02 0. -1.
    10030    2    1    2    0    0  0.00000000000E+00  0.00000000000E+00  0.10420232274E+04  0.20821536645E+04  0.18026512353E+04 0.  0.
        1    1    3    3  502    0  0.11699675122E+03  0.56566610097E+03 -0.27816456367E+03  0.64112549636E+03  0.50400001928E-02 0. -1.
       -1    1    3    3    0  502 -0.11699675122E+03 -0.56566610097E+03  0.13201877911E+04  0.14410281682E+04  0.50400001928E-02 0.  1.
</event>
<event>
 5   0  0.8254914E-05  0.1798913E+04  0.7818609E-02  0.8706878E-01
       -1   -1    0    0    0  501  0.00000000000E+00  0.00000000000E+00  0.65891661685E+03  0.65891661687E+03  0.50400001928E-02 0. -1.
        1   -1    0    0  501    0  0.00000000000E+00  0.00000000000E+00 -0.12278065296E+04  0.12278065296E+04  0.50400001928E-02 0.  1.
    10030    2    1    2    0    0  0.00000000000E+00  0.00000000000E+00 -0.56888991275E+03  0.18867231465E+04  0.17989131437E+04 0.  0.
        4    1    3    3  502    0  0.21235894105E+03  0.22711593337E+03 -0.11696470332E+04  0.12102701195E+04  0.12699999809E+01 0.  1.
       -4    1    3    3    0  502 -0.21235894105E+03 -0.22711593337E+03  0.60075712045E+03  0.67645302697E+03  0.12699999809E+01 0. -1.
</event>
<event>
 5   0  0.1573981E-04  0.1831808E+04  0.7818609E-02  0.8689565E-01
        2   -1    0    0  501    0  0.00000000000E+00  0.00000000000E+00  0.14141425821E+04  0.14141425821E+04  0.25500000920E-02 0. -1.
       -2   -1    0    0    0  501  0.00000000000E+00  0.00000000000E+00 -0.59320791553E+03  0.59320791554E+03  0.25500000920E-02 0.  1.
    10030    2    1    2    0    0  0.00000000000E+00  0.00000000000E+00  0.82093466659E+03  0.20073504977E+04  0.18318084762E+04 0.  0.
        1    1    3    3  502    0 -0.92060916692E+02 -0.33720857658E+03 -0.51723907445E+03  0.62427645852E+03  0.50400001928E-02 0.  1.
       -1    1    3    3    0  502  0.92060916692E+02  0.33720857658E+03  0.13381737410E+04  0.13830740391E+04  0.50400001928E-02 0. -1.
</event>
<event>
 5   0  0.8492114E-05  0.1811348E+04  0.7818609E-02  0.8700288E-01
        1   -1    0    0  501    0  0.00000000000E+00  0.00000000000E+00  0.90405602830E+03  0.90405602831E+03  0.50400001928E-02 0.  1.
       -1   -1    0    0    0  501  0.00000000000E+00  0.00000000000E+00 -0.90729436819E+03  0.90729436821E+03  0.50400001928E-02 0. -1.
    10030    2    1    2    0    0  0.00000000000E+00  0.00000000000E+00 -0.32383398959E+01  0.18113503965E+04  0.18113475018E+04 0.  0.
        2    1    3    3  502    0  0.41983459213E+03  0.87470313558E+02 -0.79932515363E+03  0.90710134039E+03  0.25500000920E-02 0. -1.
       -2    1    3    3    0  502 -0.41983459213E+03 -0.87470313558E+02  0.79608681373E+03  0.90424905613E+03  0.25500000920E-02 0.  1.
</event>
<event>
 5   0  0.1549012E-04  0.1786782E+04  0.7818609E-02  0.8713360E-01
        2   -1    0    0  501    0  0.00000000000E+00  0.00000000000E+00  0.98974011511E+03  0.98974011512E+03  0.25500000920E-02 0. -1.
       -2   -1    0    0    0  501  0.00000000000E+00  0.00000000000E+00 -0.80642142220E+03  0.80642142220E+03  0.25500000920E-02 0.  1.
    10030    2    1    2    0    0  0.00000000000E+00  0.00000000000E+00  0.18331869292E+03  0.17961615373E+04  0.17867821705E+04 0.  0.
        4    1    3    3  502    0 -0.40783984676E+02  0.42183295885E+03  0.88226069462E+03  0.97877061907E+03  0.12699999809E+01 0. -1.
       -4    1    3    3    0  502  0.40783984676E+02 -0.42183295885E+03 -0.69894200171E+03  0.81739091824E+03  0.12699999809E+01 0.  1.
</event>
<event>
 5   0  0.1628397E-04  0.1801596E+04  0.7818609E-02  0.8705451E-01
        2   -1    0    0  501    0  0.00000000000E+00  0.00000000000E+00  0.15674446083E+04  0.15674446083E+04  0.25500000920E-02 0. -1.
       -2   -1    0    0    0  501  0.00000000000E+00  0.00000000000E+00 -0.51768164137E+03  0.51768164138E+03  0.25500000920E-02 0.  1.
    10030    2    1    2    0    0  0.00000000000E+00  0.00000000000E+00  0.10497629669E+04  0.20851262497E+04  0.18015962895E+04 0.  0.
        3    1    3    3  502    0  0.38100917891E+03 -0.62629945850E+03  0.11307308329E+04  0.13475797687E+04  0.10100000352E+00 0. -1.
       -3    1    3    3    0  502 -0.38100917891E+03  0.62629945850E+03 -0.80967866013E+02  0.73754648102E+03  0.10100000352E+00 0.  1.
</event>
<event>
 5   0  0.8492114E-05  0.1768369E+04  0.7818609E-02  0.8723304E-01
       -1   -1    0    0    0  501  0.00000000000E+00  0.00000000000E+00  0.13083102082E+04  0.13083102083E+04  0.50400001928E-02 0. -1.
        1   -1    0    0  501    0  0.00000000000E+00  0.00000000000E+00 -0.59755132456E+03  0.59755132458E+03  0.50400001928E-02 0.  1.
    10030    2    1    2    0    0  0.00000000000E+00  0.00000000000E+00  0.71075888368E+03  0.19058615328E+04  0.17683693030E+04 0.  0.
        2    1    3    3  502    0 -0.12972236438E+03 -0.58868187256E+03  0.10525170329E+04  0.12129164618E+04  0.25500000920E-02 0. -1.
       -2    1    3    3    0  502  0.12972236438E+03  0.58868187256E+03 -0.34175814918E+03  0.69294507101E+03  0.25500000920E-02 0.  1.
</event>
<event>
 5   0  0.8254914E-05  0.1768235E+04  0.7818609E-02  0.8723377E-01
       -1   -1    0    0    0  501  0.00000000000E+00  0.00000000000E+00  0.10216685749E+04  0.10216685749E+04  0.50400001928E-02 0. -1.
        1   -1    0    0  501    0  0.00000000000E+00  0.00000000000E+00 -0.76508539188E+03  0.76508539190E+03  0.50400001928E-02 0.  1.
    10030    2    1    2    0    0  0.00000000000E+00  0.00000000000E+00  0.25658318302E+03  0.17867539668E+04  0.17682349414E+04 0.  0.
        4    1    3    3  502    0  0.64824612786E+02  0.38559478308E+03 -0.67296745383E+03  0.77831380174E+03  0.12699999809E+01 0.  1.
       -4    1    3    3    0  502 -0.64824612786E+02 -0.38559478308E+03  0.92955063686E+03  0.10084401651E+04  0.12699999809E+01 0. -1.
</event>
<event>
 5   0  0.8132598E-05  0.1796636E+04  0.7818609E-02  0.8708090E-01
       -1   -1    0    0    0  501  0.00000000000E+00  0.00000000000E+00  0.11119717357E+04  0.11119717357E+04  0.50400001928E-02 0.  1.
        1   -1    0    0  501    0  0.00000000000E+00  0.00000000000E+00 -0.72571553730E+03  0.72571553732E+03  0.50400001928E-02 0. -1.
    10030    2    1    2    0    0  0.00000000000E+00  0.00000000000E+00  0.38625619839E+03  0.18376872730E+04  0.17966359294E+04 0.  0.
        3    1    3    3  502    0  0.17719400312E+03  0.14707397782E+03 -0.69501274971E+03  0.73216883446E+03  0.10100000352E+00 0. -1.
       -3    1    3    3    0  502 -0.17719400312E+03 -0.14707397782E+03  0.10812689481E+04  0.11055184386E+04  0.10100000352E+00 0.  1.
</event>
<event>
 5   0  0.8132598E-05  0.1809773E+04  0.7818609E-02  0.8701119E-01
       -1   -1    0    0    0  501  0.00000000000E+00  0.00000000000E+00  0.59573064927E+03  0.59573064929E+03  0.50400001928E-02 0.  1.
        1   -1    0    0  501    0  0.00000000000E+00  0.00000000000E+00 -0.13744796711E+04  0.13744796711E+04  0.50400001928E-02 0. -1.
    10030    2    1    2    0    0  0.00000000000E+00  0.00000000000E+00 -0.77874902185E+03  0.19702103204E+04  0.18097730984E+04 0.  0.
        3    1    3    3  502    0  0.20678905364E+03  0.77120366512E+03  0.74169290504E+02  0.80188396895E+03  0.10100000352E+00 0.  1.
       -3    1    3    3    0  502 -0.20678905364E+03 -0.77120366512E+03 -0.85291831236E+03  0.11683263515E+04  0.10100000352E+00 0. -1.
</event>
<event>
 5   0  0.1573981E-04  0.1785861E+04  0.7818609E-02  0.8713855E-01
       -2   -1    0    0    0  501  0.00000000000E+00  0.00000000000E+00  0.52138164137E+03  0.52138164137E+03  0.25500000920E-02 0.  1.
        2   -1    0    0  501    0  0.00000000000E+00  0.00000000000E+00 -0.15292540053E+04  0.15292540053E+04  0.25500000920E-02 0. -1.
    10030    2    1    2    0    0  0.00000000000E+00  0.00000000000E+00 -0.10078723639E+04  0.20506356466E+04  0.17858610958E+04 0.  0.
        1    1    3    3  502    0 -0.21115652028E+03  0.86759989226E+03 -0.50062524185E+03  0.10236905206E+04  0.50400001928E-02 0.  1.
       -1    1    3    3    0  502  0.21115652028E+03 -0.86759989226E+03 -0.50724712204E+03  0.10269451261E+04  0.50400001928E-02 0. -1.
</event>
<event>
 5   0  0.1603564E-04  0.1790675E+04  0.7818609E-02  0.8711274E-01
        2   -1    0    0  501    0  0.00000000000E+00  0.00000000000E+00  0.91881998186E+03  0.91881998186E+03  0.25500000920E-02 0. -1.
       -2   -1    0    0    0  501  0.00000000000E+00  0.00000000000E+00 -0.87245539747E+03  0.87245539747E+03  0.25500000920E-02 0.  1.
    10030    2    1    2    0    0  0.00000000000E+00  0.00000000000E+00  0.46364584389E+02  0.17912753793E+04  0.17906752385E+04 0.  0.
        5    1    3    3  502    0  0.11255000328E+03  0.74781369199E+03  0.50262837232E+03  0.90804746122E+03  0.46999998093E+01 0. -1.
       -5    1    3    3    0  502 -0.11255000328E+03 -0.74781369199E+03 -0.45626378793E+03  0.88322791812E+03  0.46999998093E+01 0.  1.
</event>
<event>
 5   0  0.1608627E-04  0.1801822E+04  0.7818609E-02  0.8705331E-01
        2   -1    0    0  501    0  0.00000000000E+00  0.00000000000E+00  0.86450277793E+03  0.86450277794E+03  0.25500000920E-02 0.  1.
       -2   -1    0    0    0  501  0.00000000000E+00  0.00000000000E+00 -0.93885277492E+03  0.93885277493E+03  0.25500000920E-02 0. -1.
    10030    2    1    2    0    0  0.00000000000E+00  0.00000000000E+00 -0.74349996990E+02  0.18033555529E+04  0.18018222243E+04 0.  0.
        2    1    3    3  502    0  0.29273529865E+03  0.24854031818E+03 -0.85283759844E+03  0.93530648141E+03  0.25500000920E-02 0. -1.
       -2    1    3    3    0  502 -0.29273529865E+03 -0.24854031818E+03  0.77848760145E+03  0.86804907146E+03  0.25500000920E-02 0.  1.
</event>
<event>
 5   0  0.8206783E-05  0.1683528E+04  0.7818609E-02  0.8770815E-01
       -1   -1    0    0    0  501  0.00000000000E+00  0.00000000000E+00  0.13811384059E+04  0.13811384059E+04  0.50400001928E-02 0.  1.
        1   -1    0    0  501    0  0.00000000000E+00  0.00000000000E+00 -0.51303079136E+03  0.51303079139E+03  0.50400001928E-02 0. -1.
    10030    2    1    2    0    0  0.00000000000E+00  0.00000000000E+00  0.86810761453E+03  0.18941691973E+04  0.16835278785E+04 0.  0.
        1    1    3    3  502    0  0.21274143962E+03 -0.18858590103E+02  0.13501466451E+04  0.13669347204E+04  0.50400001928E-02 0.  1.
       -1    1    3    3    0  502 -0.21274143962E+03  0.18858590103E+02 -0.48203903059E+03  0.52723447686E+03  0.50400001928E-02 0. -1.
</event>
<event>
 5   0  0.1608627E-04  0.1720946E+04  0.7818609E-02  0.8749508E-01
        2   -1    0    0  501    0  0.00000000000E+00  0.00000000000E+00  0.19573927581E+04  0.19573927581E+04  0.25500000920E-02 0. -1.
       -2   -1    0    0    0  501  0.00000000000E+00  0.00000000000E+00 -0.37826524319E+03  0.37826524320E+03  0.25500000920E-02 0.  1.
    10030    2    1    2    0    0  0.00000000000E+00  0.00000000000E+00  0.15791275149E+04  0.23356580013E+04  0.17209458419E+04 0.  0.
        2    1    3    3  502    0 -0.83580113502E+03  0.18403311311E+03  0.91081769007E+03  0.12498082207E+04  0.25500000920E-02 0. -1.
       -2    1    3    3    0  502  0.83580113502E+03 -0.18403311311E+03  0.66830982485E+03  0.10858497806E+04  0.25500000920E-02 0.  1.
</event>
<event>
 5   0  0.8206783E-05  0.1791478E+04  0.7818609E-02  0.8710844E-01
       -1   -1    0    0    0  501  0.00000000000E+00  0.00000000000E+00  0.81677639935E+03  0.81677639937E+03  0.50400001928E-02 0.  1.
        1   -1    0    0  501    0  0.00000000000E+00  0.00000000000E+00 -0.98233576050E+03  0.98233576051E+03  0.50400001928E-02 0. -1.
    10030    2    1    2    0    0  0.00000000000E+00  0.00000000000E+00 -0.16555936115E+03  0.17991121599E+04  0.17914783453E+04 0.  0.
        1    1    3    3  502    0  0.77966470658E+03  0.10006819063E+03 -0.51409549882E+03  0.93924697466E+03  0.50400001928E-02 0. -1.
       -1    1    3    3    0  502 -0.77966470658E+03 -0.10006819063E+03  0.34853613768E+03  0.85986518522E+03  0.50400001928E-02 0.  1.
</event>
<event>
 5   0  0.8430513E-05  0.1793418E+04  0.7818609E-02  0.8709807E-01
        1   -1    0    0  501    0  0.00000000000E+00  0.00000000000E+00  0.10803247524E+04  0.10803247524E+04  0.50400001928E-02 0.  1.
       -1   -1    0    0    0  501  0.00000000000E+00  0.00000000000E+00 -0.74430154584E+03  0.74430154586E+03  0.50400001928E-02 0. -1.
    10030    2    1    2    0    0  0.00000000000E+00  0.00000000000E+00  0.33602320653E+03  0.18246262982E+04  0.17934183932E+04 0.  0.
        5    1    3    3  502    0  0.85049521712E+03  0.12903941904E+03 -0.89517594703E+02  0.86488656815E+03  0.46999998093E+01 0. -1.
       -5    1    3    3    0  502 -0.85049521712E+03 -0.12903941904E+03  0.42554080123E+03  0.95973973009E+03  0.46999998093E+01 0.  1.
</event>
<event>
 5   0  0.1549012E-04  0.1800251E+04  0.7818609E-02  0.8706166E-01
       -2   -1    0    0    0  501  0.00000000000E+00  0.00000000000E+00  0.51561569922E+03  0.51561569923E+03  0.25500000920E-02 0. -1.
        2   -1    0    0  501    0  0.00000000000E+00  0.00000000000E+00 -0.15713752868E+04  0.15713752868E+04  0.25500000920E-02 0.  1.
    10030    2    1    2    0    0  0.00000000000E+00  0.00000000000E+00 -0.10557595876E+04  0.20869909860E+04  0.18002508350E+04 0.  0.
        4    1    3    3  502    0  0.80525337479E+03 -0.37683076135E+03 -0.69096235786E+03  0.11259951213E+04  0.12699999809E+01 0.  1.
       -4    1    3    3    0  502 -0.80525337479E+03  0.37683076135E+03 -0.36479722973E+03  0.96099586473E+03  0.12699999809E+01 0. -1.
</event>
<event>
 5   0  0.8132598E-05  0.1798303E+04  0.7818609E-02  0.8707202E-01
        1   -1    0    0  501    0  0.00000000000E+00  0.00000000000E+00  0.14198536297E+04  0.14198536297E+04  0.50400001928E-02 0.  1.
       -1   -1    0    0    0  501  0.00000000000E+00  0.00000000000E+00 -0.56940621419E+03  0.56940621421E+03  0.50400001928E-02 0. -1.
    10030    2    1    2    0    0  0.00000000000E+00  0.00000000000E+00  0.85044741547E+03  0.19892598439E+04  0.17983030668E+04 0.  0.
        3    1    3    3  502    0 -0.19963142282E+03 -0.82768717220E+03  0.10547109747E+03  0.85792943918E+03  0.10100000352E+00 0. -1.
       -3    1    3    3    0  502  0.19963142282E+03  0.82768717220E+03  0.74497631800E+03  0.11313304047E+04  0.10100000352E+00 0.  1.
</event>
<event>
 5   0  0.5820500E-05  0.1804918E+04  0.7818609E-02  0.8703689E-01
       -3   -1    0    0    0  501  0.00000000000E+00  0.00000000000E+00  0.21759143527E+04  0.21759143551E+04  0.10100000352E+00 0.  1.
        3   -1    0    0  501    0  0.00000000000E+00  0.00000000000E+00 -0.37429423492E+03  0.37429424855E+03  0.10100000352E+00 0. -1.
    10030    2    1    2    0    0  0.00000000000E+00  0.00000000000E+00  0.18016201178E+04  0.25502086036E+04  0.18049179685E+04 0.  0.
        5    1    3    3  502    0 -0.85095666479E+03 -0.18815868929E+03  0.12318055569E+04  0.15089393485E+04  0.46999998093E+01 0. -1.
       -5    1    3    3    0  502  0.85095666479E+03  0.18815868929E+03  0.56981456096E+03  0.10412692551E+04  0.46999998093E+01 0.  1.
</event>
<event>
 5   0  0.8206783E-05  0.1809346E+04  0.7818609E-02  0.8701345E-01
        1   -1    0    0  501    0  0.00000000000E+00  0.00000000000E+00  0.70366433502E+03  0.70366433504E+03  0.50400001928E-02 0.  1.
       -1   -1    0    0    0  501  0.00000000000E+00  0.00000000000E+00 -0.11631012212E+04  0.11631012212E+04  0.50400001928E-02 0. -1.
    10030    2    1    2    0    0  0.00000000000E+00  0.00000000000E+00 -0.45943688616E+03  0.18667655562E+04  0.18093455694E+04 0.  0.
        1    1    3    3  502    0  0.51625370220E+03  0.28613171380E+02 -0.99563593013E+03  0.11218856912E+04  0.50400001928E-02 0.  1.
       -1    1    3    3    0  502 -0.51625370220E+03 -0.28613171380E+02  0.53619904397E+03  0.74487986508E+03  0.50400001928E-02 0. -1.
</event>
<event>
 5   0  0.8492114E-05  0.1781003E+04  0.7818609E-02  0.8716468E-01
        1   -1    0    0  501    0  0.00000000000E+00  0.00000000000E+00  0.36267644213E+03  0.36267644217E+03  0.50400001928E-02 0.  1.
       -1   -1    0    0    0  501  0.00000000000E+00  0.00000000000E+00 -0.21865018887E+04  0.21865018887E+04  0.50400001928E-02 0. -1.
    10030    2    1    2    0    0  0.00000000000E+00  0.00000000000E+00 -0.18238254466E+04  0.25491783309E+04  0.17810027802E+04 0.  0.
        2    1    3    3  502    0 -0.23306525771E+03  0.54505532970E+03  0.39226850819E+02  0.59409045828E+03  0.25500000920E-02 0. -1.
       -2    1    3    3    0  502  0.23306525771E+03 -0.54505532970E+03 -0.18630522974E+04  0.19550878726E+04  0.25500000920E-02 0.  1.
</event>
<event>
 5   0  0.8254914E-05  0.1801431E+04  0.7818609E-02  0.8705539E-01
       -1   -1    0    0    0  501  0.00000000000E+00  0.00000000000E+00  0.11023820016E+04  0.11023820016E+04  0.50400001928E-02 0.  1.
        1   -1    0    0  501    0  0.00000000000E+00  0.00000000000E+00 -0.73594126171E+03  0.73594126173E+03  0.50400001928E-02 0. -1.
    10030    2    1    2    0    0  0.00000000000E+00  0.00000000000E+00  0.36644073986E+03  0.18383232633E+04  0.18014309880E+04 0.  0.
        4    1    3    3  502    0 -0.22838152093E+03 -0.83771079657E+03 -0.61203712332E+02  0.87043954706E+03  0.12699999809E+01 0. -1.
       -4    1    3    3    0  502  0.22838152093E+03  0.83771079657E+03  0.42764445219E+03  0.96788371625E+03  0.12699999809E+01 0.  1.
</event>
<event>
 5   0  0.5820500E-05  0.1798763E+04  0.7818609E-02  0.8706957E-01
        3   -1    0    0  501    0  0.00000000000E+00  0.00000000000E+00  0.90778461498E+03  0.90778462060E+03  0.10100000352E+00 0. -1.
       -3   -1    0    0    0  501  0.00000000000E+00  0.00000000000E+00 -0.89105630300E+03  0.89105630873E+03  0.10100000352E+00 0.  1.
    10030    2    1    2    0    0  0.00000000000E+00  0.00000000000E+00  0.16728311977E+02  0.17988409293E+04  0.17987631452E+04 0.  0.
        4    1    3    3  502    0  0.46385933596E+03 -0.73889506350E+03  0.22690095377E+03  0.90145274649E+03  0.12699999809E+01 0. -1.
       -4    1    3    3    0  502 -0.46385933596E+03  0.73889506350E+03 -0.21017264179E+03  0.89738818283E+03  0.12699999809E+01 0.  1.
</event>
<event>
 5   0  0.1573981E-04  0.1804286E+04  0.7818609E-02  0.8704023E-01
       -2   -1    0    0    0  501  0.00000000000E+00  0.00000000000E+00  0.10537356272E+04  0.10537356272E+04  0.25500000920E-02 0.  1.
        2   -1    0    0  501    0  0.00000000000E+00  0.00000000000E+00 -0.77235910672E+03  0.77235910672E+03  0.25500000920E-02 0. -1.
    10030    2    1    2    0    0  0.00000000000E+00  0.00000000000E+00  0.28137652049E+03  0.18260947339E+04  0.18042863495E+04 0.  0.
        1    1    3    3  502    0  0.24103857427E+03  0.19515851608E+02 -0.73894392580E+03  0.77750793453E+03  0.50400001928E-02 0. -1.
       -1    1    3    3    0  502 -0.24103857427E+03 -0.19515851608E+02  0.10203204463E+04  0.10485867994E+04  0.50400001928E-02 0.  1.
</event>
<event>
 5   0  0.8492114E-05  0.1779516E+04  0.7818609E-02  0.8717269E-01
       -1   -1    0    0    0  501  0.00000000000E+00  0.00000000000E+00  0.61362647993E+03  0.61362647995E+03  0.50400001928E-02 0.  1.
        1   -1    0    0  501    0  0.00000000000E+00  0.00000000000E+00 -0.12901479963E+04  0.12901479963E+04  0.50400001928E-02 0. -1.
    10030    2    1    2    0    0  0.00000000000E+00  0.00000000000E+00 -0.67652151635E+03  0.19037744762E+04  0.17795156347E+04 0.  0.
        2    1    3    3  502    0  0.71168308240E+02  0.88536834395E+03 -0.39412727089E+03  0.97173985110E+03  0.25500000920E-02 0. -1.
       -2    1    3    3    0  502 -0.71168308240E+02 -0.88536834395E+03 -0.28239424545E+03  0.93203462512E+03  0.25500000920E-02 0.  1.
</event>
<event>
 5   0  0.1628397E-04  0.1804488E+04  0.7818609E-02  0.8703916E-01
        2   -1    0    0  501    0  0.00000000000E+00  0.00000000000E+00  0.12306186511E+04  0.12306186511E+04  0.25500000920E-02 0.  1.
       -2   -1    0    0    0  501  0.00000000000E+00  0.00000000000E+00 -0.66149199706E+03  0.66149199707E+03  0.25500000920E-02 0. -1.
    10030    2    1    2    0    0  0.00000000000E+00  0.00000000000E+00  0.56912665402E+03  0.18921106482E+04  0.18044881702E+04 0.  0.
        3    1    3    3  502    0  0.29622151715E+02  0.78456232180E+03 -0.18157808194E+03  0.80584497188E+03  0.10100000352E+00 0. -1.
       -3    1    3    3    0  502 -0.29622151715E+02 -0.78456232180E+03  0.75070473596E+03  0.10862656763E+04  0.10100000352E+00 0.  1.
</event>
<event>
 5   0  0.8254914E-05  0.1805896E+04  0.7818609E-02  0.8703171E-01
       -1   -1    0    0    0  501  0.00000000000E+00  0.00000000000E+00  0.51575434576E+03  0.51575434578E+03  0.50400001928E-02 0.  1.
        1   -1    0    0  501    0  0.00000000000E+00  0.00000000000E+00 -0.15808199992E+04  0.15808199992E+04  0.50400001928E-02 0. -1.
    10030    2    1    2    0    0  0.00000000000E+00  0.00000000000E+00 -0.10650656534E+04  0.20965743449E+04  0.18058956608E+04 0.  0.
        4    1    3    3  502    0 -0.89542382571E+03  0.11018095970E+03 -0.48925684858E+03  0.10263028541E+04  0.12699999809E+01 0.  1.
       -4    1    3    3    0  502  0.89542382571E+03 -0.11018095970E+03 -0.57580880482E+03  0.10702714909E+04  0.12699999809E+01 0. -1.
</event>
<event>
 5   0  0.1573981E-04  0.1803401E+04  0.7818609E-02  0.8704493E-01
       -2   -1    0    0    0  501  0.00000000000E+00  0.00000000000E+00  0.81955091139E+03  0.81955091139E+03  0.25500000920E-02 0. -1.
        2   -1    0    0  501    0  0.00000000000E+00  0.00000000000E+00 -0.99208484903E+03  0.99208484903E+03  0.25500000920E-02 0.  1.
    10030    2    1    2    0    0  0.00000000000E+00  0.00000000000E+00 -0.17253393764E+03  0.18116357604E+04  0.18034012778E+04 0.  0.
        1    1    3    3  502    0 -0.68112414726E+02 -0.31997792215E+03  0.75783092660E+03  0.82542890974E+03  0.50400001928E-02 0. -1.
       -1    1    3    3    0  502  0.68112414726E+02  0.31997792215E+03 -0.93036486424E+03  0.98620685069E+03  0.50400001928E-02 0.  1.
</event>
<event>
 5   0  0.8132598E-05  0.1798063E+04  0.7818609E-02  0.8707330E-01
        1   -1    0    0  501    0  0.00000000000E+00  0.00000000000E+00  0.19007543119E+04  0.19007543119E+04  0.50400001928E-02 0.  1.
       -1   -1    0    0    0  501  0.00000000000E+00  0.00000000000E+00 -0.42523016018E+03  0.42523016021E+03  0.50400001928E-02 0. -1.
    10030    2    1    2    0    0  0.00000000000E+00  0.00000000000E+00  0.14755241518E+04  0.23259844722E+04  0.17980634700E+04 0.  0.
        3    1    3    3  502    0 -0.89058874428E+03  0.10254990600E+03  0.82543431636E+03  0.12186084751E+04  0.10100000352E+00 0.  1.
       -3    1    3    3    0  502  0.89058874428E+03 -0.10254990600E+03  0.65008983539E+03  0.11073759971E+04  0.10100000352E+00 0. -1.
</event>
<event>
 5   0  0.1549012E-04  0.1813240E+04  0.7818609E-02  0.8699290E-01
        2   -1    0    0  501    0  0.00000000000E+00  0.00000000000E+00  0.22888630530E+04  0.22888630530E+04  0.25500000920E-02 0.  1.
       -2   -1    0    0    0  501  0.00000000000E+00  0.00000000000E+00 -0.35911280197E+03  0.35911280198E+03  0.25500000920E-02 0. -1.
    10030    2    1    2    0    0  0.00000000000E+00  0.00000000000E+00  0.19297502510E+04  0.26479758550E+04  0.18132402205E+04 0.  0.
        4    1    3    3  502    0 -0.30430730311E+03  0.43392656513E+03 -0.10931877101E+03  0.54115377227E+03  0.12699999809E+01 0. -1.
       -4    1    3    3    0  502  0.30430730311E+03 -0.43392656513E+03  0.20390690220E+04  0.21068220827E+04  0.12699999809E+01 0.  1.
</event>
<event>
 5   0  0.1549012E-04  0.1804795E+04  0.7818609E-02  0.8703754E-01
        2   -1    0    0  501    0  0.00000000000E+00  0.00000000000E+00  0.37143940823E+03  0.37143940824E+03  0.25500000920E-02 0. -1.
       -2   -1    0    0    0  501  0.00000000000E+00  0.00000000000E+00 -0.21923392173E+04  0.21923392173E+04  0.25500000920E-02 0.  1.
    10030    2    1    2    0    0  0.00000000000E+00  0.00000000000E+00 -0.18208998091E+04  0.25637786255E+04  0.18047949263E+04 0.  0.
        4    1    3    3  502    0  0.32109135054E+03  0.71028870130E+03 -0.15563022963E+04  0.17405999382E+04  0.12699999809E+01 0. -1.
       -4    1    3    3    0  502 -0.32109135054E+03 -0.71028870130E+03 -0.26459751277E+03  0.82317868732E+03  0.12699999809E+01 0.  1.
</event>
<event>
 5   0  0.1603564E-04  0.1808462E+04  0.7818609E-02  0.8701812E-01
        2   -1    0    0  501    0  0.00000000000E+00  0.00000000000E+00  0.97421652689E+03  0.97421652689E+03  0.25500000920E-02 0. -1.
       -2   -1    0    0    0  501  0.00000000000E+00  0.00000000000E+00 -0.83927296716E+03  0.83927296716E+03  0.25500000920E-02 0.  1.
    10030    2    1    2    0    0  0.00000000000E+00  0.00000000000E+00  0.13494355973E+03  0.18134894941E+04  0.18084618826E+04 0.  0.
        5    1    3    3  502    0  0.38031303690E+03  0.56754561131E+03  0.66145750018E+03  0.95094381616E+03  0.46999998093E+01 0. -1.
       -5    1    3    3    0  502 -0.38031303690E+03 -0.56754561131E+03 -0.52651394045E+03  0.86254567789E+03  0.46999998093E+01 0.  1.
</event>
<event>
 5   0  0.1608627E-04  0.1811416E+04  0.7818609E-02  0.8700252E-01
        2   -1    0    0  501    0  0.00000000000E+00  0.00000000000E+00  0.15723804268E+04  0.15723804268E+04  0.25500000920E-02 0.  1.
       -2   -1    0    0    0  501  0.00000000000E+00  0.00000000000E+00 -0.52169743597E+03  0.52169743598E+03  0.25500000920E-02 0. -1.
    10030    2    1    2    0    0  0.00000000000E+00  0.00000000000E+00  0.10506829908E+04  0.20940778627E+04  0.18114158407E+04 0.  0.
        2    1    3    3  502    0  0.49866466466E+02  0.87263361582E+03  0.25096467924E+03  0.90937305995E+03  0.25500000920E-02 0. -1.
       -2    1    3    3    0  502 -0.49866466466E+02 -0.87263361582E+03  0.79971831155E+03  0.11847048028E+04  0.25500000920E-02 0.  1.
</event>
<event>
 5   0  0.1628397E-04  0.1796393E+04  0.7818609E-02  0.8708220E-01
       -2   -1    0    0    0  501  0.00000000000E+00  0.00000000000E+00  0.66454625248E+03  0.66454625248E+03  0.25500000920E-02 0. -1.
        2   -1    0    0  501    0  0.00000000000E+00  0.00000000000E+00 -0.12139962980E+04  0.12139962980E+04  0.25500000920E-02 0.  1.
    10030    2    1    2    0    0  0.00000000000E+00  0.00000000000E+00 -0.54945004552E+03  0.18785425505E+04  0.17963927080E+04 0.  0.
        3    1    3    3  502    0  0.34083624408E+02  0.68937248340E+03 -0.87577952385E+03  0.11150721496E+04  0.10100000352E+00 0.  1.
       -3    1    3    3    0  502 -0.34083624408E+02 -0.68937248340E+03  0.32632947833E+03  0.76347040084E+03  0.10100000352E+00 0. -1.
</event>
<event>
 5   0  0.1628397E-04  0.1778719E+04  0.7818609E-02  0.8717699E-01
        2   -1    0    0  501    0  0.00000000000E+00  0.00000000000E+00  0.11487755386E+04  0.11487755386E+04  0.25500000920E-02 0.  1.
       -2   -1    0    0    0  501  0.00000000000E+00  0.00000000000E+00 -0.68852476203E+03  0.68852476203E+03  0.25500000920E-02 0. -1.
    10030    2    1    2    0    0  0.00000000000E+00  0.00000000000E+00  0.46025077657E+03  0.18373003006E+04  0.17787190946E+04 0.  0.
        3    1    3    3  502    0  0.45888603840E+03 -0.32766525245E+02 -0.55606625590E+03  0.72170612617E+03  0.10100000352E+00 0. -1.
       -3    1    3    3    0  502 -0.45888603840E+03  0.32766525245E+02  0.10163170325E+04  0.11155941745E+04  0.10100000352E+00 0.  1.
</event>
<event>
 5   0  0.1608627E-04  0.1774761E+04  0.7818609E-02  0.8719838E-01
        2   -1    0    0  501    0  0.00000000000E+00  0.00000000000E+00  0.10956538510E+04  0.10956538510E+04  0.25500000920E-02 0. -1.
       -2   -1    0    0    0  501  0.00000000000E+00  0.00000000000E+00 -0.71869759991E+03  0.71869759992E+03  0.25500000920E-02 0.  1.
    10030    2    1    2    0    0  0.00000000000E+00  0.00000000000E+00  0.37695625111E+03  0.18143514509E+04  0.17747605958E+04 0.  0.
        2    1    3    3  502    0 -0.66495280419E+03  0.54405281779E+03 -0.38483610664E+02  0.86002133034E+03  0.25500000920E-02 0. -1.
       -2    1    3    3    0  502  0.66495280419E+03 -0.54405281779E+03  0.41543986177E+03  0.95433012061E+03  0.25500000920E-02 0.  1.
</event>
<event>
 5   0  0.1603564E-04  0.1806942E+04  0.7818609E-02  0.8702616E-01
        2   -1    0    0  501    0  0.00000000000E+00  0.00000000000E+00  0.85409935013E+03  0.85409935014E+03  0.25500000920E-02 0. -1.
       -2   -1    0    0    0  501  0.00000000000E+00  0.00000000000E+00 -0.95569675523E+03  0.95569675524E+03  0.25500000920E-02 0.  1.
    10030    2    1    2    0    0  0.00000000000E+00  0.00000000000E+00 -0.10159740510E+03  0.18097961054E+04  0.18069421436E+04 0.  0.
        5    1    3    3  502    0 -0.45629436105E+03  0.41703536278E+02  0.72908006053E+03  0.86111761887E+03  0.46999998093E+01 0. -1.
       -5    1    3    3    0  502  0.45629436105E+03 -0.41703536278E+02 -0.83067746563E+03  0.94867848651E+03  0.46999998093E+01 0.  1.
</event>
<event>
 5   0  0.1628397E-04  0.1787858E+04  0.7818609E-02  0.8712783E-01
        2   -1    0    0  501    0  0.00000000000E+00  0.00000000000E+00  0.88203224052E+03  0.88203224053E+03  0.25500000920E-02 0. -1.
       -2   -1    0    0    0  501  0.00000000000E+00  0.00000000000E+00 -0.90598596839E+03  0.90598596839E+03  0.25500000920E-02 0.  1.
    10030    2    1    2    0    0  0.00000000000E+00  0.00000000000E+00 -0.23953727865E+02  0.17880182089E+04  0.17878577500E+04 0.  0.
        3    1    3    3  502    0 -0.55010482980E+03 -0.93773995609E+02 -0.71039470641E+03  0.90336567077E+03  0.10100000352E+00 0.  1.
       -3    1    3    3    0  502  0.55010482980E+03  0.93773995609E+02  0.68644097855E+03  0.88465253815E+03  0.10100000352E+00 0. -1.
</event>
<event>
 5   0  0.8254914E-05  0.1794348E+04  0.7818609E-02  0.8709311E-01
        1   -1    0    0  501    0  0.00000000000E+00  0.00000000000E+00  0.11720568070E+04  0.11720568070E+04  0.50400001928E-02 0.  1.
       -1   -1    0    0    0  501  0.00000000000E+00  0.00000000000E+00 -0.68675931555E+03  0.68675931557E+03  0.50400001928E-02 0. -1.
    10030    2    1    2    0    0  0.00000000000E+00  0.00000000000E+00  0.48529749143E+03  0.18588161226E+04  0.17943477150E+04 0.  0.
        4    1    3    3  502    0 -0.15449713142E+03  0.76887000242E+03  0.69406748516E+03  0.10472639262E+04  0.12699999809E+01 0.  1.
       -4    1    3    3    0  502  0.15449713142E+03 -0.76887000242E+03 -0.20876999374E+03  0.81155219637E+03  0.12699999809E+01 0. -1.
</event>
<event>
 5   0  0.1573981E-04  0.1800719E+04  0.7818609E-02  0.8705917E-01
       -2   -1    0    0    0  501  0.00000000000E+00  0.00000000000E+00  0.47620511999E+03  0.47620512000E+03  0.25500000920E-02 0.  1.
        2   -1    0    0  501    0  0.00000000000E+00  0.00000000000E+00 -0.17023070888E+04  0.17023070888E+04  0.25500000920E-02 0. -1.
    10030    2    1    2    0    0  0.00000000000E+00  0.00000000000E+00 -0.12261019688E+04  0.21785122088E+04  0.18007191358E+04 0.  0.
        1    1    3    3  502    0  0.48345874781E+03 -0.34701581212E+03  0.20434413250E+03  0.62921288862E+03  0.50400001928E-02 0.  1.
       -1    1    3    3    0  502 -0.48345874781E+03  0.34701581212E+03 -0.14304461013E+04  0.15492993201E+04  0.50400001928E-02 0. -1.
</event>
<event>
 5   0  0.1608627E-04  0.1807273E+04  0.7818609E-02  0.8702441E-01
        2   -1    0    0  501    0  0.00000000000E+00  0.00000000000E+00  0.11230528323E+04  0.11230528323E+04  0.25500000920E-02 0. -1.
       -2   -1    0    0    0  501  0.00000000000E+00  0.00000000000E+00 -0.72708877245E+03  0.72708877246E+03  0.25500000920E-02 0.  1.
    10030    2    1    2    0    0  0.00000000000E+00  0.00000000000E+00  0.39596405984E+03  0.18501416048E+04  0.18072732004E+04 0.  0.
        2    1    3    3  502    0  0.68074103271E+03  0.58280141103E+03  0.31689787226E+03  0.95052096230E+03  0.25500000920E-02 0. -1.
       -2    1    3    3    0  502 -0.68074103271E+03 -0.58280141103E+03  0.79066187575E+02  0.89962064246E+03  0.25500000920E-02 0.  1.
</event>
<event>
 5   0  0.8492114E-05  0.1800744E+04  0.7818609E-02  0.8705904E-01
       -1   -1    0    0    0  501  0.00000000000E+00  0.00000000000E+00  0.66981799911E+03  0.66981799913E+03  0.50400001928E-02 0. -1.
        1   -1    0    0  501    0  0.00000000000E+00  0.00000000000E+00 -0.12102830955E+04  0.12102830955E+04  0.50400001928E-02 0.  1.
    10030    2    1    2    0    0  0.00000000000E+00  0.00000000000E+00 -0.54046509639E+03  0.18801010946E+04  0.18007436257E+04 0.  0.
        2    1    3    3  502    0 -0.41513047106E+03 -0.90383610796E+02 -0.10990466061E+04  0.11783063895E+04  0.25500000920E-02 0.  1.
       -2    1    3    3    0  502  0.41513047106E+03  0.90383610796E+02  0.55858150975E+03  0.70179470513E+03  0.25500000920E-02 0. -1.
</event>
<event>
 5   0  0.1603564E-04  0.1797884E+04  0.7818609E-02  0.8707426E-01
       -2   -1    0    0    0  501  0.00000000000E+00  0.00000000000E+00  0.11729370686E+04  0.11729370686E+04  0.25500000920E-02 0.  1.
        2   -1    0    0  501    0  0.00000000000E+00  0.00000000000E+00 -0.68895128622E+03  0.68895128623E+03  0.25500000920E-02 0. -1.
    10030    2    1    2    0    0  0.00000000000E+00  0.00000000000E+00  0.48398578239E+03  0.18618883548E+04  0.17978837583E+04 0.  0.
        5    1    3    3  502    0 -0.81880689708E+03  0.35375234274E+03  0.12626044880E+03  0.90086028086E+03  0.46999998093E+01 0.  1.
       -5    1    3    3    0  502  0.81880689708E+03 -0.35375234274E+03  0.35772533359E+03  0.96102807398E+03  0.46999998093E+01 0. -1.
</event>
<event>
 5   0  0.8132598E-05  0.1803605E+04  0.7818609E-02  0.8704385E-01
        1   -1    0    0  501    0  0.00000000000E+00  0.00000000000E+00  0.13281289887E+04  0.13281289887E+04  0.50400001928E-02 0. -1.
       -1   -1    0    0    0  501  0.00000000000E+00  0.00000000000E+00 -0.61232612421E+03  0.61232612424E+03  0.50400001928E-02 0.  1.
    10030    2    1    2    0    0  0.00000000000E+00  0.00000000000E+00  0.71580286449E+03  0.19404551129E+04  0.18036053628E+04 0.  0.
        3    1    3    3  502    0 -0.76111588694E+03 -0.26061572983E+03 -0.80483396491E+02  0.80851440266E+03  0.10100000352E+00 0.  1.
       -3    1    3    3    0  502  0.76111588694E+03  0.26061572983E+03  0.79628626098E+03  0.11319407103E+04  0.10100000352E+00 0. -1.
</event>
<event>
 5   0  0.8132598E-05  0.1764988E+04  0.7818609E-02  0.8725143E-01
       -1   -1    0    0    0  501  0.00000000000E+00  0.00000000000E+00  0.42624285921E+03  0.42624285924E+03  0.50400001928E-02 0.  1.
        1   -1    0    0  501    0  0.00000000000E+00  0.00000000000E+00 -0.18271164087E+04  0.18271164087E+04  0.50400001928E-02 0. -1.
    10030    2    1    2    0    0  0.00000000000E+00  0.00000000000E+00 -0.14008735495E+04  0.22533592680E+04  0.17649876172E+04 0.  0.
        3    1    3    3  502    0  0.77937446473E+03  0.36271033094E+03 -0.44569766925E+03  0.96831284357E+03  0.10100000352E+00 0.  1.
       -3    1    3    3    0  502 -0.77937446473E+03 -0.36271033094E+03 -0.95517588023E+03  0.12850464244E+04  0.10100000352E+00 0. -1.
</event>
<event>
 5   0  0.8254914E-05  0.1854409E+04  0.7818609E-02  0.8677889E-01
        1   -1    0    0  501    0  0.00000000000E+00  0.00000000000E+00  0.46048737353E+03  0.46048737356E+03  0.50400001928E-02 0. -1.
       -1   -1    0    0    0  501  0.00000000000E+00  0.00000000000E+00 -0.18669529274E+04  0.18669529274E+04  0.50400001928E-02 0.  1.
    10030    2    1    2    0    0  0.00000000000E+00  0.00000000000E+00 -0.14064655538E+04  0.23274403009E+04  0.18544090704E+04 0.  0.
        4    1    3    3  502    0 -0.40873668936E+03 -0.11654613540E+02 -0.17476751995E+04  0.17948737357E+04  0.12699999809E+01 0.  1.
       -4    1    3    3    0  502  0.40873668936E+03  0.11654613540E+02  0.34120964565E+03  0.53256656525E+03  0.12699999809E+01 0. -1.
</event>
<event>
 5   0  0.1549012E-04  0.1798100E+04  0.7818609E-02  0.8707310E-01
        2   -1    0    0  501    0  0.00000000000E+00  0.00000000000E+00  0.17921335745E+04  0.17921335745E+04  0.25500000920E-02 0.  1.
       -2   -1    0    0    0  501  0.00000000000E+00  0.00000000000E+00 -0.45102174285E+03  0.45102174285E+03  0.25500000920E-02 0. -1.
    10030    2    1    2    0    0  0.00000000000E+00  0.00000000000E+00  0.13411118316E+04  0.22431553173E+04  0.17981003400E+04 0.  0.
        4    1    3    3  502    0  0.27932688579E+02 -0.83393630138E+02 -0.44564139578E+03  0.45423848271E+03  0.12699999809E+01 0. -1.
       -4    1    3    3    0  502 -0.27932688579E+02  0.83393630138E+02  0.17867532274E+04  0.17889168346E+04  0.12699999809E+01 0.  1.
</event>
<event>
 5   0  0.1608627E-04  0.1793430E+04  0.7818609E-02  0.8709801E-01
        2   -1    0    0  501    0  0.00000000000E+00  0.00000000000E+00  0.10972456898E+04  0.10972456898E+04  0.25500000920E-02 0.  1.
       -2   -1    0    0    0  501  0.00000000000E+00  0.00000000000E+00 -0.73283266261E+03  0.73283266261E+03  0.25500000920E-02 0. -1.
    10030    2    1    2    0    0  0.00000000000E+00  0.00000000000E+00  0.36441302721E+03  0.18300783524E+04  0.17934296534E+04 0.  0.
        2    1    3    3  502    0  0.82592448817E+02 -0.67910711114E+03 -0.40937256891E+03  0.79724141963E+03  0.25500000920E-02 0. -1.
       -2    1    3    3    0  502 -0.82592448817E+02  0.67910711114E+03  0.77378559612E+03  0.10328369328E+04  0.25500000920E-02 0.  1.
</event>
<event>
 5   0  0.1549012E-04  0.1896984E+04  0.7818609E-02  0.8656359E-01
       -2   -1    0    0    0  501  0.00000000000E+00  0.00000000000E+00  0.16068333227E+04  0.16068333227E+04  0.25500000920E-02 0. -1.
        2   -1    0    0  501    0  0.00000000000E+00  0.00000000000E+00 -0.55988228297E+03  0.55988228297E+03  0.25500000920E-02 0.  1.
    10030    2    1    2    0    0  0.00000000000E+00  0.00000000000E+00  0.10469510398E+04  0.21667156057E+04  0.18969844586E+04 0.  0.
        4    1    3    3  502    0  0.20653879008E+03 -0.77526112776E+03 -0.54372787974E+02  0.80414308490E+03  0.12699999809E+01 0.  1.
       -4    1    3    3    0  502 -0.20653879008E+03  0.77526112776E+03  0.11013238277E+04  0.13625725208E+04  0.12699999809E+01 0. -1.
</event>
<event>
 5   0  0.1573981E-04  0.1806477E+04  0.7818609E-02  0.8702863E-01
       -2   -1    0    0    0  501  0.00000000000E+00  0.00000000000E+00  0.55591587546E+03  0.55591587546E+03  0.25500000920E-02 0. -1.
        2   -1    0    0  501    0  0.00000000000E+00  0.00000000000E+00 -0.14675602073E+04  0.14675602073E+04  0.25500000920E-02 0.  1.
    10030    2    1    2    0    0  0.00000000000E+00  0.00000000000E+00 -0.91164433186E+03  0.20234760828E+04  0.18064772542E+04 0.  0.
        1    1    3    3  502    0 -0.17335395551E+03  0.88553720373E+03 -0.41084558931E+03  0.99147457424E+03  0.50400001928E-02 0.  1.
       -1    1    3    3    0  502  0.17335395551E+03 -0.88553720373E+03 -0.50079874255E+03  0.10320015085E+04  0.50400001928E-02 0. -1.
</event>
<event>
 5   0  0.1628397E-04  0.1774545E+04  0.7818609E-02  0.8719954E-01
        2   -1    0    0  501    0  0.00000000000E+00  0.00000000000E+00  0.11520473474E+04  0.11520473474E+04  0.25500000920E-02 0.  1.
       -2   -1    0    0    0  501  0.00000000000E+00  0.00000000000E+00 -0.68335098335E+03  0.68335098335E+03  0.25500000920E-02 0. -1.
    10030    2    1    2    0    0  0.00000000000E+00  0.00000000000E+00  0.46869636408E+03  0.18353983308E+04  0.17745452237E+04 0.  0.
        3    1    3    3  502    0  0.11878950394E+03 -0.84197193349E+03 -0.27768884291E+02  0.85076365941E+03  0.10100000352E+00 0. -1.
       -3    1    3    3    0  502 -0.11878950394E+03  0.84197193349E+03  0.49646524837E+03  0.98463467137E+03  0.10100000352E+00 0.  1.
</event>
<event>
 5   0  0.8206783E-05  0.1792549E+04  0.7818609E-02  0.8710272E-01
       -1   -1    0    0    0  501  0.00000000000E+00  0.00000000000E+00  0.36706731484E+03  0.36706731488E+03  0.50400001928E-02 0.  1.
        1   -1    0    0  501    0  0.00000000000E+00  0.00000000000E+00 -0.21884494622E+04  0.21884494622E+04  0.50400001928E-02 0. -1.
    10030    2    1    2    0    0  0.00000000000E+00  0.00000000000E+00 -0.18213821473E+04  0.25555167771E+04  0.17925493218E+04 0.  0.
        1    1    3    3  502    0  0.69812353981E+03  0.38476829879E+03 -0.14948267883E+04  0.16940868477E+04  0.50400001928E-02 0. -1.
       -1    1    3    3    0  502 -0.69812353981E+03 -0.38476829879E+03 -0.32655535900E+03  0.86142992931E+03  0.50400001928E-02 0.  1.
</event>
<event>
 5   0  0.1608627E-04  0.1797724E+04  0.7818609E-02  0.8707511E-01
        2   -1    0    0  501    0  0.00000000000E+00  0.00000000000E+00  0.25898898471E+04  0.25898898471E+04  0.25500000920E-02 0.  1.
       -2   -1    0    0    0  501  0.00000000000E+00  0.00000000000E+00 -0.31196435202E+03  0.31196435203E+03  0.25500000920E-02 0. -1.
    10030    2    1    2    0    0  0.00000000000E+00  0.00000000000E+00  0.22779254951E+04  0.29018541991E+04  0.17977244594E+04 0.  0.
        2    1    3    3  502    0 -0.65148540987E+03 -0.20591686219E+03  0.20817310648E+04  0.21909904654E+04  0.25500000920E-02 0.  1.
       -2    1    3    3    0  502  0.65148540987E+03  0.20591686219E+03  0.19619443025E+03  0.71086373369E+03  0.25500000920E-02 0. -1.
</event>
<event>
 5   0  0.8492114E-05  0.1812907E+04  0.7818609E-02  0.8699465E-01
       -1   -1    0    0    0  501  0.00000000000E+00  0.00000000000E+00  0.54533640343E+03  0.54533640345E+03  0.50400001928E-02 0. -1.
        1   -1    0    0  501    0  0.00000000000E+00  0.00000000000E+00 -0.15066999496E+04  0.15066999496E+04  0.50400001928E-02 0.  1.
    10030    2    1    2    0    0  0.00000000000E+00  0.00000000000E+00 -0.96136354621E+03  0.20520363531E+04  0.18129074236E+04 0.  0.
        2    1    3    3  502    0  0.62702125879E+03 -0.43936261572E+03  0.68569296345E+02  0.76869819531E+03  0.25500000920E-02 0. -1.
       -2    1    3    3    0  502 -0.62702125879E+03  0.43936261572E+03 -0.10299328426E+04  0.12833381578E+04  0.25500000920E-02 0.  1.
</event>
<event>
 5   0  0.1549012E-04  0.1778585E+04  0.7818609E-02  0.8717771E-01
       -2   -1    0    0    0  501  0.00000000000E+00  0.00000000000E+00  0.57776652706E+03  0.57776652707E+03  0.25500000920E-02 0. -1.
        2   -1    0    0  501    0  0.00000000000E+00  0.00000000000E+00 -0.13687897380E+04  0.13687897380E+04  0.25500000920E-02 0.  1.
    10030    2    1    2    0    0  0.00000000000E+00  0.00000000000E+00 -0.79102321093E+03  0.19465562651E+04  0.17785847106E+04 0.  0.
        4    1    3    3  502    0  0.73443070682E+03  0.47397055650E+03 -0.21633474918E+03  0.90046592837E+03  0.12699999809E+01 0.  1.
       -4    1    3    3    0  502 -0.73443070682E+03 -0.47397055650E+03 -0.57468846176E+03  0.10460903367E+04  0.12699999809E+01 0. -1.
</event>
<event>
 5   0  0.1549012E-04  0.1801047E+04  0.7818609E-02  0.8705743E-01
       -2   -1    0    0    0  501  0.00000000000E+00  0.00000000000E+00  0.44398846567E+03  0.44398846567E+03  0.25500000920E-02 0.  1.
        2   -1    0    0  501    0  0.00000000000E+00  0.00000000000E+00 -0.18264944690E+04  0.18264944690E+04  0.25500000920E-02 0. -1.
    10030    2    1    2    0    0  0.00000000000E+00  0.00000000000E+00 -0.13825060033E+04  0.22704829347E+04  0.18010468921E+04 0.  0.
        4    1    3    3  502    0 -0.49067425371E+03 -0.36084573640E+03 -0.15274425822E+04  0.16444005970E+04  0.12699999809E+01 0. -1.
       -4    1    3    3    0  502  0.49067425371E+03  0.36084573640E+03  0.14493657885E+03  0.62608233765E+03  0.12699999809E+01 0.  1.
</event>
<event>
 5   0  0.8206783E-05  0.1790517E+04  0.7818609E-02  0.8711359E-01
        1   -1    0    0  501    0  0.00000000000E+00  0.00000000000E+00  0.13712775297E+04  0.13712775297E+04  0.50400001928E-02 0.  1.
       -1   -1    0    0    0  501  0.00000000000E+00  0.00000000000E+00 -0.58448244618E+03  0.58448244620E+03  0.50400001928E-02 0. -1.
    10030    2    1    2    0    0  0.00000000000E+00  0.00000000000E+00  0.78679508351E+03  0.19557599759E+04  0.17905168471E+04 0.  0.
        1    1    3    3  502    0  0.45979003933E+03 -0.75539708410E+03  0.54575511026E+03  0.10391728804E+04  0.50400001928E-02 0.  1.
       -1    1    3    3    0  502 -0.45979003933E+03  0.75539708410E+03  0.24103997324E+03  0.91658709551E+03  0.50400001928E-02 0. -1.
</event>
<event>
 5   0  0.8132598E-05  0.1802005E+04  0.7818609E-02  0.8705234E-01
        1   -1    0    0  501    0  0.00000000000E+00  0.00000000000E+00  0.10369182128E+04  0.10369182128E+04  0.50400001928E-02 0.  1.
       -1   -1    0    0    0  501  0.00000000000E+00  0.00000000000E+00 -0.78290176552E+03  0.78290176554E+03  0.50400001928E-02 0. -1.
    10030    2    1    2    0    0  0.00000000000E+00  0.00000000000E+00  0.25401644723E+03  0.18198199783E+04  0.18020045499E+04 0.  0.
        3    1    3    3  502    0 -0.55877626928E+03 -0.30252616759E+03 -0.51809668665E+03  0.81986412783E+03  0.10100000352E+00 0. -1.
       -3    1    3    3    0  502  0.55877626928E+03  0.30252616759E+03  0.77211313388E+03  0.99995585047E+03  0.10100000352E+00 0.  1.
</event>
<event>
 5   0  0.1628397E-04  0.1797096E+04  0.7818609E-02  0.8707845E-01
        2   -1    0    0  501    0  0.00000000000E+00  0.00000000000E+00  0.87302857661E+03  0.87302857662E+03  0.25500000920E-02 0. -1.
       -2   -1    0    0    0  501  0.00000000000E+00  0.00000000000E+00 -0.92481379465E+03  0.92481379465E+03  0.25500000920E-02 0.  1.
    10030    2    1    2    0    0  0.00000000000E+00  0.00000000000E+00 -0.51785218036E+02  0.17978423713E+04  0.17970964034E+04 0.  0.
        3    1    3    3  502    0 -0.91926999552E+02  0.67180916836E+03  0.56393734301E+03  0.88193166911E+03  0.10100000352E+00 0. -1.
       -3    1    3    3    0  502  0.91926999552E+02 -0.67180916836E+03 -0.61572256104E+03  0.91591070216E+03  0.10100000352E+00 0.  1.
</event>
<event>
 5   0  0.8430513E-05  0.1824538E+04  0.7818609E-02  0.8693358E-01
        1   -1    0    0  501    0  0.00000000000E+00  0.00000000000E+00  0.48328520577E+03  0.48328520580E+03  0.50400001928E-02 0.  1.
       -1   -1    0    0    0  501  0.00000000000E+00  0.00000000000E+00 -0.17220362582E+04  0.17220362582E+04  0.50400001928E-02 0. -1.
    10030    2    1    2    0    0  0.00000000000E+00  0.00000000000E+00 -0.12387510524E+04  0.22053214640E+04  0.18245379113E+04 0.  0.
        5    1    3    3  502    0  0.38108996426E+03  0.55844168424E+03 -0.13596751476E+04  0.15184944098E+04  0.46999998093E+01 0. -1.
       -5    1    3    3    0  502 -0.38108996426E+03 -0.55844168424E+03  0.12092409522E+03  0.68682705418E+03  0.46999998093E+01 0.  1.
</event>
<event>
 5   0  0.8254914E-05  0.1790270E+04  0.7818609E-02  0.8711491E-01
        1   -1    0    0  501    0  0.00000000000E+00  0.00000000000E+00  0.13713441170E+04  0.13713441170E+04  0.50400001928E-02 0.  1.
       -1   -1    0    0    0  501  0.00000000000E+00  0.00000000000E+00 -0.58429318303E+03  0.58429318305E+03  0.50400001928E-02 0. -1.
    10030    2    1    2    0    0  0.00000000000E+00  0.00000000000E+00  0.78705093401E+03  0.19556373001E+04  0.17902703921E+04 0.  0.
        4    1    3    3  502    0  0.10934349076E+03  0.31621407382E+02  0.13634055953E+04  0.13681492399E+04  0.12699999809E+01 0.  1.
       -4    1    3    3    0  502 -0.10934349076E+03 -0.31621407382E+02 -0.57635466131E+03  0.58748806021E+03  0.12699999809E+01 0. -1.
</event>
<event>
 5   0  0.1549012E-04  0.1805509E+04  0.7818609E-02  0.8703376E-01
       -2   -1    0    0    0  501  0.00000000000E+00  0.00000000000E+00  0.10060503626E+04  0.10060503626E+04  0.25500000920E-02 0.  1.
        2   -1    0    0  501    0  0.00000000000E+00  0.00000000000E+00 -0.81006415629E+03  0.81006415629E+03  0.25500000920E-02 0. -1.
    10030    2    1    2    0    0  0.00000000000E+00  0.00000000000E+00  0.19598620635E+03  0.18161145189E+04  0.18055086133E+04 0.  0.
        4    1    3    3  502    0 -0.82865360621E+03  0.34456076847E+03  0.19641882093E+03  0.91867888207E+03  0.12699999809E+01 0. -1.
       -4    1    3    3    0  502  0.82865360621E+03 -0.34456076847E+03 -0.43261457547E+00  0.89743563686E+03  0.12699999809E+01 0.  1.
</event>
<event>
 5   0  0.1573981E-04  0.1755190E+04  0.7818609E-02  0.8730499E-01
        2   -1    0    0  501    0  0.00000000000E+00  0.00000000000E+00  0.11823199939E+04  0.11823199939E+04  0.25500000920E-02 0.  1.
       -2   -1    0    0    0  501  0.00000000000E+00  0.00000000000E+00 -0.65140825240E+03  0.65140825241E+03  0.25500000920E-02 0. -1.
    10030    2    1    2    0    0  0.00000000000E+00  0.00000000000E+00  0.53091174150E+03  0.18337282463E+04  0.17551900194E+04 0.  0.
        1    1    3    3  502    0 -0.97213228220E+02 -0.42102975662E+02  0.11756151400E+04  0.11803787653E+04  0.50400001928E-02 0.  1.
       -1    1    3    3    0  502  0.97213228220E+02  0.42102975662E+02 -0.64470339846E+03  0.65334948099E+03  0.50400001928E-02 0. -1.
</event>
<event>
 5   0  0.8492114E-05  0.1807672E+04  0.7818609E-02  0.8702230E-01
       -1   -1    0    0    0  501  0.00000000000E+00  0.00000000000E+00  0.95570531749E+03  0.95570531750E+03  0.50400001928E-02 0.  1.
        1   -1    0    0  501    0  0.00000000000E+00  0.00000000000E+00 -0.85478162077E+03  0.85478162078E+03  0.50400001928E-02 0. -1.
    10030    2    1    2    0    0  0.00000000000E+00  0.00000000000E+00  0.10092369672E+03  0.18104869383E+04  0.18076718068E+04 0.  0.
        2    1    3    3  502    0 -0.65544355785E+03 -0.62177856780E+03  0.77045515086E+02  0.90672534778E+03  0.25500000920E-02 0.  1.
       -2    1    3    3    0  502  0.65544355785E+03  0.62177856780E+03  0.23878181636E+02  0.90376159050E+03  0.25500000920E-02 0. -1.
</event>
<event>
 5   0  0.1608627E-04  0.1791769E+04  0.7818609E-02  0.8710689E-01
       -2   -1    0    0    0  501  0.00000000000E+00  0.00000000000E+00  0.24846194726E+04  0.24846194726E+04  0.25500000920E-02 0.  1.
        2   -1    0    0  501    0  0.00000000000E+00  0.00000000000E+00 -0.32303098467E+03  0.32303098468E+03  0.25500000920E-02 0. -1.
    10030    2    1    2    0    0  0.00000000000E+00  0.00000000000E+00  0.21615884880E+04  0.28076504573E+04  0.17917690418E+04 0.  0.
        2    1    3    3  502    0  0.85136269234E+03 -0.27817010586E+03  0.11126015620E+04  0.14283134381E+04  0.25500000920E-02 0. -1.
       -2    1    3    3    0  502 -0.85136269234E+03  0.27817010586E+03  0.10489869260E+04  0.13793370192E+04  0.25500000920E-02 0.  1.
</event>
<event>
 5   0  0.1573981E-04  0.1819088E+04  0.7818609E-02  0.8696214E-01
        2   -1    0    0  501    0  0.00000000000E+00  0.00000000000E+00  0.42213965653E+03  0.42213965654E+03  0.25500000920E-02 0.  1.
       -2   -1    0    0    0  501  0.00000000000E+00  0.00000000000E+00 -0.19597077741E+04  0.19597077741E+04  0.25500000920E-02 0. -1.
    10030    2    1    2    0    0  0.00000000000E+00  0.00000000000E+00 -0.15375681176E+04  0.23818474307E+04  0.18190880866E+04 0.  0.
        1    1    3    3  502    0  0.55530629017E+03  0.29285978633E+03  0.92950622401E+02  0.63464300877E+03  0.50400001928E-02 0.  1.
       -1    1    3    3    0  502 -0.55530629017E+03 -0.29285978633E+03 -0.16305187400E+04  0.17472044219E+04  0.50400001928E-02 0. -1.
</event>
<event>
 5   0  0.1628397E-04  0.1796006E+04  0.7818609E-02  0.8708427E-01
       -2   -1    0    0    0  501  0.00000000000E+00  0.00000000000E+00  0.12610764186E+04  0.12610764186E+04  0.25500000920E-02 0. -1.
        2   -1    0    0  501    0  0.00000000000E+00  0.00000000000E+00 -0.63946086421E+03  0.63946086422E+03  0.25500000920E-02 0.  1.
    10030    2    1    2    0    0  0.00000000000E+00  0.00000000000E+00  0.62161555437E+03  0.19005372828E+04  0.17960055863E+04 0.  0.
        3    1    3    3  502    0  0.83012338235E+02 -0.80009912427E+03  0.73324043368E+03  0.10884352074E+04  0.10100000352E+00 0. -1.
       -3    1    3    3    0  502 -0.83012338235E+02  0.80009912427E+03 -0.11162487931E+03  0.81210207538E+03  0.10100000352E+00 0.  1.
</event>
<event>
 5   0  0.1608627E-04  0.1802588E+04  0.7818609E-02  0.8704924E-01
       -2   -1    0    0    0  501  0.00000000000E+00  0.00000000000E+00  0.35695182360E+03  0.35695182361E+03  0.25500000920E-02 0.  1.
        2   -1    0    0  501    0  0.00000000000E+00  0.00000000000E+00 -0.22757449894E+04  0.22757449894E+04  0.25500000920E-02 0. -1.
    10030    2    1    2    0    0  0.00000000000E+00  0.00000000000E+00 -0.19187931658E+04  0.26326968130E+04  0.18025884988E+04 0.  0.
        2    1    3    3  502    0  0.65076689098E+03  0.53847601667E+03 -0.50014286938E+03  0.98162969429E+03  0.25500000920E-02 0. -1.
       -2    1    3    3    0  502 -0.65076689098E+03 -0.53847601667E+03 -0.14186502964E+04  0.16510671187E+04  0.25500000920E-02 0.  1.
</event>
<event>
 5   0  0.8430513E-05  0.1808396E+04  0.7818609E-02  0.8701848E-01
        1   -1    0    0  501    0  0.00000000000E+00  0.00000000000E+00  0.96822791614E+03  0.96822791615E+03  0.50400001928E-02 0.  1.
       -1   -1    0    0    0  501  0.00000000000E+00  0.00000000000E+00 -0.84440205965E+03  0.84440205967E+03  0.50400001928E-02 0. -1.
    10030    2    1    2    0    0  0.00000000000E+00  0.00000000000E+00  0.12382585649E+03  0.18126299758E+04  0.18083955835E+04 0.  0.
        5    1    3    3  502    0  0.43827743594E+03  0.22391993389E+03  0.82219033072E+03  0.95825167757E+03  0.46999998093E+01 0.  1.
       -5    1    3    3    0  502 -0.43827743594E+03 -0.22391993389E+03 -0.69836447423E+03  0.85437829825E+03  0.46999998093E+01 0. -1.
</event>
<event>
 5   0  0.1549012E-04  0.1791710E+04  0.7818609E-02  0.8710720E-01
       -2   -1    0    0    0  501  0.00000000000E+00  0.00000000000E+00  0.92008080153E+03  0.92008080153E+03  0.25500000920E-02 0.  1.
        2   -1    0    0  501    0  0.00000000000E+00  0.00000000000E+00 -0.87226731612E+03  0.87226731613E+03  0.25500000920E-02 0. -1.
    10030    2    1    2    0    0  0.00000000000E+00  0.00000000000E+00  0.47813485404E+02  0.17923481177E+04  0.17917102571E+04 0.  0.
        4    1    3    3  502    0  0.27526719993E+03  0.47811419822E+03 -0.68216999618E+03  0.87733843783E+03  0.12699999809E+01 0. -1.
       -4    1    3    3    0  502 -0.27526719993E+03 -0.47811419822E+03  0.72998348159E+03  0.91500967983E+03  0.12699999809E+01 0.  1.
</event>
<event>
 5   0  0.8132598E-05  0.1801645E+04  0.7818609E-02  0.8705425E-01
       -1   -1    0    0    0  501  0.00000000000E+00  0.00000000000E+00  0.10174950133E+04  0.10174950133E+04  0.50400001928E-02 0. -1.
        1   -1    0    0  501    0  0.00000000000E+00  0.00000000000E+00 -0.79752838704E+03  0.79752838706E+03  0.50400001928E-02 0.  1.
    10030    2    1    2    0    0  0.00000000000E+00  0.00000000000E+00  0.21996662625E+03  0.18150234004E+04  0.18016449781E+04 0.  0.
        3    1    3    3  502    0 -0.32701848497E+03  0.72875309631E+03  0.52956005803E+03  0.95836111678E+03  0.10100000352E+00 0. -1.
       -3    1    3    3    0  502  0.32701848497E+03 -0.72875309631E+03 -0.30959343178E+03  0.85666228358E+03  0.10100000352E+00 0.  1.
</event>
<event>
 5   0  0.8132598E-05  0.1792298E+04  0.7818609E-02  0.8710406E-01
        1   -1    0    0  501    0  0.00000000000E+00  0.00000000000E+00  0.17254246873E+04  0.17254246873E+04  0.50400001928E-02 0. -1.
       -1   -1    0    0    0  501  0.00000000000E+00  0.00000000000E+00 -0.46544081161E+03  0.46544081164E+03  0.50400001928E-02 0.  1.
    10030    2    1    2    0    0  0.00000000000E+00  0.00000000000E+00  0.12599838757E+04  0.21908654989E+04  0.17922980409E+04 0.  0.
        3    1    3    3  502    0 -0.74452207258E+03  0.45038103186E+03  0.36802957882E+03  0.94477614889E+03  0.10100000352E+00 0. -1.
       -3    1    3    3    0  502  0.74452207258E+03 -0.45038103186E+03  0.89195429686E+03  0.12460893500E+04  0.10100000352E+00 0.  1.
</event>
<event>
 5   0  0.1628397E-04  0.1795258E+04  0.7818609E-02  0.8708825E-01
        2   -1    0    0  501    0  0.00000000000E+00  0.00000000000E+00  0.16812112358E+04  0.16812112358E+04  0.25500000920E-02 0. -1.
       -2   -1    0    0    0  501  0.00000000000E+00  0.00000000000E+00 -0.47926033488E+03  0.47926033489E+03  0.25500000920E-02 0.  1.
    10030    2    1    2    0    0  0.00000000000E+00  0.00000000000E+00  0.12019509009E+04  0.21604715707E+04  0.17952580426E+04 0.  0.
        3    1    3    3  502    0 -0.39271986695E+03  0.75807316468E+03  0.93455428666E+03  0.12658181314E+04  0.10100000352E+00 0. -1.
       -3    1    3    3    0  502  0.39271986695E+03 -0.75807316468E+03  0.26739661427E+03  0.89465343929E+03  0.10100000352E+00 0.  1.
</event>
<event>
 5   0  0.5820500E-05  0.1835455E+04  0.7818609E-02  0.8687669E-01
       -3   -1    0    0    0  501  0.00000000000E+00  0.00000000000E+00  0.40985828505E+03  0.40985829749E+03  0.10100000352E+00 0.  1.
        3   -1    0    0  501    0  0.00000000000E+00  0.00000000000E+00 -0.20549150808E+04  0.20549150833E+04  0.10100000352E+00 0. -1.
    10030    2    1    2    0    0  0.00000000000E+00  0.00000000000E+00 -0.16450567958E+04  0.24647733808E+04  0.18354552453E+04 0.  0.
        5    1    3    3  502    0  0.79120416199E+03 -0.32230054856E+03 -0.12725798708E+04  0.15327632847E+04  0.46999998093E+01 0. -1.
       -5    1    3    3    0  502 -0.79120416199E+03  0.32230054856E+03 -0.37247692504E+03  0.93201009610E+03  0.46999998093E+01 0.  1.
</event>
<event>
 5   0  0.8132598E-05  0.1703868E+04  0.7818609E-02  0.8759161E-01
        1   -1    0    0  501    0  0.00000000000E+00  0.00000000000E+00  0.12383196978E+04  0.12383196978E+04  0.50400001928E-02 0.  1.
       -1   -1    0    0    0  501  0.00000000000E+00  0.00000000000E+00 -0.58610989437E+03  0.58610989439E+03  0.50400001928E-02 0. -1.
    10030    2    1    2    0    0  0.00000000000E+00  0.00000000000E+00  0.65220980345E+03  0.18244295922E+04  0.17038678673E+04 0.  0.
        3    1    3    3  502    0  0.95589860424E+02 -0.57892168742E+03  0.98746891245E+03  0.11486438111E+04  0.10100000352E+00 0.  1.
       -3    1    3    3    0  502 -0.95589860424E+02  0.57892168742E+03 -0.33525910899E+03  0.67578578110E+03  0.10100000352E+00 0. -1.
</event>
<event>
 5   0  0.8254914E-05  0.1852637E+04  0.7818609E-02  0.8678798E-01
        1   -1    0    0  501    0  0.00000000000E+00  0.00000000000E+00  0.16965004263E+04  0.16965004263E+04  0.50400001928E-02 0. -1.
       -1   -1    0    0    0  501  0.00000000000E+00  0.00000000000E+00 -0.50578601429E+03  0.50578601432E+03  0.50400001928E-02 0.  1.
    10030    2    1    2    0    0  0.00000000000E+00  0.00000000000E+00  0.11907144120E+04  0.22022864407E+04  0.18526372434E+04 0.  0.
        4    1    3    3  502    0  0.74960293234E+03 -0.25379485223E+03  0.23099575128E+02  0.79173959511E+03  0.12699999809E+01 0.  1.
       -4    1    3    3    0  502 -0.74960293234E+03  0.25379485223E+03  0.11676148369E+04  0.14105468455E+04  0.12699999809E+01 0. -1.
</event>
<event>
 5   0  0.8430513E-05  0.1764776E+04  0.7818609E-02  0.8725259E-01
        1   -1    0    0  501    0  0.00000000000E+00  0.00000000000E+00  0.75131362615E+03  0.75131362617E+03  0.50400001928E-02 0. -1.
       -1   -1    0    0    0  501  0.00000000000E+00  0.00000000000E+00 -0.10363299158E+04  0.10363299158E+04  0.50400001928E-02 0.  1.
    10030    2    1    2    0    0  0.00000000000E+00  0.00000000000E+00 -0.28501628964E+03  0.17876435420E+04  0.17647762317E+04 0.  0.
        5    1    3    3  502    0 -0.24841276630E+02  0.53761972321E+03 -0.85080723257E+03  0.10067507600E+04  0.46999998093E+01 0.  1.
       -5    1    3    3    0  502  0.24841276630E+02 -0.53761972321E+03  0.56579094294E+03  0.78089278196E+03  0.46999998093E+01 0. -1.
</event>
<event>
 5   0  0.8254914E-05  0.1763560E+04  0.7818609E-02  0.8725921E-01
        1   -1    0    0  501    0  0.00000000000E+00  0.00000000000E+00  0.93832415325E+03  0.93832415326E+03  0.50400001928E-02 0. -1.
       -1   -1    0    0    0  501  0.00000000000E+00  0.00000000000E+00 -0.82864367235E+03  0.82864367237E+03  0.50400001928E-02 0.  1.
    10030    2    1    2    0    0  0.00000000000E+00  0.00000000000E+00  0.10968048089E+03  0.17669678256E+04  0.17635604580E+04 0.  0.
        4    1    3    3  502    0  0.37272004791E+03  0.52320720117E+03 -0.55037049527E+03  0.84591684251E+03  0.12699999809E+01 0.  1.
       -4    1    3    3    0  502 -0.37272004791E+03 -0.52320720117E+03  0.66005097617E+03  0.92105098312E+03  0.12699999809E+01 0. -1.
</event>
<event>
 5   0  0.1573981E-04  0.1791757E+04  0.7818609E-02  0.8710695E-01
       -2   -1    0    0    0  501  0.00000000000E+00  0.00000000000E+00  0.58312845453E+03  0.58312845453E+03  0.25500000920E-02 0.  1.
        2   -1    0    0  501    0  0.00000000000E+00  0.00000000000E+00 -0.13763658170E+04  0.13763658170E+04  0.25500000920E-02 0. -1.
    10030    2    1    2    0    0  0.00000000000E+00  0.00000000000E+00 -0.79323736250E+03  0.19594942716E+04  0.17917567600E+04 0.  0.
        1    1    3    3  502    0  0.48548820691E+03 -0.59038925579E+03  0.11439367319E+03  0.77288044670E+03  0.50400001928E-02 0.  1.
       -1    1    3    3    0  502 -0.48548820691E+03  0.59038925579E+03 -0.90763103569E+03  0.11866138249E+04  0.50400001928E-02 0. -1.
</event>
<event>
 5   0  0.8206783E-05  0.1799152E+04  0.7818609E-02  0.8706751E-01
       -1   -1    0    0    0  501  0.00000000000E+00  0.00000000000E+00  0.98535544006E+03  0.98535544007E+03  0.50400001928E-02 0. -1.
        1   -1    0    0  501    0  0.00000000000E+00  0.00000000000E+00 -0.82126399264E+03  0.82126399265E+03  0.50400001928E-02 0.  1.
    10030    2    1    2    0    0  0.00000000000E+00  0.00000000000E+00  0.16409144742E+03  0.18066194327E+04  0.17991519590E+04 0.  0.
        1    1    3    3  502    0 -0.28340810249E+03 -0.77904235978E+03  0.43279450820E+03  0.93516749154E+03  0.50400001928E-02 0. -1.
       -1    1    3    3    0  502  0.28340810249E+03  0.77904235978E+03 -0.26870306078E+03  0.87145194118E+03  0.50400001928E-02 0.  1.
</event>
<event>
 5   0  0.1628397E-04  0.1776012E+04  0.7818609E-02  0.8719161E-01
        2   -1    0    0  501    0  0.00000000000E+00  0.00000000000E+00  0.11873726132E+04  0.11873726132E+04  0.25500000920E-02 0. -1.
       -2   -1    0    0    0  501  0.00000000000E+00  0.00000000000E+00 -0.66411723624E+03  0.66411723624E+03  0.25500000920E-02 0.  1.
    10030    2    1    2    0    0  0.00000000000E+00  0.00000000000E+00  0.52325537698E+03  0.18514898495E+04  0.17760119575E+04 0.  0.
        3    1    3    3  502    0  0.83665994818E+03 -0.65620003926E+02  0.56421951578E+03  0.10112613539E+04  0.10100000352E+00 0. -1.
       -3    1    3    3    0  502 -0.83665994818E+03  0.65620003926E+02 -0.40964138801E+02  0.84022849551E+03  0.10100000352E+00 0.  1.
</event>
<event>
 5   0  0.1549012E-04  0.1770784E+04  0.7818609E-02  0.8721993E-01
        2   -1    0    0  501    0  0.00000000000E+00  0.00000000000E+00  0.51101068738E+03  0.51101068738E+03  0.25500000920E-02 0.  1.
       -2   -1    0    0    0  501  0.00000000000E+00  0.00000000000E+00 -0.15340551905E+04  0.15340551905E+04  0.25500000920E-02 0. -1.
    10030    2    1    2    0    0  0.00000000000E+00  0.00000000000E+00 -0.10230445031E+04  0.20450658779E+04  0.17707835524E+04 0.  0.
        4    1    3    3  502    0  0.60303700658E+03  0.40351836722E+03 -0.10974940287E+04  0.13156654058E+04  0.12699999809E+01 0. -1.
       -4    1    3    3    0  502 -0.60303700658E+03 -0.40351836722E+03  0.74449525572E+02  0.72940047213E+03  0.12699999809E+01 0.  1.
</event>
<event>
 5   0  0.8254914E-05  0.1624234E+04  0.7818609E-02  0.8805797E-01
        1   -1    0    0  501    0  0.00000000000E+00  0.00000000000E+00  0.17188715266E+04  0.17188715266E+04  0.50400001928E-02 0. -1.
       -1   -1    0    0    0  501  0.00000000000E+00  0.00000000000E+00 -0.38370178942E+03  0.38370178945E+03  0.50400001928E-02 0.  1.
    10030    2    1    2    0    0  0.00000000000E+00  0.00000000000E+00  0.13351697372E+04  0.21025733161E+04  0.16242340725E+04 0.  0.
        4    1    3    3  502    0 -0.26438850779E+03  0.51998679756E+03 -0.63831248469E+02  0.58682501128E+03  0.12699999809E+01 0.  1.
       -4    1    3    3    0  502  0.26438850779E+03 -0.51998679756E+03  0.13990009857E+04  0.15157483048E+04  0.12699999809E+01 0. -1.
</event>
<event>
 5   0  0.8206783E-05  0.1799794E+04  0.7818609E-02  0.8706409E-01
       -1   -1    0    0    0  501  0.00000000000E+00  0.00000000000E+00  0.55748764197E+03  0.55748764199E+03  0.50400001928E-02 0.  1.
        1   -1    0    0  501    0  0.00000000000E+00  0.00000000000E+00 -0.14526137293E+04  0.14526137293E+04  0.50400001928E-02 0. -1.
    10030    2    1    2    0    0  0.00000000000E+00  0.00000000000E+00 -0.89512608731E+03  0.20101013713E+04  0.17997935467E+04 0.  0.
        1    1    3    3  502    0 -0.58205156882E+03 -0.54200476800E+03 -0.91778388434E+03  0.12144465635E+04  0.50400001928E-02 0.  1.
       -1    1    3    3    0  502  0.58205156882E+03  0.54200476800E+03  0.22657797033E+02  0.79565480774E+03  0.50400001928E-02 0. -1.
</event>
<event>
 5   0  0.1608627E-04  0.1807851E+04  0.7818609E-02  0.8702135E-01
        2   -1    0    0  501    0  0.00000000000E+00  0.00000000000E+00  0.16929997700E+04  0.16929997700E+04  0.25500000920E-02 0. -1.
       -2   -1    0    0    0  501  0.00000000000E+00  0.00000000000E+00 -0.48262355876E+03  0.48262355877E+03  0.25500000920E-02 0.  1.
    10030    2    1    2    0    0  0.00000000000E+00  0.00000000000E+00  0.12103762112E+04  0.21756233288E+04  0.18078512925E+04 0.  0.
        2    1    3    3  502    0  0.72608963785E+03 -0.31814526444E+03  0.11278968553E+04  0.13786130304E+04  0.25500000920E-02 0. -1.
       -2    1    3    3    0  502 -0.72608963785E+03  0.31814526444E+03  0.82479355924E+02  0.79701029833E+03  0.25500000920E-02 0.  1.
</event>
<event>
 5   0  0.1628397E-04  0.1798855E+04  0.7818609E-02  0.8706909E-01
        2   -1    0    0  501    0  0.00000000000E+00  0.00000000000E+00  0.18310584591E+04  0.18310584591E+04  0.25500000920E-02 0. -1.
       -2   -1    0    0    0  501  0.00000000000E+00  0.00000000000E+00 -0.44180431249E+03  0.44180431250E+03  0.25500000920E-02 0.  1.
    10030    2    1    2    0    0  0.00000000000E+00  0.00000000000E+00  0.13892541466E+04  0.22728627716E+04  0.17988546619E+04 0.  0.
        3    1    3    3  502    0  0.32859633006E+03  0.12172108560E+03  0.17412627052E+04  0.17761721171E+04  0.10100000352E+00 0. -1.
       -3    1    3    3    0  502 -0.32859633006E+03 -0.12172108560E+03 -0.35200855856E+03  0.49669065454E+03  0.10100000352E+00 0.  1.
</event>
<event>
 5   0  0.8254914E-05  0.1797118E+04  0.7818609E-02  0.8707833E-01
       -1   -1    0    0    0  501  0.00000000000E+00  0.00000000000E+00  0.48073012427E+03  0.48073012430E+03  0.50400001928E-02 0. -1.
        1   -1    0    0  501    0  0.00000000000E+00  0.00000000000E+00 -0.16795462996E+04  0.16795462996E+04  0.50400001928E-02 0.  1.
    10030    2    1    2    0    0  0.00000000000E+00  0.00000000000E+00 -0.11988161753E+04  0.21602764239E+04  0.17971182503E+04 0.  0.
        4    1    3    3  502    0 -0.54824459676E+03  0.40707083226E+03  0.10267968814E+03  0.69052409922E+03  0.12699999809E+01 0. -1.
       -4    1    3    3    0  502  0.54824459676E+03 -0.40707083226E+03 -0.13014958634E+04  0.14697523247E+04  0.12699999809E+01 0.  1.
</event>
<event>
 5   0  0.8492114E-05  0.1809158E+04  0.7818609E-02  0.8701444E-01
       -1   -1    0    0    0  501  0.00000000000E+00  0.00000000000E+00  0.40590960174E+03  0.40590960177E+03  0.50400001928E-02 0.  1.
        1   -1    0    0  501    0  0.00000000000E+00  0.00000000000E+00 -0.20158763074E+04  0.20158763074E+04  0.50400001928E-02 0. -1.
    10030    2    1    2    0    0  0.00000000000E+00  0.00000000000E+00 -0.16099667057E+04  0.24217859092E+04  0.18091584222E+04 0.  0.
        2    1    3    3  502    0 -0.13575191440E+03 -0.83871342191E+03 -0.38937346714E+03  0.93460177791E+03  0.25500000920E-02 0.  1.
       -2    1    3    3    0  502  0.13575191440E+03  0.83871342191E+03 -0.12205932385E+04  0.14871841313E+04  0.25500000920E-02 0. -1.
</event>
<event>
 5   0  0.8206783E-05  0.1811087E+04  0.7818609E-02  0.8700426E-01
       -1   -1    0    0    0  501  0.00000000000E+00  0.00000000000E+00  0.66225283294E+03  0.66225283296E+03  0.50400001928E-02 0.  1.
        1   -1    0    0  501    0  0.00000000000E+00  0.00000000000E+00 -0.12382115385E+04  0.12382115385E+04  0.50400001928E-02 0. -1.
    10030    2    1    2    0    0  0.00000000000E+00  0.00000000000E+00 -0.57595870557E+03  0.19004643715E+04  0.18110870760E+04 0.  0.
        1    1    3    3  502    0 -0.34092942885E+03 -0.80623845855E+03 -0.44684483162E+02  0.87649873392E+03  0.50400001928E-02 0.  1.
       -1    1    3    3    0  502  0.34092942885E+03  0.80623845855E+03 -0.53127422241E+03  0.10239656376E+04  0.50400001928E-02 0. -1.
</event>
<event>
 5   0  0.1608627E-04  0.1791916E+04  0.7818609E-02  0.8710610E-01
       -2   -1    0    0    0  501  0.00000000000E+00  0.00000000000E+00  0.81876885349E+03  0.81876885349E+03  0.25500000920E-02 0.  1.
        2   -1    0    0  501    0  0.00000000000E+00  0.00000000000E+00 -0.98042438898E+03  0.98042438898E+03  0.25500000920E-02 0. -1.
    10030    2    1    2    0    0  0.00000000000E+00  0.00000000000E+00 -0.16165553549E+03  0.17991932425E+04  0.17919162401E+04 0.  0.
        2    1    3    3  502    0 -0.46481880153E+03  0.59913579480E+03 -0.55996662562E+03  0.94264672103E+03  0.25500000920E-02 0. -1.
       -2    1    3    3    0  502  0.46481880153E+03 -0.59913579480E+03  0.39831109013E+03  0.85654652144E+03  0.25500000920E-02 0.  1.
</event>
<event>
 5   0  0.8430513E-05  0.1798703E+04  0.7818609E-02  0.8706989E-01
        1   -1    0    0  501    0  0.00000000000E+00  0.00000000000E+00  0.65308894372E+03  0.65308894374E+03  0.50400001928E-02 0.  1.
       -1   -1    0    0    0  501  0.00000000000E+00  0.00000000000E+00 -0.12384738289E+04  0.12384738289E+04  0.50400001928E-02 0. -1.
    10030    2    1    2    0    0  0.00000000000E+00  0.00000000000E+00 -0.58538488516E+03  0.18915627726E+04  0.17987034939E+04 0.  0.
        5    1    3    3  502    0 -0.17296442450E+03 -0.87329231333E+03 -0.15861401248E+03  0.90428792517E+03  0.46999998093E+01 0.  1.
       -5    1    3    3    0  502  0.17296442450E+03  0.87329231333E+03 -0.42677087268E+03  0.98727484746E+03  0.46999998093E+01 0. -1.
</event>
<event>
 5   0  0.8132598E-05  0.1811764E+04  0.7818609E-02  0.8700068E-01
       -1   -1    0    0    0  501  0.00000000000E+00  0.00000000000E+00  0.87891693130E+03  0.87891693132E+03  0.50400001928E-02 0.  1.
        1   -1    0    0  501    0  0.00000000000E+00  0.00000000000E+00 -0.93367485796E+03  0.93367485797E+03  0.50400001928E-02 0. -1.
    10030    2    1    2    0    0  0.00000000000E+00  0.00000000000E+00 -0.54757926659E+02  0.18125917893E+04  0.18117644891E+04 0.  0.
        3    1    3    3  502    0  0.46132906844E+03  0.39244453333E+03 -0.70132252583E+03  0.92665555444E+03  0.10100000352E+00 0. -1.
       -3    1    3    3    0  502 -0.46132906844E+03 -0.39244453333E+03  0.64656459917E+03  0.88593623486E+03  0.10100000352E+00 0.  1.
</event>
<event>
 5   0  0.1628397E-04  0.1794191E+04  0.7818609E-02  0.8709395E-01
       -2   -1    0    0    0  501  0.00000000000E+00  0.00000000000E+00  0.74975939182E+03  0.74975939182E+03  0.25500000920E-02 0.  1.
        2   -1    0    0  501    0  0.00000000000E+00  0.00000000000E+00 -0.10733846373E+04  0.10733846373E+04  0.25500000920E-02 0. -1.
    10030    2    1    2    0    0  0.00000000000E+00  0.00000000000E+00 -0.32362524553E+03  0.18231440292E+04  0.17941908626E+04 0.  0.
        3    1    3    3  502    0 -0.48910199252E+03  0.71033522179E+03  0.89120422826E+02  0.86702903433E+03  0.10100000352E+00 0.  1.
       -3    1    3    3    0  502  0.48910199252E+03 -0.71033522179E+03 -0.41274566835E+03  0.95611499484E+03  0.10100000352E+00 0. -1.
</event>
<event>
 5   0  0.1628397E-04  0.1746784E+04  0.7818609E-02  0.8735122E-01
        2   -1    0    0  501    0  0.00000000000E+00  0.00000000000E+00  0.14167634538E+04  0.14167634539E+04  0.25500000920E-02 0. -1.
       -2   -1    0    0    0  501  0.00000000000E+00  0.00000000000E+00 -0.53842014977E+03  0.53842014977E+03  0.25500000920E-02 0.  1.
    10030    2    1    2    0    0  0.00000000000E+00  0.00000000000E+00  0.87834330408E+03  0.19551836036E+04  0.17467844641E+04 0.  0.
        3    1    3    3  502    0 -0.73855213718E+03 -0.38748705646E+03  0.72934688079E+03  0.11079496202E+04  0.10100000352E+00 0. -1.
       -3    1    3    3    0  502  0.73855213718E+03  0.38748705646E+03  0.14899642329E+03  0.84723398339E+03  0.10100000352E+00 0.  1.
</event>
<event>
 5   0  0.8206783E-05  0.1748599E+04  0.7818609E-02  0.8734122E-01
        1   -1    0    0  501    0  0.00000000000E+00  0.00000000000E+00  0.70065618590E+03  0.70065618592E+03  0.50400001928E-02 0.  1.
       -1   -1    0    0    0  501  0.00000000000E+00  0.00000000000E+00 -0.10909762068E+04  0.10909762068E+04  0.50400001928E-02 0. -1.
    10030    2    1    2    0    0  0.00000000000E+00  0.00000000000E+00 -0.39032002087E+03  0.17916323927E+04  0.17485985565E+04 0.  0.
        1    1    3    3  502    0  0.27140389263E+03  0.64711657401E+03  0.33919109469E+03  0.77940395947E+03  0.50400001928E-02 0.  1.
       -1    1    3    3    0  502 -0.27140389263E+03 -0.64711657401E+03 -0.72951111556E+03  0.10122284332E+04  0.50400001928E-02 0. -1.
</event>
<event>
 5   0  0.1573981E-04  0.1799848E+04  0.7818609E-02  0.8706380E-01
        2   -1    0    0  501    0  0.00000000000E+00  0.00000000000E+00  0.18223532279E+04  0.18223532279E+04  0.25500000920E-02 0.  1.
       -2   -1    0    0    0  501  0.00000000000E+00  0.00000000000E+00 -0.44440538049E+03  0.44440538050E+03  0.25500000920E-02 0. -1.
    10030    2    1    2    0    0  0.00000000000E+00  0.00000000000E+00  0.13779478474E+04  0.22667586084E+04  0.17998484154E+04 0.  0.
        1    1    3    3  502    0  0.61004853292E+03 -0.46396930930E+03  0.12829551368E+04  0.14944566289E+04  0.50400001928E-02 0.  1.
       -1    1    3    3    0  502 -0.61004853292E+03  0.46396930930E+03  0.94992710595E+02  0.77230197953E+03  0.50400001928E-02 0. -1.
</event>
<event>
 5   0  0.8492114E-05  0.1805873E+04  0.7818609E-02  0.8703182E-01
       -1   -1    0    0    0  501  0.00000000000E+00  0.00000000000E+00  0.83619990906E+03  0.83619990908E+03  0.50400001928E-02 0. -1.
        1   -1    0    0  501    0  0.00000000000E+00  0.00000000000E+00 -0.97499967890E+03  0.97499967891E+03  0.50400001928E-02 0.  1.
    10030    2    1    2    0    0  0.00000000000E+00  0.00000000000E+00 -0.13879976983E+03  0.18111995880E+04  0.18058733542E+04 0.  0.
        2    1    3    3  502    0  0.39116011215E+03 -0.30280241906E+03  0.68820813536E+03  0.84754113523E+03  0.25500000920E-02 0. -1.
       -2    1    3    3    0  502 -0.39116011215E+03  0.30280241906E+03 -0.82700790519E+03  0.96365845276E+03  0.25500000920E-02 0.  1.
</event>
<event>
 5   0  0.8206783E-05  0.1804410E+04  0.7818609E-02  0.8703958E-01
       -1   -1    0    0    0  501  0.00000000000E+00  0.00000000000E+00  0.57418816510E+03  0.57418816512E+03  0.50400001928E-02 0. -1.
        1   -1    0    0  501    0  0.00000000000E+00  0.00000000000E+00 -0.14176079686E+04  0.14176079686E+04  0.50400001928E-02 0.  1.
    10030    2    1    2    0    0  0.00000000000E+00  0.00000000000E+00 -0.84341980352E+03  0.19917961338E+04  0.18044098408E+04 0.  0.
        1    1    3    3  502    0 -0.13801324276E+03  0.67174382060E+03 -0.10688388237E+04  0.12699227720E+04  0.50400001928E-02 0.  1.
       -1    1    3    3    0  502  0.13801324276E+03 -0.67174382060E+03  0.22541902022E+03  0.72187336175E+03  0.50400001928E-02 0. -1.
</event>
<event>
 5   0  0.5820500E-05  0.1804844E+04  0.7818609E-02  0.8703727E-01
        4   -1    0    0  501    0  0.00000000000E+00  0.00000000000E+00  0.58051555051E+03  0.58051693970E+03  0.12699999809E+01 0. -1.
       -4   -1    0    0    0  501  0.00000000000E+00  0.00000000000E+00 -0.14028287965E+04  0.14028293714E+04  0.12699999809E+01 0.  1.
    10030    2    1    2    0    0  0.00000000000E+00  0.00000000000E+00 -0.82231324602E+03  0.19833463111E+04  0.18048444573E+04 0.  0.
        4    1    3    3  502    0 -0.57592847694E+03 -0.50459074566E+03  0.11362935592E+03  0.77409216156E+03  0.12699999809E+01 0. -1.
       -4    1    3    3    0  502  0.57592847694E+03  0.50459074566E+03 -0.93594260194E+03  0.12092541495E+04  0.12699999809E+01 0.  1.
</event>
<event>
 5   0  0.1573981E-04  0.1816092E+04  0.7818609E-02  0.8697788E-01
        2   -1    0    0  501    0  0.00000000000E+00  0.00000000000E+00  0.11585711733E+04  0.11585711733E+04  0.25500000920E-02 0. -1.
       -2   -1    0    0    0  501  0.00000000000E+00  0.00000000000E+00 -0.71169355141E+03  0.71169355141E+03  0.25500000920E-02 0.  1.
    10030    2    1    2    0    0  0.00000000000E+00  0.00000000000E+00  0.44687762185E+03  0.18702647247E+04  0.18160921043E+04 0.  0.
        1    1    3    3  502    0  0.23141791471E+03 -0.61813563302E+03 -0.41878313887E+03  0.78168102797E+03  0.50400001928E-02 0.  1.
       -1    1    3    3    0  502 -0.23141791471E+03  0.61813563302E+03  0.86566076073E+03  0.10885836967E+04  0.50400001928E-02 0. -1.
</event>
<event>
 5   0  0.8254914E-05  0.1826013E+04  0.7818609E-02  0.8692587E-01
        1   -1    0    0  501    0  0.00000000000E+00  0.00000000000E+00  0.68293624405E+03  0.68293624407E+03  0.50400001928E-02 0.  1.
       -1   -1    0    0    0  501  0.00000000000E+00  0.00000000000E+00 -0.12205832548E+04  0.12205832548E+04  0.50400001928E-02 0. -1.
    10030    2    1    2    0    0  0.00000000000E+00  0.00000000000E+00 -0.53764701071E+03  0.19035194988E+04  0.18260126435E+04 0.  0.
        4    1    3    3  502    0 -0.58436328091E+03  0.14831529472E+03 -0.98356527779E+03  0.11536377851E+04  0.12699999809E+01 0. -1.
       -4    1    3    3    0  502  0.58436328091E+03 -0.14831529472E+03  0.44591826708E+03  0.74988171370E+03  0.12699999809E+01 0.  1.
</event>
<event>
 5   0  0.8492114E-05  0.1755698E+04  0.7818609E-02  0.8730220E-01
        1   -1    0    0  501    0  0.00000000000E+00  0.00000000000E+00  0.15832816378E+04  0.15832816378E+04  0.50400001928E-02 0. -1.
       -1   -1    0    0    0  501  0.00000000000E+00  0.00000000000E+00 -0.48672267740E+03  0.48672267743E+03  0.50400001928E-02 0.  1.
    10030    2    1    2    0    0  0.00000000000E+00  0.00000000000E+00  0.10965589604E+04  0.20700043153E+04  0.17556982404E+04 0.  0.
        2    1    3    3  502    0  0.14479358331E+03  0.85084427393E+03  0.73735673030E+03  0.11351634719E+04  0.25500000920E-02 0.  1.
       -2    1    3    3    0  502 -0.14479358331E+03 -0.85084427393E+03  0.35920223011E+03  0.93484084333E+03  0.25500000920E-02 0. -1.
</event>
<event>
 5   0  0.1608627E-04  0.1791711E+04  0.7818609E-02  0.8710720E-01
       -2   -1    0    0    0  501  0.00000000000E+00  0.00000000000E+00  0.79490962065E+03  0.79490962066E+03  0.25500000920E-02 0. -1.
        2   -1    0    0  501    0  0.00000000000E+00  0.00000000000E+00 -0.10096208736E+04  0.10096208736E+04  0.25500000920E-02 0.  1.
    10030    2    1    2    0    0  0.00000000000E+00  0.00000000000E+00 -0.21471125290E+03  0.18045304942E+04  0.17917113000E+04 0.  0.
        2    1    3    3  502    0 -0.26276532141E+03 -0.80916926887E+03  0.17528871467E+03  0.86863493673E+03  0.25500000920E-02 0. -1.
       -2    1    3    3    0  502  0.26276532141E+03  0.80916926887E+03 -0.38999996757E+03  0.93589555749E+03  0.25500000920E-02 0.  1.
</event>
<event>
 5   0  0.8132598E-05  0.1800109E+04  0.7818609E-02  0.8706242E-01
       -1   -1    0    0    0  501  0.00000000000E+00  0.00000000000E+00  0.71030447559E+03  0.71030447561E+03  0.50400001928E-02 0.  1.
        1   -1    0    0  501    0  0.00000000000E+00  0.00000000000E+00 -0.11404938375E+04  0.11404938375E+04  0.50400001928E-02 0. -1.
    10030    2    1    2    0    0  0.00000000000E+00  0.00000000000E+00 -0.43018936189E+03  0.18507983131E+04  0.18001087491E+04 0.  0.
        3    1    3    3  502    0  0.25294336592E+03 -0.60562000559E+03  0.41815616214E+03  0.77820981983E+03  0.10100000352E+00 0.  1.
       -3    1    3    3    0  502 -0.25294336592E+03  0.60562000559E+03 -0.84834552403E+03  0.10725884933E+04  0.10100000352E+00 0. -1.
</event>
<event>
 5   0  0.1603564E-04  0.1809699E+04  0.7818609E-02  0.8701159E-01
        2   -1    0    0  501    0  0.00000000000E+00  0.00000000000E+00  0.89960991747E+03  0.89960991747E+03  0.25500000920E-02 0. -1.
       -2   -1    0    0    0  501  0.00000000000E+00  0.00000000000E+00 -0.91011956093E+03  0.91011956094E+03  0.25500000920E-02 0.  1.
    10030    2    1    2    0    0  0.00000000000E+00  0.00000000000E+00 -0.10509643468E+02  0.18097294784E+04  0.18096989618E+04 0.  0.
        5    1    3    3  502    0 -0.56305123715E+03 -0.43249383438E+03 -0.56620356504E+03  0.90812233730E+03  0.46999998093E+01 0.  1.
       -5    1    3    3    0  502  0.56305123715E+03  0.43249383438E+03  0.55569392157E+03  0.90160714111E+03  0.46999998093E+01 0. -1.
</event>
<event>
 5   0  0.8132598E-05  0.1809914E+04  0.7818609E-02  0.8701045E-01
       -1   -1    0    0    0  501  0.00000000000E+00  0.00000000000E+00  0.94444345500E+03  0.94444345502E+03  0.50400001928E-02 0.  1.
        1   -1    0    0  501    0  0.00000000000E+00  0.00000000000E+00 -0.86712116365E+03  0.86712116366E+03  0.50400001928E-02 0. -1.
    10030    2    1    2    0    0  0.00000000000E+00  0.00000000000E+00  0.77322291355E+02  0.18115646187E+04  0.18099137081E+04 0.  0.
        3    1    3    3  502    0  0.35375107113E+03  0.80678726689E+03 -0.16865427528E+03  0.89693354777E+03  0.10100000352E+00 0. -1.
       -3    1    3    3    0  502 -0.35375107113E+03 -0.80678726689E+03  0.24597656664E+03  0.91463107091E+03  0.10100000352E+00 0.  1.
</event>
<event>
 5   0  0.1608627E-04  0.1812544E+04  0.7818609E-02  0.8699657E-01
        2   -1    0    0  501    0  0.00000000000E+00  0.00000000000E+00  0.14329936317E+04  0.14329936317E+04  0.25500000920E-02 0. -1.
       -2   -1    0    0    0  501  0.00000000000E+00  0.00000000000E+00 -0.57315598529E+03  0.57315598530E+03  0.25500000920E-02 0.  1.
    10030    2    1    2    0    0  0.00000000000E+00  0.00000000000E+00  0.85983764644E+03  0.20061496170E+04  0.18125439326E+04 0.  0.
        2    1    3    3  502    0 -0.30000311422E+03 -0.72571495653E+03  0.93064046896E+03  0.12176845852E+04  0.25500000920E-02 0. -1.
       -2    1    3    3    0  502  0.30000311422E+03  0.72571495653E+03 -0.70802822515E+02  0.78846503179E+03  0.25500000920E-02 0.  1.
</event>
<event>
 5   0  0.1608627E-04  0.1797080E+04  0.7818609E-02  0.8707854E-01
       -2   -1    0    0    0  501  0.00000000000E+00  0.00000000000E+00  0.96251029616E+03  0.96251029616E+03  0.25500000920E-02 0. -1.
        2   -1    0    0  501    0  0.00000000000E+00  0.00000000000E+00 -0.83882158752E+03  0.83882158753E+03  0.25500000920E-02 0.  1.
    10030    2    1    2    0    0  0.00000000000E+00  0.00000000000E+00  0.12368870863E+03  0.18013318837E+04  0.17970803150E+04 0.  0.
        2    1    3    3  502    0 -0.25361108493E+03 -0.23780638871E+02 -0.80187299889E+03  0.84135866759E+03  0.25500000920E-02 0.  1.
       -2    1    3    3    0  502  0.25361108493E+03  0.23780638871E+02  0.92556170752E+03  0.95997321609E+03  0.25500000920E-02 0. -1.
</event>
<event>
 5   0  0.8206783E-05  0.1810299E+04  0.7818609E-02  0.8700842E-01
        1   -1    0    0  501    0  0.00000000000E+00  0.00000000000E+00  0.12181893835E+04  0.12181893835E+04  0.50400001928E-02 0. -1.
       -1   -1    0    0    0  501  0.00000000000E+00  0.00000000000E+00 -0.67255203860E+03  0.67255203862E+03  0.50400001928E-02 0.  1.
    10030    2    1    2    0    0  0.00000000000E+00  0.00000000000E+00  0.54563734492E+03  0.18907414222E+04  0.18102991502E+04 0.  0.
        1    1    3    3  502    0 -0.23571264074E+03  0.83616778612E+03  0.74441006397E+01  0.86878790865E+03  0.50400001928E-02 0.  1.
       -1    1    3    3    0  502  0.23571264074E+03 -0.83616778612E+03  0.53819324428E+03  0.10219535135E+04  0.50400001928E-02 0. -1.
</event>
<event>
 5   0  0.1628397E-04  0.1839762E+04  0.7818609E-02  0.8685436E-01
        2   -1    0    0  501    0  0.00000000000E+00  0.00000000000E+00  0.39089287709E+03  0.39089287710E+03  0.25500000920E-02 0.  1.
       -2   -1    0    0    0  501  0.00000000000E+00  0.00000000000E+00 -0.21647394175E+04  0.21647394175E+04  0.25500000920E-02 0. -1.
    10030    2    1    2    0    0  0.00000000000E+00  0.00000000000E+00 -0.17738465404E+04  0.25556322946E+04  0.18397621793E+04 0.  0.
        3    1    3    3  502    0 -0.27156361095E+03  0.53406647793E+02  0.33168514305E+03  0.43198855210E+03  0.10100000352E+00 0.  1.
       -3    1    3    3    0  502  0.27156361095E+03 -0.53406647793E+02 -0.21055316835E+04  0.21236437425E+04  0.10100000352E+00 0. -1.
</event>
<event>
 5   0  0.1608627E-04  0.1802432E+04  0.7818609E-02  0.8705007E-01
        2   -1    0    0  501    0  0.00000000000E+00  0.00000000000E+00  0.14133077053E+04  0.14133077053E+04  0.25500000920E-02 0. -1.
       -2   -1    0    0    0  501  0.00000000000E+00  0.00000000000E+00 -0.57467315567E+03  0.57467315567E+03  0.25500000920E-02 0.  1.
    10030    2    1    2    0    0  0.00000000000E+00  0.00000000000E+00  0.83863454959E+03  0.19879808609E+04  0.18024316896E+04 0.  0.
        2    1    3    3  502    0  0.47646715228E+03 -0.65964566622E+03  0.84653775047E+03  0.11742144247E+04  0.25500000920E-02 0. -1.
       -2    1    3    3    0  502 -0.47646715228E+03  0.65964566622E+03 -0.79032008781E+01  0.81376643625E+03  0.25500000920E-02 0.  1.
</event>
<event>
 5   0  0.8132598E-05  0.1812034E+04  0.7818609E-02  0.8699926E-01
        1   -1    0    0  501    0  0.00000000000E+00  0.00000000000E+00  0.17380059181E+04  0.17380059181E+04  0.50400001928E-02 0.  1.
       -1   -1    0    0    0  501  0.00000000000E+00  0.00000000000E+00 -0.47230394647E+03  0.47230394650E+03  0.50400001928E-02 0. -1.
    10030    2    1    2    0    0  0.00000000000E+00  0.00000000000E+00  0.12657019716E+04  0.22103098646E+04  0.18120342758E+04 0.  0.
        3    1    3    3  502    0  0.76544832959E+03  0.37026681357E+02  0.12223853939E+04  0.14427432834E+04  0.10100000352E+00 0.  1.
       -3    1    3    3    0  502 -0.76544832959E+03 -0.37026681357E+02  0.43316577686E+02  0.76756658115E+03  0.10100000352E+00 0. -1.
</event>
<event>
 5   0  0.8132598E-05  0.1787259E+04  0.7818609E-02  0.8713105E-01
        1   -1    0    0  501    0  0.00000000000E+00  0.00000000000E+00  0.11804878830E+04  0.11804878830E+04  0.50400001928E-02 0. -1.
       -1   -1    0    0    0  501  0.00000000000E+00  0.00000000000E+00 -0.67647754943E+03  0.67647754945E+03  0.50400001928E-02 0.  1.
    10030    2    1    2    0    0  0.00000000000E+00  0.00000000000E+00  0.50401033353E+03  0.18569654324E+04  0.17872588511E+04 0.  0.
        3    1    3    3  502    0  0.39696681086E+03  0.40409683585E+03  0.97011761544E+03  0.11233900034E+04  0.10100000352E+00 0. -1.
       -3    1    3    3    0  502 -0.39696681086E+03 -0.40409683585E+03 -0.46610728191E+03  0.73357542906E+03  0.10100000352E+00 0.  1.
</event>
<event>
 5   0  0.8254914E-05  0.1784886E+04  0.7818609E-02  0.8714378E-01
       -1   -1    0    0    0  501  0.00000000000E+00  0.00000000000E+00  0.14083709866E+04  0.14083709867E+04  0.50400001928E-02 0. -1.
        1   -1    0    0  501    0  0.00000000000E+00  0.00000000000E+00 -0.56551501934E+03  0.56551501936E+03  0.50400001928E-02 0.  1.
    10030    2    1    2    0    0  0.00000000000E+00  0.00000000000E+00  0.84285596731E+03  0.19738860060E+04  0.17848864903E+04 0.  0.
        4    1    3    3  502    0  0.87117119267E+00 -0.89050562379E+03  0.48640596712E+03  0.10146888206E+04  0.12699999809E+01 0.  1.
       -4    1    3    3    0  502 -0.87117119267E+00  0.89050562379E+03  0.35645000019E+03  0.95919718540E+03  0.12699999809E+01 0. -1.
</event>
<event>
 5   0  0.1628397E-04  0.1799474E+04  0.7818609E-02  0.8706579E-01
       -2   -1    0    0    0  501  0.00000000000E+00  0.00000000000E+00  0.80341759929E+03  0.80341759930E+03  0.25500000920E-02 0.  1.
        2   -1    0    0  501    0  0.00000000000E+00  0.00000000000E+00 -0.10076039651E+04  0.10076039651E+04  0.25500000920E-02 0. -1.
    10030    2    1    2    0    0  0.00000000000E+00  0.00000000000E+00 -0.20418636583E+03  0.18110215644E+04  0.17994740995E+04 0.  0.
        3    1    3    3  502    0  0.43800475135E+02  0.12178504238E+03 -0.99818694111E+03  0.10065422285E+04  0.10100000352E+00 0. -1.
       -3    1    3    3    0  502 -0.43800475135E+02 -0.12178504238E+03  0.79400057528E+03  0.80447933591E+03  0.10100000352E+00 0.  1.
</event>
<event>
 5   0  0.1608627E-04  0.1818281E+04  0.7818609E-02  0.8696638E-01
        2   -1    0    0  501    0  0.00000000000E+00  0.00000000000E+00  0.93663708421E+03  0.93663708421E+03  0.25500000920E-02 0. -1.
       -2   -1    0    0    0  501  0.00000000000E+00  0.00000000000E+00 -0.88245122087E+03  0.88245122087E+03  0.25500000920E-02 0.  1.
    10030    2    1    2    0    0  0.00000000000E+00  0.00000000000E+00  0.54185863335E+02  0.18190883051E+04  0.18182810987E+04 0.  0.
        2    1    3    3  502    0  0.88179319890E+03 -0.16081657895E+03 -0.12501179848E+03  0.90501335209E+03  0.25500000920E-02 0. -1.
       -2    1    3    3    0  502 -0.88179319890E+03  0.16081657895E+03  0.17919766182E+03  0.91407495300E+03  0.25500000920E-02 0.  1.
</event>
<event>
 5   0  0.1549012E-04  0.1808455E+04  0.7818609E-02  0.8701816E-01
       -2   -1    0    0    0  501  0.00000000000E+00  0.00000000000E+00  0.77829440270E+03  0.77829440271E+03  0.25500000920E-02 0.  1.
        2   -1    0    0  501    0  0.00000000000E+00  0.00000000000E+00 -0.10505379720E+04  0.10505379720E+04  0.25500000920E-02 0. -1.
    10030    2    1    2    0    0  0.00000000000E+00  0.00000000000E+00 -0.27224356933E+03  0.18288323747E+04  0.18084554995E+04 0.  0.
        4    1    3    3  502    0 -0.21041057641E+03 -0.45520729894E+03 -0.89702244714E+03  0.10276853503E+04  0.12699999809E+01 0. -1.
       -4    1    3    3    0  502  0.21041057641E+03  0.45520729894E+03  0.62477887781E+03  0.80114702442E+03  0.12699999809E+01 0.  1.
</event>
<event>
 5   0  0.8492114E-05  0.1802780E+04  0.7818609E-02  0.8704823E-01
       -1   -1    0    0    0  501  0.00000000000E+00  0.00000000000E+00  0.46210865945E+03  0.46210865947E+03  0.50400001928E-02 0. -1.
        1   -1    0    0  501    0  0.00000000000E+00  0.00000000000E+00 -0.17582524900E+04  0.17582524900E+04  0.50400001928E-02 0.  1.
    10030    2    1    2    0    0  0.00000000000E+00  0.00000000000E+00 -0.12961438305E+04  0.22203611495E+04  0.18027797438E+04 0.  0.
        2    1    3    3  502    0 -0.44387342714E+03  0.70716569135E+03 -0.22968531152E+03  0.86594588554E+03  0.25500000920E-02 0. -1.
       -2    1    3    3    0  502  0.44387342714E+03 -0.70716569135E+03 -0.10664585190E+04  0.13544152639E+04  0.25500000920E-02 0.  1.
</event>
<event>
 5   0  0.1573981E-04  0.1803930E+04  0.7818609E-02  0.8704213E-01
        2   -1    0    0  501    0  0.00000000000E+00  0.00000000000E+00  0.21075663866E+04  0.21075663866E+04  0.25500000920E-02 0. -1.
       -2   -1    0    0    0  501  0.00000000000E+00  0.00000000000E+00 -0.38600940005E+03  0.38600940005E+03  0.25500000920E-02 0.  1.
    10030    2    1    2    0    0  0.00000000000E+00  0.00000000000E+00  0.17215569865E+04  0.24935757866E+04  0.18039295291E+04 0.  0.
        1    1    3    3  502    0 -0.75496073950E+03  0.17423057554E+01  0.17857112998E+03  0.77579404632E+03  0.50400001928E-02 0. -1.
       -1    1    3    3    0  502  0.75496073950E+03 -0.17423057554E+01  0.15429858566E+04  0.17177817403E+04  0.50400001928E-02 0.  1.
</event>
<event>
 5   0  0.1608627E-04  0.1797743E+04  0.7818609E-02  0.8707501E-01
        2   -1    0    0  501    0  0.00000000000E+00  0.00000000000E+00  0.90750882031E+03  0.90750882032E+03  0.25500000920E-02 0.  1.
       -2   -1    0    0    0  501  0.00000000000E+00  0.00000000000E+00 -0.89031647255E+03  0.89031647255E+03  0.25500000920E-02 0. -1.
    10030    2    1    2    0    0  0.00000000000E+00  0.00000000000E+00  0.17192347761E+02  0.17978252929E+04  0.17977430870E+04 0.  0.
        2    1    3    3  502    0  0.74873764325E+03  0.42811386774E+03  0.26174903307E+03  0.90133351125E+03  0.25500000920E-02 0. -1.
       -2    1    3    3    0  502 -0.74873764325E+03 -0.42811386774E+03 -0.24455668531E+03  0.89649178162E+03  0.25500000920E-02 0.  1.
</event>
<event>
 5   0  0.8206783E-05  0.1802662E+04  0.7818609E-02  0.8704885E-01
        1   -1    0    0  501    0  0.00000000000E+00  0.00000000000E+00  0.90661330166E+03  0.90661330167E+03  0.50400001928E-02 0. -1.
       -1   -1    0    0    0  501  0.00000000000E+00  0.00000000000E+00 -0.89607945875E+03  0.89607945877E+03  0.50400001928E-02 0.  1.
    10030    2    1    2    0    0  0.00000000000E+00  0.00000000000E+00  0.10533842901E+02  0.18026927604E+04  0.18026619835E+04 0.  0.
        1    1    3    3  502    0 -0.82447508325E+03  0.11102412005E+03  0.35213310131E+03  0.90337325575E+03  0.50400001928E-02 0. -1.
       -1    1    3    3    0  502  0.82447508325E+03 -0.11102412005E+03 -0.34159925841E+03  0.89931950469E+03  0.50400001928E-02 0.  1.
</event>
<event>
 5   0  0.8430513E-05  0.1796338E+04  0.7818609E-02  0.8708249E-01
        1   -1    0    0  501    0  0.00000000000E+00  0.00000000000E+00  0.23350880903E+04  0.23350880903E+04  0.50400001928E-02 0. -1.
       -1   -1    0    0    0  501  0.00000000000E+00  0.00000000000E+00 -0.34547195301E+03  0.34547195305E+03  0.50400001928E-02 0.  1.
    10030    2    1    2    0    0  0.00000000000E+00  0.00000000000E+00  0.19896161372E+04  0.26805600433E+04  0.17963378781E+04 0.  0.
        5    1    3    3  502    0  0.62906414775E+03  0.57952607597E+03  0.14037819579E+04  0.16438363818E+04  0.46999998093E+01 0. -1.
       -5    1    3    3    0  502 -0.62906414775E+03 -0.57952607597E+03  0.58583417936E+03  0.10367236615E+04  0.46999998093E+01 0.  1.
</event>
<event>
 5   0  0.8254914E-05  0.1807593E+04  0.7818609E-02  0.8702272E-01
        1   -1    0    0  501    0  0.00000000000E+00  0.00000000000E+00  0.19579804323E+04  0.19579804323E+04  0.50400001928E-02 0.  1.
       -1   -1    0    0    0  501  0.00000000000E+00  0.00000000000E+00 -0.41718902867E+03  0.41718902870E+03  0.50400001928E-02 0. -1.
    10030    2    1    2    0    0  0.00000000000E+00  0.00000000000E+00  0.15407914036E+04  0.23751694610E+04  0.18075928244E+04 0.  0.
        4    1    3    3  502    0  0.55980618379E+03 -0.70347169313E+03  0.64860483433E+03  0.11085780218E+04  0.12699999809E+01 0.  1.
       -4    1    3    3    0  502 -0.55980618379E+03  0.70347169313E+03  0.89218656927E+03  0.12665914391E+04  0.12699999809E+01 0. -1.
</event>
<event>
 5   0  0.8132598E-05  0.1814166E+04  0.7818609E-02  0.8698802E-01
        1   -1    0    0  501    0  0.00000000000E+00  0.00000000000E+00  0.14185203316E+04  0.14185203316E+04  0.50400001928E-02 0.  1.
       -1   -1    0    0    0  501  0.00000000000E+00  0.00000000000E+00 -0.58004050029E+03  0.58004050031E+03  0.50400001928E-02 0. -1.
    10030    2    1    2    0    0  0.00000000000E+00  0.00000000000E+00  0.83847983127E+03  0.19985608319E+04  0.18141656405E+04 0.  0.
        3    1    3    3  502    0  0.64442338094E+03 -0.83404110826E+02  0.11164682582E+04  0.12917968576E+04  0.10100000352E+00 0.  1.
       -3    1    3    3    0  502 -0.64442338094E+03  0.83404110826E+02 -0.27798842692E+03  0.70676397426E+03  0.10100000352E+00 0. -1.
</event>
<event>
 5   0  0.1628397E-04  0.1826059E+04  0.7818609E-02  0.8692563E-01
        2   -1    0    0  501    0  0.00000000000E+00  0.00000000000E+00  0.30009670370E+04  0.30009670370E+04  0.25500000920E-02 0. -1.
       -2   -1    0    0    0  501  0.00000000000E+00  0.00000000000E+00 -0.27778463266E+03  0.27778463267E+03  0.25500000920E-02 0.  1.
    10030    2    1    2    0    0  0.00000000000E+00  0.00000000000E+00  0.27231824044E+04  0.32787516697E+04  0.18260586256E+04 0.  0.
        3    1    3    3  502    0 -0.42570654268E+03  0.31561857637E+02 -0.87573632510E+02  0.43576526095E+03  0.10100000352E+00 0.  1.
       -3    1    3    3    0  502  0.42570654268E+03 -0.31561857637E+02  0.28107560369E+04  0.28429864087E+04  0.10100000352E+00 0. -1.
</event>
<event>
 5   0  0.8492114E-05  0.1805435E+04  0.7818609E-02  0.8703414E-01
        1   -1    0    0  501    0  0.00000000000E+00  0.00000000000E+00  0.15116619372E+04  0.15116619372E+04  0.50400001928E-02 0.  1.
       -1   -1    0    0    0  501  0.00000000000E+00  0.00000000000E+00 -0.53907511678E+03  0.53907511680E+03  0.50400001928E-02 0. -1.
    10030    2    1    2    0    0  0.00000000000E+00  0.00000000000E+00  0.97258682040E+03  0.20507370540E+04  0.18054354991E+04 0.  0.
        2    1    3    3  502    0  0.91764968104E+01 -0.49787454102E+03 -0.36896045392E+03  0.61975405061E+03  0.25500000920E-02 0. -1.
       -2    1    3    3    0  502 -0.91764968104E+01  0.49787454102E+03  0.13415472743E+04  0.14309830034E+04  0.25500000920E-02 0.  1.
</event>
<event>
 5   0  0.1573981E-04  0.1776558E+04  0.7818609E-02  0.8718866E-01
       -2   -1    0    0    0  501  0.00000000000E+00  0.00000000000E+00  0.37582932825E+03  0.37582932826E+03  0.25500000920E-02 0. -1.
        2   -1    0    0  501    0  0.00000000000E+00  0.00000000000E+00 -0.20994619394E+04  0.20994619394E+04  0.25500000920E-02 0.  1.
    10030    2    1    2    0    0  0.00000000000E+00  0.00000000000E+00 -0.17236326111E+04  0.24752912676E+04  0.17765577619E+04 0.  0.
        1    1    3    3  502    0 -0.37376323377E+03 -0.31995548418E+03  0.16863694957E+03  0.52010468904E+03  0.50400001928E-02 0. -1.
       -1    1    3    3    0  502  0.37376323377E+03  0.31995548418E+03 -0.18922695607E+04  0.19551865786E+04  0.50400001928E-02 0.  1.
</event>
<event>
 5   0  0.8492114E-05  0.1817365E+04  0.7818609E-02  0.8697119E-01
       -1   -1    0    0    0  501  0.00000000000E+00  0.00000000000E+00  0.77787382573E+03  0.77787382575E+03  0.50400001928E-02 0. -1.
        1   -1    0    0  501    0  0.00000000000E+00  0.00000000000E+00 -0.10614887312E+04  0.10614887312E+04  0.50400001928E-02 0.  1.
    10030    2    1    2    0    0  0.00000000000E+00  0.00000000000E+00 -0.28361490546E+03  0.18393625569E+04  0.18173654562E+04 0.  0.
        2    1    3    3  502    0  0.29268502933E+03  0.67177864948E+03  0.40205426572E+03  0.83582217779E+03  0.25500000920E-02 0. -1.
       -2    1    3    3    0  502 -0.29268502933E+03 -0.67177864948E+03 -0.68566917118E+03  0.10035403792E+04  0.25500000920E-02 0.  1.
</event>
<event>
 5   0  0.8132598E-05  0.1607972E+04  0.7818609E-02  0.8815665E-01
       -1   -1    0    0    0  501  0.00000000000E+00  0.00000000000E+00  0.31846675595E+03  0.31846675599E+03  0.50400001928E-02 0. -1.
        1   -1    0    0  501    0  0.00000000000E+00  0.00000000000E+00 -0.20297057638E+04  0.20297057638E+04  0.50400001928E-02 0.  1.
    10030    2    1    2    0    0  0.00000000000E+00  0.00000000000E+00 -0.17112390079E+04  0.23481725198E+04  0.16079724005E+04 0.  0.
        3    1    3    3  502    0 -0.56974996056E+03  0.22854626827E+03 -0.16137908413E+04  0.17266062967E+04  0.10100000352E+00 0.  1.
       -3    1    3    3    0  502  0.56974996056E+03 -0.22854626827E+03 -0.97448166578E+02  0.62156622307E+03  0.10100000352E+00 0. -1.
</event>
<event>
 5   0  0.1549012E-04  0.1794282E+04  0.7818609E-02  0.8709346E-01
       -2   -1    0    0    0  501  0.00000000000E+00  0.00000000000E+00  0.35213546811E+03  0.35213546812E+03  0.25500000920E-02 0. -1.
        2   -1    0    0  501    0  0.00000000000E+00  0.00000000000E+00 -0.22856601087E+04  0.22856601087E+04  0.25500000920E-02 0.  1.
    10030    2    1    2    0    0  0.00000000000E+00  0.00000000000E+00 -0.19335246406E+04  0.26377955768E+04  0.17942820206E+04 0.  0.
        4    1    3    3  502    0  0.46479839707E+03 -0.61742689037E+03 -0.29692200125E+03  0.82789963316E+03  0.12699999809E+01 0. -1.
       -4    1    3    3    0  502 -0.46479839707E+03  0.61742689037E+03 -0.16366026393E+04  0.18098959436E+04  0.12699999809E+01 0.  1.
</event>
<event>
 5   0  0.8254914E-05  0.1801703E+04  0.7818609E-02  0.8705394E-01
       -1   -1    0    0    0  501  0.00000000000E+00  0.00000000000E+00  0.75697995464E+03  0.75697995466E+03  0.50400001928E-02 0. -1.
        1   -1    0    0  501    0  0.00000000000E+00  0.00000000000E+00 -0.10720671242E+04  0.10720671242E+04  0.50400001928E-02 0.  1.
    10030    2    1    2    0    0  0.00000000000E+00  0.00000000000E+00 -0.31508716952E+03  0.18290470788E+04  0.18017028868E+04 0.  0.
        4    1    3    3  502    0 -0.40517430049E+03  0.38516237032E+03  0.55958775710E+03  0.79098440950E+03  0.12699999809E+01 0. -1.
       -4    1    3    3    0  502  0.40517430049E+03 -0.38516237032E+03 -0.87467492662E+03  0.10380626693E+04  0.12699999809E+01 0.  1.
</event>
<event>
 5   0  0.1608627E-04  0.1796398E+04  0.7818609E-02  0.8708217E-01
       -2   -1    0    0    0  501  0.00000000000E+00  0.00000000000E+00  0.49032061353E+03  0.49032061353E+03  0.25500000920E-02 0.  1.
        2   -1    0    0  501    0  0.00000000000E+00  0.00000000000E+00 -0.16453757078E+04  0.16453757078E+04  0.25500000920E-02 0. -1.
    10030    2    1    2    0    0  0.00000000000E+00  0.00000000000E+00 -0.11550550943E+04  0.21356963214E+04  0.17963982037E+04 0.  0.
        2    1    3    3  502    0 -0.83014987269E+03  0.28720552932E+03 -0.35470968882E+03  0.94734090513E+03  0.25500000920E-02 0.  1.
       -2    1    3    3    0  502  0.83014987269E+03 -0.28720552932E+03 -0.80034540548E+03  0.11883554162E+04  0.25500000920E-02 0. -1.
</event>
<event>
 5   0  0.8430513E-05  0.1804207E+04  0.7818609E-02  0.8704065E-01
        1   -1    0    0  501    0  0.00000000000E+00  0.00000000000E+00  0.11780431632E+04  0.11780431632E+04  0.50400001928E-02 0.  1.
       -1   -1    0    0    0  501  0.00000000000E+00  0.00000000000E+00 -0.69079889910E+03  0.69079889911E+03  0.50400001928E-02 0. -1.
    10030    2    1    2    0    0  0.00000000000E+00  0.00000000000E+00  0.48724426412E+03  0.18688420623E+04  0.18042072168E+04 0.  0.
        5    1    3    3  502    0 -0.66991878715E+03  0.40034591475E+02 -0.38077893351E+03  0.77162726500E+03  0.46999998093E+01 0. -1.
       -5    1    3    3    0  502  0.66991878715E+03 -0.40034591475E+02  0.86802319762E+03  0.10972147973E+04  0.46999998093E+01 0.  1.
</event>
<event>
 5   0  0.1628397E-04  0.1792925E+04  0.7818609E-02  0.8710071E-01
       -2   -1    0    0    0  501  0.00000000000E+00  0.00000000000E+00  0.69551011046E+03  0.69551011047E+03  0.25500000920E-02 0. -1.
        2   -1    0    0  501    0  0.00000000000E+00  0.00000000000E+00 -0.11554762837E+04  0.11554762837E+04  0.25500000920E-02 0.  1.
    10030    2    1    2    0    0  0.00000000000E+00  0.00000000000E+00 -0.45996617322E+03  0.18509863941E+04  0.17929254727E+04 0.  0.
        3    1    3    3  502    0  0.22991250532E+03 -0.23971143204E+03 -0.10896082824E+04  0.11391082258E+04  0.10100000352E+00 0.  1.
       -3    1    3    3    0  502 -0.22991250532E+03  0.23971143204E+03  0.62964210918E+03  0.71187816837E+03  0.10100000352E+00 0. -1.
</event>
<event>
 5   0  0.8492114E-05  0.1796828E+04  0.7818609E-02  0.8707988E-01
        1   -1    0    0  501    0  0.00000000000E+00  0.00000000000E+00  0.13990633335E+04  0.13990633335E+04  0.50400001928E-02 0.  1.
       -1   -1    0    0    0  501  0.00000000000E+00  0.00000000000E+00 -0.57692020186E+03  0.57692020188E+03  0.50400001928E-02 0. -1.
    10030    2    1    2    0    0  0.00000000000E+00  0.00000000000E+00  0.82214313164E+03  0.19759835354E+04  0.17968282064E+04 0.  0.
        2    1    3    3  502    0  0.30961102432E+03 -0.75568414025E+03  0.82288247114E+03  0.11593330270E+04  0.25500000920E-02 0.  1.
       -2    1    3    3    0  502 -0.30961102432E+03  0.75568414025E+03 -0.73933950052E+00  0.81665050838E+03  0.25500000920E-02 0. -1.
</event>
<event>
 5   0  0.1608627E-04  0.1803165E+04  0.7818609E-02  0.8704618E-01
       -2   -1    0    0    0  501  0.00000000000E+00  0.00000000000E+00  0.11403864072E+04  0.11403864072E+04  0.25500000920E-02 0. -1.
        2   -1    0    0  501    0  0.00000000000E+00  0.00000000000E+00 -0.71278558143E+03  0.71278558144E+03  0.25500000920E-02 0.  1.
    10030    2    1    2    0    0  0.00000000000E+00  0.00000000000E+00  0.42760082577E+03  0.18531719886E+04  0.18031649823E+04 0.  0.
        2    1    3    3  502    0  0.39788210908E+03  0.27338735998E+03 -0.56876280339E+03  0.74601739111E+03  0.25500000920E-02 0.  1.
       -2    1    3    3    0  502 -0.39788210908E+03 -0.27338735998E+03  0.99636362916E+03  0.11071545975E+04  0.25500000920E-02 0. -1.
</event>
<event>
 5   0  0.1573981E-04  0.1803131E+04  0.7818609E-02  0.8704636E-01
        2   -1    0    0  501    0  0.00000000000E+00  0.00000000000E+00  0.15697930917E+04  0.15697930917E+04  0.25500000920E-02 0.  1.
       -2   -1    0    0    0  501  0.00000000000E+00  0.00000000000E+00 -0.51778846133E+03  0.51778846134E+03  0.25500000920E-02 0. -1.
    10030    2    1    2    0    0  0.00000000000E+00  0.00000000000E+00  0.10520046303E+04  0.20875815530E+04  0.18031314423E+04 0.  0.
        1    1    3    3  502    0 -0.47498291207E+03 -0.31366451723E+03 -0.28345407996E+03  0.63587767031E+03  0.50400001928E-02 0. -1.
       -1    1    3    3    0  502  0.47498291207E+03  0.31366451723E+03  0.13354587103E+04  0.14517038827E+04  0.50400001928E-02 0.  1.
</event>
<event>
 5   0  0.8132598E-05  0.1794715E+04  0.7818609E-02  0.8709115E-01
       -1   -1    0    0    0  501  0.00000000000E+00  0.00000000000E+00  0.87859622185E+03  0.87859622186E+03  0.50400001928E-02 0.  1.
        1   -1    0    0  501    0  0.00000000000E+00  0.00000000000E+00 -0.91651980692E+03  0.91651980694E+03  0.50400001928E-02 0. -1.
    10030    2    1    2    0    0  0.00000000000E+00  0.00000000000E+00 -0.37923585072E+02  0.17951160288E+04  0.17947153976E+04 0.  0.
        3    1    3    3  502    0  0.46087335583E+02 -0.92567168392E+02  0.87261707749E+03  0.87872253715E+03  0.10100000352E+00 0.  1.
       -3    1    3    3    0  502 -0.46087335583E+02  0.92567168392E+02 -0.91054066256E+03  0.91639349165E+03  0.10100000352E+00 0. -1.
</event>
<event>
 5   0  0.8254914E-05  0.1824160E+04  0.7818609E-02  0.8693556E-01
        1   -1    0    0  501    0  0.00000000000E+00  0.00000000000E+00  0.22875080480E+04  0.22875080480E+04  0.50400001928E-02 0.  1.
       -1   -1    0    0    0  501  0.00000000000E+00  0.00000000000E+00 -0.36366661085E+03  0.36366661089E+03  0.50400001928E-02 0. -1.
    10030    2    1    2    0    0  0.00000000000E+00  0.00000000000E+00  0.19238414372E+04  0.26511746589E+04  0.18241604087E+04 0.  0.
        4    1    3    3  502    0  0.55931925249E+03 -0.28841550905E+03  0.24043545932E+01  0.62930829160E+03  0.12699999809E+01 0. -1.
       -4    1    3    3    0  502 -0.55931925249E+03  0.28841550905E+03  0.19214370826E+04  0.20218663673E+04  0.12699999809E+01 0.  1.
</event>
<event>
 5   0  0.1608627E-04  0.1801596E+04  0.7818609E-02  0.8705451E-01
       -2   -1    0    0    0  501  0.00000000000E+00  0.00000000000E+00  0.55019988186E+03  0.55019988187E+03  0.25500000920E-02 0. -1.
        2   -1    0    0  501    0  0.00000000000E+00  0.00000000000E+00 -0.14748046679E+04  0.14748046679E+04  0.25500000920E-02 0.  1.
    10030    2    1    2    0    0  0.00000000000E+00  0.00000000000E+00 -0.92460478601E+03  0.20250045497E+04  0.18015963522E+04 0.  0.
        2    1    3    3  502    0 -0.13559066113E+03 -0.11651427574E+03 -0.14546644442E+04  0.14656087640E+04  0.25500000920E-02 0.  1.
       -2    1    3    3    0  502  0.13559066113E+03  0.11651427574E+03  0.53005965821E+03  0.55939578574E+03  0.25500000920E-02 0. -1.
</event>
<event>
 5   0  0.1549012E-04  0.1798324E+04  0.7818609E-02  0.8707191E-01
        2   -1    0    0  501    0  0.00000000000E+00  0.00000000000E+00  0.94704496057E+03  0.94704496057E+03  0.25500000920E-02 0. -1.
       -2   -1    0    0    0  501  0.00000000000E+00  0.00000000000E+00 -0.85370046950E+03  0.85370046950E+03  0.25500000920E-02 0.  1.
    10030    2    1    2    0    0  0.00000000000E+00  0.00000000000E+00  0.93344491074E+02  0.18007454301E+04  0.17983244729E+04 0.  0.
        4    1    3    3  502    0  0.30122460626E+03  0.52567557427E+03  0.71196116548E+03  0.93485901977E+03  0.12699999809E+01 0. -1.
       -4    1    3    3    0  502 -0.30122460626E+03 -0.52567557427E+03 -0.61861667440E+03  0.86588641030E+03  0.12699999809E+01 0.  1.
</event>
<event>
 5   0  0.1628397E-04  0.1798098E+04  0.7818609E-02  0.8707311E-01
       -2   -1    0    0    0  501  0.00000000000E+00  0.00000000000E+00  0.10515108217E+04  0.10515108217E+04  0.25500000920E-02 0.  1.
        2   -1    0    0  501    0  0.00000000000E+00  0.00000000000E+00 -0.76869344325E+03  0.76869344325E+03  0.25500000920E-02 0. -1.
    10030    2    1    2    0    0  0.00000000000E+00  0.00000000000E+00  0.28281737847E+03  0.18202042650E+04  0.17980984113E+04 0.  0.
        3    1    3    3  502    0  0.89492668701E+02 -0.30782177413E+03 -0.70887386500E+03  0.77798801344E+03  0.10100000352E+00 0. -1.
       -3    1    3    3    0  502 -0.89492668701E+02  0.30782177413E+03  0.99169124347E+03  0.10422162515E+04  0.10100000352E+00 0.  1.
</event>
<event>
 5   0  0.1603564E-04  0.1793064E+04  0.7818609E-02  0.8709997E-01
       -2   -1    0    0    0  501  0.00000000000E+00  0.00000000000E+00  0.59999968271E+03  0.59999968272E+03  0.25500000920E-02 0.  1.
        2   -1    0    0  501    0  0.00000000000E+00  0.00000000000E+00 -0.13396165595E+04  0.13396165595E+04  0.25500000920E-02 0. -1.
    10030    2    1    2    0    0  0.00000000000E+00  0.00000000000E+00 -0.73961687677E+03  0.19396162422E+04  0.17930638702E+04 0.  0.
        5    1    3    3  502    0  0.41396828235E+03 -0.71139868079E+03  0.14609676207E+02  0.82322132774E+03  0.46999998093E+01 0.  1.
       -5    1    3    3    0  502 -0.41396828235E+03  0.71139868079E+03 -0.75422655298E+03  0.11163949145E+04  0.46999998093E+01 0. -1.
</event>
<event>
 5   0  0.8254914E-05  0.1669269E+04  0.7818609E-02  0.8779088E-01
       -1   -1    0    0    0  501  0.00000000000E+00  0.00000000000E+00  0.31910862245E+03  0.31910862249E+03  0.50400001928E-02 0.  1.
        1   -1    0    0  501    0  0.00000000000E+00  0.00000000000E+00 -0.21830030159E+04  0.21830030159E+04  0.50400001928E-02 0. -1.
    10030    2    1    2    0    0  0.00000000000E+00  0.00000000000E+00 -0.18638943935E+04  0.25021116384E+04  0.16692694034E+04 0.  0.
        4    1    3    3  502    0 -0.60009782519E+02  0.29798370211E+03 -0.20970844373E+04  0.21189998138E+04  0.12699999809E+01 0. -1.
       -4    1    3    3    0  502  0.60009782519E+02 -0.29798370211E+03  0.23319004384E+03  0.38311182462E+03  0.12699999809E+01 0.  1.
</event>
<event>
 5   0  0.8430513E-05  0.1797937E+04  0.7818609E-02  0.8707398E-01
        1   -1    0    0  501    0  0.00000000000E+00  0.00000000000E+00  0.19491220602E+04  0.19491220602E+04  0.50400001928E-02 0.  1.
       -1   -1    0    0    0  501  0.00000000000E+00  0.00000000000E+00 -0.41461948486E+03  0.41461948489E+03  0.50400001928E-02 0. -1.
    10030    2    1    2    0    0  0.00000000000E+00  0.00000000000E+00  0.15345025753E+04  0.23637415451E+04  0.17979365779E+04 0.  0.
        5    1    3    3  502    0  0.24114841830E+03 -0.34528483632E+03 -0.27687604338E+03  0.50404028732E+03  0.46999998093E+01 0. -1.
       -5    1    3    3    0  502 -0.24114841830E+03  0.34528483632E+03  0.18113786187E+04  0.18597012578E+04  0.46999998093E+01 0.  1.
</event>
<event>
 5   0  0.8206783E-05  0.1810720E+04  0.7818609E-02  0.8700619E-01
       -1   -1    0    0    0  501  0.00000000000E+00  0.00000000000E+00  0.61998559099E+03  0.61998559101E+03  0.50400001928E-02 0. -1.
        1   -1    0    0  501    0  0.00000000000E+00  0.00000000000E+00 -0.13220903253E+04  0.13220903253E+04  0.50400001928E-02 0.  1.
    10030    2    1    2    0    0  0.00000000000E+00  0.00000000000E+00 -0.70210473433E+03  0.19420759163E+04  0.18107202453E+04 0.  0.
        1    1    3    3  502    0 -0.45041072712E+03  0.62156287718E+03  0.16384296430E+03  0.78489155325E+03  0.50400001928E-02 0. -1.
       -1    1    3    3    0  502  0.45041072712E+03 -0.62156287718E+03 -0.86594769862E+03  0.11571843631E+04  0.50400001928E-02 0.  1.
</event>
<event>
 5   0  0.1549012E-04  0.1794293E+04  0.7818609E-02  0.8709340E-01
        2   -1    0    0  501    0  0.00000000000E+00  0.00000000000E+00  0.15162444891E+04  0.15162444891E+04  0.25500000920E-02 0. -1.
       -2   -1    0    0    0  501  0.00000000000E+00  0.00000000000E+00 -0.53083276383E+03  0.53083276383E+03  0.25500000920E-02 0.  1.
    10030    2    1    2    0    0  0.00000000000E+00  0.00000000000E+00  0.98541172523E+03  0.20470772529E+04  0.17942934573E+04 0.  0.
        4    1    3    3  502    0  0.64860341690E+03 -0.49973602071E+03  0.91103506804E+03  0.12249118298E+04  0.12699999809E+01 0. -1.
       -4    1    3    3    0  502 -0.64860341690E+03  0.49973602071E+03  0.74376657189E+02  0.82216542304E+03  0.12699999809E+01 0.  1.
</event>
<event>
 5   0  0.1549012E-04  0.1799926E+04  0.7818609E-02  0.8706339E-01
       -2   -1    0    0    0  501  0.00000000000E+00  0.00000000000E+00  0.57924645496E+03  0.57924645496E+03  0.25500000920E-02 0.  1.
        2   -1    0    0  501    0  0.00000000000E+00  0.00000000000E+00 -0.13982539711E+04  0.13982539711E+04  0.25500000920E-02 0. -1.
    10030    2    1    2    0    0  0.00000000000E+00  0.00000000000E+00 -0.81900751618E+03  0.19775004261E+04  0.17999262828E+04 0.  0.
        4    1    3    3  502    0  0.79635691752E+03 -0.29166413045E+03 -0.74034298346E+03  0.11257715804E+04  0.12699999809E+01 0. -1.
       -4    1    3    3    0  502 -0.79635691752E+03  0.29166413045E+03 -0.78664532719E+02  0.85172884575E+03  0.12699999809E+01 0.  1.
</event>
<event>
 5   0  0.5820500E-05  0.1819283E+04  0.7818609E-02  0.8696112E-01
       -3   -1    0    0    0  501  0.00000000000E+00  0.00000000000E+00  0.77158029266E+03  0.77158029927E+03  0.10100000352E+00 0.  1.
        3   -1    0    0  501    0  0.00000000000E+00  0.00000000000E+00 -0.10724061958E+04  0.10724062006E+04  0.10100000352E+00 0. -1.
    10030    2    1    2    0    0  0.00000000000E+00  0.00000000000E+00 -0.30082590313E+03  0.18439864998E+04  0.18192828223E+04 0.  0.
        1    1    3    3  502    0 -0.40551081027E+02 -0.60283673760E+03 -0.83963980899E+03  0.10344329515E+04  0.50400001928E-02 0. -1.
       -1    1    3    3    0  502  0.40551081027E+02  0.60283673760E+03  0.53881390586E+03  0.80955354829E+03  0.50400001928E-02 0.  1.
</event>
<event>
 5   0  0.1608627E-04  0.1805418E+04  0.7818609E-02  0.8703424E-01
        2   -1    0    0  501    0  0.00000000000E+00  0.00000000000E+00  0.21630816416E+04  0.21630816416E+04  0.25500000920E-02 0. -1.
       -2   -1    0    0    0  501  0.00000000000E+00  0.00000000000E+00 -0.37672323597E+03  0.37672323598E+03  0.25500000920E-02 0.  1.
    10030    2    1    2    0    0  0.00000000000E+00  0.00000000000E+00  0.17863584056E+04  0.25398048776E+04  0.18054175314E+04 0.  0.
        2    1    3    3  502    0 -0.86039411249E+03 -0.12362123834E+03  0.12358158388E+04  0.15108941150E+04  0.25500000920E-02 0.  1.
       -2    1    3    3    0  502  0.86039411249E+03  0.12362123834E+03  0.55054256679E+03  0.10289107625E+04  0.25500000920E-02 0. -1.
</event>
<event>
 5   0  0.8492114E-05  0.1799745E+04  0.7818609E-02  0.8706435E-01
        1   -1    0    0  501    0  0.00000000000E+00  0.00000000000E+00  0.12468264530E+04  0.12468264530E+04  0.50400001928E-02 0. -1.
       -1   -1    0    0    0  501  0.00000000000E+00  0.00000000000E+00 -0.64946531484E+03  0.64946531486E+03  0.50400001928E-02 0.  1.
    10030    2    1    2    0    0  0.00000000000E+00  0.00000000000E+00  0.59736113820E+03  0.18962917679E+04  0.17997450207E+04 0.  0.
        2    1    3    3  502    0  0.52933357250E+02 -0.18034262744E+03 -0.62855376801E+03  0.65605277446E+03  0.25500000920E-02 0.  1.
       -2    1    3    3    0  502 -0.52933357250E+02  0.18034262744E+03  0.12259149062E+04  0.12402389934E+04  0.25500000920E-02 0. -1.
</event>
<event>
 5   0  0.8132598E-05  0.1795617E+04  0.7818609E-02  0.8708634E-01
        1   -1    0    0  501    0  0.00000000000E+00  0.00000000000E+00  0.11629574522E+04  0.11629574522E+04  0.50400001928E-02 0.  1.
       -1   -1    0    0    0  501  0.00000000000E+00  0.00000000000E+00 -0.69311229900E+03  0.69311229902E+03  0.50400001928E-02 0. -1.
    10030    2    1    2    0    0  0.00000000000E+00  0.00000000000E+00  0.46984515321E+03  0.18560697512E+04  0.17956170119E+04 0.  0.
        3    1    3    3  502    0 -0.36608077290E+03 -0.81306339542E+03  0.12664438005E+03  0.90062535299E+03  0.10100000352E+00 0. -1.
       -3    1    3    3    0  502  0.36608077290E+03  0.81306339542E+03  0.34320077316E+03  0.95544439825E+03  0.10100000352E+00 0.  1.
</event>
<event>
 5   0  0.1603564E-04  0.1790171E+04  0.7818609E-02  0.8711544E-01
        2   -1    0    0  501    0  0.00000000000E+00  0.00000000000E+00  0.16014509207E+04  0.16014509207E+04  0.25500000920E-02 0.  1.
       -2   -1    0    0    0  501  0.00000000000E+00  0.00000000000E+00 -0.50028251398E+03  0.50028251399E+03  0.25500000920E-02 0. -1.
    10030    2    1    2    0    0  0.00000000000E+00  0.00000000000E+00  0.11011684067E+04  0.21017334346E+04  0.17901708216E+04 0.  0.
        5    1    3    3  502    0 -0.50168191322E+03 -0.54036840835E+03  0.11463136156E+04  0.13629892714E+04  0.46999998093E+01 0.  1.
       -5    1    3    3    0  502  0.50168191322E+03  0.54036840835E+03 -0.45145208892E+02  0.73874416321E+03  0.46999998093E+01 0. -1.
</event>
<event>
 5   0  0.1573981E-04  0.1822313E+04  0.7818609E-02  0.8694523E-01
       -2   -1    0    0    0  501  0.00000000000E+00  0.00000000000E+00  0.10456020878E+04  0.10456020878E+04  0.25500000920E-02 0.  1.
        2   -1    0    0  501    0  0.00000000000E+00  0.00000000000E+00 -0.79399852772E+03  0.79399852772E+03  0.25500000920E-02 0. -1.
    10030    2    1    2    0    0  0.00000000000E+00  0.00000000000E+00  0.25160356006E+03  0.18396006155E+04  0.18223133850E+04 0.  0.
        1    1    3    3  502    0 -0.26284028225E+03 -0.37236129812E+03 -0.67064946269E+03  0.81086907214E+03  0.50400001928E-02 0. -1.
       -1    1    3    3    0  502  0.26284028225E+03  0.37236129812E+03  0.92225302275E+03  0.10287315434E+04  0.50400001928E-02 0.  1.
</event>
<event>
 5   0  0.8254914E-05  0.1812816E+04  0.7818609E-02  0.8699514E-01
        1   -1    0    0  501    0  0.00000000000E+00  0.00000000000E+00  0.13928801330E+04  0.13928801330E+04  0.50400001928E-02 0. -1.
       -1   -1    0    0    0  501  0.00000000000E+00  0.00000000000E+00 -0.58983945553E+03  0.58983945555E+03  0.50400001928E-02 0.  1.
    10030    2    1    2    0    0  0.00000000000E+00  0.00000000000E+00  0.80304067750E+03  0.19827195886E+04  0.18128162172E+04 0.  0.
        4    1    3    3  502    0 -0.11843988324E+03  0.13686028168E+03  0.13729138173E+04  0.13847933799E+04  0.12699999809E+01 0. -1.
       -4    1    3    3    0  502  0.11843988324E+03 -0.13686028168E+03 -0.56987313976E+03  0.59792620863E+03  0.12699999809E+01 0.  1.
</event>
<event>
 5   0  0.8254914E-05  0.1805181E+04  0.7818609E-02  0.8703549E-01
       -1   -1    0    0    0  501  0.00000000000E+00  0.00000000000E+00  0.11581493188E+04  0.11581493188E+04  0.50400001928E-02 0.  1.
        1   -1    0    0  501    0  0.00000000000E+00  0.00000000000E+00 -0.70342388575E+03  0.70342388577E+03  0.50400001928E-02 0. -1.
    10030    2    1    2    0    0  0.00000000000E+00  0.00000000000E+00  0.45472543303E+03  0.18615732046E+04  0.18051813140E+04 0.  0.
        4    1    3    3  502    0 -0.23693079411E+03 -0.73580775010E+03 -0.25315371112E+03  0.81341112647E+03  0.12699999809E+01 0. -1.
       -4    1    3    3    0  502  0.23693079411E+03  0.73580775010E+03  0.70787914415E+03  0.10481620781E+04  0.12699999809E+01 0.  1.
</event>
<event>
 5   0  0.8430513E-05  0.1788691E+04  0.7818609E-02  0.8712336E-01
       -1   -1    0    0    0  501  0.00000000000E+00  0.00000000000E+00  0.76558156145E+03  0.76558156147E+03  0.50400001928E-02 0.  1.
        1   -1    0    0  501    0  0.00000000000E+00  0.00000000000E+00 -0.10447669387E+04  0.10447669388E+04  0.50400001928E-02 0. -1.
    10030    2    1    2    0    0  0.00000000000E+00  0.00000000000E+00 -0.27918537729E+03  0.18103485002E+04  0.17886914819E+04 0.  0.
        5    1    3    3  502    0  0.24780018904E+03 -0.85836165351E+03 -0.98573565674E+02  0.89884842980E+03  0.46999998093E+01 0.  1.
       -5    1    3    3    0  502 -0.24780018904E+03  0.85836165351E+03 -0.18061181162E+03  0.91150007043E+03  0.46999998093E+01 0. -1.
</event>
<event>
 5   0  0.1549012E-04  0.1790465E+04  0.7818609E-02  0.8711386E-01
        2   -1    0    0  501    0  0.00000000000E+00  0.00000000000E+00  0.54220353340E+03  0.54220353341E+03  0.25500000920E-02 0.  1.
       -2   -1    0    0    0  501  0.00000000000E+00  0.00000000000E+00 -0.14781190654E+04  0.14781190654E+04  0.25500000920E-02 0. -1.
    10030    2    1    2    0    0  0.00000000000E+00  0.00000000000E+00 -0.93591553203E+03  0.20203225988E+04  0.17904651687E+04 0.  0.
        4    1    3    3  502    0  0.17456850732E+03 -0.28697122445E+03  0.46840145449E+03  0.57639238621E+03  0.12699999809E+01 0.  1.
       -4    1    3    3    0  502 -0.17456850732E+03  0.28697122445E+03 -0.14043169865E+04  0.14439302126E+04  0.12699999809E+01 0. -1.
</event>
<event>
 5   0  0.8430513E-05  0.1794427E+04  0.7818609E-02  0.8709269E-01
        1   -1    0    0  501    0  0.00000000000E+00  0.00000000000E+00  0.67981406952E+03  0.67981406953E+03  0.50400001928E-02 0. -1.
       -1   -1    0    0    0  501  0.00000000000E+00  0.00000000000E+00 -0.11841361463E+04  0.11841361463E+04  0.50400001928E-02 0.  1.
    10030    2    1    2    0    0  0.00000000000E+00  0.00000000000E+00 -0.50432207681E+03  0.18639502159E+04  0.17944273878E+04 0.  0.
        5    1    3    3  502    0 -0.62124831641E+03  0.30020942883E+03 -0.84787414399E+03  0.10931549871E+04  0.46999998093E+01 0.  1.
       -5    1    3    3    0  502  0.62124831641E+03 -0.30020942883E+03  0.34355206719E+03  0.77079522875E+03  0.46999998093E+01 0. -1.
</event>
<event>
 5   0  0.1628397E-04  0.1793320E+04  0.7818609E-02  0.8709860E-01
       -2   -1    0    0    0  501  0.00000000000E+00  0.00000000000E+00  0.47882218313E+03  0.47882218314E+03  0.25500000920E-02 0.  1.
        2   -1    0    0  501    0  0.00000000000E+00  0.00000000000E+00 -0.16791175854E+04  0.16791175854E+04  0.25500000920E-02 0. -1.
    10030    2    1    2    0    0  0.00000000000E+00  0.00000000000E+00 -0.12002954023E+04  0.21579397686E+04  0.17933195454E+04 0.  0.
        3    1    3    3  502    0  0.23641532962E+03  0.46522095650E+03 -0.14775629171E+04  0.15670082739E+04  0.10100000352E+00 0. -1.
       -3    1    3    3    0  502 -0.23641532962E+03 -0.46522095650E+03  0.27726751476E+03  0.59093149466E+03  0.10100000352E+00 0.  1.
</event>
<event>
 5   0  0.1628397E-04  0.1796810E+04  0.7818609E-02  0.8707998E-01
        2   -1    0    0  501    0  0.00000000000E+00  0.00000000000E+00  0.11427887263E+04  0.11427887263E+04  0.25500000920E-02 0. -1.
       -2   -1    0    0    0  501  0.00000000000E+00  0.00000000000E+00 -0.70628238794E+03  0.70628238794E+03  0.25500000920E-02 0.  1.
    10030    2    1    2    0    0  0.00000000000E+00  0.00000000000E+00  0.43650633836E+03  0.18490711142E+04  0.17968100072E+04 0.  0.
        3    1    3    3  502    0  0.60512926076E+02  0.98821673998E+02 -0.69855978652E+03  0.70810544626E+03  0.10100000352E+00 0.  1.
       -3    1    3    3    0  502 -0.60512926076E+02 -0.98821673998E+02  0.11350661249E+04  0.11409656680E+04  0.10100000352E+00 0. -1.
</event>
<event>
 5   0  0.5820500E-05  0.1822322E+04  0.7818609E-02  0.8694518E-01
        3   -1    0    0  501    0  0.00000000000E+00  0.00000000000E+00  0.71036890649E+03  0.71036891367E+03  0.10100000352E+00 0. -1.
       -3   -1    0    0    0  501  0.00000000000E+00  0.00000000000E+00 -0.11687083801E+04  0.11687083845E+04  0.10100000352E+00 0.  1.
    10030    2    1    2    0    0  0.00000000000E+00  0.00000000000E+00 -0.45833947365E+03  0.18790772982E+04  0.18223217113E+04 0.  0.
        5    1    3    3  502    0  0.38448105907E+03 -0.19410209323E+03 -0.10571029433E+04  0.11414858869E+04  0.46999998093E+01 0.  1.
       -5    1    3    3    0  502 -0.38448105907E+03  0.19410209323E+03  0.59876346963E+03  0.73759141124E+03  0.46999998093E+01 0. -1.
</event>
<event>
 5   0  0.8430513E-05  0.1794436E+04  0.7818609E-02  0.8709264E-01
       -1   -1    0    0    0  501  0.00000000000E+00  0.00000000000E+00  0.12233608549E+04  0.12233608549E+04  0.50400001928E-02 0. -1.
        1   -1    0    0  501    0  0.00000000000E+00  0.00000000000E+00 -0.65802357939E+03  0.65802357941E+03  0.50400001928E-02 0.  1.
    10030    2    1    2    0    0  0.00000000000E+00  0.00000000000E+00  0.56533727551E+03  0.18813844343E+04  0.17944361662E+04 0.  0.
        5    1    3    3  502    0  0.28956547790E+03 -0.58489217033E+03  0.92815489839E+03  0.11346544066E+04  0.46999998093E+01 0. -1.
       -5    1    3    3    0  502 -0.28956547790E+03  0.58489217033E+03 -0.36281762288E+03  0.74673002777E+03  0.46999998093E+01 0.  1.
</event>
<event>
 5   0  0.1628397E-04  0.1818996E+04  0.7818609E-02  0.8696262E-01
        2   -1    0    0  501    0  0.00000000000E+00  0.00000000000E+00  0.14741132735E+04  0.14741132735E+04  0.25500000920E-02 0. -1.
       -2   -1    0    0    0  501  0.00000000000E+00  0.00000000000E+00 -0.56114204416E+03  0.56114204417E+03  0.25500000920E-02 0.  1.
    10030    2    1    2    0    0  0.00000000000E+00  0.00000000000E+00  0.91297122932E+03  0.20352553177E+04  0.18189963558E+04 0.  0.
        3    1    3    3  502    0 -0.11036790596E+03  0.69710314183E+03 -0.18534442018E+03  0.72971667742E+03  0.10100000352E+00 0.  1.
       -3    1    3    3    0  502  0.11036790596E+03 -0.69710314183E+03  0.10983156495E+04  0.13055386402E+04  0.10100000352E+00 0. -1.
</event>
<event>
 5   0  0.1608627E-04  0.1795574E+04  0.7818609E-02  0.8708657E-01
       -2   -1    0    0    0  501  0.00000000000E+00  0.00000000000E+00  0.65148392755E+03  0.65148392755E+03  0.25500000920E-02 0. -1.
        2   -1    0    0  501    0  0.00000000000E+00  0.00000000000E+00 -0.12372084143E+04  0.12372084143E+04  0.25500000920E-02 0.  1.
    10030    2    1    2    0    0  0.00000000000E+00  0.00000000000E+00 -0.58572448680E+03  0.18886923419E+04  0.17955738882E+04 0.  0.
        2    1    3    3  502    0 -0.27317398543E+03  0.80593584071E+03  0.80961901869E+01  0.85101242879E+03  0.25500000920E-02 0. -1.
       -2    1    3    3    0  502  0.27317398543E+03 -0.80593584071E+03 -0.59382067698E+03  0.10376799131E+04  0.25500000920E-02 0.  1.
</event>
<event>
 5   0  0.1573981E-04  0.1787360E+04  0.7818609E-02  0.8713050E-01
        2   -1    0    0  501    0  0.00000000000E+00  0.00000000000E+00  0.21442112598E+04  0.21442112598E+04  0.25500000920E-02 0. -1.
       -2   -1    0    0    0  501  0.00000000000E+00  0.00000000000E+00 -0.37247465607E+03  0.37247465608E+03  0.25500000920E-02 0.  1.
    10030    2    1    2    0    0  0.00000000000E+00  0.00000000000E+00  0.17717366037E+04  0.25166859159E+04  0.17873604578E+04 0.  0.
        1    1    3    3  502    0 -0.13511289609E+03  0.19821908348E+03 -0.32629342912E+03  0.40498605119E+03  0.50400001928E-02 0.  1.
       -1    1    3    3    0  502  0.13511289609E+03 -0.19821908348E+03  0.20980300328E+04  0.21116998647E+04  0.50400001928E-02 0. -1.
</event>
<event>
 5   0  0.8206783E-05  0.1801062E+04  0.7818609E-02  0.8705735E-01
       -1   -1    0    0    0  501  0.00000000000E+00  0.00000000000E+00  0.12277912729E+04  0.12277912729E+04  0.50400001928E-02 0. -1.
        1   -1    0    0  501    0  0.00000000000E+00  0.00000000000E+00 -0.66050020451E+03  0.66050020453E+03  0.50400001928E-02 0.  1.
    10030    2    1    2    0    0  0.00000000000E+00  0.00000000000E+00  0.56729106834E+03  0.18882914774E+04  0.18010623386E+04 0.  0.
        1    1    3    3  502    0 -0.89875531792E+03 -0.49895140805E+01  0.34267859046E+03  0.96188077906E+03  0.50400001928E-02 0. -1.
       -1    1    3    3    0  502  0.89875531792E+03  0.49895140805E+01  0.22461247789E+03  0.92641069834E+03  0.50400001928E-02 0.  1.
</event>
<event>
 5   0  0.1549012E-04  0.1794729E+04  0.7818609E-02  0.8709108E-01
       -2   -1    0    0    0  501  0.00000000000E+00  0.00000000000E+00  0.10299718326E+04  0.10299718326E+04  0.25500000920E-02 0.  1.
        2   -1    0    0  501    0  0.00000000000E+00  0.00000000000E+00 -0.78182999549E+03  0.78182999549E+03  0.25500000920E-02 0. -1.
    10030    2    1    2    0    0  0.00000000000E+00  0.00000000000E+00  0.24814183711E+03  0.18118018281E+04  0.17947288076E+04 0.  0.
        4    1    3    3  502    0  0.81163623489E+03  0.17263662444E+03  0.46894108033E+03  0.95313384769E+03  0.12699999809E+01 0.  1.
       -4    1    3    3    0  502 -0.81163623489E+03 -0.17263662444E+03 -0.22079924321E+03  0.85866798042E+03  0.12699999809E+01 0. -1.
</event>
<event>
 5   0  0.1549012E-04  0.1580962E+04  0.7818609E-02  0.8832330E-01
        2   -1    0    0  501    0  0.00000000000E+00  0.00000000000E+00  0.67721147358E+03  0.67721147359E+03  0.25500000920E-02 0.  1.
       -2   -1    0    0    0  501  0.00000000000E+00  0.00000000000E+00 -0.92269555788E+03  0.92269555789E+03  0.25500000920E-02 0. -1.
    10030    2    1    2    0    0  0.00000000000E+00  0.00000000000E+00 -0.24548408430E+03  0.15999070315E+04  0.15809617559E+04 0.  0.
        4    1    3    3  502    0  0.11035559716E+03 -0.71697956907E+02  0.66604655704E+03  0.67892457895E+03  0.12699999809E+01 0.  1.
       -4    1    3    3    0  502 -0.11035559716E+03  0.71697956907E+02 -0.91153064135E+03  0.92098245253E+03  0.12699999809E+01 0. -1.
</event>
<event>
 5   0  0.1628397E-04  0.1792367E+04  0.7818609E-02  0.8710369E-01
       -2   -1    0    0    0  501  0.00000000000E+00  0.00000000000E+00  0.97287124772E+03  0.97287124772E+03  0.25500000920E-02 0.  1.
        2   -1    0    0  501    0  0.00000000000E+00  0.00000000000E+00 -0.82554042916E+03  0.82554042916E+03  0.25500000920E-02 0. -1.
    10030    2    1    2    0    0  0.00000000000E+00  0.00000000000E+00  0.14733081857E+03  0.17984116769E+04  0.17923666448E+04 0.  0.
        3    1    3    3  502    0 -0.15676160914E+03  0.79814176708E+03 -0.30382153868E+03  0.86828107202E+03  0.10100000352E+00 0. -1.
       -3    1    3    3    0  502  0.15676160914E+03 -0.79814176708E+03  0.45115235724E+03  0.93013060487E+03  0.10100000352E+00 0.  1.
</event>
<event>
 5   0  0.8254914E-05  0.1810915E+04  0.7818609E-02  0.8700517E-01
        1   -1    0    0  501    0  0.00000000000E+00  0.00000000000E+00  0.15337744428E+04  0.15337744428E+04  0.50400001928E-02 0. -1.
       -1   -1    0    0    0  501  0.00000000000E+00  0.00000000000E+00 -0.53453298421E+03  0.53453298424E+03  0.50400001928E-02 0.  1.
    10030    2    1    2    0    0  0.00000000000E+00  0.00000000000E+00  0.99924145855E+03  0.20683074270E+04  0.18109147192E+04 0.  0.
        4    1    3    3  502    0  0.28303811239E+03  0.61833201801E+03 -0.18318668885E+03  0.70427553800E+03  0.12699999809E+01 0.  1.
       -4    1    3    3    0  502 -0.28303811239E+03 -0.61833201801E+03  0.11824281474E+04  0.13640318890E+04  0.12699999809E+01 0. -1.
</event>
<event>
 5   0  0.8492114E-05  0.1823856E+04  0.7818609E-02  0.8693715E-01
       -1   -1    0    0    0  501  0.00000000000E+00  0.00000000000E+00  0.99849921814E+03  0.99849921815E+03  0.50400001928E-02 0.  1.
        1   -1    0    0  501    0  0.00000000000E+00  0.00000000000E+00 -0.83286301661E+03  0.83286301662E+03  0.50400001928E-02 0. -1.
    10030    2    1    2    0    0  0.00000000000E+00  0.00000000000E+00  0.16563620153E+03  0.18313622348E+04  0.18238564318E+04 0.  0.
        2    1    3    3  502    0  0.12423906468E+03 -0.82454274774E+03 -0.28789903207E+03  0.88215188076E+03  0.25500000920E-02 0. -1.
       -2    1    3    3    0  502 -0.12423906468E+03  0.82454274774E+03  0.45353523360E+03  0.94921035402E+03  0.25500000920E-02 0.  1.
</event>
<event>
 5   0  0.1628397E-04  0.1788218E+04  0.7818609E-02  0.8712590E-01
       -2   -1    0    0    0  501  0.00000000000E+00  0.00000000000E+00  0.37764289699E+03  0.37764289700E+03  0.25500000920E-02 0. -1.
        2   -1    0    0  501    0  0.00000000000E+00  0.00000000000E+00 -0.21168955757E+04  0.21168955757E+04  0.25500000920E-02 0.  1.
    10030    2    1    2    0    0  0.00000000000E+00  0.00000000000E+00 -0.17392526787E+04  0.24945384727E+04  0.17882176353E+04 0.  0.
        3    1    3    3  502    0 -0.82434666909E+03 -0.30638677944E+03 -0.64464715842E+03  0.10904082990E+04  0.10100000352E+00 0. -1.
       -3    1    3    3    0  502  0.82434666909E+03  0.30638677944E+03 -0.10946055202E+04  0.14041301737E+04  0.10100000352E+00 0.  1.
</event>
<event>
 5   0  0.1549012E-04  0.1806698E+04  0.7818609E-02  0.8702746E-01
        2   -1    0    0  501    0  0.00000000000E+00  0.00000000000E+00  0.83233680990E+03  0.83233680991E+03  0.25500000920E-02 0. -1.
       -2   -1    0    0    0  501  0.00000000000E+00  0.00000000000E+00 -0.98041997480E+03  0.98041997480E+03  0.25500000920E-02 0.  1.
    10030    2    1    2    0    0  0.00000000000E+00  0.00000000000E+00 -0.14808316490E+03  0.18127567847E+04  0.18066982418E+04 0.  0.
        4    1    3    3  502    0 -0.48412065785E+03  0.70367226541E+03 -0.36915466400E+03  0.93048602747E+03  0.12699999809E+01 0.  1.
       -4    1    3    3    0  502  0.48412065785E+03 -0.70367226541E+03  0.22107149910E+03  0.88227075724E+03  0.12699999809E+01 0. -1.
</event>
<event>
 5   0  0.1549012E-04  0.1800772E+04  0.7818609E-02  0.8705889E-01
        2   -1    0    0  501    0  0.00000000000E+00  0.00000000000E+00  0.13513773139E+04  0.13513773139E+04  0.25500000920E-02 0. -1.
       -2   -1    0    0    0  501  0.00000000000E+00  0.00000000000E+00 -0.59990281702E+03  0.59990281703E+03  0.25500000920E-02 0.  1.
    10030    2    1    2    0    0  0.00000000000E+00  0.00000000000E+00  0.75147449691E+03  0.19512801310E+04  0.18007721205E+04 0.  0.
        4    1    3    3  502    0  0.16292283720E+03 -0.78093257811E+03 -0.76641256124E+02  0.80142063704E+03  0.12699999809E+01 0.  1.
       -4    1    3    3    0  502 -0.16292283720E+03  0.78093257811E+03  0.82811575303E+03  0.11498594939E+04  0.12699999809E+01 0. -1.
</event>
<event>
 5   0  0.8132598E-05  0.1798295E+04  0.7818609E-02  0.8707206E-01
        1   -1    0    0  501    0  0.00000000000E+00  0.00000000000E+00  0.94539940902E+03  0.94539940903E+03  0.50400001928E-02 0. -1.
       -1   -1    0    0    0  501  0.00000000000E+00  0.00000000000E+00 -0.85515880615E+03  0.85515880616E+03  0.50400001928E-02 0.  1.
    10030    2    1    2    0    0  0.00000000000E+00  0.00000000000E+00  0.90240602871E+02  0.18005582152E+04  0.17982954484E+04 0.  0.
        3    1    3    3  502    0  0.80278502384E+03  0.20307765176E+03  0.39593567552E+03  0.91786131659E+03  0.10100000352E+00 0. -1.
       -3    1    3    3    0  502 -0.80278502384E+03 -0.20307765176E+03 -0.30569507265E+03  0.88269689860E+03  0.10100000352E+00 0.  1.
</event>
<event>
 5   0  0.8206783E-05  0.1803688E+04  0.7818609E-02  0.8704341E-01
       -1   -1    0    0    0  501  0.00000000000E+00  0.00000000000E+00  0.12436608611E+04  0.12436608611E+04  0.50400001928E-02 0. -1.
        1   -1    0    0  501    0  0.00000000000E+00  0.00000000000E+00 -0.65397482892E+03  0.65397482893E+03  0.50400001928E-02 0.  1.
    10030    2    1    2    0    0  0.00000000000E+00  0.00000000000E+00  0.58968603216E+03  0.18976356900E+04  0.18036883310E+04 0.  0.
        1    1    3    3  502    0  0.24483843576E+02 -0.23897357188E+03 -0.61969476219E+03  0.66462728274E+03  0.50400001928E-02 0.  1.
       -1    1    3    3    0  502 -0.24483843576E+02  0.23897357188E+03  0.12093807944E+04  0.12330084073E+04  0.50400001928E-02 0. -1.
</event>
<event>
 5   0  0.8254914E-05  0.1806509E+04  0.7818609E-02  0.8702846E-01
       -1   -1    0    0    0  501  0.00000000000E+00  0.00000000000E+00  0.29278929971E+03  0.29278929976E+03  0.50400001928E-02 0. -1.
        1   -1    0    0  501    0  0.00000000000E+00  0.00000000000E+00 -0.27865370943E+04  0.27865370943E+04  0.50400001928E-02 0.  1.
    10030    2    1    2    0    0  0.00000000000E+00  0.00000000000E+00 -0.24937477945E+04  0.30793263940E+04  0.18065085049E+04 0.  0.
        4    1    3    3  502    0  0.47672596468E+03 -0.57671945877E+03 -0.38443107503E+03  0.84122639276E+03  0.12699999809E+01 0. -1.
       -4    1    3    3    0  502 -0.47672596468E+03  0.57671945877E+03 -0.21093167195E+04  0.22381000013E+04  0.12699999809E+01 0.  1.
</event>
<event>
 5   0  0.1573981E-04  0.1799508E+04  0.7818609E-02  0.8706561E-01
       -2   -1    0    0    0  501  0.00000000000E+00  0.00000000000E+00  0.89045144622E+03  0.89045144623E+03  0.25500000920E-02 0. -1.
        2   -1    0    0  501    0  0.00000000000E+00  0.00000000000E+00 -0.90915413039E+03  0.90915413039E+03  0.25500000920E-02 0.  1.
    10030    2    1    2    0    0  0.00000000000E+00  0.00000000000E+00 -0.18702684164E+02  0.17996055766E+04  0.17995083887E+04 0.  0.
        1    1    3    3  502    0 -0.34571229667E+03 -0.10379393593E+02 -0.84001818998E+03  0.90843562425E+03  0.50400001928E-02 0.  1.
       -1    1    3    3    0  502  0.34571229667E+03  0.10379393593E+02  0.82131550582E+03  0.89116995237E+03  0.50400001928E-02 0. -1.
</event>
<event>
 5   0  0.1549012E-04  0.1818025E+04  0.7818609E-02  0.8696772E-01
        2   -1    0    0  501    0  0.00000000000E+00  0.00000000000E+00  0.91987976110E+03  0.91987976110E+03  0.25500000920E-02 0. -1.
       -2   -1    0    0    0  501  0.00000000000E+00  0.00000000000E+00 -0.89827338775E+03  0.89827338775E+03  0.25500000920E-02 0.  1.
    10030    2    1    2    0    0  0.00000000000E+00  0.00000000000E+00  0.21606373353E+02  0.18181531489E+04  0.18180247626E+04 0.  0.
        4    1    3    3  502    0  0.86515922494E+02  0.56002071127E+03  0.72162317033E+03  0.91752374070E+03  0.12699999809E+01 0. -1.
       -4    1    3    3    0  502 -0.86515922494E+02 -0.56002071127E+03 -0.70001679697E+03  0.90062940816E+03  0.12699999809E+01 0.  1.
</event>
<event>
 5   0  0.8430513E-05  0.1816487E+04  0.7818609E-02  0.8697581E-01
        1   -1    0    0  501    0  0.00000000000E+00  0.00000000000E+00  0.23977300118E+04  0.23977300118E+04  0.50400001928E-02 0.  1.
       -1   -1    0    0    0  501  0.00000000000E+00  0.00000000000E+00 -0.34403633557E+03  0.34403633560E+03  0.50400001928E-02 0. -1.
    10030    2    1    2    0    0  0.00000000000E+00  0.00000000000E+00  0.20536936762E+04  0.27417663474E+04  0.18164869909E+04 0.  0.
        5    1    3    3  502    0 -0.23716820203E+02  0.61301269224E+03  0.20377215660E+04  0.21280691528E+04  0.46999998093E+01 0.  1.
       -5    1    3    3    0  502  0.23716820203E+02 -0.61301269224E+03  0.15972110230E+02  0.61369719464E+03  0.46999998093E+01 0. -1.
</event>
<event>
 5   0  0.1573981E-04  0.1827217E+04  0.7818609E-02  0.8691958E-01
       -2   -1    0    0    0  501  0.00000000000E+00  0.00000000000E+00  0.11919073651E+04  0.11919073651E+04  0.25500000920E-02 0. -1.
        2   -1    0    0  501    0  0.00000000000E+00  0.00000000000E+00 -0.70029006621E+03  0.70029006621E+03  0.25500000920E-02 0.  1.
    10030    2    1    2    0    0  0.00000000000E+00  0.00000000000E+00  0.49161729889E+03  0.18921974313E+04  0.18272174338E+04 0.  0.
        1    1    3    3  502    0 -0.11360280901E+02 -0.54489403256E+03 -0.51350803640E+03  0.74881844674E+03  0.50400001928E-02 0.  1.
       -1    1    3    3    0  502  0.11360280901E+02  0.54489403256E+03  0.10051253353E+04  0.11433789846E+04  0.50400001928E-02 0. -1.
</event>
<event>
 5   0  0.8132598E-05  0.1783639E+04  0.7818609E-02  0.8715048E-01
       -1   -1    0    0    0  501  0.00000000000E+00  0.00000000000E+00  0.48575731664E+03  0.48575731667E+03  0.50400001928E-02 0. -1.
        1   -1    0    0  501    0  0.00000000000E+00  0.00000000000E+00 -0.16373246858E+04  0.16373246858E+04  0.50400001928E-02 0.  1.
    10030    2    1    2    0    0  0.00000000000E+00  0.00000000000E+00 -0.11515673691E+04  0.21230820025E+04  0.17836394769E+04 0.  0.
        3    1    3    3  502    0 -0.71292719068E+03 -0.47901095509E+03 -0.29004566448E+03  0.90655566403E+03  0.10100000352E+00 0. -1.
       -3    1    3    3    0  502  0.71292719068E+03  0.47901095509E+03 -0.86152170464E+03  0.12165263384E+04  0.10100000352E+00 0.  1.
</event>
<event>
 5   0  0.5820500E-05  0.1808187E+04  0.7818609E-02  0.8701958E-01
       -3   -1    0    0    0  501  0.00000000000E+00  0.00000000000E+00  0.74817257002E+03  0.74817257684E+03  0.10100000352E+00 0.  1.
        3   -1    0    0  501    0  0.00000000000E+00  0.00000000000E+00 -0.10925082772E+04  0.10925082819E+04  0.10100000352E+00 0. -1.
    10030    2    1    2    0    0  0.00000000000E+00  0.00000000000E+00 -0.34433570718E+03  0.18406808587E+04  0.18081866453E+04 0.  0.
        4    1    3    3  502    0  0.72129459312E+03 -0.41798220222E+03 -0.52832391343E+03  0.98696645426E+03  0.12699999809E+01 0. -1.
       -4    1    3    3    0  502 -0.72129459312E+03  0.41798220222E+03  0.18398820625E+03  0.85371440446E+03  0.12699999809E+01 0.  1.
</event>
<event>
 5   0  0.8430513E-05  0.1828229E+04  0.7818609E-02  0.8691430E-01
        1   -1    0    0  501    0  0.00000000000E+00  0.00000000000E+00  0.10267493409E+04  0.10267493409E+04  0.50400001928E-02 0. -1.
       -1   -1    0    0    0  501  0.00000000000E+00  0.00000000000E+00 -0.81383547495E+03  0.81383547497E+03  0.50400001928E-02 0.  1.
    10030    2    1    2    0    0  0.00000000000E+00  0.00000000000E+00  0.21291386590E+03  0.18405848158E+04  0.18282286919E+04 0.  0.
        5    1    3    3  502    0 -0.62120137581E+03  0.38483300266E+03  0.65934554033E+03  0.98424906441E+03  0.46999998093E+01 0. -1.
       -5    1    3    3    0  502  0.62120137581E+03 -0.38483300266E+03 -0.44643167442E+03  0.85633575142E+03  0.46999998093E+01 0.  1.
</event>
<event>
 5   0  0.1603564E-04  0.1800156E+04  0.7818609E-02  0.8706216E-01
       -2   -1    0    0    0  501  0.00000000000E+00  0.00000000000E+00  0.17228944193E+04  0.17228944193E+04  0.25500000920E-02 0. -1.
        2   -1    0    0  501    0  0.00000000000E+00  0.00000000000E+00 -0.47022075476E+03  0.47022075477E+03  0.25500000920E-02 0.  1.
    10030    2    1    2    0    0  0.00000000000E+00  0.00000000000E+00  0.12526736646E+04  0.21931151741E+04  0.18001563424E+04 0.  0.
        5    1    3    3  502    0  0.19158279300E+02 -0.16600679288E+03 -0.45114081372E+03  0.48111892370E+03  0.46999998093E+01 0.  1.
       -5    1    3    3    0  502 -0.19158279300E+02  0.16600679288E+03  0.17038144783E+04  0.17119962504E+04  0.46999998093E+01 0. -1.
</event>
<event>
 5   0  0.1603564E-04  0.1814568E+04  0.7818609E-02  0.8698591E-01
        2   -1    0    0  501    0  0.00000000000E+00  0.00000000000E+00  0.18196018481E+04  0.18196018481E+04  0.25500000920E-02 0.  1.
       -2   -1    0    0    0  501  0.00000000000E+00  0.00000000000E+00 -0.45238691504E+03  0.45238691504E+03  0.25500000920E-02 0. -1.
    10030    2    1    2    0    0  0.00000000000E+00  0.00000000000E+00  0.13672149330E+04  0.22719887631E+04  0.18145677906E+04 0.  0.
        5    1    3    3  502    0  0.42164063126E+03  0.80271802462E+03  0.64391570384E+03  0.11121090651E+04  0.46999998093E+01 0. -1.
       -5    1    3    3    0  502 -0.42164063126E+03 -0.80271802462E+03  0.72329922920E+03  0.11598796980E+04  0.46999998093E+01 0.  1.
</event>
<event>
 5   0  0.1549012E-04  0.1824199E+04  0.7818609E-02  0.8693536E-01
       -2   -1    0    0    0  501  0.00000000000E+00  0.00000000000E+00  0.60373407478E+03  0.60373407478E+03  0.25500000920E-02 0. -1.
        2   -1    0    0  501    0  0.00000000000E+00  0.00000000000E+00 -0.13779666653E+04  0.13779666653E+04  0.25500000920E-02 0.  1.
    10030    2    1    2    0    0  0.00000000000E+00  0.00000000000E+00 -0.77423259052E+03  0.19817007401E+04  0.18241989253E+04 0.  0.
        4    1    3    3  502    0 -0.10728655503E+03 -0.30509074621E+03 -0.13135888035E+04  0.13528148158E+04  0.12699999809E+01 0.  1.
       -4    1    3    3    0  502  0.10728655503E+03  0.30509074621E+03  0.53935621300E+03  0.62888592425E+03  0.12699999809E+01 0. -1.
</event>
<event>
 5   0  0.8206783E-05  0.1802908E+04  0.7818609E-02  0.8704755E-01
        1   -1    0    0  501    0  0.00000000000E+00  0.00000000000E+00  0.89065610533E+03  0.89065610535E+03  0.50400001928E-02 0. -1.
       -1   -1    0    0    0  501  0.00000000000E+00  0.00000000000E+00 -0.91238276340E+03  0.91238276341E+03  0.50400001928E-02 0.  1.
    10030    2    1    2    0    0  0.00000000000E+00  0.00000000000E+00 -0.21726658063E+02  0.18030388688E+04  0.18029079607E+04 0.  0.
        1    1    3    3  502    0 -0.35130488620E+03 -0.35146029527E+03  0.74130817186E+03  0.89245575123E+03  0.50400001928E-02 0. -1.
       -1    1    3    3    0  502  0.35130488620E+03  0.35146029527E+03 -0.76303482992E+03  0.91058311752E+03  0.50400001928E-02 0.  1.
</event>
<event>
 5   0  0.1603564E-04  0.1798493E+04  0.7818609E-02  0.8707101E-01
       -2   -1    0    0    0  501  0.00000000000E+00  0.00000000000E+00  0.82609102046E+03  0.82609102046E+03  0.25500000920E-02 0.  1.
        2   -1    0    0  501    0  0.00000000000E+00  0.00000000000E+00 -0.97888021400E+03  0.97888021400E+03  0.25500000920E-02 0. -1.
    10030    2    1    2    0    0  0.00000000000E+00  0.00000000000E+00 -0.15278919354E+03  0.18049712345E+04  0.17984928745E+04 0.  0.
        5    1    3    3  502    0 -0.27200018663E+03  0.17662939654E+03  0.76533984851E+03  0.83123355259E+03  0.46999998093E+01 0.  1.
       -5    1    3    3    0  502  0.27200018663E+03 -0.17662939654E+03 -0.91812904204E+03  0.97373768187E+03  0.46999998093E+01 0. -1.
</event>
<event>
 5   0  0.8430513E-05  0.1802231E+04  0.7818609E-02  0.8705114E-01
        1   -1    0    0  501    0  0.00000000000E+00  0.00000000000E+00  0.10178242804E+04  0.10178242805E+04  0.50400001928E-02 0. -1.
       -1   -1    0    0    0  501  0.00000000000E+00  0.00000000000E+00 -0.79778868865E+03  0.79778868867E+03  0.50400001928E-02 0.  1.
    10030    2    1    2    0    0  0.00000000000E+00  0.00000000000E+00  0.22003559178E+03  0.18156129691E+04  0.18022305047E+04 0.  0.
        5    1    3    3  502    0 -0.81517974591E+03  0.13444035663E+03 -0.25236756685E+03  0.86388871183E+03  0.46999998093E+01 0.  1.
       -5    1    3    3    0  502  0.81517974591E+03 -0.13444035663E+03  0.47240315864E+03  0.95172425729E+03  0.46999998093E+01 0. -1.
</event>
<event>
 5   0  0.1628397E-04  0.1798337E+04  0.7818609E-02  0.8707184E-01
       -2   -1    0    0    0  501  0.00000000000E+00  0.00000000000E+00  0.58895597094E+03  0.58895597094E+03  0.25500000920E-02 0. -1.
        2   -1    0    0  501    0  0.00000000000E+00  0.00000000000E+00 -0.13727749985E+04  0.13727749985E+04  0.25500000920E-02 0.  1.
    10030    2    1    2    0    0  0.00000000000E+00  0.00000000000E+00 -0.78381902752E+03  0.19617309694E+04  0.17983370453E+04 0.  0.
        3    1    3    3  502    0  0.70279256975E+03 -0.97285564379E+02 -0.99447634476E+03  0.12216239551E+04  0.10100000352E+00 0.  1.
       -3    1    3    3    0  502 -0.70279256975E+03  0.97285564379E+02  0.21065731724E+03  0.74010701432E+03  0.10100000352E+00 0. -1.
</event>
<event>
 5   0  0.1603564E-04  0.1794182E+04  0.7818609E-02  0.8709400E-01
        2   -1    0    0  501    0  0.00000000000E+00  0.00000000000E+00  0.81623645283E+03  0.81623645283E+03  0.25500000920E-02 0.  1.
       -2   -1    0    0    0  501  0.00000000000E+00  0.00000000000E+00 -0.98595431187E+03  0.98595431188E+03  0.25500000920E-02 0. -1.
    10030    2    1    2    0    0  0.00000000000E+00  0.00000000000E+00 -0.16971785904E+03  0.18021907647E+04  0.17941815406E+04 0.  0.
        5    1    3    3  502    0 -0.53179062647E+02 -0.78140727026E+03  0.35450012867E+03  0.85971958565E+03  0.46999998093E+01 0.  1.
       -5    1    3    3    0  502  0.53179062647E+02  0.78140727026E+03 -0.52421798771E+03  0.94247117906E+03  0.46999998093E+01 0. -1.
</event>
<event>
 5   0  0.8254914E-05  0.1778277E+04  0.7818609E-02  0.8717937E-01
        1   -1    0    0  501    0  0.00000000000E+00  0.00000000000E+00  0.11468207988E+04  0.11468207989E+04  0.50400001928E-02 0. -1.
       -1   -1    0    0    0  501  0.00000000000E+00  0.00000000000E+00 -0.68935561904E+03  0.68935561906E+03  0.50400001928E-02 0.  1.
    10030    2    1    2    0    0  0.00000000000E+00  0.00000000000E+00  0.45746517981E+03  0.18361764179E+04  0.17782771007E+04 0.  0.
        4    1    3    3  502    0 -0.73810836795E+03  0.44945684935E+03  0.12756527493E+02  0.86427991077E+03  0.12699999809E+01 0.  1.
       -4    1    3    3    0  502  0.73810836795E+03 -0.44945684935E+03  0.44470865231E+03  0.97189650715E+03  0.12699999809E+01 0. -1.
</event>
<event>
 5   0  0.1628397E-04  0.1795956E+04  0.7818609E-02  0.8708453E-01
       -2   -1    0    0    0  501  0.00000000000E+00  0.00000000000E+00  0.55507962623E+03  0.55507962623E+03  0.25500000920E-02 0. -1.
        2   -1    0    0  501    0  0.00000000000E+00  0.00000000000E+00 -0.14527011506E+04  0.14527011506E+04  0.25500000920E-02 0.  1.
    10030    2    1    2    0    0  0.00000000000E+00  0.00000000000E+00 -0.89762152439E+03  0.20077807769E+04  0.17959563600E+04 0.  0.
        3    1    3    3  502    0 -0.43770235267E+03  0.62825796695E+03  0.75639453170E+02  0.76942365420E+03  0.10100000352E+00 0. -1.
       -3    1    3    3    0  502  0.43770235267E+03 -0.62825796695E+03 -0.97326097756E+03  0.12383571227E+04  0.10100000352E+00 0.  1.
</event>
<event>
 5   0  0.1608627E-04  0.1792436E+04  0.7818609E-02  0.8710332E-01
        2   -1    0    0  501    0  0.00000000000E+00  0.00000000000E+00  0.10718598490E+04  0.10718598490E+04  0.25500000920E-02 0.  1.
       -2   -1    0    0    0  501  0.00000000000E+00  0.00000000000E+00 -0.74935834408E+03  0.74935834408E+03  0.25500000920E-02 0. -1.
    10030    2    1    2    0    0  0.00000000000E+00  0.00000000000E+00  0.32250150489E+03  0.18212181930E+04  0.17924364664E+04 0.  0.
        2    1    3    3  502    0  0.68442521213E+03 -0.33415940849E+03 -0.31867555268E+03  0.82562369707E+03  0.25500000920E-02 0. -1.
       -2    1    3    3    0  502 -0.68442521213E+03  0.33415940849E+03  0.64117705757E+03  0.99559449598E+03  0.25500000920E-02 0.  1.
</event>
<event>
 5   0  0.1549012E-04  0.1796546E+04  0.7818609E-02  0.8708138E-01
        2   -1    0    0  501    0  0.00000000000E+00  0.00000000000E+00  0.84757332978E+03  0.84757332979E+03  0.25500000920E-02 0.  1.
       -2   -1    0    0    0  501  0.00000000000E+00  0.00000000000E+00 -0.95200585590E+03  0.95200585590E+03  0.25500000920E-02 0. -1.
    10030    2    1    2    0    0  0.00000000000E+00  0.00000000000E+00 -0.10443252612E+03  0.17995791857E+04  0.17965464350E+04 0.  0.
        4    1    3    3  502    0 -0.62034642323E+02  0.33285626155E+03 -0.88563736049E+03  0.94815438347E+03  0.12699999809E+01 0. -1.
       -4    1    3    3    0  502  0.62034642323E+02 -0.33285626155E+03  0.78120483437E+03  0.85142480222E+03  0.12699999809E+01 0.  1.
</event>
<event>
 5   0  0.1628397E-04  0.1801448E+04  0.7818609E-02  0.8705530E-01
        2   -1    0    0  501    0  0.00000000000E+00  0.00000000000E+00  0.11983614762E+04  0.11983614762E+04  0.25500000920E-02 0.  1.
       -2   -1    0    0    0  501  0.00000000000E+00  0.00000000000E+00 -0.67701074824E+03  0.67701074825E+03  0.25500000920E-02 0. -1.
    10030    2    1    2    0    0  0.00000000000E+00  0.00000000000E+00  0.52135072800E+03  0.18753722245E+04  0.18014478618E+04 0.  0.
        3    1    3    3  502    0 -0.30769072565E+03  0.70630630737E+03 -0.22512321419E+03  0.80263481998E+03  0.10100000352E+00 0.  1.
       -3    1    3    3    0  502  0.30769072565E+03 -0.70630630737E+03  0.74647394219E+03  0.10727374045E+04  0.10100000352E+00 0. -1.
</event>
<event>
 5   0  0.1573981E-04  0.1780948E+04  0.7818609E-02  0.8716497E-01
       -2   -1    0    0    0  501  0.00000000000E+00  0.00000000000E+00  0.10484244001E+04  0.10484244001E+04  0.25500000920E-02 0.  1.
        2   -1    0    0  501    0  0.00000000000E+00  0.00000000000E+00 -0.75631972197E+03  0.75631972198E+03  0.25500000920E-02 0. -1.
    10030    2    1    2    0    0  0.00000000000E+00  0.00000000000E+00  0.29210467808E+03  0.18047441220E+04  0.17809481191E+04 0.  0.
        1    1    3    3  502    0  0.63756326113E+03 -0.60568086580E+03  0.41534132873E+01  0.87940518193E+03  0.50400001928E-02 0. -1.
       -1    1    3    3    0  502 -0.63756326113E+03  0.60568086580E+03  0.28795126479E+03  0.92533894010E+03  0.50400001928E-02 0.  1.
</event>
<event>
 5   0  0.1573981E-04  0.1820486E+04  0.7818609E-02  0.8695480E-01
        2   -1    0    0  501    0  0.00000000000E+00  0.00000000000E+00  0.71087858745E+03  0.71087858745E+03  0.25500000920E-02 0. -1.
       -2   -1    0    0    0  501  0.00000000000E+00  0.00000000000E+00 -0.11655193660E+04  0.11655193660E+04  0.25500000920E-02 0.  1.
    10030    2    1    2    0    0  0.00000000000E+00  0.00000000000E+00 -0.45464077854E+03  0.18763979534E+04  0.18204864850E+04 0.  0.
        1    1    3    3  502    0  0.76401463254E+03 -0.25645290202E+03 -0.66346680479E+03  0.10438748252E+04  0.50400001928E-02 0.  1.
       -1    1    3    3    0  502 -0.76401463254E+03  0.25645290202E+03  0.20882602626E+03  0.83252312819E+03  0.50400001928E-02 0. -1.
</event>
<event>
 5   0  0.8206783E-05  0.1792846E+04  0.7818609E-02  0.8710113E-01
       -1   -1    0    0    0  501  0.00000000000E+00  0.00000000000E+00  0.30682882657E+03  0.30682882661E+03  0.50400001928E-02 0. -1.
        1   -1    0    0  501    0  0.00000000000E+00  0.00000000000E+00 -0.26189654071E+04  0.26189654071E+04  0.50400001928E-02 0.  1.
    10030    2    1    2    0    0  0.00000000000E+00  0.00000000000E+00 -0.23121365805E+04  0.29257942337E+04  0.17928458748E+04 0.  0.
        1    1    3    3  502    0  0.68486100460E+03  0.57360666030E+03 -0.10348776424E+04  0.13671250605E+04  0.50400001928E-02 0.  1.
       -1    1    3    3    0  502 -0.68486100460E+03 -0.57360666030E+03 -0.12772589381E+04  0.15586691732E+04  0.50400001928E-02 0. -1.
</event>
<event>
 5   0  0.8492114E-05  0.1811285E+04  0.7818609E-02  0.8700321E-01
        1   -1    0    0  501    0  0.00000000000E+00  0.00000000000E+00  0.54113035286E+03  0.54113035288E+03  0.50400001928E-02 0. -1.
       -1   -1    0    0    0  501  0.00000000000E+00  0.00000000000E+00 -0.15156944622E+04  0.15156944622E+04  0.50400001928E-02 0.  1.
    10030    2    1    2    0    0  0.00000000000E+00  0.00000000000E+00 -0.97456410931E+03  0.20568248151E+04  0.18112849353E+04 0.  0.
        2    1    3    3  502    0  0.46058210189E+03  0.67040133702E+03 -0.35028583928E+02  0.81412580536E+03  0.25500000920E-02 0. -1.
       -2    1    3    3    0  502 -0.46058210189E+03 -0.67040133702E+03 -0.93953552538E+03  0.12426990097E+04  0.25500000920E-02 0.  1.
</event>
<event>
 5   0  0.1573981E-04  0.1827620E+04  0.7818609E-02  0.8691748E-01
       -2   -1    0    0    0  501  0.00000000000E+00  0.00000000000E+00  0.17811201069E+04  0.17811201069E+04  0.25500000920E-02 0.  1.
        2   -1    0    0  501    0  0.00000000000E+00  0.00000000000E+00 -0.46883333088E+03  0.46883333089E+03  0.25500000920E-02 0. -1.
    10030    2    1    2    0    0  0.00000000000E+00  0.00000000000E+00  0.13122867760E+04  0.22499534377E+04  0.18276197333E+04 0.  0.
        1    1    3    3  502    0  0.57982387635E+03 -0.53112857163E+03  0.82987920417E+02  0.79068342726E+03  0.50400001928E-02 0. -1.
       -1    1    3    3    0  502 -0.57982387635E+03  0.53112857163E+03  0.12292988556E+04  0.14592700105E+04  0.50400001928E-02 0.  1.
</event>
<event>
 5   0  0.8430513E-05  0.1787364E+04  0.7818609E-02  0.8713048E-01
       -1   -1    0    0    0  501  0.00000000000E+00  0.00000000000E+00  0.57096539774E+03  0.57096539776E+03  0.50400001928E-02 0.  1.
        1   -1    0    0  501    0  0.00000000000E+00  0.00000000000E+00 -0.13988026150E+04  0.13988026150E+04  0.50400001928E-02 0. -1.
    10030    2    1    2    0    0  0.00000000000E+00  0.00000000000E+00 -0.82783721725E+03  0.19697680128E+04  0.17873644189E+04 0.  0.
        5    1    3    3  502    0  0.50311324249E+03  0.69870993470E+03 -0.15005305855E+03  0.87398885462E+03  0.46999998093E+01 0.  1.
       -5    1    3    3    0  502 -0.50311324249E+03 -0.69870993470E+03 -0.67778415870E+03  0.10957791581E+04  0.46999998093E+01 0. -1.
</event>
<event>
 5   0  0.1603564E-04  0.1866489E+04  0.7818609E-02  0.8671719E-01
       -2   -1    0    0    0  501  0.00000000000E+00  0.00000000000E+00  0.10027985692E+04  0.10027985692E+04  0.25500000920E-02 0. -1.
        2   -1    0    0  501    0  0.00000000000E+00  0.00000000000E+00 -0.86851485995E+03  0.86851485996E+03  0.25500000920E-02 0.  1.
    10030    2    1    2    0    0  0.00000000000E+00  0.00000000000E+00  0.13428370923E+03  0.18713134291E+04  0.18664891737E+04 0.  0.
        5    1    3    3  502    0 -0.80018685703E+03 -0.25101154497E+03 -0.34332758203E+03  0.90620181000E+03  0.46999998093E+01 0. -1.
       -5    1    3    3    0  502  0.80018685703E+03  0.25101154497E+03  0.47761129125E+03  0.96511161914E+03  0.46999998093E+01 0.  1.
</event>
<event>
 5   0  0.8132598E-05  0.1807553E+04  0.7818609E-02  0.8702293E-01
        1   -1    0    0  501    0  0.00000000000E+00  0.00000000000E+00  0.10059332542E+04  0.10059332542E+04  0.50400001928E-02 0. -1.
       -1   -1    0    0    0  501  0.00000000000E+00  0.00000000000E+00 -0.81199438742E+03  0.81199438743E+03  0.50400001928E-02 0.  1.
    10030    2    1    2    0    0  0.00000000000E+00  0.00000000000E+00  0.19393886681E+03  0.18179276417E+04  0.18075532153E+04 0.  0.
        3    1    3    3  502    0 -0.55136835571E+03 -0.67652757564E+03  0.33308382778E+03  0.93415280913E+03  0.10100000352E+00 0.  1.
       -3    1    3    3    0  502  0.55136835571E+03  0.67652757564E+03 -0.13914496097E+03  0.88377483255E+03  0.10100000352E+00 0. -1.
</event>
<event>
 5   0  0.1608627E-04  0.1789491E+04  0.7818609E-02  0.8711908E-01
       -2   -1    0    0    0  501  0.00000000000E+00  0.00000000000E+00  0.95533800295E+03  0.95533800295E+03  0.25500000920E-02 0. -1.
        2   -1    0    0  501    0  0.00000000000E+00  0.00000000000E+00 -0.83799587773E+03  0.83799587773E+03  0.25500000920E-02 0.  1.
    10030    2    1    2    0    0  0.00000000000E+00  0.00000000000E+00  0.11734212522E+03  0.17933338807E+04  0.17894907748E+04 0.  0.
        2    1    3    3  502    0 -0.82714426449E+03  0.24008143322E+03 -0.18425947727E+03  0.88077141406E+03  0.25500000920E-02 0.  1.
       -2    1    3    3    0  502  0.82714426449E+03 -0.24008143322E+03  0.30160160249E+03  0.91256246662E+03  0.25500000920E-02 0. -1.
</event>
<event>
 5   0  0.8254914E-05  0.1821328E+04  0.7818609E-02  0.8695039E-01
       -1   -1    0    0    0  501  0.00000000000E+00  0.00000000000E+00  0.54576889742E+03  0.54576889745E+03  0.50400001928E-02 0. -1.
        1   -1    0    0  501    0  0.00000000000E+00  0.00000000000E+00 -0.15195233123E+04  0.15195233123E+04  0.50400001928E-02 0.  1.
    10030    2    1    2    0    0  0.00000000000E+00  0.00000000000E+00 -0.97375441487E+03  0.20652922097E+04  0.18213276068E+04 0.  0.
        4    1    3    3  502    0 -0.74139349475E+03 -0.14544984381E+03  0.89640660238E+02  0.76082654527E+03  0.12699999809E+01 0. -1.
       -4    1    3    3    0  502  0.74139349475E+03  0.14544984381E+03 -0.10633950751E+04  0.13044656645E+04  0.12699999809E+01 0.  1.
</event>
<event>
 5   0  0.8430513E-05  0.1847223E+04  0.7818609E-02  0.8681582E-01
       -1   -1    0    0    0  501  0.00000000000E+00  0.00000000000E+00  0.77190144903E+03  0.77190144904E+03  0.50400001928E-02 0.  1.
        1   -1    0    0  501    0  0.00000000000E+00  0.00000000000E+00 -0.11051390482E+04  0.11051390482E+04  0.50400001928E-02 0. -1.
    10030    2    1    2    0    0  0.00000000000E+00  0.00000000000E+00 -0.33323759916E+03  0.18770404972E+04  0.18472232488E+04 0.  0.
        5    1    3    3  502    0 -0.90592468411E+02  0.69544306231E+03 -0.77730919581E+03  0.10469382619E+04  0.46999998093E+01 0. -1.
       -5    1    3    3    0  502  0.90592468411E+02 -0.69544306231E+03  0.44407159665E+03  0.83010223539E+03  0.46999998093E+01 0.  1.
</event>
<event>
 5   0  0.8206783E-05  0.1830682E+04  0.7818609E-02  0.8690151E-01
        1   -1    0    0  501    0  0.00000000000E+00  0.00000000000E+00  0.91247688563E+03  0.91247688564E+03  0.50400001928E-02 0.  1.
       -1   -1    0    0    0  501  0.00000000000E+00  0.00000000000E+00 -0.91821370313E+03  0.91821370314E+03  0.50400001928E-02 0. -1.
    10030    2    1    2    0    0  0.00000000000E+00  0.00000000000E+00 -0.57368174954E+01  0.18306905888E+04  0.18306816001E+04 0.  0.
        1    1    3    3  502    0 -0.21293816502E+02  0.90866326030E+03  0.10542077855E+03  0.91500594961E+03  0.50400001928E-02 0.  1.
       -1    1    3    3    0  502  0.21293816502E+02 -0.90866326030E+03 -0.11115759605E+03  0.91568463918E+03  0.50400001928E-02 0. -1.
</event>
<event>
 5   0  0.8492114E-05  0.1808420E+04  0.7818609E-02  0.8701835E-01
       -1   -1    0    0    0  501  0.00000000000E+00  0.00000000000E+00  0.95000560714E+03  0.95000560716E+03  0.50400001928E-02 0. -1.
        1   -1    0    0  501    0  0.00000000000E+00  0.00000000000E+00 -0.86062180041E+03  0.86062180042E+03  0.50400001928E-02 0.  1.
    10030    2    1    2    0    0  0.00000000000E+00  0.00000000000E+00  0.89383806736E+02  0.18106274076E+04  0.18084197920E+04 0.  0.
        2    1    3    3  502    0 -0.25547952399E+03 -0.67644663585E+03  0.58825952046E+03  0.93214757509E+03  0.25500000920E-02 0. -1.
       -2    1    3    3    0  502  0.25547952399E+03  0.67644663585E+03 -0.49887571373E+03  0.87847983248E+03  0.25500000920E-02 0.  1.
</event>
<event>
 5   0  0.1628397E-04  0.1800577E+04  0.7818609E-02  0.8705993E-01
        2   -1    0    0  501    0  0.00000000000E+00  0.00000000000E+00  0.13486648665E+04  0.13486648665E+04  0.25500000920E-02 0.  1.
       -2   -1    0    0    0  501  0.00000000000E+00  0.00000000000E+00 -0.60097919643E+03  0.60097919644E+03  0.25500000920E-02 0. -1.
    10030    2    1    2    0    0  0.00000000000E+00  0.00000000000E+00  0.74768567011E+03  0.19496440630E+04  0.18005771605E+04 0.  0.
        3    1    3    3  502    0 -0.55134386505E+03 -0.14293999432E+03  0.11287782657E+04  0.12643386741E+04  0.10100000352E+00 0.  1.
       -3    1    3    3    0  502  0.55134386505E+03  0.14293999432E+03 -0.38109259555E+03  0.68530538892E+03  0.10100000352E+00 0. -1.
</event>
<event>
 5   0  0.1573981E-04  0.1799245E+04  0.7818609E-02  0.8706701E-01
        2   -1    0    0  501    0  0.00000000000E+00  0.00000000000E+00  0.14341177501E+04  0.14341177501E+04  0.25500000920E-02 0. -1.
       -2   -1    0    0    0  501  0.00000000000E+00  0.00000000000E+00 -0.56433321024E+03  0.56433321025E+03  0.25500000920E-02 0.  1.
    10030    2    1    2    0    0  0.00000000000E+00  0.00000000000E+00  0.86978453981E+03  0.19984509603E+04  0.17992445901E+04 0.  0.
        1    1    3    3  502    0  0.12686916005E+03  0.55552103027E+03  0.12081145307E+04  0.13357545127E+04  0.50400001928E-02 0. -1.
       -1    1    3    3    0  502 -0.12686916005E+03 -0.55552103027E+03 -0.33832999094E+03  0.66269644758E+03  0.50400001928E-02 0.  1.
</event>
<event>
 5   0  0.8492114E-05  0.1799994E+04  0.7818609E-02  0.8706303E-01
       -1   -1    0    0    0  501  0.00000000000E+00  0.00000000000E+00  0.83996052719E+03  0.83996052720E+03  0.50400001928E-02 0.  1.
        1   -1    0    0  501    0  0.00000000000E+00  0.00000000000E+00 -0.96432449210E+03  0.96432449212E+03  0.50400001928E-02 0. -1.
    10030    2    1    2    0    0  0.00000000000E+00  0.00000000000E+00 -0.12436396491E+03  0.18042850193E+04  0.17999938986E+04 0.  0.
        2    1    3    3  502    0 -0.39302220150E+03 -0.31903003466E+03 -0.80809837999E+03  0.95355629390E+03  0.25500000920E-02 0. -1.
       -2    1    3    3    0  502  0.39302220150E+03  0.31903003466E+03  0.68373441507E+03  0.85072872542E+03  0.25500000920E-02 0.  1.
</event>
<event>
 5   0  0.8254914E-05  0.1818559E+04  0.7818609E-02  0.8696492E-01
        1   -1    0    0  501    0  0.00000000000E+00  0.00000000000E+00  0.56916300478E+03  0.56916300480E+03  0.50400001928E-02 0. -1.
       -1   -1    0    0    0  501  0.00000000000E+00  0.00000000000E+00 -0.14526411618E+04  0.14526411618E+04  0.50400001928E-02 0.  1.
    10030    2    1    2    0    0  0.00000000000E+00  0.00000000000E+00 -0.88347815699E+03  0.20218041666E+04  0.18185594393E+04 0.  0.
        4    1    3    3  502    0 -0.43091261827E+03  0.77550781373E+03 -0.22025025396E+03  0.91411697337E+03  0.12699999809E+01 0. -1.
       -4    1    3    3    0  502  0.43091261827E+03 -0.77550781373E+03 -0.66322790303E+03  0.11076871932E+04  0.12699999809E+01 0.  1.
</event>
<event>
 5   0  0.8132598E-05  0.1794400E+04  0.7818609E-02  0.8709283E-01
       -1   -1    0    0    0  501  0.00000000000E+00  0.00000000000E+00  0.13886501111E+04  0.13886501111E+04  0.50400001928E-02 0. -1.
        1   -1    0    0  501    0  0.00000000000E+00  0.00000000000E+00 -0.57967679072E+03  0.57967679075E+03  0.50400001928E-02 0.  1.
    10030    2    1    2    0    0  0.00000000000E+00  0.00000000000E+00  0.80897332035E+03  0.19683269018E+04  0.17944004457E+04 0.  0.
        3    1    3    3  502    0 -0.42805971528E+03  0.61321882340E+03  0.94820841799E+03  0.12076305972E+04  0.10100000352E+00 0.  1.
       -3    1    3    3    0  502  0.42805971528E+03 -0.61321882340E+03 -0.13923509764E+03  0.76069630460E+03  0.10100000352E+00 0. -1.
</event>
<event>
 5   0  0.8254914E-05  0.1715135E+04  0.7818609E-02  0.8752779E-01
        1   -1    0    0  501    0  0.00000000000E+00  0.00000000000E+00  0.91176007277E+03  0.91176007279E+03  0.50400001928E-02 0. -1.
       -1   -1    0    0    0  501  0.00000000000E+00  0.00000000000E+00 -0.80659563752E+03  0.80659563754E+03  0.50400001928E-02 0.  1.
    10030    2    1    2    0    0  0.00000000000E+00  0.00000000000E+00  0.10516443525E+03  0.17183557103E+04  0.17151346270E+04 0.  0.
        4    1    3    3  502    0  0.35273120182E+02 -0.30602900728E+03 -0.74924709304E+03  0.81010540403E+03  0.12699999809E+01 0.  1.
       -4    1    3    3    0  502 -0.35273120182E+02  0.30602900728E+03  0.85441152830E+03  0.90825030630E+03  0.12699999809E+01 0. -1.
</event>
<event>
 5   0  0.1608627E-04  0.1814877E+04  0.7818609E-02  0.8698428E-01
        2   -1    0    0  501    0  0.00000000000E+00  0.00000000000E+00  0.13243017602E+04  0.13243017602E+04  0.25500000920E-02 0.  1.
       -2   -1    0    0    0  501  0.00000000000E+00  0.00000000000E+00 -0.62179564926E+03  0.62179564927E+03  0.25500000920E-02 0. -1.
    10030    2    1    2    0    0  0.00000000000E+00  0.00000000000E+00  0.70250611094E+03  0.19460974095E+04  0.18148774866E+04 0.  0.
        2    1    3    3  502    0  0.86285397972E+03 -0.27110585353E+03  0.27223885945E+03  0.94452600321E+03  0.25500000920E-02 0. -1.
       -2    1    3    3    0  502 -0.86285397972E+03  0.27110585353E+03  0.43026725149E+03  0.10015714063E+04  0.25500000920E-02 0.  1.
</event>
<event>
 5   0  0.1573981E-04  0.1792548E+04  0.7818609E-02  0.8710272E-01
        2   -1    0    0  501    0  0.00000000000E+00  0.00000000000E+00  0.10202900987E+04  0.10202900987E+04  0.25500000920E-02 0. -1.
       -2   -1    0    0    0  501  0.00000000000E+00  0.00000000000E+00 -0.78733238173E+03  0.78733238174E+03  0.25500000920E-02 0.  1.
    10030    2    1    2    0    0  0.00000000000E+00  0.00000000000E+00  0.23295771697E+03  0.18076224804E+04  0.17925483910E+04 0.  0.
        1    1    3    3  502    0 -0.37477223422E+03  0.79416223036E+03  0.29731776796E+03  0.92711689168E+03  0.50400001928E-02 0.  1.
       -1    1    3    3    0  502  0.37477223422E+03 -0.79416223036E+03 -0.64360050982E+02  0.88050558877E+03  0.50400001928E-02 0. -1.
</event>
<event>
 5   0  0.8206783E-05  0.1795959E+04  0.7818609E-02  0.8708451E-01
        1   -1    0    0  501    0  0.00000000000E+00  0.00000000000E+00  0.60345345037E+03  0.60345345039E+03  0.50400001928E-02 0.  1.
       -1   -1    0    0    0  501  0.00000000000E+00  0.00000000000E+00 -0.13362540554E+04  0.13362540554E+04  0.50400001928E-02 0. -1.
    10030    2    1    2    0    0  0.00000000000E+00  0.00000000000E+00 -0.73280060507E+03  0.19397075058E+04  0.17959589309E+04 0.  0.
        1    1    3    3  502    0  0.70169631014E+03 -0.27770154026E+03  0.15924892819E+03  0.77126913479E+03  0.50400001928E-02 0.  1.
       -1    1    3    3    0  502 -0.70169631014E+03  0.27770154026E+03 -0.89204953325E+03  0.11684383710E+04  0.50400001928E-02 0. -1.
</event>
<event>
 5   0  0.1608627E-04  0.1808309E+04  0.7818609E-02  0.8701893E-01
       -2   -1    0    0    0  501  0.00000000000E+00  0.00000000000E+00  0.75436943084E+03  0.75436943085E+03  0.25500000920E-02 0. -1.
        2   -1    0    0  501    0  0.00000000000E+00  0.00000000000E+00 -0.10836799365E+04  0.10836799365E+04  0.25500000920E-02 0.  1.
    10030    2    1    2    0    0  0.00000000000E+00  0.00000000000E+00 -0.32931050567E+03  0.18380493674E+04  0.18083086207E+04 0.  0.
        2    1    3    3  502    0 -0.26263497822E+03 -0.57476147088E+03  0.49263859684E+03  0.80126192178E+03  0.25500000920E-02 0. -1.
       -2    1    3    3    0  502  0.26263497822E+03  0.57476147088E+03 -0.82194910251E+03  0.10367874456E+04  0.25500000920E-02 0.  1.
</event>
<event>
 5   0  0.8132598E-05  0.1795621E+04  0.7818609E-02  0.8708632E-01
        1   -1    0    0  501    0  0.00000000000E+00  0.00000000000E+00  0.24600808695E+04  0.24600808695E+04  0.50400001928E-02 0. -1.
       -1   -1    0    0    0  501  0.00000000000E+00  0.00000000000E+00 -0.32765742794E+03  0.32765742798E+03  0.50400001928E-02 0.  1.
    10030    2    1    2    0    0  0.00000000000E+00  0.00000000000E+00  0.21324234415E+04  0.27877382974E+04  0.17956210851E+04 0.  0.
        3    1    3    3  502    0  0.36880729503E+03 -0.40575684833E+03 -0.37505042798E+02  0.54960356556E+03  0.10100000352E+00 0.  1.
       -3    1    3    3    0  502 -0.36880729503E+03  0.40575684833E+03  0.21699284843E+04  0.22381347319E+04  0.10100000352E+00 0. -1.
</event>
<event>
 5   0  0.1573981E-04  0.1798037E+04  0.7818609E-02  0.8707344E-01
        2   -1    0    0  501    0  0.00000000000E+00  0.00000000000E+00  0.65432707966E+03  0.65432707966E+03  0.25500000920E-02 0. -1.
       -2   -1    0    0    0  501  0.00000000000E+00  0.00000000000E+00 -0.12352147462E+04  0.12352147462E+04  0.25500000920E-02 0.  1.
    10030    2    1    2    0    0  0.00000000000E+00  0.00000000000E+00 -0.58088766656E+03  0.18895418259E+04  0.17980372161E+04 0.  0.
        1    1    3    3  502    0 -0.60789061856E+03  0.15093697097E+03 -0.96818444484E+03  0.11531236242E+04  0.50400001928E-02 0.  1.
       -1    1    3    3    0  502  0.60789061856E+03 -0.15093697097E+03  0.38729677828E+03  0.73641820172E+03  0.50400001928E-02 0. -1.
</event>
<event>
 5   0  0.8132598E-05  0.1800651E+04  0.7818609E-02  0.8705953E-01
        1   -1    0    0  501    0  0.00000000000E+00  0.00000000000E+00  0.13232560160E+04  0.13232560160E+04  0.50400001928E-02 0.  1.
       -1   -1    0    0    0  501  0.00000000000E+00  0.00000000000E+00 -0.61256957467E+03  0.61256957469E+03  0.50400001928E-02 0. -1.
    10030    2    1    2    0    0  0.00000000000E+00  0.00000000000E+00  0.71068644133E+03  0.19358255907E+04  0.18006514098E+04 0.  0.
        3    1    3    3  502    0 -0.47803491176E+03  0.12411265280E+03 -0.45393861039E+03  0.67080667830E+03  0.10100000352E+00 0. -1.
       -3    1    3    3    0  502  0.47803491176E+03 -0.12411265280E+03  0.11646250517E+04  0.12650189124E+04  0.10100000352E+00 0.  1.
</event>
<event>
 5   0  0.1603564E-04  0.1797626E+04  0.7818609E-02  0.8707563E-01
       -2   -1    0    0    0  501  0.00000000000E+00  0.00000000000E+00  0.59355475699E+03  0.59355475700E+03  0.25500000920E-02 0. -1.
        2   -1    0    0  501    0  0.00000000000E+00  0.00000000000E+00 -0.13610613194E+04  0.13610613194E+04  0.25500000920E-02 0.  1.
    10030    2    1    2    0    0  0.00000000000E+00  0.00000000000E+00 -0.76750656240E+03  0.19546160764E+04  0.17976255680E+04 0.  0.
        5    1    3    3  502    0 -0.55552295643E+03 -0.29158857146E+03  0.31604669759E+03  0.70252206740E+03  0.46999998093E+01 0. -1.
       -5    1    3    3    0  502  0.55552295643E+03  0.29158857146E+03 -0.10835532600E+04  0.12520940090E+04  0.46999998093E+01 0.  1.
</event>
<event>
 5   0  0.1573981E-04  0.1798395E+04  0.7818609E-02  0.8707154E-01
        2   -1    0    0  501    0  0.00000000000E+00  0.00000000000E+00  0.15071593885E+04  0.15071593885E+04  0.25500000920E-02 0. -1.
       -2   -1    0    0    0  501  0.00000000000E+00  0.00000000000E+00 -0.53647670850E+03  0.53647670851E+03  0.25500000920E-02 0.  1.
    10030    2    1    2    0    0  0.00000000000E+00  0.00000000000E+00  0.97068267999E+03  0.20436360970E+04  0.17983947375E+04 0.  0.
        1    1    3    3  502    0  0.39205950755E+02  0.10871368087E+03 -0.52800234439E+03  0.54050184707E+03  0.50400001928E-02 0.  1.
       -1    1    3    3    0  502 -0.39205950755E+02 -0.10871368087E+03  0.14986850244E+04  0.15031342499E+04  0.50400001928E-02 0. -1.
</event>
<event>
 5   0  0.8492114E-05  0.1794600E+04  0.7818609E-02  0.8709177E-01
        1   -1    0    0  501    0  0.00000000000E+00  0.00000000000E+00  0.15607219736E+04  0.15607219736E+04  0.50400001928E-02 0. -1.
       -1   -1    0    0    0  501  0.00000000000E+00  0.00000000000E+00 -0.51588116140E+03  0.51588116142E+03  0.50400001928E-02 0.  1.
    10030    2    1    2    0    0  0.00000000000E+00  0.00000000000E+00  0.10448408122E+04  0.20766031350E+04  0.17945997486E+04 0.  0.
        2    1    3    3  502    0  0.36140040927E+03 -0.33165128631E+03  0.13918509441E+04  0.14757546823E+04  0.25500000920E-02 0. -1.
       -2    1    3    3    0  502 -0.36140040927E+03  0.33165128631E+03 -0.34701013193E+03  0.60084845277E+03  0.25500000920E-02 0.  1.
</event>
<event>
 5   0  0.1608627E-04  0.1815990E+04  0.7818609E-02  0.8697842E-01
        2   -1    0    0  501    0  0.00000000000E+00  0.00000000000E+00  0.12837412674E+04  0.12837412674E+04  0.25500000920E-02 0.  1.
       -2   -1    0    0    0  501  0.00000000000E+00  0.00000000000E+00 -0.64222791198E+03  0.64222791198E+03  0.25500000920E-02 0. -1.
    10030    2    1    2    0    0  0.00000000000E+00  0.00000000000E+00  0.64151335539E+03  0.19259691794E+04  0.18159895084E+04 0.  0.
        2    1    3    3  502    0 -0.61991160444E+03  0.41524886660E+02  0.10230054095E+04  0.11968938054E+04  0.25500000920E-02 0.  1.
       -2    1    3    3    0  502  0.61991160444E+03 -0.41524886660E+02 -0.38149205412E+03  0.72907537395E+03  0.25500000920E-02 0. -1.
</event>
<event>
 5   0  0.1573981E-04  0.1788366E+04  0.7818609E-02  0.8712511E-01
        2   -1    0    0  501    0  0.00000000000E+00  0.00000000000E+00  0.32750289946E+03  0.32750289947E+03  0.25500000920E-02 0.  1.
       -2   -1    0    0    0  501  0.00000000000E+00  0.00000000000E+00 -0.24413933406E+04  0.24413933406E+04  0.25500000920E-02 0. -1.
    10030    2    1    2    0    0  0.00000000000E+00  0.00000000000E+00 -0.21138904412E+04  0.27688962401E+04  0.17883661793E+04 0.  0.
        1    1    3    3  502    0  0.23584261717E+03 -0.23775614216E+03  0.22674229366E+03  0.40442773269E+03  0.50400001928E-02 0.  1.
       -1    1    3    3    0  502 -0.23584261717E+03  0.23775614216E+03 -0.23406327348E+04  0.23644685074E+04  0.50400001928E-02 0. -1.
</event>
<event>
 5   0  0.8492114E-05  0.1797282E+04  0.7818609E-02  0.8707746E-01
        1   -1    0    0  501    0  0.00000000000E+00  0.00000000000E+00  0.14176770516E+04  0.14176770516E+04  0.50400001928E-02 0.  1.
       -1   -1    0    0    0  501  0.00000000000E+00  0.00000000000E+00 -0.56963280404E+03  0.56963280406E+03  0.50400001928E-02 0. -1.
    10030    2    1    2    0    0  0.00000000000E+00  0.00000000000E+00  0.84804424760E+03  0.19873098557E+04  0.17972816743E+04 0.  0.
        2    1    3    3  502    0  0.43341085468E+02  0.45458586535E+03 -0.43177971940E+03  0.62845881707E+03  0.25500000920E-02 0. -1.
       -2    1    3    3    0  502 -0.43341085468E+02 -0.45458586535E+03  0.12798239670E+04  0.13588510386E+04  0.25500000920E-02 0.  1.
</event>
<event>
 5   0  0.8254914E-05  0.1800989E+04  0.7818609E-02  0.8705774E-01
        1   -1    0    0  501    0  0.00000000000E+00  0.00000000000E+00  0.26693383842E+03  0.26693383847E+03  0.50400001928E-02 0.  1.
       -1   -1    0    0    0  501  0.00000000000E+00  0.00000000000E+00 -0.30377941808E+04  0.30377941808E+04  0.50400001928E-02 0. -1.
    10030    2    1    2    0    0  0.00000000000E+00  0.00000000000E+00 -0.27708603424E+04  0.33047280193E+04  0.18009886853E+04 0.  0.
        4    1    3    3  502    0  0.11095928539E+03  0.82527115474E+03 -0.20144307939E+04  0.21797517011E+04  0.12699999809E+01 0. -1.
       -4    1    3    3    0  502 -0.11095928539E+03 -0.82527115474E+03 -0.75642954843E+03  0.11249763182E+04  0.12699999809E+01 0.  1.
</event>
<event>
 5   0  0.1603564E-04  0.1776370E+04  0.7818609E-02  0.8718968E-01
        2   -1    0    0  501    0  0.00000000000E+00  0.00000000000E+00  0.63541293617E+03  0.63541293618E+03  0.25500000920E-02 0.  1.
       -2   -1    0    0    0  501  0.00000000000E+00  0.00000000000E+00 -0.12415112915E+04  0.12415112915E+04  0.25500000920E-02 0. -1.
    10030    2    1    2    0    0  0.00000000000E+00  0.00000000000E+00 -0.60609835532E+03  0.18769242277E+04  0.17763697082E+04 0.  0.
        5    1    3    3  502    0 -0.42650813314E+03 -0.18617385474E+03 -0.11023638773E+04  0.11965776615E+04  0.46999998093E+01 0. -1.
       -5    1    3    3    0  502  0.42650813314E+03  0.18617385474E+03  0.49626552202E+03  0.68034656622E+03  0.46999998093E+01 0.  1.
</event>
<event>
 5   0  0.8430513E-05  0.1796345E+04  0.7818609E-02  0.8708246E-01
        1   -1    0    0  501    0  0.00000000000E+00  0.00000000000E+00  0.65208232930E+03  0.65208232932E+03  0.50400001928E-02 0. -1.
       -1   -1    0    0    0  501  0.00000000000E+00  0.00000000000E+00 -0.12371346730E+04  0.12371346731E+04  0.50400001928E-02 0.  1.
    10030    2    1    2    0    0  0.00000000000E+00  0.00000000000E+00 -0.58505234374E+03  0.18892170024E+04  0.17963447991E+04 0.  0.
        5    1    3    3  502    0 -0.65766147436E+02 -0.77387921506E+03 -0.76693217312E+03  0.10915224568E+04  0.46999998093E+01 0.  1.
       -5    1    3    3    0  502  0.65766147436E+02  0.77387921506E+03  0.18187982937E+03  0.79769454553E+03  0.46999998093E+01 0. -1.
</event>
<event>
 5   0  0.8132598E-05  0.1796887E+04  0.7818609E-02  0.8707957E-01
        1   -1    0    0  501    0  0.00000000000E+00  0.00000000000E+00  0.45685962397E+03  0.45685962400E+03  0.50400001928E-02 0. -1.
       -1   -1    0    0    0  501  0.00000000000E+00  0.00000000000E+00 -0.17668460474E+04  0.17668460474E+04  0.50400001928E-02 0.  1.
    10030    2    1    2    0    0  0.00000000000E+00  0.00000000000E+00 -0.13099864234E+04  0.22237056714E+04  0.17968868867E+04 0.  0.
        3    1    3    3  502    0 -0.52262645308E+03 -0.19993925366E+03 -0.15248706294E+04  0.16242981750E+04  0.10100000352E+00 0.  1.
       -3    1    3    3    0  502  0.52262645308E+03  0.19993925366E+03  0.21488420597E+03  0.59940749644E+03  0.10100000352E+00 0. -1.
</event>
<event>
 5   0  0.1628397E-04  0.1800610E+04  0.7818609E-02  0.8705975E-01
        2   -1    0    0  501    0  0.00000000000E+00  0.00000000000E+00  0.80771617648E+03  0.80771617648E+03  0.25500000920E-02 0.  1.
       -2   -1    0    0    0  501  0.00000000000E+00  0.00000000000E+00 -0.10035075158E+04  0.10035075158E+04  0.25500000920E-02 0. -1.
    10030    2    1    2    0    0  0.00000000000E+00  0.00000000000E+00 -0.19579133932E+03  0.18112236923E+04  0.18006101785E+04 0.  0.
        3    1    3    3  502    0 -0.67263280344E+03 -0.27703076804E+03 -0.63146392069E+03  0.96329000204E+03  0.10100000352E+00 0. -1.
       -3    1    3    3    0  502  0.67263280344E+03  0.27703076804E+03  0.43567258137E+03  0.84793369025E+03  0.10100000352E+00 0.  1.
</event>
<event>
 5   0  0.1603564E-04  0.1908566E+04  0.7818609E-02  0.8650604E-01
       -2   -1    0    0    0  501  0.00000000000E+00  0.00000000000E+00  0.60957043006E+03  0.60957043006E+03  0.25500000920E-02 0. -1.
        2   -1    0    0  501    0  0.00000000000E+00  0.00000000000E+00 -0.14939315338E+04  0.14939315338E+04  0.25500000920E-02 0.  1.
    10030    2    1    2    0    0  0.00000000000E+00  0.00000000000E+00 -0.88436110376E+03  0.21035019639E+04  0.19085664647E+04 0.  0.
        5    1    3    3  502    0 -0.90355193649E+03 -0.11268159444E+03 -0.75688104805E+03  0.11840583831E+04  0.46999998093E+01 0. -1.
       -5    1    3    3    0  502  0.90355193649E+03  0.11268159444E+03 -0.12748005570E+03  0.91944358079E+03  0.46999998093E+01 0.  1.
</event>
<event>
 5   0  0.8430513E-05  0.1798357E+04  0.7818609E-02  0.8707174E-01
        1   -1    0    0  501    0  0.00000000000E+00  0.00000000000E+00  0.15962282749E+04  0.15962282749E+04  0.50400001928E-02 0.  1.
       -1   -1    0    0    0  501  0.00000000000E+00  0.00000000000E+00 -0.50652022135E+03  0.50652022137E+03  0.50400001928E-02 0. -1.
    10030    2    1    2    0    0  0.00000000000E+00  0.00000000000E+00  0.10897080536E+04  0.21027484963E+04  0.17983569158E+04 0.  0.
        5    1    3    3  502    0  0.16653484599E+03  0.87474687063E+03  0.39888891901E+03  0.97573070174E+03  0.46999998093E+01 0.  1.
       -5    1    3    3    0  502 -0.16653484599E+03 -0.87474687063E+03  0.69081913457E+03  0.11270177946E+04  0.46999998093E+01 0. -1.
</event>
<event>
 5   0  0.8492114E-05  0.1779087E+04  0.7818609E-02  0.8717500E-01
       -1   -1    0    0    0  501  0.00000000000E+00  0.00000000000E+00  0.33037411580E+03  0.33037411584E+03  0.50400001928E-02 0. -1.
        1   -1    0    0  501    0  0.00000000000E+00  0.00000000000E+00 -0.23951259615E+04  0.23951259615E+04  0.50400001928E-02 0.  1.
    10030    2    1    2    0    0  0.00000000000E+00  0.00000000000E+00 -0.20647518457E+04  0.27255000773E+04  0.17790869814E+04 0.  0.
        2    1    3    3  502    0 -0.12311583279E+03 -0.11356155642E+03  0.30599914919E+03  0.34883981236E+03  0.25500000920E-02 0. -1.
       -2    1    3    3    0  502  0.12311583279E+03  0.11356155642E+03 -0.23707509949E+04  0.23766602650E+04  0.25500000920E-02 0.  1.
</event>
<event>
 5   0  0.1549012E-04  0.1807681E+04  0.7818609E-02  0.8702225E-01
       -2   -1    0    0    0  501  0.00000000000E+00  0.00000000000E+00  0.77330977596E+03  0.77330977596E+03  0.25500000920E-02 0. -1.
        2   -1    0    0  501    0  0.00000000000E+00  0.00000000000E+00 -0.10564041936E+04  0.10564041936E+04  0.25500000920E-02 0.  1.
    10030    2    1    2    0    0  0.00000000000E+00  0.00000000000E+00 -0.28309441765E+03  0.18297139696E+04  0.18076810452E+04 0.  0.
        4    1    3    3  502    0  0.82521931557E+03 -0.27779811171E+03  0.10382734274E+03  0.87689249037E+03  0.12699999809E+01 0. -1.
       -4    1    3    3    0  502 -0.82521931557E+03  0.27779811171E+03 -0.38692176039E+03  0.95282147920E+03  0.12699999809E+01 0.  1.
</event>
<event>
 5   0  0.1603564E-04  0.1774712E+04  0.7818609E-02  0.8719864E-01
       -2   -1    0    0    0  501  0.00000000000E+00  0.00000000000E+00  0.11866836465E+04  0.11866836465E+04  0.25500000920E-02 0.  1.
        2   -1    0    0  501    0  0.00000000000E+00  0.00000000000E+00 -0.66353028490E+03  0.66353028490E+03  0.25500000920E-02 0. -1.
    10030    2    1    2    0    0  0.00000000000E+00  0.00000000000E+00  0.52315336164E+03  0.18502139314E+04  0.17747118505E+04 0.  0.
        5    1    3    3  502    0 -0.60549320675E+03 -0.60527593795E+03  0.18421558684E+02  0.85635414888E+03  0.46999998093E+01 0. -1.
       -5    1    3    3    0  502  0.60549320675E+03  0.60527593795E+03  0.50473180296E+03  0.99385978257E+03  0.46999998093E+01 0.  1.
</event>
<event>
 5   0  0.8206783E-05  0.1798320E+04  0.7818609E-02  0.8707193E-01
        1   -1    0    0  501    0  0.00000000000E+00  0.00000000000E+00  0.59469609527E+03  0.59469609529E+03  0.50400001928E-02 0. -1.
       -1   -1    0    0    0  501  0.00000000000E+00  0.00000000000E+00 -0.13594988859E+04  0.13594988859E+04  0.50400001928E-02 0.  1.
    10030    2    1    2    0    0  0.00000000000E+00  0.00000000000E+00 -0.76480279063E+03  0.19541949812E+04  0.17983199704E+04 0.  0.
        1    1    3    3  502    0  0.30134757997E+03  0.82416446916E+03 -0.59543255959E+03  0.10604703528E+04  0.50400001928E-02 0.  1.
       -1    1    3    3    0  502 -0.30134757997E+03 -0.82416446916E+03 -0.16937023104E+03  0.89372462838E+03  0.50400001928E-02 0. -1.
</event>
<event>
 5   0  0.1608627E-04  0.1804259E+04  0.7818609E-02  0.8704038E-01
        2   -1    0    0  501    0  0.00000000000E+00  0.00000000000E+00  0.17967059274E+04  0.17967059275E+04  0.25500000920E-02 0. -1.
       -2   -1    0    0    0  501  0.00000000000E+00  0.00000000000E+00 -0.45296088430E+03  0.45296088430E+03  0.25500000920E-02 0.  1.
    10030    2    1    2    0    0  0.00000000000E+00  0.00000000000E+00  0.13437450432E+04  0.22496668118E+04  0.18042588570E+04 0.  0.
        2    1    3    3  502    0  0.69484762577E+02  0.89889899110E+03  0.63264128750E+03  0.11014002574E+04  0.25500000920E-02 0. -1.
       -2    1    3    3    0  502 -0.69484762577E+02 -0.89889899110E+03  0.71110375566E+03  0.11482665543E+04  0.25500000920E-02 0.  1.
</event>
<event>
 5   0  0.8492114E-05  0.1794860E+04  0.7818609E-02  0.8709037E-01
        1   -1    0    0  501    0  0.00000000000E+00  0.00000000000E+00  0.79431726481E+03  0.79431726483E+03  0.50400001928E-02 0. -1.
       -1   -1    0    0    0  501  0.00000000000E+00  0.00000000000E+00 -0.10139285178E+04  0.10139285178E+04  0.50400001928E-02 0.  1.
    10030    2    1    2    0    0  0.00000000000E+00  0.00000000000E+00 -0.21961125298E+03  0.18082457826E+04  0.17948603589E+04 0.  0.
        2    1    3    3  502    0 -0.13183485464E+02 -0.79933026314E+03 -0.52061895132E+03  0.95401612478E+03  0.25500000920E-02 0.  1.
       -2    1    3    3    0  502  0.13183485464E+02  0.79933026314E+03  0.30100769835E+03  0.85422965784E+03  0.25500000920E-02 0. -1.
</event>
<event>
 5   0  0.1573981E-04  0.1791708E+04  0.7818609E-02  0.8710722E-01
       -2   -1    0    0    0  501  0.00000000000E+00  0.00000000000E+00  0.66621322841E+03  0.66621322842E+03  0.25500000920E-02 0.  1.
        2   -1    0    0  501    0  0.00000000000E+00  0.00000000000E+00 -0.12046505222E+04  0.12046505222E+04  0.25500000920E-02 0. -1.
    10030    2    1    2    0    0  0.00000000000E+00  0.00000000000E+00 -0.53843729378E+03  0.18708637506E+04  0.17917076921E+04 0.  0.
        1    1    3    3  502    0 -0.48414938343E+03 -0.26955891766E+03 -0.10042283912E+04  0.11469687430E+04  0.50400001928E-02 0. -1.
       -1    1    3    3    0  502  0.48414938343E+03  0.26955891766E+03  0.46579109747E+03  0.72389500763E+03  0.50400001928E-02 0.  1.
</event>
<event>
 5   0  0.8132598E-05  0.1789097E+04  0.7818609E-02  0.8712119E-01
       -1   -1    0    0    0  501  0.00000000000E+00  0.00000000000E+00  0.83904314166E+03  0.83904314167E+03  0.50400001928E-02 0. -1.
        1   -1    0    0  501    0  0.00000000000E+00  0.00000000000E+00 -0.95372619530E+03  0.95372619531E+03  0.50400001928E-02 0.  1.
    10030    2    1    2    0    0  0.00000000000E+00  0.00000000000E+00 -0.11468305364E+03  0.17927693370E+04  0.17890974520E+04 0.  0.
        3    1    3    3  502    0  0.24883721790E+03 -0.86905503491E+02  0.79924908555E+03  0.84158875855E+03  0.10100000352E+00 0. -1.
       -3    1    3    3    0  502 -0.24883721790E+03  0.86905503491E+02 -0.91393213919E+03  0.95118057844E+03  0.10100000352E+00 0.  1.
</event>
<event>
 5   0  0.8132598E-05  0.1594520E+04  0.7818609E-02  0.8823922E-01
        1   -1    0    0  501    0  0.00000000000E+00  0.00000000000E+00  0.15196678294E+04  0.15196678294E+04  0.50400001928E-02 0. -1.
       -1   -1    0    0    0  501  0.00000000000E+00  0.00000000000E+00 -0.41826485494E+03  0.41826485497E+03  0.50400001928E-02 0.  1.
    10030    2    1    2    0    0  0.00000000000E+00  0.00000000000E+00  0.11014029744E+04  0.19379326843E+04  0.15945201714E+04 0.  0.
        3    1    3    3  502    0  0.44347473729E+03 -0.40110163641E+03 -0.90193284837E+02  0.60472076546E+03  0.10100000352E+00 0.  1.
       -3    1    3    3    0  502 -0.44347473729E+03  0.40110163641E+03  0.11915962593E+04  0.13332119189E+04  0.10100000352E+00 0. -1.
</event>
<event>
 5   0  0.1549012E-04  0.1805625E+04  0.7818609E-02  0.8703314E-01
       -2   -1    0    0    0  501  0.00000000000E+00  0.00000000000E+00  0.16773538713E+04  0.16773538713E+04  0.25500000920E-02 0.  1.
        2   -1    0    0  501    0  0.00000000000E+00  0.00000000000E+00 -0.48592630683E+03  0.48592630683E+03  0.25500000920E-02 0. -1.
    10030    2    1    2    0    0  0.00000000000E+00  0.00000000000E+00  0.11914275645E+04  0.21632801781E+04  0.18056249577E+04 0.  0.
        4    1    3    3  502    0  0.67595962443E+03 -0.57226866915E+03  0.38594427075E+03  0.96610943303E+03  0.12699999809E+01 0. -1.
       -4    1    3    3    0  502 -0.67595962443E+03  0.57226866915E+03  0.80548329371E+03  0.11971707451E+04  0.12699999809E+01 0.  1.
</event>
<event>
 5   0  0.1573981E-04  0.1802891E+04  0.7818609E-02  0.8704763E-01
        2   -1    0    0  501    0  0.00000000000E+00  0.00000000000E+00  0.19083615188E+04  0.19083615188E+04  0.25500000920E-02 0.  1.
       -2   -1    0    0    0  501  0.00000000000E+00  0.00000000000E+00 -0.42581257229E+03  0.42581257230E+03  0.25500000920E-02 0. -1.
    10030    2    1    2    0    0  0.00000000000E+00  0.00000000000E+00  0.14825489465E+04  0.23341740911E+04  0.18028913746E+04 0.  0.
        1    1    3    3  502    0 -0.77225895930E+03  0.26569769280E+03  0.24721196894E+03  0.85328361158E+03  0.50400001928E-02 0. -1.
       -1    1    3    3    0  502  0.77225895930E+03 -0.26569769280E+03  0.12353369776E+04  0.14808904795E+04  0.50400001928E-02 0.  1.
</event>
<event>
 5   0  0.5820500E-05  0.1800182E+04  0.7818609E-02  0.8706202E-01
        4   -1    0    0  501    0  0.00000000000E+00  0.00000000000E+00  0.85983857702E+03  0.85983951493E+03  0.12699999809E+01 0.  1.
       -4   -1    0    0    0  501  0.00000000000E+00  0.00000000000E+00 -0.94222629572E+03  0.94222715161E+03  0.12699999809E+01 0. -1.
    10030    2    1    2    0    0  0.00000000000E+00  0.00000000000E+00 -0.82387718694E+02  0.18020666665E+04  0.18001823615E+04 0.  0.
        4    1    3    3  502    0 -0.17488203770E+03  0.54867736808E+03 -0.73367797560E+03  0.93269264290E+03  0.12699999809E+01 0. -1.
       -4    1    3    3    0  502  0.17488203770E+03 -0.54867736808E+03  0.65129025690E+03  0.86937402364E+03  0.12699999809E+01 0.  1.
</event>
<event>
 5   0  0.8254914E-05  0.1799349E+04  0.7818609E-02  0.8706646E-01
       -1   -1    0    0    0  501  0.00000000000E+00  0.00000000000E+00  0.56072183904E+03  0.56072183906E+03  0.50400001928E-02 0.  1.
        1   -1    0    0  501    0  0.00000000000E+00  0.00000000000E+00 -0.14435214521E+04  0.14435214521E+04  0.50400001928E-02 0. -1.
    10030    2    1    2    0    0  0.00000000000E+00  0.00000000000E+00 -0.88279961307E+03  0.20042432912E+04  0.17993487748E+04 0.  0.
        4    1    3    3  502    0  0.62892943563E+03  0.28262853800E+03 -0.10851185260E+04  0.12856574014E+04  0.12699999809E+01 0. -1.
       -4    1    3    3    0  502 -0.62892943563E+03 -0.28262853800E+03  0.20231891295E+03  0.71858588974E+03  0.12699999809E+01 0.  1.
</event>
<event>
 5   0  0.8430513E-05  0.1859068E+04  0.7818609E-02  0.8675503E-01
        1   -1    0    0  501    0  0.00000000000E+00  0.00000000000E+00  0.16308386673E+04  0.16308386673E+04  0.50400001928E-02 0.  1.
       -1   -1    0    0    0  501  0.00000000000E+00  0.00000000000E+00 -0.52980939238E+03  0.52980939240E+03  0.50400001928E-02 0. -1.
    10030    2    1    2    0    0  0.00000000000E+00  0.00000000000E+00  0.11010292749E+04  0.21606480597E+04  0.18590682004E+04 0.  0.
        5    1    3    3  502    0  0.39506474509E+03 -0.21879708581E+03 -0.39372337889E+03  0.59915649596E+03  0.46999998093E+01 0. -1.
       -5    1    3    3    0  502 -0.39506474509E+03  0.21879708581E+03  0.14947526538E+04  0.15614915637E+04  0.46999998093E+01 0.  1.
</event>
<event>
 5   0  0.1608627E-04  0.1796061E+04  0.7818609E-02  0.8708397E-01
       -2   -1    0    0    0  501  0.00000000000E+00  0.00000000000E+00  0.74863724883E+03  0.74863724883E+03  0.25500000920E-02 0.  1.
        2   -1    0    0  501    0  0.00000000000E+00  0.00000000000E+00 -0.10772354116E+04  0.10772354116E+04  0.25500000920E-02 0. -1.
    10030    2    1    2    0    0  0.00000000000E+00  0.00000000000E+00 -0.32859816277E+03  0.18258726604E+04  0.17960607505E+04 0.  0.
        2    1    3    3  502    0 -0.37590686750E+02 -0.77486704556E+03  0.29556602964E+03  0.83017544887E+03  0.25500000920E-02 0.  1.
       -2    1    3    3    0  502  0.37590686750E+02  0.77486704556E+03 -0.62416419241E+03  0.99569721157E+03  0.25500000920E-02 0. -1.
</event>
<event>
 5   0  0.8254914E-05  0.1797053E+04  0.7818609E-02  0.8707868E-01
       -1   -1    0    0    0  501  0.00000000000E+00  0.00000000000E+00  0.58524553786E+03  0.58524553788E+03  0.50400001928E-02 0. -1.
        1   -1    0    0  501    0  0.00000000000E+00  0.00000000000E+00 -0.13795055963E+04  0.13795055963E+04  0.50400001928E-02 0.  1.
    10030    2    1    2    0    0  0.00000000000E+00  0.00000000000E+00 -0.79426005839E+03  0.19647511341E+04  0.17970525810E+04 0.  0.
        4    1    3    3  502    0 -0.26493441697E+02 -0.80169395114E+03  0.45539548344E+02  0.80342426968E+03  0.12699999809E+01 0. -1.
       -4    1    3    3    0  502  0.26493441697E+02  0.80169395114E+03 -0.83979960674E+03  0.11613268645E+04  0.12699999809E+01 0.  1.
</event>
<event>
 5   0  0.1603564E-04  0.1746434E+04  0.7818609E-02  0.8735316E-01
       -2   -1    0    0    0  501  0.00000000000E+00  0.00000000000E+00  0.57746995722E+03  0.57746995722E+03  0.25500000920E-02 0.  1.
        2   -1    0    0  501    0  0.00000000000E+00  0.00000000000E+00 -0.13204287267E+04  0.13204287267E+04  0.25500000920E-02 0. -1.
    10030    2    1    2    0    0  0.00000000000E+00  0.00000000000E+00 -0.74295876952E+03  0.18978986840E+04  0.17464339900E+04 0.  0.
        5    1    3    3  502    0  0.21371741358E+03 -0.83720362036E+03 -0.50851399721E+03  0.10025934421E+04  0.46999998093E+01 0.  1.
       -5    1    3    3    0  502 -0.21371741358E+03  0.83720362036E+03 -0.23444477231E+03  0.89530524185E+03  0.46999998093E+01 0. -1.
</event>
<event>
 5   0  0.8430513E-05  0.1804056E+04  0.7818609E-02  0.8704146E-01
       -1   -1    0    0    0  501  0.00000000000E+00  0.00000000000E+00  0.94679301674E+03  0.94679301676E+03  0.50400001928E-02 0. -1.
        1   -1    0    0  501    0  0.00000000000E+00  0.00000000000E+00 -0.85937925228E+03  0.85937925229E+03  0.50400001928E-02 0.  1.
    10030    2    1    2    0    0  0.00000000000E+00  0.00000000000E+00  0.87413764467E+02  0.18061722691E+04  0.18040557362E+04 0.  0.
        5    1    3    3  502    0  0.82116971308E+03 -0.13815514298E+03 -0.30343560795E+03  0.88628539387E+03  0.46999998093E+01 0.  1.
       -5    1    3    3    0  502 -0.82116971308E+03  0.13815514298E+03  0.39084937242E+03  0.91988687518E+03  0.46999998093E+01 0. -1.
</event>
<event>
 5   0  0.8206783E-05  0.1849316E+04  0.7818609E-02  0.8680505E-01
       -1   -1    0    0    0  501  0.00000000000E+00  0.00000000000E+00  0.10967964711E+04  0.10967964711E+04  0.50400001928E-02 0. -1.
        1   -1    0    0  501    0  0.00000000000E+00  0.00000000000E+00 -0.77953624860E+03  0.77953624862E+03  0.50400001928E-02 0.  1.
    10030    2    1    2    0    0  0.00000000000E+00  0.00000000000E+00  0.31726022249E+03  0.18763327197E+04  0.18493162051E+04 0.  0.
        1    1    3    3  502    0  0.66256239276E+03 -0.43670435841E+03  0.64021462377E+03  0.10195952067E+04  0.50400001928E-02 0. -1.
       -1    1    3    3    0  502 -0.66256239276E+03  0.43670435841E+03 -0.32295440128E+03  0.85673751306E+03  0.50400001928E-02 0.  1.
</event>
<event>
 5   0  0.1608627E-04  0.1804620E+04  0.7818609E-02  0.8703846E-01
        2   -1    0    0  501    0  0.00000000000E+00  0.00000000000E+00  0.11080977887E+04  0.11080977887E+04  0.25500000920E-02 0. -1.
       -2   -1    0    0    0  501  0.00000000000E+00  0.00000000000E+00 -0.73473992677E+03  0.73473992677E+03  0.25500000920E-02 0.  1.
    10030    2    1    2    0    0  0.00000000000E+00  0.00000000000E+00  0.37335786193E+03  0.18428377155E+04  0.18046203901E+04 0.  0.
        2    1    3    3  502    0 -0.89271270475E+03 -0.82197533070E+02  0.82182579389E+02  0.90024795697E+03  0.25500000920E-02 0.  1.
       -2    1    3    3    0  502  0.89271270475E+03  0.82197533070E+02  0.29117528254E+03  0.94258975850E+03  0.25500000920E-02 0. -1.
</event>
<event>
 5   0  0.8430513E-05  0.1836039E+04  0.7818609E-02  0.8687366E-01
       -1   -1    0    0    0  501  0.00000000000E+00  0.00000000000E+00  0.72963350390E+03  0.72963350392E+03  0.50400001928E-02 0. -1.
        1   -1    0    0  501    0  0.00000000000E+00  0.00000000000E+00 -0.11550458057E+04  0.11550458057E+04  0.50400001928E-02 0.  1.
    10030    2    1    2    0    0  0.00000000000E+00  0.00000000000E+00 -0.42541230175E+03  0.18846793096E+04  0.18360393442E+04 0.  0.
        5    1    3    3  502    0 -0.19101229897E+03  0.42953076078E+03 -0.10221101607E+04  0.11250393964E+04  0.46999998093E+01 0.  1.
       -5    1    3    3    0  502  0.19101229897E+03 -0.42953076078E+03  0.59669785896E+03  0.75963991318E+03  0.46999998093E+01 0. -1.
</event>
<event>
 5   0  0.1573981E-04  0.1801539E+04  0.7818609E-02  0.8705482E-01
       -2   -1    0    0    0  501  0.00000000000E+00  0.00000000000E+00  0.99452370917E+03  0.99452370917E+03  0.25500000920E-02 0.  1.
        2   -1    0    0  501    0  0.00000000000E+00  0.00000000000E+00 -0.81585313660E+03  0.81585313661E+03  0.25500000920E-02 0. -1.
    10030    2    1    2    0    0  0.00000000000E+00  0.00000000000E+00  0.17867057257E+03  0.18103768458E+04  0.18015385509E+04 0.  0.
        1    1    3    3  502    0 -0.39463946405E+03 -0.37909148377E+03  0.80834156006E+03  0.97614893197E+03  0.50400001928E-02 0.  1.
       -1    1    3    3    0  502  0.39463946405E+03  0.37909148377E+03 -0.62967098749E+03  0.83422791380E+03  0.50400001928E-02 0. -1.
</event>
<event>
 5   0  0.8206783E-05  0.1810445E+04  0.7818609E-02  0.8700764E-01
        1   -1    0    0  501    0  0.00000000000E+00  0.00000000000E+00  0.17254310223E+04  0.17254310223E+04  0.50400001928E-02 0.  1.
       -1   -1    0    0    0  501  0.00000000000E+00  0.00000000000E+00 -0.47491205398E+03  0.47491205401E+03  0.50400001928E-02 0. -1.
    10030    2    1    2    0    0  0.00000000000E+00  0.00000000000E+00  0.12505189683E+04  0.22003430763E+04  0.18104452390E+04 0.  0.
        1    1    3    3  502    0 -0.78211105777E+03 -0.43155683726E+03  0.44709837325E+03  0.99891739692E+03  0.50400001928E-02 0.  1.
       -1    1    3    3    0  502  0.78211105777E+03  0.43155683726E+03  0.80342059505E+03  0.12014256794E+04  0.50400001928E-02 0. -1.
</event>
<event>
 5   0  0.8492114E-05  0.1801165E+04  0.7818609E-02  0.8705680E-01
       -1   -1    0    0    0  501  0.00000000000E+00  0.00000000000E+00  0.34924496912E+03  0.34924496916E+03  0.50400001928E-02 0.  1.
        1   -1    0    0  501    0  0.00000000000E+00  0.00000000000E+00 -0.23222918338E+04  0.23222918338E+04  0.50400001928E-02 0. -1.
    10030    2    1    2    0    0  0.00000000000E+00  0.00000000000E+00 -0.19730468647E+04  0.26715368030E+04  0.18011648896E+04 0.  0.
        2    1    3    3  502    0  0.16097438349E+03  0.14833175686E+03  0.30918712875E+03  0.37882943764E+03  0.25500000920E-02 0.  1.
       -2    1    3    3    0  502 -0.16097438349E+03 -0.14833175686E+03 -0.22822339934E+04  0.22927073653E+04  0.25500000920E-02 0. -1.
</event>
<event>
 5   0  0.1549012E-04  0.1797876E+04  0.7818609E-02  0.8707430E-01
        2   -1    0    0  501    0  0.00000000000E+00  0.00000000000E+00  0.94829301472E+03  0.94829301472E+03  0.25500000920E-02 0. -1.
       -2   -1    0    0    0  501  0.00000000000E+00  0.00000000000E+00 -0.85215188127E+03  0.85215188127E+03  0.25500000920E-02 0.  1.
    10030    2    1    2    0    0  0.00000000000E+00  0.00000000000E+00  0.96141133452E+02  0.18004448960E+04  0.17978761654E+04 0.  0.
        4    1    3    3  502    0 -0.37154680713E+03  0.72527344857E+02 -0.76843527975E+03  0.85662222578E+03  0.12699999809E+01 0.  1.
       -4    1    3    3    0  502  0.37154680713E+03 -0.72527344857E+02  0.86457641320E+03  0.94382267021E+03  0.12699999809E+01 0. -1.
</event>
<event>
 5   0  0.1608627E-04  0.1799060E+04  0.7818609E-02  0.8706800E-01
        2   -1    0    0  501    0  0.00000000000E+00  0.00000000000E+00  0.90439463415E+03  0.90439463415E+03  0.25500000920E-02 0. -1.
       -2   -1    0    0    0  501  0.00000000000E+00  0.00000000000E+00 -0.89469134075E+03  0.89469134076E+03  0.25500000920E-02 0.  1.
    10030    2    1    2    0    0  0.00000000000E+00  0.00000000000E+00  0.97032933962E+01  0.17990859749E+04  0.17990598076E+04 0.  0.
        2    1    3    3  502    0  0.27367842602E+03  0.12613964667E+03  0.85241512705E+03  0.90411428490E+03  0.25500000920E-02 0. -1.
       -2    1    3    3    0  502 -0.27367842602E+03 -0.12613964667E+03 -0.84271183365E+03  0.89497169001E+03  0.25500000920E-02 0.  1.
</event>
<event>
 5   0  0.1549012E-04  0.1621002E+04  0.7818609E-02  0.8807748E-01
        2   -1    0    0  501    0  0.00000000000E+00  0.00000000000E+00  0.11722133599E+04  0.11722133599E+04  0.25500000920E-02 0.  1.
       -2   -1    0    0    0  501  0.00000000000E+00  0.00000000000E+00 -0.56040322537E+03  0.56040322537E+03  0.25500000920E-02 0. -1.
    10030    2    1    2    0    0  0.00000000000E+00  0.00000000000E+00  0.61181013457E+03  0.17326165853E+04  0.16210023414E+04 0.  0.
        4    1    3    3  502    0 -0.27441688610E+03  0.65212999379E+03  0.72851849630E+03  0.10155387578E+04  0.12699999809E+01 0.  1.
       -4    1    3    3    0  502  0.27441688610E+03 -0.65212999379E+03 -0.11670836173E+03  0.71707782755E+03  0.12699999809E+01 0. -1.
</event>
<event>
 5   0  0.8492114E-05  0.1808982E+04  0.7818609E-02  0.8701537E-01
       -1   -1    0    0    0  501  0.00000000000E+00  0.00000000000E+00  0.41048001433E+03  0.41048001436E+03  0.50400001928E-02 0. -1.
        1   -1    0    0  501    0  0.00000000000E+00  0.00000000000E+00 -0.19930429754E+04  0.19930429754E+04  0.50400001928E-02 0.  1.
    10030    2    1    2    0    0  0.00000000000E+00  0.00000000000E+00 -0.15825629611E+04  0.24035229898E+04  0.18089823760E+04 0.  0.
        2    1    3    3  502    0  0.76330429023E+02 -0.61685959080E+03 -0.16643257455E+04  0.17766041417E+04  0.25500000920E-02 0.  1.
       -2    1    3    3    0  502 -0.76330429023E+02  0.61685959080E+03  0.81762784420E+02  0.62691884808E+03  0.25500000920E-02 0. -1.
</event>
<event>
 5   0  0.1573981E-04  0.1812591E+04  0.7818609E-02  0.8699632E-01
        2   -1    0    0  501    0  0.00000000000E+00  0.00000000000E+00  0.21989510432E+04  0.21989510432E+04  0.25500000920E-02 0.  1.
       -2   -1    0    0    0  501  0.00000000000E+00  0.00000000000E+00 -0.37352864057E+03  0.37352864058E+03  0.25500000920E-02 0. -1.
    10030    2    1    2    0    0  0.00000000000E+00  0.00000000000E+00  0.18254224026E+04  0.25724796838E+04  0.18125906254E+04 0.  0.
        1    1    3    3  502    0  0.73104960024E+03  0.53046311561E+03  0.10184085357E+04  0.13612422932E+04  0.50400001928E-02 0.  1.
       -1    1    3    3    0  502 -0.73104960024E+03 -0.53046311561E+03  0.80701386690E+03  0.12112373906E+04  0.50400001928E-02 0. -1.
</event>
<event>
 5   0  0.8254914E-05  0.1726923E+04  0.7818609E-02  0.8746156E-01
        1   -1    0    0  501    0  0.00000000000E+00  0.00000000000E+00  0.24599849550E+04  0.24599849550E+04  0.50400001928E-02 0.  1.
       -1   -1    0    0    0  501  0.00000000000E+00  0.00000000000E+00 -0.30307737227E+03  0.30307737231E+03  0.50400001928E-02 0. -1.
    10030    2    1    2    0    0  0.00000000000E+00  0.00000000000E+00  0.21569075827E+04  0.27630623273E+04  0.17269230163E+04 0.  0.
        4    1    3    3  502    0  0.73779677068E+03 -0.44063241865E+03  0.12129212585E+04  0.14864994434E+04  0.12699999809E+01 0.  1.
       -4    1    3    3    0  502 -0.73779677068E+03  0.44063241865E+03  0.94398632420E+03  0.12765628838E+04  0.12699999809E+01 0. -1.
</event>
<event>
 5   0  0.8492114E-05  0.1828631E+04  0.7818609E-02  0.8691220E-01
        1   -1    0    0  501    0  0.00000000000E+00  0.00000000000E+00  0.22426788495E+04  0.22426788495E+04  0.50400001928E-02 0.  1.
       -1   -1    0    0    0  501  0.00000000000E+00  0.00000000000E+00 -0.37275638987E+03  0.37275638991E+03  0.50400001928E-02 0. -1.
    10030    2    1    2    0    0  0.00000000000E+00  0.00000000000E+00  0.18699224596E+04  0.26154352394E+04  0.18286310417E+04 0.  0.
        2    1    3    3  502    0 -0.60839160841E+03  0.57463418008E+03  0.40822560449E+03  0.93112455358E+03  0.25500000920E-02 0. -1.
       -2    1    3    3    0  502  0.60839160841E+03 -0.57463418008E+03  0.14616968551E+04  0.16843106858E+04  0.25500000920E-02 0.  1.
</event>
<event>
 5   0  0.8206783E-05  0.1784877E+04  0.7818609E-02  0.8714383E-01
       -1   -1    0    0    0  501  0.00000000000E+00  0.00000000000E+00  0.45967831741E+03  0.45967831743E+03  0.50400001928E-02 0.  1.
        1   -1    0    0  501    0  0.00000000000E+00  0.00000000000E+00 -0.17326178317E+04  0.17326178317E+04  0.50400001928E-02 0. -1.
    10030    2    1    2    0    0  0.00000000000E+00  0.00000000000E+00 -0.12729395143E+04  0.21922961491E+04  0.17848774183E+04 0.  0.
        1    1    3    3  502    0  0.72745008997E+03  0.47363492977E+03 -0.89096947278E+03  0.12439213325E+04  0.50400001928E-02 0. -1.
       -1    1    3    3    0  502 -0.72745008997E+03 -0.47363492977E+03 -0.38197004150E+03  0.94837481658E+03  0.50400001928E-02 0.  1.
</event>
<event>
 5   0  0.1573981E-04  0.1799411E+04  0.7818609E-02  0.8706613E-01
        2   -1    0    0  501    0  0.00000000000E+00  0.00000000000E+00  0.15839138755E+04  0.15839138755E+04  0.25500000920E-02 0. -1.
       -2   -1    0    0    0  501  0.00000000000E+00  0.00000000000E+00 -0.51105705094E+03  0.51105705095E+03  0.25500000920E-02 0.  1.
    10030    2    1    2    0    0  0.00000000000E+00  0.00000000000E+00  0.10728568246E+04  0.20949709265E+04  0.17994114084E+04 0.  0.
        1    1    3    3  502    0  0.41730758896E+03 -0.45854611233E+03 -0.22262571902E+03  0.65876579429E+03  0.50400001928E-02 0.  1.
       -1    1    3    3    0  502 -0.41730758896E+03  0.45854611233E+03  0.12954825436E+04  0.14362051322E+04  0.50400001928E-02 0. -1.
</event>
<event>
 5   0  0.8132598E-05  0.1810626E+04  0.7818609E-02  0.8700669E-01
        1   -1    0    0  501    0  0.00000000000E+00  0.00000000000E+00  0.18836814071E+04  0.18836814071E+04  0.50400001928E-02 0.  1.
       -1   -1    0    0    0  501  0.00000000000E+00  0.00000000000E+00 -0.43510099597E+03  0.43510099600E+03  0.50400001928E-02 0. -1.
    10030    2    1    2    0    0  0.00000000000E+00  0.00000000000E+00  0.14485804112E+04  0.23187824031E+04  0.18106260314E+04 0.  0.
        3    1    3    3  502    0 -0.37540733400E+03 -0.77691497822E+02  0.17746007899E+04  0.18155370029E+04  0.10100000352E+00 0.  1.
       -3    1    3    3    0  502  0.37540733400E+03  0.77691497822E+02 -0.32602037876E+03  0.50324540020E+03  0.10100000352E+00 0. -1.
</event>
<event>
 5   0  0.8430513E-05  0.1792568E+04  0.7818609E-02  0.8710261E-01
        1   -1    0    0  501    0  0.00000000000E+00  0.00000000000E+00  0.17977796117E+04  0.17977796117E+04  0.50400001928E-02 0.  1.
       -1   -1    0    0    0  501  0.00000000000E+00  0.00000000000E+00 -0.44684308715E+03  0.44684308718E+03  0.50400001928E-02 0. -1.
    10030    2    1    2    0    0  0.00000000000E+00  0.00000000000E+00  0.13509365245E+04  0.22446226988E+04  0.17925684274E+04 0.  0.
        5    1    3    3  502    0 -0.84823067122E+03 -0.76892608498E+02  0.32598695562E+03  0.91197441306E+03  0.46999998093E+01 0.  1.
       -5    1    3    3    0  502  0.84823067122E+03  0.76892608498E+02  0.10249495689E+04  0.13326482858E+04  0.46999998093E+01 0. -1.
</event>
<event>
 5   0  0.8132598E-05  0.1805408E+04  0.7818609E-02  0.8703429E-01
       -1   -1    0    0    0  501  0.00000000000E+00  0.00000000000E+00  0.69689919786E+03  0.69689919788E+03  0.50400001928E-02 0.  1.
        1   -1    0    0  501    0  0.00000000000E+00  0.00000000000E+00 -0.11692866115E+04  0.11692866115E+04  0.50400001928E-02 0. -1.
    10030    2    1    2    0    0  0.00000000000E+00  0.00000000000E+00 -0.47238741367E+03  0.18661858094E+04  0.18054084321E+04 0.  0.
        3    1    3    3  502    0 -0.17312804265E+03  0.56726907332E+03  0.46723528344E+03  0.75503399989E+03  0.10100000352E+00 0.  1.
       -3    1    3    3    0  502  0.17312804265E+03 -0.56726907332E+03 -0.93962269712E+03  0.11111518095E+04  0.10100000352E+00 0. -1.
</event>
<event>
 5   0  0.1608627E-04  0.1790657E+04  0.7818609E-02  0.8711284E-01
        2   -1    0    0  501    0  0.00000000000E+00  0.00000000000E+00  0.69561942403E+03  0.69561942403E+03  0.25500000920E-02 0. -1.
       -2   -1    0    0    0  501  0.00000000000E+00  0.00000000000E+00 -0.11523728708E+04  0.11523728708E+04  0.25500000920E-02 0.  1.
    10030    2    1    2    0    0  0.00000000000E+00  0.00000000000E+00 -0.45675344681E+03  0.18479922949E+04  0.17906568099E+04 0.  0.
        2    1    3    3  502    0  0.75985142135E+03  0.37330276027E+03 -0.52905375468E+03  0.99831207981E+03  0.25500000920E-02 0. -1.
       -2    1    3    3    0  502 -0.75985142135E+03 -0.37330276027E+03  0.72300307863E+02  0.84968021507E+03  0.25500000920E-02 0.  1.
</event>
<event>
 5   0  0.1608627E-04  0.1802626E+04  0.7818609E-02  0.8704904E-01
       -2   -1    0    0    0  501  0.00000000000E+00  0.00000000000E+00  0.10413089131E+04  0.10413089131E+04  0.25500000920E-02 0.  1.
        2   -1    0    0  501    0  0.00000000000E+00  0.00000000000E+00 -0.78013804615E+03  0.78013804616E+03  0.25500000920E-02 0. -1.
    10030    2    1    2    0    0  0.00000000000E+00  0.00000000000E+00  0.26117086697E+03  0.18214469593E+04  0.18026255306E+04 0.  0.
        2    1    3    3  502    0 -0.87867107067E+03  0.19883579939E+03  0.10261655146E+03  0.90671312011E+03  0.25500000920E-02 0.  1.
       -2    1    3    3    0  502  0.87867107067E+03 -0.19883579939E+03  0.15855431551E+03  0.91473383917E+03  0.25500000920E-02 0. -1.
</event>
<event>
 5   0  0.1549012E-04  0.1808772E+04  0.7818609E-02  0.8701648E-01
       -2   -1    0    0    0  501  0.00000000000E+00  0.00000000000E+00  0.69847915965E+03  0.69847915965E+03  0.25500000920E-02 0. -1.
        2   -1    0    0  501    0  0.00000000000E+00  0.00000000000E+00 -0.11709929961E+04  0.11709929961E+04  0.25500000920E-02 0.  1.
    10030    2    1    2    0    0  0.00000000000E+00  0.00000000000E+00 -0.47251383645E+03  0.18694721558E+04  0.18087721845E+04 0.  0.
        4    1    3    3  502    0 -0.17789409752E+03  0.78469210569E+03 -0.66306105974E+03  0.10426119089E+04  0.12699999809E+01 0.  1.
       -4    1    3    3    0  502  0.17789409752E+03 -0.78469210569E+03  0.19054722329E+03  0.82686024688E+03  0.12699999809E+01 0. -1.
</event>
<event>
 5   0  0.5820500E-05  0.1787079E+04  0.7818609E-02  0.8713201E-01
        3   -1    0    0  501    0  0.00000000000E+00  0.00000000000E+00  0.57209146721E+03  0.57209147613E+03  0.10100000352E+00 0.  1.
       -3   -1    0    0    0  501  0.00000000000E+00  0.00000000000E+00 -0.13956030633E+04  0.13956030670E+04  0.10100000352E+00 0. -1.
    10030    2    1    2    0    0  0.00000000000E+00  0.00000000000E+00 -0.82351159613E+03  0.19676945431E+04  0.17870787521E+04 0.  0.
        5    1    3    3  502    0 -0.80190701253E+03  0.39198738615E+03 -0.45690707425E+03  0.10027438018E+04  0.46999998093E+01 0.  1.
       -5    1    3    3    0  502  0.80190701253E+03 -0.39198738615E+03 -0.36660452189E+03  0.96495074128E+03  0.46999998093E+01 0. -1.
</event>
<event>
 5   0  0.8132598E-05  0.1827583E+04  0.7818609E-02  0.8691767E-01
       -1   -1    0    0    0  501  0.00000000000E+00  0.00000000000E+00  0.79408445591E+03  0.79408445593E+03  0.50400001928E-02 0.  1.
        1   -1    0    0  501    0  0.00000000000E+00  0.00000000000E+00 -0.10515447037E+04  0.10515447037E+04  0.50400001928E-02 0. -1.
    10030    2    1    2    0    0  0.00000000000E+00  0.00000000000E+00 -0.25746024780E+03  0.18456291597E+04  0.18275834361E+04 0.  0.
        3    1    3    3  502    0 -0.27863569692E+03  0.65035834814E+03 -0.71272334587E+03  0.10042800459E+04  0.10100000352E+00 0. -1.
       -3    1    3    3    0  502  0.27863569692E+03 -0.65035834814E+03  0.45526309807E+03  0.84134911378E+03  0.10100000352E+00 0.  1.
</event>
<event>
 5   0  0.8254914E-05  0.1814855E+04  0.7818609E-02  0.8698439E-01
       -1   -1    0    0    0  501  0.00000000000E+00  0.00000000000E+00  0.11130149230E+04  0.11130149230E+04  0.50400001928E-02 0. -1.
        1   -1    0    0  501    0  0.00000000000E+00  0.00000000000E+00 -0.73981469996E+03  0.73981469997E+03  0.50400001928E-02 0.  1.
    10030    2    1    2    0    0  0.00000000000E+00  0.00000000000E+00  0.37320022303E+03  0.18528296230E+04  0.18148551472E+04 0.  0.
        4    1    3    3  502    0  0.44238664521E+03  0.68750701291E+03  0.58860496507E+03  0.10073873408E+04  0.12699999809E+01 0. -1.
       -4    1    3    3    0  502 -0.44238664521E+03 -0.68750701291E+03 -0.21540474203E+03  0.84544228215E+03  0.12699999809E+01 0.  1.
</event>
<event>
 5   0  0.1603564E-04  0.1803436E+04  0.7818609E-02  0.8704474E-01
        2   -1    0    0  501    0  0.00000000000E+00  0.00000000000E+00  0.22743986496E+04  0.22743986497E+04  0.25500000920E-02 0. -1.
       -2   -1    0    0    0  501  0.00000000000E+00  0.00000000000E+00 -0.35749912379E+03  0.35749912380E+03  0.25500000920E-02 0.  1.
    10030    2    1    2    0    0  0.00000000000E+00  0.00000000000E+00  0.19168995259E+04  0.26318977734E+04  0.18034361917E+04 0.  0.
        5    1    3    3  502    0  0.17917194666E+03  0.62126276936E+03  0.18756595143E+04  0.19839835479E+04  0.46999998093E+01 0. -1.
       -5    1    3    3    0  502 -0.17917194666E+03 -0.62126276936E+03  0.41240011602E+02  0.64791422551E+03  0.46999998093E+01 0.  1.
</event>
<event>
 5   0  0.8430513E-05  0.1967736E+04  0.7818609E-02  0.8621855E-01
        1   -1    0    0  501    0  0.00000000000E+00  0.00000000000E+00  0.13958187765E+04  0.13958187765E+04  0.50400001928E-02 0.  1.
       -1   -1    0    0    0  501  0.00000000000E+00  0.00000000000E+00 -0.69349713947E+03  0.69349713949E+03  0.50400001928E-02 0. -1.
    10030    2    1    2    0    0  0.00000000000E+00  0.00000000000E+00  0.70232163698E+03  0.20893159159E+04  0.19677360887E+04 0.  0.
        5    1    3    3  502    0 -0.27331935136E+03 -0.37325623322E+03 -0.57079199627E+03  0.73474436131E+03  0.46999998093E+01 0. -1.
       -5    1    3    3    0  502  0.27331935136E+03  0.37325623322E+03  0.12731136333E+04  0.13545715546E+04  0.46999998093E+01 0.  1.
</event>
<event>
 5   0  0.8492114E-05  0.1840583E+04  0.7818609E-02  0.8685011E-01
        1   -1    0    0  501    0  0.00000000000E+00  0.00000000000E+00  0.13497173419E+04  0.13497173419E+04  0.50400001928E-02 0.  1.
       -1   -1    0    0    0  501  0.00000000000E+00  0.00000000000E+00 -0.62749196842E+03  0.62749196845E+03  0.50400001928E-02 0. -1.
    10030    2    1    2    0    0  0.00000000000E+00  0.00000000000E+00  0.72222537350E+03  0.19772093104E+04  0.18405833768E+04 0.  0.
        2    1    3    3  502    0 -0.31872999626E+03  0.63438982709E+03  0.99015423106E+03  0.12183778825E+04  0.25500000920E-02 0.  1.
       -2    1    3    3    0  502  0.31872999626E+03 -0.63438982709E+03 -0.26792885756E+03  0.75883142789E+03  0.25500000920E-02 0. -1.
</event>
<event>
 5   0  0.1628397E-04  0.1803449E+04  0.7818609E-02  0.8704468E-01
        2   -1    0    0  501    0  0.00000000000E+00  0.00000000000E+00  0.12423249551E+04  0.12423249551E+04  0.25500000920E-02 0.  1.
       -2   -1    0    0    0  501  0.00000000000E+00  0.00000000000E+00 -0.65450429408E+03  0.65450429409E+03  0.25500000920E-02 0. -1.
    10030    2    1    2    0    0  0.00000000000E+00  0.00000000000E+00  0.58782066100E+03  0.18968292492E+04  0.18034489377E+04 0.  0.
        3    1    3    3  502    0 -0.44065172288E+03 -0.78668050432E+03  0.28531074160E+03  0.94574964247E+03  0.10100000352E+00 0.  1.
       -3    1    3    3    0  502  0.44065172288E+03  0.78668050432E+03  0.30250991940E+03  0.95107960670E+03  0.10100000352E+00 0. -1.
</event>
<event>
 5   0  0.8132598E-05  0.1797459E+04  0.7818609E-02  0.8707652E-01
       -1   -1    0    0    0  501  0.00000000000E+00  0.00000000000E+00  0.86273721303E+03  0.86273721305E+03  0.50400001928E-02 0. -1.
        1   -1    0    0  501    0  0.00000000000E+00  0.00000000000E+00 -0.93622356508E+03  0.93622356510E+03  0.50400001928E-02 0.  1.
    10030    2    1    2    0    0  0.00000000000E+00  0.00000000000E+00 -0.73486352052E+02  0.17989607781E+04  0.17974592172E+04 0.  0.
        3    1    3    3  502    0 -0.80950319727E+02  0.59560252397E+03 -0.70544770687E+03  0.92679652468E+03  0.10100000352E+00 0.  1.
       -3    1    3    3    0  502  0.80950319727E+02 -0.59560252397E+03  0.63196135482E+03  0.87216425346E+03  0.10100000352E+00 0. -1.
</event>
<event>
 5   0  0.8132598E-05  0.1793146E+04  0.7818609E-02  0.8709953E-01
       -1   -1    0    0    0  501  0.00000000000E+00  0.00000000000E+00  0.10404164861E+04  0.10404164861E+04  0.50400001928E-02 0. -1.
        1   -1    0    0  501    0  0.00000000000E+00  0.00000000000E+00 -0.77261628689E+03  0.77261628691E+03  0.50400001928E-02 0.  1.
    10030    2    1    2    0    0  0.00000000000E+00  0.00000000000E+00  0.26780019919E+03  0.18130327730E+04  0.17931455293E+04 0.  0.
        3    1    3    3  502    0  0.27965008521E+03  0.30364307282E+03  0.93861614778E+03  0.10253797194E+04  0.10100000352E+00 0. -1.
       -3    1    3    3    0  502 -0.27965008521E+03 -0.30364307282E+03 -0.67081594859E+03  0.78765305364E+03  0.10100000352E+00 0.  1.
</event>
<event>
 5   0  0.8132598E-05  0.1783940E+04  0.7818609E-02  0.8714887E-01
        1   -1    0    0  501    0  0.00000000000E+00  0.00000000000E+00  0.10410560637E+04  0.10410560637E+04  0.50400001928E-02 0. -1.
       -1   -1    0    0    0  501  0.00000000000E+00  0.00000000000E+00 -0.76423442801E+03  0.76423442802E+03  0.50400001928E-02 0.  1.
    10030    2    1    2    0    0  0.00000000000E+00  0.00000000000E+00  0.27682163573E+03  0.18052904918E+04  0.17839404535E+04 0.  0.
        3    1    3    3  502    0 -0.19059949653E+03 -0.99464947376E+02  0.10144439321E+04  0.10369753832E+04  0.10100000352E+00 0. -1.
       -3    1    3    3    0  502  0.19059949653E+03  0.99464947376E+02 -0.73762229633E+03  0.76831510859E+03  0.10100000352E+00 0.  1.
</event>
<event>
 5   0  0.5820500E-05  0.1825459E+04  0.7818609E-02  0.8692876E-01
        4   -1    0    0  501    0  0.00000000000E+00  0.00000000000E+00  0.12938618213E+04  0.12938624445E+04  0.12699999809E+01 0.  1.
       -4   -1    0    0    0  501  0.00000000000E+00  0.00000000000E+00 -0.64386608167E+03  0.64386733419E+03  0.12699999809E+01 0. -1.
    10030    2    1    2    0    0  0.00000000000E+00  0.00000000000E+00  0.64999573958E+03  0.19377297787E+04  0.18254594583E+04 0.  0.
        4    1    3    3  502    0  0.18985042141E+03 -0.25236164369E+03  0.12340211394E+04  0.12737893731E+04  0.12699999809E+01 0.  1.
       -4    1    3    3    0  502 -0.18985042141E+03  0.25236164369E+03 -0.58402539979E+03  0.66394040562E+03  0.12699999809E+01 0. -1.
</event>
<event>
 5   0  0.8254914E-05  0.1650303E+04  0.7818609E-02  0.8790227E-01
        1   -1    0    0  501    0  0.00000000000E+00  0.00000000000E+00  0.83297606967E+03  0.83297606969E+03  0.50400001928E-02 0. -1.
       -1   -1    0    0    0  501  0.00000000000E+00  0.00000000000E+00 -0.81740009949E+03  0.81740009950E+03  0.50400001928E-02 0.  1.
    10030    2    1    2    0    0  0.00000000000E+00  0.00000000000E+00  0.15575970185E+02  0.16503761692E+04  0.16503026659E+04 0.  0.
        4    1    3    3  502    0  0.82425604308E+03  0.27140958217E+02  0.34963690432E+02  0.82544456429E+03  0.12699999809E+01 0. -1.
       -4    1    3    3    0  502 -0.82425604308E+03 -0.27140958217E+02 -0.19387720247E+02  0.82493160490E+03  0.12699999809E+01 0.  1.
</event>
<event>
 5   0  0.8254914E-05  0.1809764E+04  0.7818609E-02  0.8701124E-01
       -1   -1    0    0    0  501  0.00000000000E+00  0.00000000000E+00  0.29917445475E+03  0.29917445479E+03  0.50400001928E-02 0. -1.
        1   -1    0    0  501    0  0.00000000000E+00  0.00000000000E+00 -0.27369018548E+04  0.27369018548E+04  0.50400001928E-02 0.  1.
    10030    2    1    2    0    0  0.00000000000E+00  0.00000000000E+00 -0.24377274001E+04  0.30360763096E+04  0.18097636533E+04 0.  0.
        4    1    3    3  502    0 -0.55778994820E+03 -0.67165746476E+03 -0.81990249476E+03  0.11977040912E+04  0.12699999809E+01 0. -1.
       -4    1    3    3    0  502  0.55778994820E+03  0.67165746476E+03 -0.16178249053E+04  0.18383722184E+04  0.12699999809E+01 0.  1.
</event>
<event>
 5   0  0.1628397E-04  0.1809869E+04  0.7818609E-02  0.8701069E-01
        2   -1    0    0  501    0  0.00000000000E+00  0.00000000000E+00  0.14118942309E+04  0.14118942309E+04  0.25500000920E-02 0. -1.
       -2   -1    0    0    0  501  0.00000000000E+00  0.00000000000E+00 -0.58000523629E+03  0.58000523630E+03  0.25500000920E-02 0.  1.
    10030    2    1    2    0    0  0.00000000000E+00  0.00000000000E+00  0.83188899459E+03  0.19918994672E+04  0.18098685555E+04 0.  0.
        3    1    3    3  502    0 -0.61247215637E+03  0.57186857750E+03  0.79199765778E+03  0.11530030843E+04  0.10100000352E+00 0. -1.
       -3    1    3    3    0  502  0.61247215637E+03 -0.57186857750E+03  0.39891336804E+02  0.83889638288E+03  0.10100000352E+00 0.  1.
</event>
<event>
 5   0  0.1549012E-04  0.1790786E+04  0.7818609E-02  0.8711215E-01
       -2   -1    0    0    0  501  0.00000000000E+00  0.00000000000E+00  0.89561960461E+03  0.89561960462E+03  0.25500000920E-02 0. -1.
        2   -1    0    0  501    0  0.00000000000E+00  0.00000000000E+00 -0.89516689597E+03  0.89516689598E+03  0.25500000920E-02 0.  1.
    10030    2    1    2    0    0  0.00000000000E+00  0.00000000000E+00  0.45270863960E+00  0.17907865006E+04  0.17907864434E+04 0.  0.
        4    1    3    3  502    0  0.21040700353E+03 -0.73559387586E+03 -0.46491659686E+03  0.89527566273E+03  0.12699999809E+01 0.  1.
       -4    1    3    3    0  502 -0.21040700353E+03  0.73559387586E+03  0.46536930550E+03  0.89551083787E+03  0.12699999809E+01 0. -1.
</event>
<event>
 5   0  0.1549012E-04  0.1783875E+04  0.7818609E-02  0.8714922E-01
       -2   -1    0    0    0  501  0.00000000000E+00  0.00000000000E+00  0.31588537469E+03  0.31588537470E+03  0.25500000920E-02 0. -1.
        2   -1    0    0  501    0  0.00000000000E+00  0.00000000000E+00 -0.25184837304E+04  0.25184837304E+04  0.25500000920E-02 0.  1.
    10030    2    1    2    0    0  0.00000000000E+00  0.00000000000E+00 -0.22025983557E+04  0.28343691051E+04  0.17838746333E+04 0.  0.
        4    1    3    3  502    0  0.19460699401E+03  0.86441899484E+03 -0.12637890985E+04  0.15434560503E+04  0.12699999809E+01 0. -1.
       -4    1    3    3    0  502 -0.19460699401E+03 -0.86441899484E+03 -0.93880925715E+03  0.12909130548E+04  0.12699999809E+01 0.  1.
</event>
<event>
 5   0  0.8430513E-05  0.1760666E+04  0.7818609E-02  0.8727501E-01
        1   -1    0    0  501    0  0.00000000000E+00  0.00000000000E+00  0.17777093172E+04  0.17777093172E+04  0.50400001928E-02 0. -1.
       -1   -1    0    0    0  501  0.00000000000E+00  0.00000000000E+00 -0.43594635522E+03  0.43594635525E+03  0.50400001928E-02 0.  1.
    10030    2    1    2    0    0  0.00000000000E+00  0.00000000000E+00  0.13417629620E+04  0.22136556725E+04  0.17606656668E+04 0.  0.
        5    1    3    3  502    0  0.49065030966E+03  0.61182241297E+03  0.11736367283E+04  0.14115628401E+04  0.46999998093E+01 0. -1.
       -5    1    3    3    0  502 -0.49065030966E+03 -0.61182241297E+03  0.16812623368E+03  0.80209283242E+03  0.46999998093E+01 0.  1.
</event>
<event>
 5   0  0.8132598E-05  0.1835180E+04  0.7818609E-02  0.8687812E-01
        1   -1    0    0  501    0  0.00000000000E+00  0.00000000000E+00  0.14237637169E+04  0.14237637169E+04  0.50400001928E-02 0. -1.
       -1   -1    0    0    0  501  0.00000000000E+00  0.00000000000E+00 -0.59136989878E+03  0.59136989880E+03  0.50400001928E-02 0.  1.
    10030    2    1    2    0    0  0.00000000000E+00  0.00000000000E+00  0.83239381815E+03  0.20151336157E+04  0.18351795609E+04 0.  0.
        3    1    3    3  502    0 -0.89932389759E+03 -0.16974152349E+03  0.48882942034E+03  0.10375692121E+04  0.10100000352E+00 0. -1.
       -3    1    3    3    0  502  0.89932389759E+03  0.16974152349E+03  0.34356439781E+03  0.97756440361E+03  0.10100000352E+00 0.  1.
</event>
<event>
 5   0  0.1549012E-04  0.1836025E+04  0.7818609E-02  0.8687373E-01
       -2   -1    0    0    0  501  0.00000000000E+00  0.00000000000E+00  0.42964005879E+03  0.42964005880E+03  0.25500000920E-02 0.  1.
        2   -1    0    0  501    0  0.00000000000E+00  0.00000000000E+00 -0.19615192953E+04  0.19615192953E+04  0.25500000920E-02 0. -1.
    10030    2    1    2    0    0  0.00000000000E+00  0.00000000000E+00 -0.15318792365E+04  0.23911593541E+04  0.18360253433E+04 0.  0.
        4    1    3    3  502    0  0.54416090182E+03 -0.22538595124E+03 -0.16830017516E+04  0.17830890115E+04  0.12699999809E+01 0. -1.
       -4    1    3    3    0  502 -0.54416090182E+03  0.22538595124E+03  0.15112251510E+03  0.60807034260E+03  0.12699999809E+01 0.  1.
</event>
<event>
 5   0  0.1603564E-04  0.1791168E+04  0.7818609E-02  0.8711010E-01
       -2   -1    0    0    0  501  0.00000000000E+00  0.00000000000E+00  0.75835861829E+03  0.75835861829E+03  0.25500000920E-02 0. -1.
        2   -1    0    0  501    0  0.00000000000E+00  0.00000000000E+00 -0.10576401292E+04  0.10576401292E+04  0.25500000920E-02 0.  1.
    10030    2    1    2    0    0  0.00000000000E+00  0.00000000000E+00 -0.29928151092E+03  0.18159987475E+04  0.17911677834E+04 0.  0.
        5    1    3    3  502    0 -0.86997284510E+02 -0.15324959179E+03  0.74059473062E+03  0.76128615508E+03  0.46999998093E+01 0. -1.
       -5    1    3    3    0  502  0.86997284510E+02  0.15324959179E+03 -0.10398762415E+04  0.10547125924E+04  0.46999998093E+01 0.  1.
</event>
<event>
 5   0  0.8430513E-05  0.1798875E+04  0.7818609E-02  0.8706898E-01
       -1   -1    0    0    0  501  0.00000000000E+00  0.00000000000E+00  0.11747985207E+04  0.11747985207E+04  0.50400001928E-02 0.  1.
        1   -1    0    0  501    0  0.00000000000E+00  0.00000000000E+00 -0.68861850392E+03  0.68861850394E+03  0.50400001928E-02 0. -1.
    10030    2    1    2    0    0  0.00000000000E+00  0.00000000000E+00  0.48618001677E+03  0.18634170246E+04  0.17988752038E+04 0.  0.
        5    1    3    3  502    0 -0.19489281934E+03  0.48261183902E+03 -0.51675989443E+03  0.73345775385E+03  0.46999998093E+01 0. -1.
       -5    1    3    3    0  502  0.19489281934E+03 -0.48261183902E+03  0.10029399112E+04  0.11299592708E+04  0.46999998093E+01 0.  1.
</event>
<event>
 5   0  0.8132598E-05  0.1790618E+04  0.7818609E-02  0.8711304E-01
       -1   -1    0    0    0  501  0.00000000000E+00  0.00000000000E+00  0.53058767700E+03  0.53058767702E+03  0.50400001928E-02 0. -1.
        1   -1    0    0  501    0  0.00000000000E+00  0.00000000000E+00 -0.15107372977E+04  0.15107372977E+04  0.50400001928E-02 0.  1.
    10030    2    1    2    0    0  0.00000000000E+00  0.00000000000E+00 -0.98014962069E+03  0.20413249747E+04  0.17906184332E+04 0.  0.
        3    1    3    3  502    0  0.89351331938E+03 -0.20578599428E+02 -0.55028048716E+03  0.10495704623E+04  0.10100000352E+00 0. -1.
       -3    1    3    3    0  502 -0.89351331938E+03  0.20578599428E+02 -0.42986913352E+03  0.99175451238E+03  0.10100000352E+00 0.  1.
</event>
<event>
 5   0  0.1608627E-04  0.1793551E+04  0.7818609E-02  0.8709736E-01
        2   -1    0    0  501    0  0.00000000000E+00  0.00000000000E+00  0.94796746132E+03  0.94796746133E+03  0.25500000920E-02 0.  1.
       -2   -1    0    0    0  501  0.00000000000E+00  0.00000000000E+00 -0.84834802364E+03  0.84834802365E+03  0.25500000920E-02 0. -1.
    10030    2    1    2    0    0  0.00000000000E+00  0.00000000000E+00  0.99619437680E+02  0.17963154850E+04  0.17935510278E+04 0.  0.
        2    1    3    3  502    0  0.60446043594E+03 -0.59033063962E+03 -0.25122574963E+03  0.88146302246E+03  0.25500000920E-02 0. -1.
       -2    1    3    3    0  502 -0.60446043594E+03  0.59033063962E+03  0.35084518731E+03  0.91485246251E+03  0.25500000920E-02 0.  1.
</event>
<event>
 5   0  0.1603564E-04  0.1803306E+04  0.7818609E-02  0.8704543E-01
       -2   -1    0    0    0  501  0.00000000000E+00  0.00000000000E+00  0.55350720051E+03  0.55350720051E+03  0.25500000920E-02 0. -1.
        2   -1    0    0  501    0  0.00000000000E+00  0.00000000000E+00 -0.14687766162E+04  0.14687766162E+04  0.25500000920E-02 0.  1.
    10030    2    1    2    0    0  0.00000000000E+00  0.00000000000E+00 -0.91526941569E+03  0.20222838167E+04  0.18033063334E+04 0.  0.
        5    1    3    3  502    0 -0.57539289288E+03 -0.25799881916E+03 -0.11803411311E+04  0.13382330319E+04  0.46999998093E+01 0.  1.
       -5    1    3    3    0  502  0.57539289288E+03  0.25799881916E+03  0.26507171544E+03  0.68405078480E+03  0.46999998093E+01 0. -1.
</event>
<event>
 5   0  0.1573981E-04  0.1797092E+04  0.7818609E-02  0.8707847E-01
       -2   -1    0    0    0  501  0.00000000000E+00  0.00000000000E+00  0.40080411763E+03  0.40080411764E+03  0.25500000920E-02 0. -1.
        2   -1    0    0  501    0  0.00000000000E+00  0.00000000000E+00 -0.20144125502E+04  0.20144125502E+04  0.25500000920E-02 0.  1.
    10030    2    1    2    0    0  0.00000000000E+00  0.00000000000E+00 -0.16136084326E+04  0.24152166679E+04  0.17970919228E+04 0.  0.
        1    1    3    3  502    0  0.37258614132E+03 -0.81402019788E+03 -0.70326245759E+03  0.11384319916E+04  0.50400001928E-02 0.  1.
       -1    1    3    3    0  502 -0.37258614132E+03  0.81402019788E+03 -0.91034597502E+03  0.12767846763E+04  0.50400001928E-02 0. -1.
</event>
<event>
 5   0  0.1549012E-04  0.1782309E+04  0.7818609E-02  0.8715765E-01
       -2   -1    0    0    0  501  0.00000000000E+00  0.00000000000E+00  0.27203566132E+03  0.27203566133E+03  0.25500000920E-02 0. -1.
        2   -1    0    0  501    0  0.00000000000E+00  0.00000000000E+00 -0.29193082064E+04  0.29193082064E+04  0.25500000920E-02 0.  1.
    10030    2    1    2    0    0  0.00000000000E+00  0.00000000000E+00 -0.26472725451E+04  0.31913438678E+04  0.17823085463E+04 0.  0.
        4    1    3    3  502    0 -0.79673741694E+03  0.13406952016E+03 -0.19969210525E+04  0.21541727996E+04  0.12699999809E+01 0. -1.
       -4    1    3    3    0  502  0.79673741694E+03 -0.13406952016E+03 -0.65035149264E+03  0.10371710682E+04  0.12699999809E+01 0.  1.
</event>
<event>
 5   0  0.1603564E-04  0.1795622E+04  0.7818609E-02  0.8708631E-01
       -2   -1    0    0    0  501  0.00000000000E+00  0.00000000000E+00  0.74158538973E+03  0.74158538974E+03  0.25500000920E-02 0.  1.
        2   -1    0    0  501    0  0.00000000000E+00  0.00000000000E+00 -0.10869475450E+04  0.10869475450E+04  0.25500000920E-02 0. -1.
    10030    2    1    2    0    0  0.00000000000E+00  0.00000000000E+00 -0.34536215529E+03  0.18285329348E+04  0.17956218074E+04 0.  0.
        5    1    3    3  502    0 -0.35863978143E+03 -0.38987720745E+03  0.56546003838E+03  0.77485087257E+03  0.46999998093E+01 0.  1.
       -5    1    3    3    0  502  0.35863978143E+03  0.38987720745E+03 -0.91082219367E+03  0.10536820622E+04  0.46999998093E+01 0. -1.
</event>
<event>
 5   0  0.1628397E-04  0.1791841E+04  0.7818609E-02  0.8710651E-01
        2   -1    0    0  501    0  0.00000000000E+00  0.00000000000E+00  0.87055639903E+03  0.87055639903E+03  0.25500000920E-02 0. -1.
       -2   -1    0    0    0  501  0.00000000000E+00  0.00000000000E+00 -0.92202319535E+03  0.92202319535E+03  0.25500000920E-02 0.  1.
    10030    2    1    2    0    0  0.00000000000E+00  0.00000000000E+00 -0.51466796316E+02  0.17925795944E+04  0.17918406098E+04 0.  0.
        3    1    3    3  502    0 -0.55713505151E+03  0.51897784638E+03 -0.49808880941E+03  0.90985160489E+03  0.10100000352E+00 0.  1.
       -3    1    3    3    0  502  0.55713505151E+03 -0.51897784638E+03  0.44662201309E+03  0.88272798949E+03  0.10100000352E+00 0. -1.
</event>
<event>
 5   0  0.8254914E-05  0.1793926E+04  0.7818609E-02  0.8709536E-01
       -1   -1    0    0    0  501  0.00000000000E+00  0.00000000000E+00  0.57694478327E+03  0.57694478329E+03  0.50400001928E-02 0. -1.
        1   -1    0    0  501    0  0.00000000000E+00  0.00000000000E+00 -0.13944875709E+04  0.13944875709E+04  0.50400001928E-02 0.  1.
    10030    2    1    2    0    0  0.00000000000E+00  0.00000000000E+00 -0.81754278766E+03  0.19714323542E+04  0.17939256723E+04 0.  0.
        4    1    3    3  502    0  0.28745151428E+03 -0.30816751448E+03  0.46137475049E+03  0.62487107737E+03  0.12699999809E+01 0. -1.
       -4    1    3    3    0  502 -0.28745151428E+03  0.30816751448E+03 -0.12789175381E+04  0.13465612769E+04  0.12699999809E+01 0.  1.
</event>
<event>
 5   0  0.1603564E-04  0.1803386E+04  0.7818609E-02  0.8704501E-01
        2   -1    0    0  501    0  0.00000000000E+00  0.00000000000E+00  0.18982799229E+04  0.18982799229E+04  0.25500000920E-02 0. -1.
       -2   -1    0    0    0  501  0.00000000000E+00  0.00000000000E+00 -0.42830878624E+03  0.42830878625E+03  0.25500000920E-02 0.  1.
    10030    2    1    2    0    0  0.00000000000E+00  0.00000000000E+00  0.14699711366E+04  0.23265887091E+04  0.18033856711E+04 0.  0.
        5    1    3    3  502    0 -0.22461772635E+03 -0.18852663949E+03 -0.36505297687E+03  0.46827468724E+03  0.46999998093E+01 0.  1.
       -5    1    3    3    0  502  0.22461772635E+03  0.18852663949E+03  0.18350241135E+04  0.18583140219E+04  0.46999998093E+01 0. -1.
</event>
<event>
 5   0  0.8430513E-05  0.1801019E+04  0.7818609E-02  0.8705758E-01
       -1   -1    0    0    0  501  0.00000000000E+00  0.00000000000E+00  0.29112046474E+03  0.29112046478E+03  0.50400001928E-02 0.  1.
        1   -1    0    0  501    0  0.00000000000E+00  0.00000000000E+00 -0.27855037521E+04  0.27855037521E+04  0.50400001928E-02 0. -1.
    10030    2    1    2    0    0  0.00000000000E+00  0.00000000000E+00 -0.24943832874E+04  0.30766242169E+04  0.18010187638E+04 0.  0.
        5    1    3    3  502    0  0.38022138079E+03 -0.78637277081E+03 -0.16212386424E+04  0.18415719532E+04  0.46999998093E+01 0. -1.
       -5    1    3    3    0  502 -0.38022138079E+03  0.78637277081E+03 -0.87314464491E+03  0.12350522637E+04  0.46999998093E+01 0.  1.
</event>
<event>
 5   0  0.8430513E-05  0.1784169E+04  0.7818609E-02  0.8714764E-01
        1   -1    0    0  501    0  0.00000000000E+00  0.00000000000E+00  0.12095343656E+04  0.12095343656E+04  0.50400001928E-02 0.  1.
       -1   -1    0    0    0  501  0.00000000000E+00  0.00000000000E+00 -0.65795122094E+03  0.65795122096E+03  0.50400001928E-02 0. -1.
    10030    2    1    2    0    0  0.00000000000E+00  0.00000000000E+00  0.55158314464E+03  0.18674855865E+04  0.17841688402E+04 0.  0.
        5    1    3    3  502    0  0.40693841896E+03 -0.69489926704E+03  0.67752265904E+03  0.10523986467E+04  0.46999998093E+01 0.  1.
       -5    1    3    3    0  502 -0.40693841896E+03  0.69489926704E+03 -0.12593951441E+03  0.81508693980E+03  0.46999998093E+01 0. -1.
</event>
<event>
 5   0  0.8430513E-05  0.1768638E+04  0.7818609E-02  0.8723158E-01
       -1   -1    0    0    0  501  0.00000000000E+00  0.00000000000E+00  0.11101790067E+04  0.11101790067E+04  0.50400001928E-02 0.  1.
        1   -1    0    0  501    0  0.00000000000E+00  0.00000000000E+00 -0.70440884046E+03  0.70440884048E+03  0.50400001928E-02 0. -1.
    10030    2    1    2    0    0  0.00000000000E+00  0.00000000000E+00  0.40577016622E+03  0.18145878472E+04  0.17686377886E+04 0.  0.
        5    1    3    3  502    0  0.14857377124E+02  0.19342419693E+03  0.10880655540E+04  0.11052340935E+04  0.46999998093E+01 0.  1.
       -5    1    3    3    0  502 -0.14857377124E+02 -0.19342419693E+03 -0.68229538781E+03  0.70935375366E+03  0.46999998093E+01 0. -1.
</event>
<event>
 5   0  0.8206783E-05  0.1783101E+04  0.7818609E-02  0.8715338E-01
       -1   -1    0    0    0  501  0.00000000000E+00  0.00000000000E+00  0.53916762862E+03  0.53916762865E+03  0.50400001928E-02 0.  1.
        1   -1    0    0  501    0  0.00000000000E+00  0.00000000000E+00 -0.14742398017E+04  0.14742398017E+04  0.50400001928E-02 0. -1.
    10030    2    1    2    0    0  0.00000000000E+00  0.00000000000E+00 -0.93507217305E+03  0.20134074303E+04  0.17831010941E+04 0.  0.
        1    1    3    3  502    0 -0.11655905388E+03  0.55425652884E+03  0.30992688739E+03  0.64563223925E+03  0.50400001928E-02 0.  1.
       -1    1    3    3    0  502  0.11655905388E+03 -0.55425652884E+03 -0.12449990604E+04  0.13677751911E+04  0.50400001928E-02 0. -1.
</event>
<event>
 5   0  0.1628397E-04  0.1804492E+04  0.7818609E-02  0.8703914E-01
       -2   -1    0    0    0  501  0.00000000000E+00  0.00000000000E+00  0.44864989947E+03  0.44864989948E+03  0.25500000920E-02 0. -1.
        2   -1    0    0  501    0  0.00000000000E+00  0.00000000000E+00 -0.18144388780E+04  0.18144388780E+04  0.25500000920E-02 0.  1.
    10030    2    1    2    0    0  0.00000000000E+00  0.00000000000E+00 -0.13657889785E+04  0.22630887775E+04  0.18044919731E+04 0.  0.
        3    1    3    3  502    0 -0.45741793040E+03  0.31602421445E+03  0.20829246821E+03  0.59370719188E+03  0.10100000352E+00 0. -1.
       -3    1    3    3    0  502  0.45741793040E+03 -0.31602421445E+03 -0.15740814468E+04  0.16693815856E+04  0.10100000352E+00 0.  1.
</event>
<event>
 5   0  0.5820500E-05  0.1794159E+04  0.7818609E-02  0.8709412E-01
       -4   -1    0    0    0  501  0.00000000000E+00  0.00000000000E+00  0.83998462559E+03  0.83998558567E+03  0.12699999809E+01 0.  1.
        4   -1    0    0  501    0  0.00000000000E+00  0.00000000000E+00 -0.95805377307E+03  0.95805461482E+03  0.12699999809E+01 0. -1.
    10030    2    1    2    0    0  0.00000000000E+00  0.00000000000E+00 -0.11806914747E+03  0.17980402005E+04  0.17941594798E+04 0.  0.
        2    1    3    3  502    0 -0.75560174288E+03  0.33968280984E+02  0.42436154098E+03  0.86727766916E+03  0.25500000920E-02 0.  1.
       -2    1    3    3    0  502  0.75560174288E+03 -0.33968280984E+02 -0.54243068845E+03  0.93076253133E+03  0.25500000920E-02 0. -1.
</event>
<event>
 5   0  0.8254914E-05  0.1804432E+04  0.7818609E-02  0.8703946E-01
        1   -1    0    0  501    0  0.00000000000E+00  0.00000000000E+00  0.12616424163E+04  0.12616424163E+04  0.50400001928E-02 0. -1.
       -1   -1    0    0    0  501  0.00000000000E+00  0.00000000000E+00 -0.64518583690E+03  0.64518583692E+03  0.50400001928E-02 0.  1.
    10030    2    1    2    0    0  0.00000000000E+00  0.00000000000E+00  0.61645657938E+03  0.19068282532E+04  0.18044321192E+04 0.  0.
        4    1    3    3  502    0  0.73130711727E+03  0.52786896128E+03  0.33270436808E+03  0.96132697325E+03  0.12699999809E+01 0. -1.
       -4    1    3    3    0  502 -0.73130711727E+03 -0.52786896128E+03  0.28375221130E+03  0.94550127994E+03  0.12699999809E+01 0.  1.
</event>
<event>
 5   0  0.1608627E-04  0.1792859E+04  0.7818609E-02  0.8710106E-01
        2   -1    0    0  501    0  0.00000000000E+00  0.00000000000E+00  0.68492122365E+03  0.68492122365E+03  0.25500000920E-02 0. -1.
       -2   -1    0    0    0  501  0.00000000000E+00  0.00000000000E+00 -0.11732535593E+04  0.11732535593E+04  0.25500000920E-02 0.  1.
    10030    2    1    2    0    0  0.00000000000E+00  0.00000000000E+00 -0.48833233564E+03  0.18581747829E+04  0.17928594630E+04 0.  0.
        2    1    3    3  502    0 -0.19609367622E+03  0.16925208919E+03  0.64528668971E+03  0.69533726455E+03  0.25500000920E-02 0. -1.
       -2    1    3    3    0  502  0.19609367622E+03 -0.16925208919E+03 -0.11336190253E+04  0.11628375184E+04  0.25500000920E-02 0.  1.
</event>
<event>
 5   0  0.1608627E-04  0.1808881E+04  0.7818609E-02  0.8701591E-01
       -2   -1    0    0    0  501  0.00000000000E+00  0.00000000000E+00  0.46652246723E+03  0.46652246723E+03  0.25500000920E-02 0.  1.
        2   -1    0    0  501    0  0.00000000000E+00  0.00000000000E+00 -0.17534254862E+04  0.17534254862E+04  0.25500000920E-02 0. -1.
    10030    2    1    2    0    0  0.00000000000E+00  0.00000000000E+00 -0.12869030190E+04  0.22199479535E+04  0.18088807412E+04 0.  0.
        2    1    3    3  502    0 -0.42023742842E+03  0.33836760420E+03  0.24739996490E+03  0.59354770192E+03  0.25500000920E-02 0.  1.
       -2    1    3    3    0  502  0.42023742842E+03 -0.33836760420E+03 -0.15343029839E+04  0.16264002515E+04  0.25500000920E-02 0. -1.
</event>
<event>
 5   0  0.8206783E-05  0.1797451E+04  0.7818609E-02  0.8707656E-01
       -1   -1    0    0    0  501  0.00000000000E+00  0.00000000000E+00  0.18543917546E+04  0.18543917546E+04  0.50400001928E-02 0. -1.
        1   -1    0    0  501    0  0.00000000000E+00  0.00000000000E+00 -0.43556470097E+03  0.43556470100E+03  0.50400001928E-02 0.  1.
    10030    2    1    2    0    0  0.00000000000E+00  0.00000000000E+00  0.14188270536E+04  0.22899564556E+04  0.17974510732E+04 0.  0.
        1    1    3    3  502    0  0.27431113165E+03  0.49974902278E+02 -0.37906713978E+03  0.47056985060E+03  0.50400001928E-02 0.  1.
       -1    1    3    3    0  502 -0.27431113165E+03 -0.49974902278E+02  0.17978941934E+04  0.18193866050E+04  0.50400001928E-02 0. -1.
</event>
<event>
 5   0  0.1603564E-04  0.1788597E+04  0.7818609E-02  0.8712387E-01
       -2   -1    0    0    0  501  0.00000000000E+00  0.00000000000E+00  0.49910414070E+03  0.49910414071E+03  0.25500000920E-02 0.  1.
        2   -1    0    0  501    0  0.00000000000E+00  0.00000000000E+00 -0.16024110035E+04  0.16024110035E+04  0.25500000920E-02 0. -1.
    10030    2    1    2    0    0  0.00000000000E+00  0.00000000000E+00 -0.11033068628E+04  0.21015151442E+04  0.17885971788E+04 0.  0.
        5    1    3    3  502    0 -0.10769504895E+03  0.60393245696E+03  0.21289187385E+03  0.64936713505E+03  0.46999998093E+01 0.  1.
       -5    1    3    3    0  502  0.10769504895E+03 -0.60393245696E+03 -0.13161987367E+04  0.14521480092E+04  0.46999998093E+01 0. -1.
</event>
<event>
 5   0  0.8132598E-05  0.1800609E+04  0.7818609E-02  0.8705976E-01
        1   -1    0    0  501    0  0.00000000000E+00  0.00000000000E+00  0.24200068200E+04  0.24200068200E+04  0.50400001928E-02 0.  1.
       -1   -1    0    0    0  501  0.00000000000E+00  0.00000000000E+00 -0.33493619336E+03  0.33493619340E+03  0.50400001928E-02 0. -1.
    10030    2    1    2    0    0  0.00000000000E+00  0.00000000000E+00  0.20850706266E+04  0.27549430134E+04  0.18006086440E+04 0.  0.
        3    1    3    3  502    0  0.67106122657E+03 -0.32301113523E+03  0.26857503465E+03  0.79170191532E+03  0.10100000352E+00 0. -1.
       -3    1    3    3    0  502 -0.67106122657E+03  0.32301113523E+03  0.18164955920E+04  0.19632410981E+04  0.10100000352E+00 0.  1.
</event>
<event>
 5   0  0.1549012E-04  0.1790192E+04  0.7818609E-02  0.8711533E-01
        2   -1    0    0  501    0  0.00000000000E+00  0.00000000000E+00  0.76618255573E+03  0.76618255573E+03  0.25500000920E-02 0. -1.
       -2   -1    0    0    0  501  0.00000000000E+00  0.00000000000E+00 -0.10456992369E+04  0.10456992369E+04  0.25500000920E-02 0.  1.
    10030    2    1    2    0    0  0.00000000000E+00  0.00000000000E+00 -0.27951668118E+03  0.18118817926E+04  0.17901916253E+04 0.  0.
        4    1    3    3  502    0 -0.12432296156E+03  0.38886750329E+03  0.66646108849E+03  0.78156645863E+03  0.12699999809E+01 0. -1.
       -4    1    3    3    0  502  0.12432296156E+03 -0.38886750329E+03 -0.94597776967E+03  0.10303153340E+04  0.12699999809E+01 0.  1.
</event>
<event>
 5   0  0.5820500E-05  0.1814196E+04  0.7818609E-02  0.8698786E-01
        4   -1    0    0  501    0  0.00000000000E+00  0.00000000000E+00  0.87478145815E+03  0.87478238004E+03  0.12699999809E+01 0.  1.
       -4   -1    0    0    0  501  0.00000000000E+00  0.00000000000E+00 -0.94060688384E+03  0.94060774121E+03  0.12699999809E+01 0. -1.
    10030    2    1    2    0    0  0.00000000000E+00  0.00000000000E+00 -0.65825425686E+02  0.18153901213E+04  0.18141963250E+04 0.  0.
        2    1    3    3  502    0  0.23408116834E+03  0.56012689128E+03 -0.70736732205E+03  0.93215055437E+03  0.25500000920E-02 0. -1.
       -2    1    3    3    0  502 -0.23408116834E+03 -0.56012689128E+03  0.64154189636E+03  0.88323956688E+03  0.25500000920E-02 0.  1.
</event>
<event>
 5   0  0.8206783E-05  0.1790469E+04  0.7818609E-02  0.8711385E-01
        1   -1    0    0  501    0  0.00000000000E+00  0.00000000000E+00  0.20875434655E+04  0.20875434655E+04  0.50400001928E-02 0. -1.
       -1   -1    0    0    0  501  0.00000000000E+00  0.00000000000E+00 -0.38391753479E+03  0.38391753482E+03  0.50400001928E-02 0.  1.
    10030    2    1    2    0    0  0.00000000000E+00  0.00000000000E+00  0.17036259307E+04  0.24714610004E+04  0.17904686997E+04 0.  0.
        1    1    3    3  502    0 -0.55660301977E+02  0.10983067605E+03  0.20757995654E+04  0.20794481677E+04  0.50400001928E-02 0. -1.
       -1    1    3    3    0  502  0.55660301977E+02 -0.10983067605E+03 -0.37217363463E+03  0.39201283264E+03  0.50400001928E-02 0.  1.
</event>
<event>
 5   0  0.8206783E-05  0.1819897E+04  0.7818609E-02  0.8695789E-01
        1   -1    0    0  501    0  0.00000000000E+00  0.00000000000E+00  0.92100032943E+03  0.92100032944E+03  0.50400001928E-02 0.  1.
       -1   -1    0    0    0  501  0.00000000000E+00  0.00000000000E+00 -0.89902937497E+03  0.89902937499E+03  0.50400001928E-02 0. -1.
    10030    2    1    2    0    0  0.00000000000E+00  0.00000000000E+00  0.21970954453E+02  0.18200297044E+04  0.18198970856E+04 0.  0.
        1    1    3    3  502    0 -0.57723422794E+03 -0.54396560167E+03 -0.43503852596E+03  0.90463055929E+03  0.50400001928E-02 0. -1.
       -1    1    3    3    0  502  0.57723422794E+03  0.54396560167E+03  0.45700948041E+03  0.91539914514E+03  0.50400001928E-02 0.  1.
</event>
<event>
 5   0  0.8132598E-05  0.1781295E+04  0.7818609E-02  0.8716310E-01
       -1   -1    0    0    0  501  0.00000000000E+00  0.00000000000E+00  0.10181440909E+04  0.10181440909E+04  0.50400001928E-02 0.  1.
        1   -1    0    0  501    0  0.00000000000E+00  0.00000000000E+00 -0.77911686568E+03  0.77911686569E+03  0.50400001928E-02 0. -1.
    10030    2    1    2    0    0  0.00000000000E+00  0.00000000000E+00  0.23902722524E+03  0.17972609566E+04  0.17812952961E+04 0.  0.
        3    1    3    3  502    0  0.77061889438E+03  0.42524036778E+03  0.25700817416E+03  0.91691660611E+03  0.10100000352E+00 0.  1.
       -3    1    3    3    0  502 -0.77061889438E+03 -0.42524036778E+03 -0.17980948920E+02  0.88034435052E+03  0.10100000352E+00 0. -1.
</event>
<event>
 5   0  0.1549012E-04  0.1800196E+04  0.7818609E-02  0.8706195E-01
       -2   -1    0    0    0  501  0.00000000000E+00  0.00000000000E+00  0.31004284788E+03  0.31004284789E+03  0.25500000920E-02 0. -1.
        2   -1    0    0  501    0  0.00000000000E+00  0.00000000000E+00 -0.26131124763E+04  0.26131124763E+04  0.25500000920E-02 0.  1.
    10030    2    1    2    0    0  0.00000000000E+00  0.00000000000E+00 -0.23030696284E+04  0.29231553242E+04  0.18001964715E+04 0.  0.
        4    1    3    3  502    0 -0.66310089310E+03 -0.59486393595E+03 -0.94226433446E+03  0.12966994970E+04  0.12699999809E+01 0.  1.
       -4    1    3    3    0  502  0.66310089310E+03  0.59486393595E+03 -0.13608052940E+04  0.16264558272E+04  0.12699999809E+01 0. -1.
</event>
<event>
 5   0  0.1573981E-04  0.1803848E+04  0.7818609E-02  0.8704256E-01
        2   -1    0    0  501    0  0.00000000000E+00  0.00000000000E+00  0.24461164047E+04  0.24461164047E+04  0.25500000920E-02 0.  1.
       -2   -1    0    0    0  501  0.00000000000E+00  0.00000000000E+00 -0.33255451922E+03  0.33255451923E+03  0.25500000920E-02 0. -1.
    10030    2    1    2    0    0  0.00000000000E+00  0.00000000000E+00  0.21135618854E+04  0.27786709239E+04  0.18038481809E+04 0.  0.
        1    1    3    3  502    0  0.83201012044E+03 -0.30428335401E+03  0.79610109925E+03  0.11910525430E+04  0.50400001928E-02 0.  1.
       -1    1    3    3    0  502 -0.83201012044E+03  0.30428335401E+03  0.13174607862E+04  0.15876183809E+04  0.50400001928E-02 0. -1.
</event>
<event>
 5   0  0.5820500E-05  0.1811685E+04  0.7818609E-02  0.8700110E-01
        4   -1    0    0  501    0  0.00000000000E+00  0.00000000000E+00  0.10768119062E+04  0.10768126551E+04  0.12699999809E+01 0.  1.
       -4   -1    0    0    0  501  0.00000000000E+00  0.00000000000E+00 -0.76201664124E+03  0.76201769955E+03  0.12699999809E+01 0. -1.
    10030    2    1    2    0    0  0.00000000000E+00  0.00000000000E+00  0.31479526496E+03  0.18388303547E+04  0.18116845792E+04 0.  0.
        4    1    3    3  502    0  0.51979761395E+03 -0.67630540544E+03 -0.15208100667E+03  0.86643453670E+03  0.12699999809E+01 0. -1.
       -4    1    3    3    0  502 -0.51979761395E+03  0.67630540544E+03  0.46687627163E+03  0.97239581797E+03  0.12699999809E+01 0.  1.
</event>
<event>
 5   0  0.8492114E-05  0.1797247E+04  0.7818609E-02  0.8707765E-01
       -1   -1    0    0    0  501  0.00000000000E+00  0.00000000000E+00  0.75698021204E+03  0.75698021206E+03  0.50400001928E-02 0.  1.
        1   -1    0    0  501    0  0.00000000000E+00  0.00000000000E+00 -0.10667708891E+04  0.10667708891E+04  0.50400001928E-02 0. -1.
    10030    2    1    2    0    0  0.00000000000E+00  0.00000000000E+00 -0.30979067709E+03  0.18237511012E+04  0.17972472884E+04 0.  0.
        2    1    3    3  502    0  0.89043026458E+03 -0.11040202615E+03 -0.20532520071E+03  0.92044179692E+03  0.25500000920E-02 0. -1.
       -2    1    3    3    0  502 -0.89043026458E+03  0.11040202615E+03 -0.10446547639E+03  0.90330930429E+03  0.25500000920E-02 0.  1.
</event>
<event>
 5   0  0.5820500E-05  0.1819047E+04  0.7818609E-02  0.8696236E-01
       -3   -1    0    0    0  501  0.00000000000E+00  0.00000000000E+00  0.14094955206E+04  0.14094955242E+04  0.10100000352E+00 0.  1.
        3   -1    0    0  501    0  0.00000000000E+00  0.00000000000E+00 -0.58689979768E+03  0.58689980637E+03  0.10100000352E+00 0. -1.
    10030    2    1    2    0    0  0.00000000000E+00  0.00000000000E+00  0.82259572293E+03  0.19963953306E+04  0.18190466164E+04 0.  0.
        1    1    3    3  502    0  0.10799122196E+03  0.49217209938E+03  0.12423107612E+04  0.13406086330E+04  0.50400001928E-02 0.  1.
       -1    1    3    3    0  502 -0.10799122196E+03 -0.49217209938E+03 -0.41971503825E+03  0.65578669762E+03  0.50400001928E-02 0. -1.
</event>
<event>
 5   0  0.1549012E-04  0.1801887E+04  0.7818609E-02  0.8705297E-01
       -2   -1    0    0    0  501  0.00000000000E+00  0.00000000000E+00  0.63903494143E+03  0.63903494143E+03  0.25500000920E-02 0. -1.
        2   -1    0    0  501    0  0.00000000000E+00  0.00000000000E+00 -0.12701954546E+04  0.12701954546E+04  0.25500000920E-02 0.  1.
    10030    2    1    2    0    0  0.00000000000E+00  0.00000000000E+00 -0.63116051319E+03  0.19092303961E+04  0.18018870974E+04 0.  0.
        4    1    3    3  502    0 -0.15834251047E+03 -0.10770489152E+03  0.61721990400E+03  0.64624663796E+03  0.12699999809E+01 0. -1.
       -4    1    3    3    0  502  0.15834251047E+03  0.10770489152E+03 -0.12483804172E+04  0.12629837581E+04  0.12699999809E+01 0.  1.
</event>
<event>
 5   0  0.8132598E-05  0.1806257E+04  0.7818609E-02  0.8702979E-01
        1   -1    0    0  501    0  0.00000000000E+00  0.00000000000E+00  0.52042307087E+03  0.52042307089E+03  0.50400001928E-02 0. -1.
       -1   -1    0    0    0  501  0.00000000000E+00  0.00000000000E+00 -0.15672654828E+04  0.15672654828E+04  0.50400001928E-02 0.  1.
    10030    2    1    2    0    0  0.00000000000E+00  0.00000000000E+00 -0.10468424119E+04  0.20876885537E+04  0.18062570309E+04 0.  0.
        3    1    3    3  502    0 -0.31749309475E+03  0.84473335982E+03 -0.48231612441E+03  0.10232327049E+04  0.10100000352E+00 0. -1.
       -3    1    3    3    0  502  0.31749309475E+03 -0.84473335982E+03 -0.56452628750E+03  0.10644558487E+04  0.10100000352E+00 0.  1.
</event>
<event>
 5   0  0.1549012E-04  0.1808043E+04  0.7818609E-02  0.8702034E-01
        2   -1    0    0  501    0  0.00000000000E+00  0.00000000000E+00  0.10574065472E+04  0.10574065472E+04  0.25500000920E-02 0.  1.
       -2   -1    0    0    0  501  0.00000000000E+00  0.00000000000E+00 -0.77288589763E+03  0.77288589763E+03  0.25500000920E-02 0. -1.
    10030    2    1    2    0    0  0.00000000000E+00  0.00000000000E+00  0.28452064959E+03  0.18302924448E+04  0.18080427079E+04 0.  0.
        4    1    3    3  502    0  0.20970737816E+03 -0.87935976002E+03  0.14075082866E+03  0.91491156986E+03  0.12699999809E+01 0. -1.
       -4    1    3    3    0  502 -0.20970737816E+03  0.87935976002E+03  0.14376982093E+03  0.91538087499E+03  0.12699999809E+01 0.  1.
</event>
<event>
 5   0  0.8132598E-05  0.1800448E+04  0.7818609E-02  0.8706062E-01
       -1   -1    0    0    0  501  0.00000000000E+00  0.00000000000E+00  0.42177266951E+03  0.42177266954E+03  0.50400001928E-02 0.  1.
        1   -1    0    0  501    0  0.00000000000E+00  0.00000000000E+00 -0.19214209108E+04  0.19214209108E+04  0.50400001928E-02 0. -1.
    10030    2    1    2    0    0  0.00000000000E+00  0.00000000000E+00 -0.14996482413E+04  0.23431935803E+04  0.18004475297E+04 0.  0.
        3    1    3    3  502    0  0.49993981771E+03  0.72081154425E+03 -0.48664224857E+03  0.10031599035E+04  0.10100000352E+00 0.  1.
       -3    1    3    3    0  502 -0.49993981771E+03 -0.72081154425E+03 -0.10130059927E+04  0.13400336769E+04  0.10100000352E+00 0. -1.
</event>
<event>
 5   0  0.8132598E-05  0.1798313E+04  0.7818609E-02  0.8707197E-01
        1   -1    0    0  501    0  0.00000000000E+00  0.00000000000E+00  0.12199572444E+04  0.12199572444E+04  0.50400001928E-02 0. -1.
       -1   -1    0    0    0  501  0.00000000000E+00  0.00000000000E+00 -0.66271340172E+03  0.66271340174E+03  0.50400001928E-02 0.  1.
    10030    2    1    2    0    0  0.00000000000E+00  0.00000000000E+00  0.55724384264E+03  0.18826706461E+04  0.17983125595E+04 0.  0.
        3    1    3    3  502    0 -0.61304644806E+03  0.58648300560E+02  0.96450066737E+03  0.11443457162E+04  0.10100000352E+00 0. -1.
       -3    1    3    3    0  502  0.61304644806E+03 -0.58648300560E+02 -0.40725682473E+03  0.73832492991E+03  0.10100000352E+00 0.  1.
</event>
<event>
 5   0  0.1549012E-04  0.1806235E+04  0.7818609E-02  0.8702991E-01
       -2   -1    0    0    0  501  0.00000000000E+00  0.00000000000E+00  0.52853569462E+03  0.52853569462E+03  0.25500000920E-02 0.  1.
        2   -1    0    0  501    0  0.00000000000E+00  0.00000000000E+00 -0.15431722404E+04  0.15431722404E+04  0.25500000920E-02 0. -1.
    10030    2    1    2    0    0  0.00000000000E+00  0.00000000000E+00 -0.10146365458E+04  0.20717079351E+04  0.18062354354E+04 0.  0.
        4    1    3    3  502    0  0.81881269007E+03 -0.34891808508E+02 -0.72149722996E+02  0.82272647651E+03  0.12699999809E+01 0.  1.
       -4    1    3    3    0  502 -0.81881269007E+03  0.34891808508E+02 -0.94248682283E+03  0.12489814586E+04  0.12699999809E+01 0. -1.
</event>
<event>
 5   0  0.1573981E-04  0.1790197E+04  0.7818609E-02  0.8711530E-01
        2   -1    0    0  501    0  0.00000000000E+00  0.00000000000E+00  0.97170296393E+03  0.97170296394E+03  0.25500000920E-02 0.  1.
       -2   -1    0    0    0  501  0.00000000000E+00  0.00000000000E+00 -0.82453303964E+03  0.82453303965E+03  0.25500000920E-02 0. -1.
    10030    2    1    2    0    0  0.00000000000E+00  0.00000000000E+00  0.14716992429E+03  0.17962360036E+04  0.17901968590E+04 0.  0.
        1    1    3    3  502    0 -0.38897603844E+03  0.56787063820E+03 -0.50055316426E+03  0.85107748795E+03  0.50400001928E-02 0. -1.
       -1    1    3    3    0  502  0.38897603844E+03 -0.56787063820E+03  0.64772308855E+03  0.94515851564E+03  0.50400001928E-02 0.  1.
</event>
<event>
 5   0  0.1608627E-04  0.1808560E+04  0.7818609E-02  0.8701761E-01
        2   -1    0    0  501    0  0.00000000000E+00  0.00000000000E+00  0.21103135292E+04  0.21103135292E+04  0.25500000920E-02 0. -1.
       -2   -1    0    0    0  501  0.00000000000E+00  0.00000000000E+00 -0.38748835902E+03  0.38748835903E+03  0.25500000920E-02 0.  1.
    10030    2    1    2    0    0  0.00000000000E+00  0.00000000000E+00  0.17228251702E+04  0.24978018882E+04  0.18085595666E+04 0.  0.
        2    1    3    3  502    0 -0.17473149816E+03 -0.20390946890E+02  0.20864531196E+04  0.20938561335E+04  0.25500000920E-02 0. -1.
       -2    1    3    3    0  502  0.17473149816E+03  0.20390946890E+02 -0.36362794946E+03  0.40394575477E+03  0.25500000920E-02 0.  1.
</event>
<event>
 5   0  0.1549012E-04  0.1798612E+04  0.7818609E-02  0.8707038E-01
       -2   -1    0    0    0  501  0.00000000000E+00  0.00000000000E+00  0.47991235684E+03  0.47991235685E+03  0.25500000920E-02 0. -1.
        2   -1    0    0  501    0  0.00000000000E+00  0.00000000000E+00 -0.16852055863E+04  0.16852055863E+04  0.25500000920E-02 0.  1.
    10030    2    1    2    0    0  0.00000000000E+00  0.00000000000E+00 -0.12052932294E+04  0.21651179431E+04  0.17986116698E+04 0.  0.
        4    1    3    3  502    0 -0.89943810773E+02  0.75761470585E+03 -0.11757727562E+04  0.14016109013E+04  0.12699999809E+01 0.  1.
       -4    1    3    3    0  502  0.89943810773E+02 -0.75761470585E+03 -0.29520473234E+02  0.76350704179E+03  0.12699999809E+01 0. -1.
</event>
<event>
 5   0  0.8206783E-05  0.1808734E+04  0.7818609E-02  0.8701668E-01
        1   -1    0    0  501    0  0.00000000000E+00  0.00000000000E+00  0.16595543068E+04  0.16595543068E+04  0.50400001928E-02 0.  1.
       -1   -1    0    0    0  501  0.00000000000E+00  0.00000000000E+00 -0.49283106445E+03  0.49283106447E+03  0.50400001928E-02 0. -1.
    10030    2    1    2    0    0  0.00000000000E+00  0.00000000000E+00  0.11667232423E+04  0.21523853712E+04  0.18087342707E+04 0.  0.
        1    1    3    3  502    0 -0.25221211649E+03 -0.61414948372E+03 -0.14738600366E+03  0.68008321120E+03  0.50400001928E-02 0. -1.
       -1    1    3    3    0  502  0.25221211649E+03  0.61414948372E+03  0.13141092460E+04  0.14723021600E+04  0.50400001928E-02 0.  1.
</event>
<event>
 5   0  0.8132598E-05  0.1832173E+04  0.7818609E-02  0.8689375E-01
        1   -1    0    0  501    0  0.00000000000E+00  0.00000000000E+00  0.13301654895E+04  0.13301654895E+04  0.50400001928E-02 0.  1.
       -1   -1    0    0    0  501  0.00000000000E+00  0.00000000000E+00 -0.63091000226E+03  0.63091000228E+03  0.50400001928E-02 0. -1.
    10030    2    1    2    0    0  0.00000000000E+00  0.00000000000E+00  0.69925548721E+03  0.19610754918E+04  0.18321732582E+04 0.  0.
        3    1    3    3  502    0 -0.20012001384E+03 -0.70102208817E+03  0.94339468863E+03  0.11922556508E+04  0.10100000352E+00 0.  1.
       -3    1    3    3    0  502  0.20012001384E+03  0.70102208817E+03 -0.24413920141E+03  0.76881984100E+03  0.10100000352E+00 0. -1.
</event>
<event>
 5   0  0.1608627E-04  0.1792035E+04  0.7818609E-02  0.8710547E-01
       -2   -1    0    0    0  501  0.00000000000E+00  0.00000000000E+00  0.12229878608E+04  0.12229878608E+04  0.25500000920E-02 0. -1.
        2   -1    0    0  501    0  0.00000000000E+00  0.00000000000E+00 -0.65646393967E+03  0.65646393967E+03  0.25500000920E-02 0.  1.
    10030    2    1    2    0    0  0.00000000000E+00  0.00000000000E+00  0.56652392111E+03  0.18794518005E+04  0.17920350770E+04 0.  0.
        2    1    3    3  502    0 -0.61284051972E+03  0.22276165373E+03  0.92777262055E+03  0.11340010108E+04  0.25500000920E-02 0. -1.
       -2    1    3    3    0  502  0.61284051972E+03 -0.22276165373E+03 -0.36124869944E+03  0.74545078968E+03  0.25500000920E-02 0.  1.
</event>
<event>
 5   0  0.8492114E-05  0.1813994E+04  0.7818609E-02  0.8698893E-01
       -1   -1    0    0    0  501  0.00000000000E+00  0.00000000000E+00  0.65132848900E+03  0.65132848902E+03  0.50400001928E-02 0.  1.
        1   -1    0    0  501    0  0.00000000000E+00  0.00000000000E+00 -0.12630245157E+04  0.12630245157E+04  0.50400001928E-02 0. -1.
    10030    2    1    2    0    0  0.00000000000E+00  0.00000000000E+00 -0.61169602669E+03  0.19143530047E+04  0.18139943213E+04 0.  0.
        2    1    3    3  502    0 -0.16920011111E+03  0.72886872499E+03  0.23511841867E+03  0.78432070397E+03  0.25500000920E-02 0.  1.
       -2    1    3    3    0  502  0.16920011111E+03 -0.72886872499E+03 -0.84681444535E+03  0.11300323007E+04  0.25500000920E-02 0. -1.
</event>
<event>
 5   0  0.8254914E-05  0.1811367E+04  0.7818609E-02  0.8700278E-01
       -1   -1    0    0    0  501  0.00000000000E+00  0.00000000000E+00  0.79508304554E+03  0.79508304556E+03  0.50400001928E-02 0.  1.
        1   -1    0    0  501    0  0.00000000000E+00  0.00000000000E+00 -0.10316685774E+04  0.10316685774E+04  0.50400001928E-02 0. -1.
    10030    2    1    2    0    0  0.00000000000E+00  0.00000000000E+00 -0.23658553183E+03  0.18267516229E+04  0.18113665499E+04 0.  0.
        4    1    3    3  502    0 -0.18068091620E+03  0.65796449997E+03  0.48233077166E+03  0.83558809403E+03  0.12699999809E+01 0.  1.
       -4    1    3    3    0  502  0.18068091620E+03 -0.65796449997E+03 -0.71891630349E+03  0.99116352890E+03  0.12699999809E+01 0. -1.
</event>
<event>
 5   0  0.8254914E-05  0.1794223E+04  0.7818609E-02  0.8709378E-01
       -1   -1    0    0    0  501  0.00000000000E+00  0.00000000000E+00  0.43653907506E+03  0.43653907509E+03  0.50400001928E-02 0. -1.
        1   -1    0    0  501    0  0.00000000000E+00  0.00000000000E+00 -0.18436124492E+04  0.18436124492E+04  0.50400001928E-02 0.  1.
    10030    2    1    2    0    0  0.00000000000E+00  0.00000000000E+00 -0.14070733741E+04  0.22801515243E+04  0.17942228104E+04 0.  0.
        4    1    3    3  502    0  0.63676436678E+03  0.18735399191E+03  0.63434934970E+02  0.66678030937E+03  0.12699999809E+01 0. -1.
       -4    1    3    3    0  502 -0.63676436678E+03 -0.18735399191E+03 -0.14705083091E+04  0.16133712149E+04  0.12699999809E+01 0.  1.
</event>
<event>
 5   0  0.1608627E-04  0.1827110E+04  0.7818609E-02  0.8692014E-01
       -2   -1    0    0    0  501  0.00000000000E+00  0.00000000000E+00  0.14872932855E+04  0.14872932855E+04  0.25500000920E-02 0.  1.
        2   -1    0    0  501    0  0.00000000000E+00  0.00000000000E+00 -0.56114231214E+03  0.56114231215E+03  0.25500000920E-02 0. -1.
    10030    2    1    2    0    0  0.00000000000E+00  0.00000000000E+00  0.92615097340E+03  0.20484355977E+04  0.18271104981E+04 0.  0.
        2    1    3    3  502    0  0.40758083884E+03 -0.23810796906E+03 -0.41382446222E+03  0.62774854095E+03  0.25500000920E-02 0. -1.
       -2    1    3    3    0  502 -0.40758083884E+03  0.23810796906E+03  0.13399754356E+04  0.14206870567E+04  0.25500000920E-02 0.  1.
</event>
<event>
 5   0  0.8206783E-05  0.1800675E+04  0.7818609E-02  0.8705940E-01
        1   -1    0    0  501    0  0.00000000000E+00  0.00000000000E+00  0.19733738500E+04  0.19733738500E+04  0.50400001928E-02 0. -1.
       -1   -1    0    0    0  501  0.00000000000E+00  0.00000000000E+00 -0.41077259870E+03  0.41077259873E+03  0.50400001928E-02 0.  1.
    10030    2    1    2    0    0  0.00000000000E+00  0.00000000000E+00  0.15626012513E+04  0.23841464487E+04  0.18006753229E+04 0.  0.
        1    1    3    3  502    0  0.21032124169E+03 -0.81766739684E+03  0.11953491073E+04  0.14634460990E+04  0.50400001928E-02 0. -1.
       -1    1    3    3    0  502 -0.21032124169E+03  0.81766739684E+03  0.36725214400E+03  0.92070034966E+03  0.50400001928E-02 0.  1.
</event>
<event>
 5   0  0.1608627E-04  0.1804691E+04  0.7818609E-02  0.8703809E-01
       -2   -1    0    0    0  501  0.00000000000E+00  0.00000000000E+00  0.47282416388E+03  0.47282416388E+03  0.25500000920E-02 0. -1.
        2   -1    0    0  501    0  0.00000000000E+00  0.00000000000E+00 -0.17220512703E+04  0.17220512703E+04  0.25500000920E-02 0.  1.
    10030    2    1    2    0    0  0.00000000000E+00  0.00000000000E+00 -0.12492271064E+04  0.21948754342E+04  0.18046910562E+04 0.  0.
        2    1    3    3  502    0  0.84825174331E+03 -0.53916374187E+02 -0.25614246992E+03  0.88772009121E+03  0.25500000920E-02 0. -1.
       -2    1    3    3    0  502 -0.84825174331E+03  0.53916374187E+02 -0.99308463653E+03  0.13071553430E+04  0.25500000920E-02 0.  1.
</event>
<event>
 5   0  0.1608627E-04  0.1800120E+04  0.7818609E-02  0.8706236E-01
        2   -1    0    0  501    0  0.00000000000E+00  0.00000000000E+00  0.89843967049E+03  0.89843967050E+03  0.25500000920E-02 0.  1.
       -2   -1    0    0    0  501  0.00000000000E+00  0.00000000000E+00 -0.90168282145E+03  0.90168282145E+03  0.25500000920E-02 0. -1.
    10030    2    1    2    0    0  0.00000000000E+00  0.00000000000E+00 -0.32431509577E+01  0.18001224919E+04  0.18001195705E+04 0.  0.
        2    1    3    3  502    0  0.46444973631E+03 -0.47421016372E+03  0.60625997504E+03  0.89896606959E+03  0.25500000920E-02 0.  1.
       -2    1    3    3    0  502 -0.46444973631E+03  0.47421016372E+03 -0.60950312600E+03  0.90115642235E+03  0.25500000920E-02 0. -1.
</event>
<event>
 5   0  0.1608627E-04  0.1870819E+04  0.7818609E-02  0.8669520E-01
       -2   -1    0    0    0  501  0.00000000000E+00  0.00000000000E+00  0.10079318690E+04  0.10079318690E+04  0.25500000920E-02 0. -1.
        2   -1    0    0  501    0  0.00000000000E+00  0.00000000000E+00 -0.86810507227E+03  0.86810507227E+03  0.25500000920E-02 0.  1.
    10030    2    1    2    0    0  0.00000000000E+00  0.00000000000E+00  0.13982679669E+03  0.18760369412E+04  0.18708188239E+04 0.  0.
        2    1    3    3  502    0 -0.75758155148E+03 -0.46502711020E+02 -0.47832757841E+03  0.89715638634E+03  0.25500000920E-02 0.  1.
       -2    1    3    3    0  502  0.75758155148E+03  0.46502711020E+02  0.61815437510E+03  0.97888055489E+03  0.25500000920E-02 0. -1.
</event>
<event>
 5   0  0.1573981E-04  0.1767982E+04  0.7818609E-02  0.8723514E-01
        2   -1    0    0  501    0  0.00000000000E+00  0.00000000000E+00  0.90678683575E+03  0.90678683575E+03  0.25500000920E-02 0. -1.
       -2   -1    0    0    0  501  0.00000000000E+00  0.00000000000E+00 -0.86176787202E+03  0.86176787202E+03  0.25500000920E-02 0.  1.
    10030    2    1    2    0    0  0.00000000000E+00  0.00000000000E+00  0.45018963733E+02  0.17685547078E+04  0.17679816309E+04 0.  0.
        1    1    3    3  502    0 -0.11899731312E+03  0.78965853699E+03 -0.35671602081E+03  0.87462408216E+03  0.50400001928E-02 0. -1.
       -1    1    3    3    0  502  0.11899731312E+03 -0.78965853699E+03  0.40173498455E+03  0.89393062561E+03  0.50400001928E-02 0.  1.
</event>
<event>
 5   0  0.8492114E-05  0.1813120E+04  0.7818609E-02  0.8699353E-01
       -1   -1    0    0    0  501  0.00000000000E+00  0.00000000000E+00  0.81316387601E+03  0.81316387603E+03  0.50400001928E-02 0. -1.
        1   -1    0    0  501    0  0.00000000000E+00  0.00000000000E+00 -0.10106830557E+04  0.10106830557E+04  0.50400001928E-02 0.  1.
    10030    2    1    2    0    0  0.00000000000E+00  0.00000000000E+00 -0.19751917964E+03  0.18238469317E+04  0.18131199089E+04 0.  0.
        2    1    3    3  502    0  0.88558641762E+03 -0.34885815231E+02 -0.29059874756E+03  0.93269928448E+03  0.25500000920E-02 0.  1.
       -2    1    3    3    0  502 -0.88558641762E+03  0.34885815231E+02  0.93079567914E+02  0.89114764722E+03  0.25500000920E-02 0. -1.
</event>
<event>
 5   0  0.1549012E-04  0.1838185E+04  0.7818609E-02  0.8686253E-01
        2   -1    0    0  501    0  0.00000000000E+00  0.00000000000E+00  0.91313411527E+03  0.91313411527E+03  0.25500000920E-02 0. -1.
       -2   -1    0    0    0  501  0.00000000000E+00  0.00000000000E+00 -0.92508949054E+03  0.92508949055E+03  0.25500000920E-02 0.  1.
    10030    2    1    2    0    0  0.00000000000E+00  0.00000000000E+00 -0.11955375277E+02  0.18382236058E+04  0.18381847279E+04 0.  0.
        4    1    3    3  502    0 -0.15527531999E+02 -0.39809309939E+03 -0.83425237596E+03  0.92449870726E+03  0.12699999809E+01 0.  1.
       -4    1    3    3    0  502  0.15527531999E+02  0.39809309939E+03  0.82229700068E+03  0.91372489856E+03  0.12699999809E+01 0. -1.
</event>
<event>
 5   0  0.1603564E-04  0.1804656E+04  0.7818609E-02  0.8703827E-01
        2   -1    0    0  501    0  0.00000000000E+00  0.00000000000E+00  0.11230488960E+04  0.11230488960E+04  0.25500000920E-02 0. -1.
       -2   -1    0    0    0  501  0.00000000000E+00  0.00000000000E+00 -0.72498706395E+03  0.72498706395E+03  0.25500000920E-02 0.  1.
    10030    2    1    2    0    0  0.00000000000E+00  0.00000000000E+00  0.39806183201E+03  0.18480359599E+04  0.18046561132E+04 0.  0.
        5    1    3    3  502    0  0.59006504372E+02  0.86251926652E+02 -0.71875639580E+03  0.72632913263E+03  0.46999998093E+01 0.  1.
       -5    1    3    3    0  502 -0.59006504372E+02 -0.86251926652E+02  0.11168182278E+04  0.11217068273E+04  0.46999998093E+01 0. -1.
</event>
<event>
 5   0  0.8430513E-05  0.1856761E+04  0.7818609E-02  0.8676684E-01
        1   -1    0    0  501    0  0.00000000000E+00  0.00000000000E+00  0.11092039982E+04  0.11092039982E+04  0.50400001928E-02 0. -1.
       -1   -1    0    0    0  501  0.00000000000E+00  0.00000000000E+00 -0.77703524011E+03  0.77703524012E+03  0.50400001928E-02 0.  1.
    10030    2    1    2    0    0  0.00000000000E+00  0.00000000000E+00  0.33216875812E+03  0.18862392384E+04  0.18567612610E+04 0.  0.
        5    1    3    3  502    0  0.35927562508E+03 -0.99170290057E+02 -0.69768196156E+03  0.79100943780E+03  0.46999998093E+01 0.  1.
       -5    1    3    3    0  502 -0.35927562508E+03  0.99170290057E+02  0.10298507197E+04  0.10952298006E+04  0.46999998093E+01 0. -1.
</event>
<event>
 5   0  0.1603564E-04  0.1859689E+04  0.7818609E-02  0.8675186E-01
       -2   -1    0    0    0  501  0.00000000000E+00  0.00000000000E+00  0.41510615834E+03  0.41510615835E+03  0.25500000920E-02 0. -1.
        2   -1    0    0  501    0  0.00000000000E+00  0.00000000000E+00 -0.20828663824E+04  0.20828663824E+04  0.25500000920E-02 0.  1.
    10030    2    1    2    0    0  0.00000000000E+00  0.00000000000E+00 -0.16677602241E+04  0.24979725408E+04  0.18596888582E+04 0.  0.
        5    1    3    3  502    0  0.23986903335E+03 -0.73530143030E+03 -0.15271475587E+04  0.17118431887E+04  0.46999998093E+01 0.  1.
       -5    1    3    3    0  502 -0.23986903335E+03  0.73530143030E+03 -0.14061266538E+03  0.78612935210E+03  0.46999998093E+01 0. -1.
</event>
<event>
 5   0  0.8430513E-05  0.1803245E+04  0.7818609E-02  0.8704576E-01
        1   -1    0    0  501    0  0.00000000000E+00  0.00000000000E+00  0.66617069302E+03  0.66617069304E+03  0.50400001928E-02 0.  1.
       -1   -1    0    0    0  501  0.00000000000E+00  0.00000000000E+00 -0.12202920261E+04  0.12202920261E+04  0.50400001928E-02 0. -1.
    10030    2    1    2    0    0  0.00000000000E+00  0.00000000000E+00 -0.55412133309E+03  0.18864627192E+04  0.18032446143E+04 0.  0.
        5    1    3    3  502    0 -0.85059778058E+03 -0.27292972735E+03 -0.14938986231E+03  0.90572989426E+03  0.46999998093E+01 0. -1.
       -5    1    3    3    0  502  0.85059778058E+03  0.27292972735E+03 -0.40473147078E+03  0.98073282490E+03  0.46999998093E+01 0.  1.
</event>
<event>
 5   0  0.1603564E-04  0.1800423E+04  0.7818609E-02  0.8706075E-01
       -2   -1    0    0    0  501  0.00000000000E+00  0.00000000000E+00  0.51393178087E+03  0.51393178088E+03  0.25500000920E-02 0.  1.
        2   -1    0    0  501    0  0.00000000000E+00  0.00000000000E+00 -0.15768247343E+04  0.15768247343E+04  0.25500000920E-02 0. -1.
    10030    2    1    2    0    0  0.00000000000E+00  0.00000000000E+00 -0.10628929534E+04  0.20907565152E+04  0.18004225546E+04 0.  0.
        5    1    3    3  502    0  0.39431554842E+03  0.70917887501E+03 -0.78795568425E+02  0.81526085401E+03  0.46999998093E+01 0. -1.
       -5    1    3    3    0  502 -0.39431554842E+03 -0.70917887501E+03 -0.98409738498E+03  0.12754956611E+04  0.46999998093E+01 0.  1.
</event>
<event>
 5   0  0.1608627E-04  0.1774532E+04  0.7818609E-02  0.8719962E-01
        2   -1    0    0  501    0  0.00000000000E+00  0.00000000000E+00  0.25501341946E+04  0.25501341946E+04  0.25500000920E-02 0.  1.
       -2   -1    0    0    0  501  0.00000000000E+00  0.00000000000E+00 -0.30870560445E+03  0.30870560446E+03  0.25500000920E-02 0. -1.
    10030    2    1    2    0    0  0.00000000000E+00  0.00000000000E+00  0.22414285902E+04  0.28588397991E+04  0.17745317332E+04 0.  0.
        2    1    3    3  502    0  0.69789189592E+03  0.45936840485E+03  0.16017876065E+04  0.18065978983E+04  0.25500000920E-02 0. -1.
       -2    1    3    3    0  502 -0.69789189592E+03 -0.45936840485E+03  0.63964098365E+03  0.10522419008E+04  0.25500000920E-02 0.  1.
</event>
<event>
 5   0  0.8206783E-05  0.1877822E+04  0.7818609E-02  0.8665975E-01
       -1   -1    0    0    0  501  0.00000000000E+00  0.00000000000E+00  0.53172585362E+03  0.53172585365E+03  0.50400001928E-02 0. -1.
        1   -1    0    0  501    0  0.00000000000E+00  0.00000000000E+00 -0.16579107353E+04  0.16579107353E+04  0.50400001928E-02 0.  1.
    10030    2    1    2    0    0  0.00000000000E+00  0.00000000000E+00 -0.11261848817E+04  0.21896365890E+04  0.18778221439E+04 0.  0.
        1    1    3    3  502    0  0.47924433294E+03 -0.10610908617E+02 -0.15044693233E+04  0.15789919781E+04  0.50400001928E-02 0.  1.
       -1    1    3    3    0  502 -0.47924433294E+03  0.10610908617E+02  0.37828444161E+03  0.61064461090E+03  0.50400001928E-02 0. -1.
</event>
<event>
 5   0  0.8132598E-05  0.1796014E+04  0.7818609E-02  0.8708422E-01
       -1   -1    0    0    0  501  0.00000000000E+00  0.00000000000E+00  0.12272299591E+04  0.12272299591E+04  0.50400001928E-02 0.  1.
        1   -1    0    0  501    0  0.00000000000E+00  0.00000000000E+00 -0.65710329522E+03  0.65710329523E+03  0.50400001928E-02 0. -1.
    10030    2    1    2    0    0  0.00000000000E+00  0.00000000000E+00  0.57012666392E+03  0.18843332544E+04  0.17960143097E+04 0.  0.
        3    1    3    3  502    0 -0.44097923568E+01 -0.50267075274E+03 -0.49565222269E+03  0.70595217117E+03  0.10100000352E+00 0. -1.
       -3    1    3    3    0  502  0.44097923568E+01  0.50267075274E+03  0.10657788866E+04  0.11783810832E+04  0.10100000352E+00 0.  1.
</event>
<event>
 5   0  0.1549012E-04  0.1803705E+04  0.7818609E-02  0.8704331E-01
       -2   -1    0    0    0  501  0.00000000000E+00  0.00000000000E+00  0.83844365509E+03  0.83844365509E+03  0.25500000920E-02 0. -1.
        2   -1    0    0  501    0  0.00000000000E+00  0.00000000000E+00 -0.97005714359E+03  0.97005714360E+03  0.25500000920E-02 0.  1.
    10030    2    1    2    0    0  0.00000000000E+00  0.00000000000E+00 -0.13161348851E+03  0.18085007987E+04  0.18037053608E+04 0.  0.
        4    1    3    3  502    0 -0.77052145615E+03 -0.17615009611E+03 -0.50124752860E+03  0.93593956460E+03  0.12699999809E+01 0.  1.
       -4    1    3    3    0  502  0.77052145615E+03  0.17615009611E+03  0.36963404010E+03  0.87256123409E+03  0.12699999809E+01 0. -1.
</event>
<event>
 5   0  0.1549012E-04  0.1887482E+04  0.7818609E-02  0.8661112E-01
       -2   -1    0    0    0  501  0.00000000000E+00  0.00000000000E+00  0.76632765965E+03  0.76632765966E+03  0.25500000920E-02 0. -1.
        2   -1    0    0  501    0  0.00000000000E+00  0.00000000000E+00 -0.11622279910E+04  0.11622279910E+04  0.25500000920E-02 0.  1.
    10030    2    1    2    0    0  0.00000000000E+00  0.00000000000E+00 -0.39590033131E+03  0.19285556506E+04  0.18874824040E+04 0.  0.
        4    1    3    3  502    0  0.57672166898E+03  0.67106954780E+02 -0.95813929803E+03  0.11203319839E+04  0.12699999809E+01 0.  1.
       -4    1    3    3    0  502 -0.57672166898E+03 -0.67106954780E+02  0.56223896672E+03  0.80822366672E+03  0.12699999809E+01 0. -1.
</event>
<event>
 5   0  0.1573981E-04  0.1802869E+04  0.7818609E-02  0.8704775E-01
        2   -1    0    0  501    0  0.00000000000E+00  0.00000000000E+00  0.14050378430E+04  0.14050378430E+04  0.25500000920E-02 0. -1.
       -2   -1    0    0    0  501  0.00000000000E+00  0.00000000000E+00 -0.57833601647E+03  0.57833601647E+03  0.25500000920E-02 0.  1.
    10030    2    1    2    0    0  0.00000000000E+00  0.00000000000E+00  0.82670182656E+03  0.19833738595E+04  0.18028688129E+04 0.  0.
        1    1    3    3  502    0 -0.20361410839E+02 -0.54343762125E+03  0.12042491351E+04  0.13213459103E+04  0.50400001928E-02 0. -1.
       -1    1    3    3    0  502  0.20361410839E+02  0.54343762125E+03 -0.37754730858E+03  0.66202794917E+03  0.50400001928E-02 0.  1.
</event>
<event>
 5   0  0.1603564E-04  0.1797263E+04  0.7818609E-02  0.8707756E-01
       -2   -1    0    0    0  501  0.00000000000E+00  0.00000000000E+00  0.44666467287E+03  0.44666467287E+03  0.25500000920E-02 0.  1.
        2   -1    0    0  501    0  0.00000000000E+00  0.00000000000E+00 -0.18079308410E+04  0.18079308410E+04  0.25500000920E-02 0. -1.
    10030    2    1    2    0    0  0.00000000000E+00  0.00000000000E+00 -0.13612661682E+04  0.22545955139E+04  0.17972632948E+04 0.  0.
        5    1    3    3  502    0 -0.65805982341E+03  0.53968659861E+02 -0.14452998744E+04  0.15889836892E+04  0.46999998093E+01 0. -1.
       -5    1    3    3    0  502  0.65805982341E+03 -0.53968659861E+02  0.84033706266E+02  0.66561182473E+03  0.46999998093E+01 0.  1.
</event>
<event>
 5   0  0.8132598E-05  0.1815760E+04  0.7818609E-02  0.8697963E-01
        1   -1    0    0  501    0  0.00000000000E+00  0.00000000000E+00  0.10495257163E+04  0.10495257163E+04  0.50400001928E-02 0. -1.
       -1   -1    0    0    0  501  0.00000000000E+00  0.00000000000E+00 -0.78535128280E+03  0.78535128282E+03  0.50400001928E-02 0.  1.
    10030    2    1    2    0    0  0.00000000000E+00  0.00000000000E+00  0.26417443351E+03  0.18348769992E+04  0.18157603010E+04 0.  0.
        3    1    3    3  502    0  0.36609204925E+03  0.48526106829E+02 -0.70602283987E+03  0.79677250968E+03  0.10100000352E+00 0.  1.
       -3    1    3    3    0  502 -0.36609204925E+03 -0.48526106829E+02  0.97019727338E+03  0.10381044895E+04  0.10100000352E+00 0. -1.
</event>
<event>
 5   0  0.8206783E-05  0.1816961E+04  0.7818609E-02  0.8697331E-01
        1   -1    0    0  501    0  0.00000000000E+00  0.00000000000E+00  0.81137002303E+03  0.81137002304E+03  0.50400001928E-02 0.  1.
       -1   -1    0    0    0  501  0.00000000000E+00  0.00000000000E+00 -0.10172142431E+04  0.10172142431E+04  0.50400001928E-02 0. -1.
    10030    2    1    2    0    0  0.00000000000E+00  0.00000000000E+00 -0.20584422010E+03  0.18285842662E+04  0.18169613578E+04 0.  0.
        1    1    3    3  502    0  0.68916346044E+03 -0.21348635858E+03  0.45270964530E+03  0.85174451773E+03  0.50400001928E-02 0.  1.
       -1    1    3    3    0  502 -0.68916346044E+03  0.21348635858E+03 -0.65855386540E+03  0.97683974846E+03  0.50400001928E-02 0. -1.
</event>
<event>
 5   0  0.1608627E-04  0.1836632E+04  0.7818609E-02  0.8687058E-01
        2   -1    0    0  501    0  0.00000000000E+00  0.00000000000E+00  0.18276595730E+04  0.18276595730E+04  0.25500000920E-02 0. -1.
       -2   -1    0    0    0  501  0.00000000000E+00  0.00000000000E+00 -0.46141195589E+03  0.46141195590E+03  0.25500000920E-02 0.  1.
    10030    2    1    2    0    0  0.00000000000E+00  0.00000000000E+00  0.13662476171E+04  0.22890715289E+04  0.18366316760E+04 0.  0.
        2    1    3    3  502    0  0.73152039581E+03  0.34257677808E+03  0.12275671598E+04  0.14694904118E+04  0.25500000920E-02 0. -1.
       -2    1    3    3    0  502 -0.73152039581E+03 -0.34257677808E+03  0.13868045730E+03  0.81958111716E+03  0.25500000920E-02 0.  1.
</event>
<event>
 5   0  0.8430513E-05  0.1824643E+04  0.7818609E-02  0.8693303E-01
        1   -1    0    0  501    0  0.00000000000E+00  0.00000000000E+00  0.14350774235E+04  0.14350774236E+04  0.50400001928E-02 0. -1.
       -1   -1    0    0    0  501  0.00000000000E+00  0.00000000000E+00 -0.57999004014E+03  0.57999004017E+03  0.50400001928E-02 0.  1.
    10030    2    1    2    0    0  0.00000000000E+00  0.00000000000E+00  0.85508738340E+03  0.20150674637E+04  0.18246431021E+04 0.  0.
        5    1    3    3  502    0 -0.51951569577E+03  0.27873518985E+03 -0.34133270647E+03  0.68126351049E+03  0.46999998093E+01 0.  1.
       -5    1    3    3    0  502  0.51951569577E+03 -0.27873518985E+03  0.11964200899E+04  0.13338039532E+04  0.46999998093E+01 0. -1.
</event>
<event>
 5   0  0.8132598E-05  0.1806157E+04  0.7818609E-02  0.8703032E-01
       -1   -1    0    0    0  501  0.00000000000E+00  0.00000000000E+00  0.10483728637E+04  0.10483728637E+04  0.50400001928E-02 0.  1.
        1   -1    0    0  501    0  0.00000000000E+00  0.00000000000E+00 -0.77792080695E+03  0.77792080697E+03  0.50400001928E-02 0. -1.
    10030    2    1    2    0    0  0.00000000000E+00  0.00000000000E+00  0.27045205678E+03  0.18262936707E+04  0.18061573178E+04 0.  0.
        3    1    3    3  502    0  0.77928225582E+03  0.34456329915E+03  0.43780517204E+03  0.95795515564E+03  0.10100000352E+00 0.  1.
       -3    1    3    3    0  502 -0.77928225582E+03 -0.34456329915E+03 -0.16735311526E+03  0.86833851506E+03  0.10100000352E+00 0. -1.
</event>
<event>
 5   0  0.8492114E-05  0.1781966E+04  0.7818609E-02  0.8715949E-01
        1   -1    0    0  501    0  0.00000000000E+00  0.00000000000E+00  0.15660414107E+04  0.15660414107E+04  0.50400001928E-02 0. -1.
       -1   -1    0    0    0  501  0.00000000000E+00  0.00000000000E+00 -0.50691573560E+03  0.50691573563E+03  0.50400001928E-02 0.  1.
    10030    2    1    2    0    0  0.00000000000E+00  0.00000000000E+00  0.10591256751E+04  0.20729571464E+04  0.17819663675E+04 0.  0.
        2    1    3    3  502    0 -0.13670215300E+03 -0.78122877940E+03  0.10018747587E+04  0.12777945518E+04  0.25500000920E-02 0. -1.
       -2    1    3    3    0  502  0.13670215300E+03  0.78122877940E+03  0.57250916418E+02  0.79516259459E+03  0.25500000920E-02 0.  1.
</event>
<event>
 5   0  0.1608627E-04  0.1812595E+04  0.7818609E-02  0.8699630E-01
        2   -1    0    0  501    0  0.00000000000E+00  0.00000000000E+00  0.21853959933E+04  0.21853959933E+04  0.25500000920E-02 0. -1.
       -2   -1    0    0    0  501  0.00000000000E+00  0.00000000000E+00 -0.37584728316E+03  0.37584728317E+03  0.25500000920E-02 0.  1.
    10030    2    1    2    0    0  0.00000000000E+00  0.00000000000E+00  0.18095487102E+04  0.25612432765E+04  0.18125949870E+04 0.  0.
        2    1    3    3  502    0  0.77196094719E+03  0.37643182063E+03  0.49584919588E+03  0.99171116996E+03  0.25500000920E-02 0.  1.
       -2    1    3    3    0  502 -0.77196094719E+03 -0.37643182063E+03  0.13136995143E+04  0.15695321065E+04  0.25500000920E-02 0. -1.
</event>
<event>
 5   0  0.1628397E-04  0.1808834E+04  0.7818609E-02  0.8701615E-01
        2   -1    0    0  501    0  0.00000000000E+00  0.00000000000E+00  0.12719719896E+04  0.12719719896E+04  0.25500000920E-02 0. -1.
       -2   -1    0    0    0  501  0.00000000000E+00  0.00000000000E+00 -0.64307277388E+03  0.64307277388E+03  0.25500000920E-02 0.  1.
    10030    2    1    2    0    0  0.00000000000E+00  0.00000000000E+00  0.62889921573E+03  0.19150447635E+04  0.18088344929E+04 0.  0.
        3    1    3    3  502    0 -0.51947898197E+03 -0.53306243818E+03  0.85838377123E+03  0.11361499393E+04  0.10100000352E+00 0. -1.
       -3    1    3    3    0  502  0.51947898197E+03  0.53306243818E+03 -0.22948455550E+03  0.77889482417E+03  0.10100000352E+00 0.  1.
</event>
<event>
 5   0  0.8430513E-05  0.1798747E+04  0.7818609E-02  0.8706966E-01
        1   -1    0    0  501    0  0.00000000000E+00  0.00000000000E+00  0.87194696320E+03  0.87194696322E+03  0.50400001928E-02 0.  1.
       -1   -1    0    0    0  501  0.00000000000E+00  0.00000000000E+00 -0.92766224138E+03  0.92766224139E+03  0.50400001928E-02 0. -1.
    10030    2    1    2    0    0  0.00000000000E+00  0.00000000000E+00 -0.55715278176E+02  0.17996092046E+04  0.17987465350E+04 0.  0.
        5    1    3    3  502    0  0.87202058317E+03 -0.41365466689E+02 -0.24410751371E+03  0.90649962359E+03  0.46999998093E+01 0. -1.
       -5    1    3    3    0  502 -0.87202058317E+03  0.41365466689E+02  0.18839223553E+03  0.89310958103E+03  0.46999998093E+01 0.  1.
</event>
<event>
 5   0  0.8206783E-05  0.1863812E+04  0.7818609E-02  0.8673082E-01
        1   -1    0    0  501    0  0.00000000000E+00  0.00000000000E+00  0.14554497909E+04  0.14554497909E+04  0.50400001928E-02 0.  1.
       -1   -1    0    0    0  501  0.00000000000E+00  0.00000000000E+00 -0.59668772449E+03  0.59668772452E+03  0.50400001928E-02 0. -1.
    10030    2    1    2    0    0  0.00000000000E+00  0.00000000000E+00  0.85876206641E+03  0.20521375154E+04  0.18638122479E+04 0.  0.
        1    1    3    3  502    0  0.12624159396E+03 -0.80499364508E+03  0.92728788624E+03  0.12344288285E+04  0.50400001928E-02 0.  1.
       -1    1    3    3    0  502 -0.12624159396E+03  0.80499364508E+03 -0.68525819827E+02  0.81770868692E+03  0.50400001928E-02 0. -1.
</event>
<event>
 5   0  0.8430513E-05  0.1802164E+04  0.7818609E-02  0.8705150E-01
        1   -1    0    0  501    0  0.00000000000E+00  0.00000000000E+00  0.64687567143E+03  0.64687567145E+03  0.50400001928E-02 0. -1.
       -1   -1    0    0    0  501  0.00000000000E+00  0.00000000000E+00 -0.12551847743E+04  0.12551847743E+04  0.50400001928E-02 0.  1.
    10030    2    1    2    0    0  0.00000000000E+00  0.00000000000E+00 -0.60830910286E+03  0.19020604458E+04  0.18021636925E+04 0.  0.
        5    1    3    3  502    0  0.48794692777E+03 -0.52566490927E+03  0.27152566133E+03  0.76691855885E+03  0.46999998093E+01 0. -1.
       -5    1    3    3    0  502 -0.48794692777E+03  0.52566490927E+03 -0.87983476419E+03  0.11351418869E+04  0.46999998093E+01 0.  1.
</event>
<event>
 5   0  0.1603564E-04  0.1764856E+04  0.7818609E-02  0.8725215E-01
       -2   -1    0    0    0  501  0.00000000000E+00  0.00000000000E+00  0.69926097826E+03  0.69926097826E+03  0.25500000920E-02 0.  1.
        2   -1    0    0  501    0  0.00000000000E+00  0.00000000000E+00 -0.11135741603E+04  0.11135741603E+04  0.25500000920E-02 0. -1.
    10030    2    1    2    0    0  0.00000000000E+00  0.00000000000E+00 -0.41431318201E+03  0.18128351385E+04  0.17648557524E+04 0.  0.
        5    1    3    3  502    0 -0.48514359051E+03 -0.17009021104E+03 -0.94384440286E+03  0.10747833875E+04  0.46999998093E+01 0. -1.
       -5    1    3    3    0  502  0.48514359051E+03  0.17009021104E+03  0.52953122085E+03  0.73805175100E+03  0.46999998093E+01 0.  1.
</event>
<event>
 5   0  0.5820500E-05  0.1769684E+04  0.7818609E-02  0.8722589E-01
        3   -1    0    0  501    0  0.00000000000E+00  0.00000000000E+00  0.93967060873E+03  0.93967061416E+03  0.10100000352E+00 0.  1.
       -3   -1    0    0    0  501  0.00000000000E+00  0.00000000000E+00 -0.83321278216E+03  0.83321278828E+03  0.10100000352E+00 0. -1.
    10030    2    1    2    0    0  0.00000000000E+00  0.00000000000E+00  0.10645782657E+03  0.17728834024E+04  0.17696842345E+04 0.  0.
        5    1    3    3  502    0 -0.18680115185E+03 -0.29923513087E+03 -0.75971024596E+03  0.83762645714E+03  0.46999998093E+01 0. -1.
       -5    1    3    3    0  502  0.18680115185E+03  0.29923513087E+03  0.86616807253E+03  0.93525694531E+03  0.46999998093E+01 0.  1.
</event>
<event>
 5   0  0.1608627E-04  0.1743375E+04  0.7818609E-02  0.8737005E-01
        2   -1    0    0  501    0  0.00000000000E+00  0.00000000000E+00  0.61483695280E+03  0.61483695281E+03  0.25500000920E-02 0.  1.
       -2   -1    0    0    0  501  0.00000000000E+00  0.00000000000E+00 -0.12358385578E+04  0.12358385578E+04  0.25500000920E-02 0. -1.
    10030    2    1    2    0    0  0.00000000000E+00  0.00000000000E+00 -0.62100160502E+03  0.18506755106E+04  0.17433751324E+04 0.  0.
        2    1    3    3  502    0 -0.42753759654E+03 -0.53644596683E+00  0.49589146173E+03  0.65474959035E+03  0.25500000920E-02 0.  1.
       -2    1    3    3    0  502  0.42753759654E+03  0.53644596683E+00 -0.11168930668E+04  0.11959259203E+04  0.25500000920E-02 0. -1.
</event>
<event>
 5   0  0.1608627E-04  0.1801522E+04  0.7818609E-02  0.8705491E-01
        2   -1    0    0  501    0  0.00000000000E+00  0.00000000000E+00  0.19076396650E+04  0.19076396650E+04  0.25500000920E-02 0.  1.
       -2   -1    0    0    0  501  0.00000000000E+00  0.00000000000E+00 -0.42532663655E+03  0.42532663655E+03  0.25500000920E-02 0. -1.
    10030    2    1    2    0    0  0.00000000000E+00  0.00000000000E+00  0.14823130285E+04  0.23329663016E+04  0.18015215375E+04 0.  0.
        2    1    3    3  502    0  0.29646912684E+01 -0.12385380065E+03 -0.41424087353E+03  0.43237027492E+03  0.25500000920E-02 0. -1.
       -2    1    3    3    0  502 -0.29646912684E+01  0.12385380065E+03  0.18965539020E+04  0.19005960267E+04  0.25500000920E-02 0.  1.
</event>
<event>
 5   0  0.1603564E-04  0.1811221E+04  0.7818609E-02  0.8700355E-01
       -2   -1    0    0    0  501  0.00000000000E+00  0.00000000000E+00  0.60666949398E+03  0.60666949399E+03  0.25500000920E-02 0. -1.
        2   -1    0    0  501    0  0.00000000000E+00  0.00000000000E+00 -0.13518576933E+04  0.13518576933E+04  0.25500000920E-02 0.  1.
    10030    2    1    2    0    0  0.00000000000E+00  0.00000000000E+00 -0.74518819936E+03  0.19585271873E+04  0.18112214914E+04 0.  0.
        5    1    3    3  502    0 -0.41190013266E+03 -0.68799783104E+03 -0.82766040138E+03  0.11524090267E+04  0.46999998093E+01 0.  1.
       -5    1    3    3    0  502  0.41190013266E+03  0.68799783104E+03  0.82472202028E+02  0.80611816063E+03  0.46999998093E+01 0. -1.
</event>
<event>
 5   0  0.1573981E-04  0.1793704E+04  0.7818609E-02  0.8709655E-01
       -2   -1    0    0    0  501  0.00000000000E+00  0.00000000000E+00  0.84677948025E+03  0.84677948026E+03  0.25500000920E-02 0.  1.
        2   -1    0    0  501    0  0.00000000000E+00  0.00000000000E+00 -0.94988566792E+03  0.94988566792E+03  0.25500000920E-02 0. -1.
    10030    2    1    2    0    0  0.00000000000E+00  0.00000000000E+00 -0.10310618766E+03  0.17966651482E+04  0.17937042032E+04 0.  0.
        1    1    3    3  502    0  0.18359872153E+03  0.86977393813E+03  0.67506478286E+02  0.89150003849E+03  0.50400001928E-02 0.  1.
       -1    1    3    3    0  502 -0.18359872153E+03 -0.86977393813E+03 -0.17061266595E+03  0.90516510969E+03  0.50400001928E-02 0. -1.
</event>
<event>
 5   0  0.1608627E-04  0.1816059E+04  0.7818609E-02  0.8697806E-01
       -2   -1    0    0    0  501  0.00000000000E+00  0.00000000000E+00  0.95674671924E+03  0.95674671925E+03  0.25500000920E-02 0.  1.
        2   -1    0    0  501    0  0.00000000000E+00  0.00000000000E+00 -0.86179266401E+03  0.86179266401E+03  0.25500000920E-02 0. -1.
    10030    2    1    2    0    0  0.00000000000E+00  0.00000000000E+00  0.94954055237E+02  0.18185393833E+04  0.18160587039E+04 0.  0.
        2    1    3    3  502    0 -0.71548464281E+03 -0.33827792224E+03 -0.39829065516E+03  0.88599417197E+03  0.25500000920E-02 0. -1.
       -2    1    3    3    0  502  0.71548464281E+03  0.33827792224E+03  0.49324471039E+03  0.93254521129E+03  0.25500000920E-02 0.  1.
</event>
<event>
 5   0  0.1573981E-04  0.1803170E+04  0.7818609E-02  0.8704615E-01
        2   -1    0    0  501    0  0.00000000000E+00  0.00000000000E+00  0.14408537810E+04  0.14408537810E+04  0.25500000920E-02 0. -1.
       -2   -1    0    0    0  501  0.00000000000E+00  0.00000000000E+00 -0.56414855567E+03  0.56414855568E+03  0.25500000920E-02 0.  1.
    10030    2    1    2    0    0  0.00000000000E+00  0.00000000000E+00  0.87670522529E+03  0.20050023366E+04  0.18031700746E+04 0.  0.
        1    1    3    3  502    0  0.56425123586E+03 -0.62748953430E+03  0.85442510593E+02  0.84818806610E+03  0.50400001928E-02 0.  1.
       -1    1    3    3    0  502 -0.56425123586E+03  0.62748953430E+03  0.79126271470E+03  0.11568142705E+04  0.50400001928E-02 0. -1.
</event>
<event>
 5   0  0.8254914E-05  0.1801050E+04  0.7818609E-02  0.8705742E-01
       -1   -1    0    0    0  501  0.00000000000E+00  0.00000000000E+00  0.66765592948E+03  0.66765592949E+03  0.50400001928E-02 0.  1.
        1   -1    0    0  501    0  0.00000000000E+00  0.00000000000E+00 -0.12146149205E+04  0.12146149205E+04  0.50400001928E-02 0. -1.
    10030    2    1    2    0    0  0.00000000000E+00  0.00000000000E+00 -0.54695899100E+03  0.18822708500E+04  0.18010495315E+04 0.  0.
        4    1    3    3  502    0 -0.39809950731E+03 -0.36391089961E+02 -0.11167991406E+04  0.11861911576E+04  0.12699999809E+01 0. -1.
       -4    1    3    3    0  502  0.39809950731E+03  0.36391089961E+02  0.56984014957E+03  0.69607969236E+03  0.12699999809E+01 0.  1.
</event>
<event>
 5   0  0.8254914E-05  0.1805919E+04  0.7818609E-02  0.8703158E-01
        1   -1    0    0  501    0  0.00000000000E+00  0.00000000000E+00  0.77692126487E+03  0.77692126488E+03  0.50400001928E-02 0. -1.
       -1   -1    0    0    0  501  0.00000000000E+00  0.00000000000E+00 -0.10494441488E+04  0.10494441488E+04  0.50400001928E-02 0.  1.
    10030    2    1    2    0    0  0.00000000000E+00  0.00000000000E+00 -0.27252288388E+03  0.18263654136E+04  0.18059185757E+04 0.  0.
        4    1    3    3  502    0  0.58494189975E+03 -0.51666075954E+03  0.32301521807E+03  0.84465129523E+03  0.12699999809E+01 0. -1.
       -4    1    3    3    0  502 -0.58494189975E+03  0.51666075954E+03 -0.59553810196E+03  0.98171411842E+03  0.12699999809E+01 0.  1.
</event>
<event>
 5   0  0.8254914E-05  0.1816835E+04  0.7818609E-02  0.8697398E-01
       -1   -1    0    0    0  501  0.00000000000E+00  0.00000000000E+00  0.38906135319E+03  0.38906135323E+03  0.50400001928E-02 0.  1.
        1   -1    0    0  501    0  0.00000000000E+00  0.00000000000E+00 -0.21210602493E+04  0.21210602493E+04  0.50400001928E-02 0. -1.
    10030    2    1    2    0    0  0.00000000000E+00  0.00000000000E+00 -0.17319988961E+04  0.25101216025E+04  0.18168352384E+04 0.  0.
        4    1    3    3  502    0  0.19422172814E+03 -0.37353743132E+03  0.24613224976E+03  0.48768328816E+03  0.12699999809E+01 0.  1.
       -4    1    3    3    0  502 -0.19422172814E+03  0.37353743132E+03 -0.19781311459E+04  0.20224383144E+04  0.12699999809E+01 0. -1.
</event>
<event>
 5   0  0.1549012E-04  0.1781640E+04  0.7818609E-02  0.8716125E-01
       -2   -1    0    0    0  501  0.00000000000E+00  0.00000000000E+00  0.54639892468E+03  0.54639892469E+03  0.25500000920E-02 0. -1.
        2   -1    0    0  501    0  0.00000000000E+00  0.00000000000E+00 -0.14523456680E+04  0.14523456680E+04  0.25500000920E-02 0.  1.
    10030    2    1    2    0    0  0.00000000000E+00  0.00000000000E+00 -0.90594674328E+03  0.19987445927E+04  0.17816398191E+04 0.  0.
        4    1    3    3  502    0  0.10629152246E+03  0.45373535900E+03 -0.13046871325E+04  0.13854182728E+04  0.12699999809E+01 0.  1.
       -4    1    3    3    0  502 -0.10629152246E+03 -0.45373535900E+03  0.39874038926E+03  0.61332631990E+03  0.12699999809E+01 0. -1.
</event>
<event>
 5   0  0.8430513E-05  0.1806061E+04  0.7818609E-02  0.8703083E-01
        1   -1    0    0  501    0  0.00000000000E+00  0.00000000000E+00  0.10012693184E+04  0.10012693184E+04  0.50400001928E-02 0. -1.
       -1   -1    0    0    0  501  0.00000000000E+00  0.00000000000E+00 -0.81443064882E+03  0.81443064883E+03  0.50400001928E-02 0.  1.
    10030    2    1    2    0    0  0.00000000000E+00  0.00000000000E+00  0.18683866954E+03  0.18156999672E+04  0.18060613728E+04 0.  0.
        5    1    3    3  502    0 -0.36636088470E+03  0.58085804662E+03  0.68291540620E+03  0.96851014975E+03  0.46999998093E+01 0. -1.
       -5    1    3    3    0  502  0.36636088470E+03 -0.58085804662E+03 -0.49607673665E+03  0.84718981746E+03  0.46999998093E+01 0.  1.
</event>
<event>
 5   0  0.8492114E-05  0.1801894E+04  0.7818609E-02  0.8705293E-01
       -1   -1    0    0    0  501  0.00000000000E+00  0.00000000000E+00  0.70439486868E+03  0.70439486870E+03  0.50400001928E-02 0. -1.
        1   -1    0    0  501    0  0.00000000000E+00  0.00000000000E+00 -0.11523440451E+04  0.11523440451E+04  0.50400001928E-02 0.  1.
    10030    2    1    2    0    0  0.00000000000E+00  0.00000000000E+00 -0.44794917642E+03  0.18567389138E+04  0.18018937065E+04 0.  0.
        2    1    3    3  502    0  0.26763666509E+03  0.64184015811E+02 -0.11079652412E+04  0.11416373978E+04  0.25500000920E-02 0.  1.
       -2    1    3    3    0  502 -0.26763666509E+03 -0.64184015811E+02  0.66001606479E+03  0.71510151599E+03  0.25500000920E-02 0. -1.
</event>
<event>
 5   0  0.8254914E-05  0.1824291E+04  0.7818609E-02  0.8693487E-01
        1   -1    0    0  501    0  0.00000000000E+00  0.00000000000E+00  0.17366409678E+04  0.17366409678E+04  0.50400001928E-02 0. -1.
       -1   -1    0    0    0  501  0.00000000000E+00  0.00000000000E+00 -0.47909141268E+03  0.47909141271E+03  0.50400001928E-02 0.  1.
    10030    2    1    2    0    0  0.00000000000E+00  0.00000000000E+00  0.12575495552E+04  0.22157323806E+04  0.18242913963E+04 0.  0.
        4    1    3    3  502    0  0.23447851864E+03  0.21631122925E+03  0.16666738934E+04  0.16969308187E+04  0.12699999809E+01 0. -1.
       -4    1    3    3    0  502 -0.23447851864E+03 -0.21631122925E+03 -0.40912433821E+03  0.51880156189E+03  0.12699999809E+01 0.  1.
</event>
<event>
 5   0  0.8254914E-05  0.1802975E+04  0.7818609E-02  0.8704719E-01
       -1   -1    0    0    0  501  0.00000000000E+00  0.00000000000E+00  0.64976283510E+03  0.64976283512E+03  0.50400001928E-02 0.  1.
        1   -1    0    0  501    0  0.00000000000E+00  0.00000000000E+00 -0.12507325881E+04  0.12507325881E+04  0.50400001928E-02 0. -1.
    10030    2    1    2    0    0  0.00000000000E+00  0.00000000000E+00 -0.60096975298E+03  0.19004954232E+04  0.18029748223E+04 0.  0.
        4    1    3    3  502    0 -0.87568031322E+00 -0.74780342775E+03  0.23020164194E+03  0.78243539173E+03  0.12699999809E+01 0.  1.
       -4    1    3    3    0  502  0.87568031322E+00  0.74780342775E+03 -0.83117139492E+03  0.11180600315E+04  0.12699999809E+01 0. -1.
</event>
<event>
 5   0  0.1628397E-04  0.1807366E+04  0.7818609E-02  0.8702392E-01
       -2   -1    0    0    0  501  0.00000000000E+00  0.00000000000E+00  0.64270877814E+03  0.64270877814E+03  0.25500000920E-02 0. -1.
        2   -1    0    0  501    0  0.00000000000E+00  0.00000000000E+00 -0.12706263580E+04  0.12706263580E+04  0.25500000920E-02 0.  1.
    10030    2    1    2    0    0  0.00000000000E+00  0.00000000000E+00 -0.62791757983E+03  0.19133351361E+04  0.18073657228E+04 0.  0.
        3    1    3    3  502    0  0.63392064836E+03  0.46103419941E+03  0.16211353018E+03  0.80043033945E+03  0.10100000352E+00 0. -1.
       -3    1    3    3    0  502 -0.63392064836E+03 -0.46103419941E+03 -0.79003111001E+03  0.11129047967E+04  0.10100000352E+00 0.  1.
</event>
<event>
 5   0  0.8492114E-05  0.1793755E+04  0.7818609E-02  0.8709628E-01
       -1   -1    0    0    0  501  0.00000000000E+00  0.00000000000E+00  0.85172455349E+03  0.85172455351E+03  0.50400001928E-02 0.  1.
        1   -1    0    0  501    0  0.00000000000E+00  0.00000000000E+00 -0.94442369434E+03  0.94442369435E+03  0.50400001928E-02 0. -1.
    10030    2    1    2    0    0  0.00000000000E+00  0.00000000000E+00 -0.92699140848E+02  0.17961482479E+04  0.17937545533E+04 0.  0.
        2    1    3    3  502    0  0.37715287100E+03 -0.56544926541E+03  0.53959084380E+03  0.86783376206E+03  0.25500000920E-02 0.  1.
       -2    1    3    3    0  502 -0.37715287100E+03  0.56544926541E+03 -0.63228998465E+03  0.92831448580E+03  0.25500000920E-02 0. -1.
</event>
<event>
 5   0  0.1628397E-04  0.1799042E+04  0.7818609E-02  0.8706809E-01
       -2   -1    0    0    0  501  0.00000000000E+00  0.00000000000E+00  0.65695176725E+03  0.65695176726E+03  0.25500000920E-02 0. -1.
        2   -1    0    0  501    0  0.00000000000E+00  0.00000000000E+00 -0.12316553068E+04  0.12316553068E+04  0.25500000920E-02 0.  1.
    10030    2    1    2    0    0  0.00000000000E+00  0.00000000000E+00 -0.57470353958E+03  0.18886070741E+04  0.17990421123E+04 0.  0.
        3    1    3    3  502    0  0.48606588541E+03 -0.46801120309E+03 -0.91181367296E+03  0.11343274287E+04  0.10100000352E+00 0.  1.
       -3    1    3    3    0  502 -0.48606588541E+03  0.46801120309E+03  0.33711013338E+03  0.75427964536E+03  0.10100000352E+00 0. -1.
</event>
<event>
 5   0  0.8430513E-05  0.1823091E+04  0.7818609E-02  0.8694115E-01
        1   -1    0    0  501    0  0.00000000000E+00  0.00000000000E+00  0.19346422409E+04  0.19346422409E+04  0.50400001928E-02 0.  1.
       -1   -1    0    0    0  501  0.00000000000E+00  0.00000000000E+00 -0.42949311369E+03  0.42949311372E+03  0.50400001928E-02 0. -1.
    10030    2    1    2    0    0  0.00000000000E+00  0.00000000000E+00  0.15051491272E+04  0.23641353546E+04  0.18230913526E+04 0.  0.
        5    1    3    3  502    0  0.61112823419E+03  0.20431619033E+03  0.15886367158E+04  0.17143545518E+04  0.46999998093E+01 0.  1.
       -5    1    3    3    0  502 -0.61112823419E+03 -0.20431619033E+03 -0.83487588664E+02  0.64978080282E+03  0.46999998093E+01 0. -1.
</event>
<event>
 5   0  0.1628397E-04  0.1808152E+04  0.7818609E-02  0.8701976E-01
       -2   -1    0    0    0  501  0.00000000000E+00  0.00000000000E+00  0.68437429456E+03  0.68437429457E+03  0.25500000920E-02 0.  1.
        2   -1    0    0  501    0  0.00000000000E+00  0.00000000000E+00 -0.11943081884E+04  0.11943081884E+04  0.25500000920E-02 0. -1.
    10030    2    1    2    0    0  0.00000000000E+00  0.00000000000E+00 -0.50993389384E+03  0.18786824830E+04  0.18081524537E+04 0.  0.
        3    1    3    3  502    0  0.39216409065E+03 -0.21162462842E+03  0.56233987922E+03  0.71749829778E+03  0.10100000352E+00 0.  1.
       -3    1    3    3    0  502 -0.39216409065E+03  0.21162462842E+03 -0.10722737731E+04  0.11611841852E+04  0.10100000352E+00 0. -1.
</event>
<event>
 5   0  0.8132598E-05  0.1827576E+04  0.7818609E-02  0.8691771E-01
        1   -1    0    0  501    0  0.00000000000E+00  0.00000000000E+00  0.90522646322E+03  0.90522646324E+03  0.50400001928E-02 0. -1.
       -1   -1    0    0    0  501  0.00000000000E+00  0.00000000000E+00 -0.92243058844E+03  0.92243058845E+03  0.50400001928E-02 0.  1.
    10030    2    1    2    0    0  0.00000000000E+00  0.00000000000E+00 -0.17204125213E+02  0.18276570517E+04  0.18275760768E+04 0.  0.
        3    1    3    3  502    0 -0.47320058834E+03 -0.78167455005E+03 -0.17243623862E+02  0.91390987070E+03  0.10100000352E+00 0. -1.
       -3    1    3    3    0  502  0.47320058834E+03  0.78167455005E+03  0.39498648473E-01  0.91374718099E+03  0.10100000352E+00 0.  1.
</event>
<event>
 5   0  0.8430513E-05  0.1791306E+04  0.7818609E-02  0.8710936E-01
        1   -1    0    0  501    0  0.00000000000E+00  0.00000000000E+00  0.14754645108E+04  0.14754645108E+04  0.50400001928E-02 0. -1.
       -1   -1    0    0    0  501  0.00000000000E+00  0.00000000000E+00 -0.54368946001E+03  0.54368946003E+03  0.50400001928E-02 0.  1.
    10030    2    1    2    0    0  0.00000000000E+00  0.00000000000E+00  0.93177505079E+03  0.20191539708E+04  0.17913062309E+04 0.  0.
        5    1    3    3  502    0 -0.21764993196E+03 -0.79877220102E+03  0.80716259824E+02  0.83183275159E+03  0.46999998093E+01 0.  1.
       -5    1    3    3    0  502  0.21764993196E+03  0.79877220102E+03  0.85105879097E+03  0.11873212193E+04  0.46999998093E+01 0. -1.
</event>
<event>
 5   0  0.1603564E-04  0.1799425E+04  0.7818609E-02  0.8706605E-01
       -2   -1    0    0    0  501  0.00000000000E+00  0.00000000000E+00  0.51740141616E+03  0.51740141616E+03  0.25500000920E-02 0.  1.
        2   -1    0    0  501    0  0.00000000000E+00  0.00000000000E+00 -0.15645159893E+04  0.15645159893E+04  0.25500000920E-02 0. -1.
    10030    2    1    2    0    0  0.00000000000E+00  0.00000000000E+00 -0.10471145731E+04  0.20819174054E+04  0.17994252287E+04 0.  0.
        5    1    3    3  502    0  0.60398719590E+03 -0.47600210223E+03  0.16748682107E+02  0.76920812690E+03  0.46999998093E+01 0.  1.
       -5    1    3    3    0  502 -0.60398719590E+03  0.47600210223E+03 -0.10638632552E+04  0.13127092785E+04  0.46999998093E+01 0. -1.
</event>
<event>
 5   0  0.8132598E-05  0.1798273E+04  0.7818609E-02  0.8707218E-01
        1   -1    0    0  501    0  0.00000000000E+00  0.00000000000E+00  0.10993756877E+04  0.10993756877E+04  0.50400001928E-02 0.  1.
       -1   -1    0    0    0  501  0.00000000000E+00  0.00000000000E+00 -0.73536858600E+03  0.73536858602E+03  0.50400001928E-02 0. -1.
    10030    2    1    2    0    0  0.00000000000E+00  0.00000000000E+00  0.36400710173E+03  0.18347442738E+04  0.17982728881E+04 0.  0.
        3    1    3    3  502    0  0.36087384117E+02 -0.20403108934E+03  0.10746857941E+04  0.10944772958E+04  0.10100000352E+00 0.  1.
       -3    1    3    3    0  502 -0.36087384117E+02  0.20403108934E+03 -0.71067869238E+03  0.74026697799E+03  0.10100000352E+00 0. -1.
</event>
<event>
 5   0  0.8492114E-05  0.1797034E+04  0.7818609E-02  0.8707878E-01
       -1   -1    0    0    0  501  0.00000000000E+00  0.00000000000E+00  0.68666204847E+03  0.68666204849E+03  0.50400001928E-02 0.  1.
        1   -1    0    0  501    0  0.00000000000E+00  0.00000000000E+00 -0.11757353043E+04  0.11757353043E+04  0.50400001928E-02 0. -1.
    10030    2    1    2    0    0  0.00000000000E+00  0.00000000000E+00 -0.48907325581E+03  0.18623973528E+04  0.17970340147E+04 0.  0.
        2    1    3    3  502    0 -0.15352580615E+03  0.77549591546E+03 -0.68711606114E+03  0.10474218680E+04  0.25500000920E-02 0. -1.
       -2    1    3    3    0  502  0.15352580615E+03 -0.77549591546E+03  0.19804280533E+03  0.81497548479E+03  0.25500000920E-02 0.  1.
</event>
<event>
 5   0  0.1608627E-04  0.1799642E+04  0.7818609E-02  0.8706490E-01
        2   -1    0    0  501    0  0.00000000000E+00  0.00000000000E+00  0.11149752621E+04  0.11149752621E+04  0.25500000920E-02 0. -1.
       -2   -1    0    0    0  501  0.00000000000E+00  0.00000000000E+00 -0.72618473161E+03  0.72618473161E+03  0.25500000920E-02 0.  1.
    10030    2    1    2    0    0  0.00000000000E+00  0.00000000000E+00  0.38879053045E+03  0.18411599937E+04  0.17996421994E+04 0.  0.
        2    1    3    3  502    0 -0.65435282896E+03  0.35880163491E+03 -0.31995747540E+03  0.81196614711E+03  0.25500000920E-02 0.  1.
       -2    1    3    3    0  502  0.65435282896E+03 -0.35880163491E+03  0.70874800585E+03  0.10291938466E+04  0.25500000920E-02 0. -1.
</event>
<event>
 5   0  0.1608627E-04  0.1777581E+04  0.7818609E-02  0.8718313E-01
       -2   -1    0    0    0  501  0.00000000000E+00  0.00000000000E+00  0.52008905121E+03  0.52008905122E+03  0.25500000920E-02 0.  1.
        2   -1    0    0  501    0  0.00000000000E+00  0.00000000000E+00 -0.15188717554E+04  0.15188717554E+04  0.25500000920E-02 0. -1.
    10030    2    1    2    0    0  0.00000000000E+00  0.00000000000E+00 -0.99878270416E+03  0.20389608066E+04  0.17775810194E+04 0.  0.
        2    1    3    3  502    0 -0.77415654419E+03  0.38511338546E+03 -0.73535304576E+03  0.11350659789E+04  0.25500000920E-02 0. -1.
       -2    1    3    3    0  502  0.77415654419E+03 -0.38511338546E+03 -0.26342965840E+03  0.90389482768E+03  0.25500000920E-02 0.  1.
</event>
<event>
 5   0  0.1549012E-04  0.1809627E+04  0.7818609E-02  0.8701196E-01
        2   -1    0    0  501    0  0.00000000000E+00  0.00000000000E+00  0.24259798372E+04  0.24259798372E+04  0.25500000920E-02 0.  1.
       -2   -1    0    0    0  501  0.00000000000E+00  0.00000000000E+00 -0.33746686791E+03  0.33746686791E+03  0.25500000920E-02 0. -1.
    10030    2    1    2    0    0  0.00000000000E+00  0.00000000000E+00  0.20885129693E+04  0.27634467052E+04  0.18096273841E+04 0.  0.
        4    1    3    3  502    0  0.84091140180E+03 -0.33366996436E+03  0.10668332014E+04  0.13987860177E+04  0.12699999809E+01 0.  1.
       -4    1    3    3    0  502 -0.84091140180E+03  0.33366996436E+03  0.10216797679E+04  0.13646606874E+04  0.12699999809E+01 0. -1.
</event>
<event>
 5   0  0.1573981E-04  0.1792664E+04  0.7818609E-02  0.8710211E-01
        2   -1    0    0  501    0  0.00000000000E+00  0.00000000000E+00  0.11346774901E+04  0.11346774901E+04  0.25500000920E-02 0.  1.
       -2   -1    0    0    0  501  0.00000000000E+00  0.00000000000E+00 -0.70805219801E+03  0.70805219801E+03  0.25500000920E-02 0. -1.
    10030    2    1    2    0    0  0.00000000000E+00  0.00000000000E+00  0.42662529211E+03  0.18427296881E+04  0.17926638178E+04 0.  0.
        1    1    3    3  502    0  0.34618655450E+03  0.14846037041E+03  0.10493698667E+04  0.11149272305E+04  0.50400001928E-02 0.  1.
       -1    1    3    3    0  502 -0.34618655450E+03 -0.14846037041E+03 -0.62274457461E+03  0.72780245763E+03  0.50400001928E-02 0. -1.
</event>
<event>
 5   0  0.5820500E-05  0.1806331E+04  0.7818609E-02  0.8702940E-01
       -4   -1    0    0    0  501  0.00000000000E+00  0.00000000000E+00  0.91584163624E+03  0.91584251679E+03  0.12699999809E+01 0.  1.
        4   -1    0    0  501    0  0.00000000000E+00  0.00000000000E+00 -0.89066311106E+03  0.89066401650E+03  0.12699999809E+01 0. -1.
    10030    2    1    2    0    0  0.00000000000E+00  0.00000000000E+00  0.25178525181E+02  0.18065065333E+04  0.18063310596E+04 0.  0.
        4    1    3    3  502    0  0.17920676405E+03 -0.44776869849E+03 -0.75109115689E+03  0.89260932691E+03  0.12699999809E+01 0. -1.
       -4    1    3    3    0  502 -0.17920676405E+03  0.44776869849E+03  0.77626968208E+03  0.91389720638E+03  0.12699999809E+01 0.  1.
</event>
<event>
 5   0  0.1549012E-04  0.1816743E+04  0.7818609E-02  0.8697446E-01
        2   -1    0    0  501    0  0.00000000000E+00  0.00000000000E+00  0.67822597483E+03  0.67822597484E+03  0.25500000920E-02 0.  1.
       -2   -1    0    0    0  501  0.00000000000E+00  0.00000000000E+00 -0.12166127434E+04  0.12166127434E+04  0.25500000920E-02 0. -1.
    10030    2    1    2    0    0  0.00000000000E+00  0.00000000000E+00 -0.53838676860E+03  0.18948387183E+04  0.18167425397E+04 0.  0.
        4    1    3    3  502    0  0.43785392964E+03 -0.43694475906E+03  0.42460851613E+03  0.75028713906E+03  0.12699999809E+01 0.  1.
       -4    1    3    3    0  502 -0.43785392964E+03  0.43694475906E+03 -0.96299528473E+03  0.11445515792E+04  0.12699999809E+01 0. -1.
</event>
<event>
 5   0  0.1573981E-04  0.1806622E+04  0.7818609E-02  0.8702786E-01
        2   -1    0    0  501    0  0.00000000000E+00  0.00000000000E+00  0.10043656964E+04  0.10043656964E+04  0.25500000920E-02 0.  1.
       -2   -1    0    0    0  501  0.00000000000E+00  0.00000000000E+00 -0.81242376333E+03  0.81242376333E+03  0.25500000920E-02 0. -1.
    10030    2    1    2    0    0  0.00000000000E+00  0.00000000000E+00  0.19194193311E+03  0.18167894598E+04  0.18066217743E+04 0.  0.
        1    1    3    3  502    0  0.93590682534E+02 -0.20494682379E+03  0.97565589775E+03  0.10013325358E+04  0.50400001928E-02 0.  1.
       -1    1    3    3    0  502 -0.93590682534E+02  0.20494682379E+03 -0.78371396464E+03  0.81545692396E+03  0.50400001928E-02 0. -1.
</event>
<event>
 5   0  0.8132598E-05  0.1826606E+04  0.7818609E-02  0.8692277E-01
       -1   -1    0    0    0  501  0.00000000000E+00  0.00000000000E+00  0.89894463925E+03  0.89894463926E+03  0.50400001928E-02 0.  1.
        1   -1    0    0  501    0  0.00000000000E+00  0.00000000000E+00 -0.92789120032E+03  0.92789120033E+03  0.50400001928E-02 0. -1.
    10030    2    1    2    0    0  0.00000000000E+00  0.00000000000E+00 -0.28946561073E+02  0.18268358396E+04  0.18266064933E+04 0.  0.
        3    1    3    3  502    0 -0.49546352258E+03  0.23300974932E+03  0.71660767013E+03  0.90183380319E+03  0.10100000352E+00 0.  1.
       -3    1    3    3    0  502  0.49546352258E+03 -0.23300974932E+03 -0.74555423120E+03  0.92500203640E+03  0.10100000352E+00 0. -1.
</event>
<event>
 5   0  0.1603564E-04  0.1820683E+04  0.7818609E-02  0.8695377E-01
       -2   -1    0    0    0  501  0.00000000000E+00  0.00000000000E+00  0.40389004269E+03  0.40389004270E+03  0.25500000920E-02 0.  1.
        2   -1    0    0  501    0  0.00000000000E+00  0.00000000000E+00 -0.20518497863E+04  0.20518497864E+04  0.25500000920E-02 0. -1.
    10030    2    1    2    0    0  0.00000000000E+00  0.00000000000E+00 -0.16479597437E+04  0.24557398290E+04  0.18206830562E+04 0.  0.
        5    1    3    3  502    0 -0.41145765191E+03 -0.51239618315E+03  0.25714002048E+02  0.65767054649E+03  0.46999998093E+01 0.  1.
       -5    1    3    3    0  502  0.41145765191E+03  0.51239618315E+03 -0.16736737457E+04  0.17980692826E+04  0.46999998093E+01 0. -1.
</event>
<event>
 5   0  0.8254914E-05  0.1824443E+04  0.7818609E-02  0.8693408E-01
       -1   -1    0    0    0  501  0.00000000000E+00  0.00000000000E+00  0.12837760149E+04  0.12837760149E+04  0.50400001928E-02 0. -1.
        1   -1    0    0  501    0  0.00000000000E+00  0.00000000000E+00 -0.64820373924E+03  0.64820373926E+03  0.50400001928E-02 0.  1.
    10030    2    1    2    0    0  0.00000000000E+00  0.00000000000E+00  0.63557227567E+03  0.19319797542E+04  0.18244433817E+04 0.  0.
        4    1    3    3  502    0  0.50999475840E+03  0.65621713985E+03 -0.80453800794E+02  0.83497905075E+03  0.12699999809E+01 0.  1.
       -4    1    3    3    0  502 -0.50999475840E+03 -0.65621713985E+03  0.71602607647E+03  0.10970007034E+04  0.12699999809E+01 0. -1.
</event>
<event>
 5   0  0.1573981E-04  0.1806618E+04  0.7818609E-02  0.8702788E-01
        2   -1    0    0  501    0  0.00000000000E+00  0.00000000000E+00  0.93166332655E+03  0.93166332655E+03  0.25500000920E-02 0.  1.
       -2   -1    0    0    0  501  0.00000000000E+00  0.00000000000E+00 -0.87581771798E+03  0.87581771799E+03  0.25500000920E-02 0. -1.
    10030    2    1    2    0    0  0.00000000000E+00  0.00000000000E+00  0.55845608565E+02  0.18074810445E+04  0.18066181097E+04 0.  0.
        1    1    3    3  502    0 -0.54464736873E+03 -0.13998518471E+02  0.74877409251E+03  0.92601261137E+03  0.50400001928E-02 0.  1.
       -1    1    3    3    0  502  0.54464736873E+03  0.13998518471E+02 -0.69292848394E+03  0.88146843316E+03  0.50400001928E-02 0. -1.
</event>
<event>
 5   0  0.1608627E-04  0.1806320E+04  0.7818609E-02  0.8702946E-01
        2   -1    0    0  501    0  0.00000000000E+00  0.00000000000E+00  0.30592760304E+04  0.30592760304E+04  0.25500000920E-02 0. -1.
       -2   -1    0    0    0  501  0.00000000000E+00  0.00000000000E+00 -0.26663111756E+03  0.26663111757E+03  0.25500000920E-02 0.  1.
    10030    2    1    2    0    0  0.00000000000E+00  0.00000000000E+00  0.27926449129E+04  0.33259071480E+04  0.18063202229E+04 0.  0.
        2    1    3    3  502    0 -0.85158504342E+03  0.24501567915E+02  0.84424871439E+03  0.11993970588E+04  0.25500000920E-02 0.  1.
       -2    1    3    3    0  502  0.85158504342E+03 -0.24501567915E+02  0.19483961985E+04  0.21265100892E+04  0.25500000920E-02 0. -1.
</event>
<event>
 5   0  0.8430513E-05  0.1839910E+04  0.7818609E-02  0.8685359E-01
        1   -1    0    0  501    0  0.00000000000E+00  0.00000000000E+00  0.90411833757E+03  0.90411833759E+03  0.50400001928E-02 0.  1.
       -1   -1    0    0    0  501  0.00000000000E+00  0.00000000000E+00 -0.93606909334E+03  0.93606909336E+03  0.50400001928E-02 0. -1.
    10030    2    1    2    0    0  0.00000000000E+00  0.00000000000E+00 -0.31950755770E+02  0.18401874309E+04  0.18399100332E+04 0.  0.
        5    1    3    3  502    0  0.47857420377E+03  0.20236235955E+03  0.74329080737E+03  0.90691074941E+03  0.46999998093E+01 0.  1.
       -5    1    3    3    0  502 -0.47857420377E+03 -0.20236235955E+03 -0.77524156314E+03  0.93327668153E+03  0.46999998093E+01 0. -1.
</event>
<event>
 5   0  0.1549012E-04  0.1787164E+04  0.7818609E-02  0.8713156E-01
       -2   -1    0    0    0  501  0.00000000000E+00  0.00000000000E+00  0.64641031174E+03  0.64641031175E+03  0.25500000920E-02 0.  1.
        2   -1    0    0  501    0  0.00000000000E+00  0.00000000000E+00 -0.12352659065E+04  0.12352659065E+04  0.25500000920E-02 0. -1.
    10030    2    1    2    0    0  0.00000000000E+00  0.00000000000E+00 -0.58885559480E+03  0.18816762183E+04  0.17871638087E+04 0.  0.
        4    1    3    3  502    0  0.76206796840E+03  0.39512655564E+03 -0.55577733095E+03  0.10226253654E+04  0.12699999809E+01 0. -1.
       -4    1    3    3    0  502 -0.76206796840E+03 -0.39512655564E+03 -0.33078263846E+02  0.85905085290E+03  0.12699999809E+01 0.  1.
</event>
<event>
 5   0  0.1603564E-04  0.1806031E+04  0.7818609E-02  0.8703099E-01
       -2   -1    0    0    0  501  0.00000000000E+00  0.00000000000E+00  0.24335160043E+04  0.24335160043E+04  0.25500000920E-02 0. -1.
        2   -1    0    0  501    0  0.00000000000E+00  0.00000000000E+00 -0.33508599673E+03  0.33508599674E+03  0.25500000920E-02 0.  1.
    10030    2    1    2    0    0  0.00000000000E+00  0.00000000000E+00  0.20984300076E+04  0.27686020010E+04  0.18060311580E+04 0.  0.
        5    1    3    3  502    0  0.46654480267E+03  0.11520387635E+03 -0.12276382932E+03  0.49601313875E+03  0.46999998093E+01 0.  1.
       -5    1    3    3    0  502 -0.46654480267E+03 -0.11520387635E+03  0.22211938369E+04  0.22725888623E+04  0.46999998093E+01 0. -1.
</event>
<event>
 5   0  0.8254914E-05  0.1794445E+04  0.7818609E-02  0.8709259E-01
       -1   -1    0    0    0  501  0.00000000000E+00  0.00000000000E+00  0.68555010079E+03  0.68555010081E+03  0.50400001928E-02 0.  1.
        1   -1    0    0  501    0  0.00000000000E+00  0.00000000000E+00 -0.11742514892E+04  0.11742514892E+04  0.50400001928E-02 0. -1.
    10030    2    1    2    0    0  0.00000000000E+00  0.00000000000E+00 -0.48870138842E+03  0.18598015900E+04  0.17944450137E+04 0.  0.
        4    1    3    3  502    0  0.38356411820E+02  0.45311327804E+03  0.55726883240E+03  0.71925866107E+03  0.12699999809E+01 0.  1.
       -4    1    3    3    0  502 -0.38356411820E+02 -0.45311327804E+03 -0.10459702208E+04  0.11405429290E+04  0.12699999809E+01 0. -1.
</event>
<event>
 5   0  0.1573981E-04  0.1793658E+04  0.7818609E-02  0.8709679E-01
       -2   -1    0    0    0  501  0.00000000000E+00  0.00000000000E+00  0.15884907444E+04  0.15884907444E+04  0.25500000920E-02 0. -1.
        2   -1    0    0  501    0  0.00000000000E+00  0.00000000000E+00 -0.50633130028E+03  0.50633130028E+03  0.25500000920E-02 0.  1.
    10030    2    1    2    0    0  0.00000000000E+00  0.00000000000E+00  0.10821594441E+04  0.20948220447E+04  0.17936583667E+04 0.  0.
        1    1    3    3  502    0 -0.20775982130E+03  0.71020441177E+03  0.11328607746E+04  0.13531178754E+04  0.50400001928E-02 0. -1.
       -1    1    3    3    0  502  0.20775982130E+03 -0.71020441177E+03 -0.50701330531E+02  0.74170416932E+03  0.50400001928E-02 0.  1.
</event>
<event>
 5   0  0.5820500E-05  0.1824055E+04  0.7818609E-02  0.8693611E-01
       -3   -1    0    0    0  501  0.00000000000E+00  0.00000000000E+00  0.74307613948E+03  0.74307614634E+03  0.10100000352E+00 0. -1.
        3   -1    0    0  501    0  0.00000000000E+00  0.00000000000E+00 -0.11193926563E+04  0.11193926608E+04  0.10100000352E+00 0.  1.
    10030    2    1    2    0    0  0.00000000000E+00  0.00000000000E+00 -0.37631651679E+03  0.18624688072E+04  0.18240548064E+04 0.  0.
        4    1    3    3  502    0  0.71394496715E+03 -0.92898609448E+02 -0.75981017223E+03  0.10467381136E+04  0.12699999809E+01 0.  1.
       -4    1    3    3    0  502 -0.71394496715E+03  0.92898609448E+02  0.38349365544E+03  0.81573069356E+03  0.12699999809E+01 0. -1.
</event>
<event>
 5   0  0.8132598E-05  0.1799549E+04  0.7818609E-02  0.8706539E-01
        1   -1    0    0  501    0  0.00000000000E+00  0.00000000000E+00  0.11278627280E+04  0.11278627281E+04  0.50400001928E-02 0. -1.
       -1   -1    0    0    0  501  0.00000000000E+00  0.00000000000E+00 -0.71781291584E+03  0.71781291586E+03  0.50400001928E-02 0.  1.
    10030    2    1    2    0    0  0.00000000000E+00  0.00000000000E+00  0.41004981221E+03  0.18456756439E+04  0.17995493141E+04 0.  0.
        3    1    3    3  502    0  0.64388207398E+03 -0.29639684449E+03 -0.36340039281E+03  0.79655198845E+03  0.10100000352E+00 0.  1.
       -3    1    3    3    0  502 -0.64388207398E+03  0.29639684449E+03  0.77345020502E+03  0.10491236555E+04  0.10100000352E+00 0. -1.
</event>
<event>
 5   0  0.8132598E-05  0.1818869E+04  0.7818609E-02  0.8696329E-01
       -1   -1    0    0    0  501  0.00000000000E+00  0.00000000000E+00  0.32375530937E+03  0.32375530941E+03  0.50400001928E-02 0. -1.
        1   -1    0    0  501    0  0.00000000000E+00  0.00000000000E+00 -0.25546181534E+04  0.25546181534E+04  0.50400001928E-02 0.  1.
    10030    2    1    2    0    0  0.00000000000E+00  0.00000000000E+00 -0.22308628440E+04  0.28783734628E+04  0.18188690889E+04 0.  0.
        3    1    3    3  502    0  0.74616814483E+03  0.49094252684E+03 -0.13862192416E+04  0.16490589016E+04  0.10100000352E+00 0.  1.
       -3    1    3    3    0  502 -0.74616814483E+03 -0.49094252684E+03 -0.84464360241E+03  0.12293145612E+04  0.10100000352E+00 0. -1.
</event>
<event>
 5   0  0.8206783E-05  0.1798761E+04  0.7818609E-02  0.8706958E-01
        1   -1    0    0  501    0  0.00000000000E+00  0.00000000000E+00  0.96761485828E+03  0.96761485830E+03  0.50400001928E-02 0. -1.
       -1   -1    0    0    0  501  0.00000000000E+00  0.00000000000E+00 -0.83595822962E+03  0.83595822963E+03  0.50400001928E-02 0.  1.
    10030    2    1    2    0    0  0.00000000000E+00  0.00000000000E+00  0.13165662867E+03  0.18035730879E+04  0.17987613559E+04 0.  0.
        1    1    3    3  502    0  0.35930892092E+03  0.38545231355E+03 -0.66496236330E+03  0.84844052903E+03  0.50400001928E-02 0.  1.
       -1    1    3    3    0  502 -0.35930892092E+03 -0.38545231355E+03  0.79661899197E+03  0.95513255890E+03  0.50400001928E-02 0. -1.
</event>
<event>
 5   0  0.1628397E-04  0.1823821E+04  0.7818609E-02  0.8693733E-01
       -2   -1    0    0    0  501  0.00000000000E+00  0.00000000000E+00  0.33685346327E+03  0.33685346328E+03  0.25500000920E-02 0. -1.
        2   -1    0    0  501    0  0.00000000000E+00  0.00000000000E+00 -0.24686730892E+04  0.24686730892E+04  0.25500000920E-02 0.  1.
    10030    2    1    2    0    0  0.00000000000E+00  0.00000000000E+00 -0.21318196259E+04  0.28055265525E+04  0.18238213507E+04 0.  0.
        3    1    3    3  502    0  0.73324822573E+03 -0.47263038315E+03 -0.14744891318E+04  0.17132281371E+04  0.10100000352E+00 0. -1.
       -3    1    3    3    0  502 -0.73324822573E+03  0.47263038315E+03 -0.65733049410E+03  0.10922984154E+04  0.10100000352E+00 0.  1.
</event>
<event>
 5   0  0.5820500E-05  0.1810707E+04  0.7818609E-02  0.8700626E-01
       -3   -1    0    0    0  501  0.00000000000E+00  0.00000000000E+00  0.92511216495E+03  0.92511217047E+03  0.10100000352E+00 0.  1.
        3   -1    0    0  501    0  0.00000000000E+00  0.00000000000E+00 -0.88601721039E+03  0.88601721615E+03  0.10100000352E+00 0. -1.
    10030    2    1    2    0    0  0.00000000000E+00  0.00000000000E+00  0.39094954560E+02  0.18111293866E+04  0.18107073865E+04 0.  0.
        3    1    3    3  502    0 -0.74094312651E+03 -0.30525497640E+02  0.53903041282E+03  0.91677822775E+03  0.10100000352E+00 0.  1.
       -3    1    3    3    0  502  0.74094312651E+03  0.30525497640E+02 -0.49993545826E+03  0.89435115886E+03  0.10100000352E+00 0. -1.
</event>
<event>
 5   0  0.1628397E-04  0.1809360E+04  0.7818609E-02  0.8701338E-01
       -2   -1    0    0    0  501  0.00000000000E+00  0.00000000000E+00  0.48407963160E+03  0.48407963160E+03  0.25500000920E-02 0.  1.
        2   -1    0    0  501    0  0.00000000000E+00  0.00000000000E+00 -0.16907249568E+04  0.16907249568E+04  0.25500000920E-02 0. -1.
    10030    2    1    2    0    0  0.00000000000E+00  0.00000000000E+00 -0.12066453252E+04  0.21748045884E+04  0.18093595709E+04 0.  0.
        3    1    3    3  502    0 -0.66312655239E+03 -0.47691916793E+03 -0.13585368671E+03  0.82803680572E+03  0.10100000352E+00 0.  1.
       -3    1    3    3    0  502  0.66312655239E+03  0.47691916793E+03 -0.10707916385E+04  0.13467677827E+04  0.10100000352E+00 0. -1.
</event>
<event>
 5   0  0.1603564E-04  0.1800120E+04  0.7818609E-02  0.8706235E-01
       -2   -1    0    0    0  501  0.00000000000E+00  0.00000000000E+00  0.63000592732E+03  0.63000592733E+03  0.25500000920E-02 0.  1.
        2   -1    0    0  501    0  0.00000000000E+00  0.00000000000E+00 -0.12858742079E+04  0.12858742079E+04  0.25500000920E-02 0. -1.
    10030    2    1    2    0    0  0.00000000000E+00  0.00000000000E+00 -0.65586828058E+03  0.19158801352E+04  0.18001204102E+04 0.  0.
        5    1    3    3  502    0 -0.37272178618E+03  0.42324935164E+03 -0.10744864584E+04  0.12135092842E+04  0.46999998093E+01 0. -1.
       -5    1    3    3    0  502  0.37272178618E+03 -0.42324935164E+03  0.41861817783E+03  0.70237085102E+03  0.46999998093E+01 0.  1.
</event>
<event>
 5   0  0.8492114E-05  0.1795540E+04  0.7818609E-02  0.8708675E-01
        1   -1    0    0  501    0  0.00000000000E+00  0.00000000000E+00  0.15457225871E+04  0.15457225872E+04  0.50400001928E-02 0. -1.
       -1   -1    0    0    0  501  0.00000000000E+00  0.00000000000E+00 -0.52143286305E+03  0.52143286307E+03  0.50400001928E-02 0.  1.
    10030    2    1    2    0    0  0.00000000000E+00  0.00000000000E+00  0.10242897241E+04  0.20671554502E+04  0.17955395335E+04 0.  0.
        2    1    3    3  502    0 -0.61388809414E+03 -0.21372117932E+03  0.12250561512E+04  0.13868301656E+04  0.25500000920E-02 0. -1.
       -2    1    3    3    0  502  0.61388809414E+03  0.21372117932E+03 -0.20076642711E+03  0.68032528461E+03  0.25500000920E-02 0.  1.
</event>
<event>
 5   0  0.8254914E-05  0.1801184E+04  0.7818609E-02  0.8705670E-01
       -1   -1    0    0    0  501  0.00000000000E+00  0.00000000000E+00  0.10502873393E+04  0.10502873393E+04  0.50400001928E-02 0.  1.
        1   -1    0    0  501    0  0.00000000000E+00  0.00000000000E+00 -0.77223236084E+03  0.77223236086E+03  0.50400001928E-02 0. -1.
    10030    2    1    2    0    0  0.00000000000E+00  0.00000000000E+00  0.27805497849E+03  0.18225197002E+04  0.18011839125E+04 0.  0.
        4    1    3    3  502    0  0.45786073657E+03  0.40730734825E+03  0.80679068077E+03  0.10131379696E+04  0.12699999809E+01 0.  1.
       -4    1    3    3    0  502 -0.45786073657E+03 -0.40730734825E+03 -0.52873570228E+03  0.80938173058E+03  0.12699999809E+01 0. -1.
</event>
<event>
 5   0  0.1608627E-04  0.1573505E+04  0.7818609E-02  0.8836992E-01
       -2   -1    0    0    0  501  0.00000000000E+00  0.00000000000E+00  0.32241771471E+03  0.32241771472E+03  0.25500000920E-02 0. -1.
        2   -1    0    0  501    0  0.00000000000E+00  0.00000000000E+00 -0.19198053148E+04  0.19198053148E+04  0.25500000920E-02 0.  1.
    10030    2    1    2    0    0  0.00000000000E+00  0.00000000000E+00 -0.15973876001E+04  0.22422230295E+04  0.15735046772E+04 0.  0.
        2    1    3    3  502    0  0.21510847565E+03  0.72056046368E+02  0.27480024355E+03  0.35634099396E+03  0.25500000920E-02 0. -1.
       -2    1    3    3    0  502 -0.21510847565E+03 -0.72056046368E+02 -0.18721878436E+04  0.18858820355E+04  0.25500000920E-02 0.  1.
</event>
<event>
 5   0  0.1628397E-04  0.1805521E+04  0.7818609E-02  0.8703369E-01
       -2   -1    0    0    0  501  0.00000000000E+00  0.00000000000E+00  0.76925472049E+03  0.76925472050E+03  0.25500000920E-02 0.  1.
        2   -1    0    0  501    0  0.00000000000E+00  0.00000000000E+00 -0.10594359861E+04  0.10594359861E+04  0.25500000920E-02 0. -1.
    10030    2    1    2    0    0  0.00000000000E+00  0.00000000000E+00 -0.29018126558E+03  0.18286907066E+04  0.18055205713E+04 0.  0.
        3    1    3    3  502    0  0.53989439551E+03  0.63542065739E+03  0.20537115641E+03  0.85873319036E+03  0.10100000352E+00 0.  1.
       -3    1    3    3    0  502 -0.53989439551E+03 -0.63542065739E+03 -0.49555242199E+03  0.96995751622E+03  0.10100000352E+00 0. -1.
</event>
<event>
 5   0  0.8206783E-05  0.1818472E+04  0.7818609E-02  0.8696537E-01
       -1   -1    0    0    0  501  0.00000000000E+00  0.00000000000E+00  0.99948409644E+03  0.99948409645E+03  0.50400001928E-02 0.  1.
        1   -1    0    0  501    0  0.00000000000E+00  0.00000000000E+00 -0.82713704901E+03  0.82713704902E+03  0.50400001928E-02 0. -1.
    10030    2    1    2    0    0  0.00000000000E+00  0.00000000000E+00  0.17234704743E+03  0.18266211455E+04  0.18184722446E+04 0.  0.
        1    1    3    3  502    0  0.14883281204E+03 -0.53014911216E+03 -0.64060247744E+03  0.84473713141E+03  0.50400001928E-02 0. -1.
       -1    1    3    3    0  502 -0.14883281204E+03  0.53014911216E+03  0.81294952487E+03  0.98188401406E+03  0.50400001928E-02 0.  1.
</event>
<event>
 5   0  0.1603564E-04  0.1804514E+04  0.7818609E-02  0.8703903E-01
        2   -1    0    0  501    0  0.00000000000E+00  0.00000000000E+00  0.93123735071E+03  0.93123735072E+03  0.25500000920E-02 0. -1.
       -2   -1    0    0    0  501  0.00000000000E+00  0.00000000000E+00 -0.87417869815E+03  0.87417869816E+03  0.25500000920E-02 0.  1.
    10030    2    1    2    0    0  0.00000000000E+00  0.00000000000E+00  0.57058652560E+02  0.18054160489E+04  0.18045141783E+04 0.  0.
        5    1    3    3  502    0 -0.14008768133E+03 -0.83969511359E+03 -0.27050685890E+03  0.89325723784E+03  0.46999998093E+01 0.  1.
       -5    1    3    3    0  502  0.14008768133E+03  0.83969511359E+03  0.32756551146E+03  0.91215881103E+03  0.46999998093E+01 0. -1.
</event>
<event>
 5   0  0.8254914E-05  0.1707934E+04  0.7818609E-02  0.8756852E-01
       -1   -1    0    0    0  501  0.00000000000E+00  0.00000000000E+00  0.40300799808E+03  0.40300799811E+03  0.50400001928E-02 0. -1.
        1   -1    0    0  501    0  0.00000000000E+00  0.00000000000E+00 -0.18095422910E+04  0.18095422910E+04  0.50400001928E-02 0.  1.
    10030    2    1    2    0    0  0.00000000000E+00  0.00000000000E+00 -0.14065342929E+04  0.22125502891E+04  0.17079344439E+04 0.  0.
        4    1    3    3  502    0  0.18719654852E+03 -0.63841405240E+03 -0.13968412853E+04  0.15471852634E+04  0.12699999809E+01 0.  1.
       -4    1    3    3    0  502 -0.18719654852E+03  0.63841405240E+03 -0.96930075749E+01  0.66536502567E+03  0.12699999809E+01 0. -1.
</event>
<event>
 5   0  0.8430513E-05  0.1826632E+04  0.7818609E-02  0.8692264E-01
        1   -1    0    0  501    0  0.00000000000E+00  0.00000000000E+00  0.13212397110E+04  0.13212397110E+04  0.50400001928E-02 0. -1.
       -1   -1    0    0    0  501  0.00000000000E+00  0.00000000000E+00 -0.63133578294E+03  0.63133578296E+03  0.50400001928E-02 0.  1.
    10030    2    1    2    0    0  0.00000000000E+00  0.00000000000E+00  0.68990392809E+03  0.19525754940E+04  0.18266317718E+04 0.  0.
        5    1    3    3  502    0 -0.40838281860E+03  0.79484364371E+03  0.14334566885E+03  0.90505415045E+03  0.46999998093E+01 0.  1.
       -5    1    3    3    0  502  0.40838281860E+03 -0.79484364371E+03  0.54655825924E+03  0.10475213436E+04  0.46999998093E+01 0. -1.
</event>
<event>
 5   0  0.1608627E-04  0.1806048E+04  0.7818609E-02  0.8703090E-01
       -2   -1    0    0    0  501  0.00000000000E+00  0.00000000000E+00  0.72493606969E+03  0.72493606969E+03  0.25500000920E-02 0.  1.
        2   -1    0    0  501    0  0.00000000000E+00  0.00000000000E+00 -0.11248605311E+04  0.11248605311E+04  0.25500000920E-02 0. -1.
    10030    2    1    2    0    0  0.00000000000E+00  0.00000000000E+00 -0.39992446143E+03  0.18497966008E+04  0.18060475878E+04 0.  0.
        2    1    3    3  502    0  0.59442745850E+03 -0.30417272607E+02 -0.89551697776E+03  0.10752766488E+04  0.25500000920E-02 0. -1.
       -2    1    3    3    0  502 -0.59442745850E+03  0.30417272607E+02  0.49559251633E+03  0.77451995206E+03  0.25500000920E-02 0.  1.
</event>
<event>
 5   0  0.8206783E-05  0.1804956E+04  0.7818609E-02  0.8703668E-01
       -1   -1    0    0    0  501  0.00000000000E+00  0.00000000000E+00  0.39578139811E+03  0.39578139814E+03  0.50400001928E-02 0. -1.
        1   -1    0    0  501    0  0.00000000000E+00  0.00000000000E+00 -0.20578700770E+04  0.20578700770E+04  0.50400001928E-02 0.  1.
    10030    2    1    2    0    0  0.00000000000E+00  0.00000000000E+00 -0.16620886789E+04  0.24536514751E+04  0.18049561726E+04 0.  0.
        1    1    3    3  502    0  0.15352065165E+02  0.52917338154E+02 -0.20555814413E+04  0.20563197690E+04  0.50400001928E-02 0.  1.
       -1    1    3    3    0  502 -0.15352065165E+02 -0.52917338154E+02  0.39349276243E+03  0.39733170612E+03  0.50400001928E-02 0. -1.
</event>
<event>
 5   0  0.8492114E-05  0.1914181E+04  0.7818609E-02  0.8647830E-01
       -1   -1    0    0    0  501  0.00000000000E+00  0.00000000000E+00  0.18072975302E+04  0.18072975302E+04  0.50400001928E-02 0.  1.
        1   -1    0    0  501    0  0.00000000000E+00  0.00000000000E+00 -0.50684624845E+03  0.50684624847E+03  0.50400001928E-02 0. -1.
    10030    2    1    2    0    0  0.00000000000E+00  0.00000000000E+00  0.13004512818E+04  0.23141437787E+04  0.19141807366E+04 0.  0.
        2    1    3    3  502    0  0.18227086469E+03 -0.69911336013E+02 -0.48252109117E+03  0.52051596176E+03  0.25500000920E-02 0. -1.
       -2    1    3    3    0  502 -0.18227086469E+03  0.69911336013E+02  0.17829723729E+04  0.17936278169E+04  0.25500000920E-02 0.  1.
</event>
<event>
 5   0  0.1603564E-04  0.1802549E+04  0.7818609E-02  0.8704945E-01
        2   -1    0    0  501    0  0.00000000000E+00  0.00000000000E+00  0.10293656196E+04  0.10293656196E+04  0.25500000920E-02 0. -1.
       -2   -1    0    0    0  501  0.00000000000E+00  0.00000000000E+00 -0.78912295794E+03  0.78912295794E+03  0.25500000920E-02 0.  1.
    10030    2    1    2    0    0  0.00000000000E+00  0.00000000000E+00  0.24024266164E+03  0.18184885775E+04  0.18025493530E+04 0.  0.
        5    1    3    3  502    0 -0.33255567811E+03  0.59440807148E+03 -0.47531780858E+03  0.83058012476E+03  0.46999998093E+01 0.  1.
       -5    1    3    3    0  502  0.33255567811E+03 -0.59440807148E+03  0.71556047023E+03  0.98790845276E+03  0.46999998093E+01 0. -1.
</event>
<event>
 5   0  0.1549012E-04  0.1800760E+04  0.7818609E-02  0.8705895E-01
        2   -1    0    0  501    0  0.00000000000E+00  0.00000000000E+00  0.14172076482E+04  0.14172076482E+04  0.25500000920E-02 0. -1.
       -2   -1    0    0    0  501  0.00000000000E+00  0.00000000000E+00 -0.57202915434E+03  0.57202915434E+03  0.25500000920E-02 0.  1.
    10030    2    1    2    0    0  0.00000000000E+00  0.00000000000E+00  0.84517849386E+03  0.19892368025E+04  0.18007599424E+04 0.  0.
        4    1    3    3  502    0  0.64100388135E+03  0.56396962238E+03  0.73840521395E+03  0.11288009496E+04  0.12699999809E+01 0. -1.
       -4    1    3    3    0  502 -0.64100388135E+03 -0.56396962238E+03  0.10677327992E+03  0.86043585297E+03  0.12699999809E+01 0.  1.
</event>
<event>
 5   0  0.8492114E-05  0.1749518E+04  0.7818609E-02  0.8733616E-01
       -1   -1    0    0    0  501  0.00000000000E+00  0.00000000000E+00  0.53799628037E+03  0.53799628039E+03  0.50400001928E-02 0. -1.
        1   -1    0    0  501    0  0.00000000000E+00  0.00000000000E+00 -0.14223204181E+04  0.14223204181E+04  0.50400001928E-02 0.  1.
    10030    2    1    2    0    0  0.00000000000E+00  0.00000000000E+00 -0.88432413775E+03  0.19603166985E+04  0.17495177558E+04 0.  0.
        2    1    3    3  502    0  0.19542224082E+03  0.84889946498E+03 -0.35264243714E+03  0.93977488918E+03  0.25500000920E-02 0.  1.
       -2    1    3    3    0  502 -0.19542224082E+03 -0.84889946498E+03 -0.53168170060E+03  0.10205418093E+04  0.25500000920E-02 0. -1.
</event>
<event>
 5   0  0.8132598E-05  0.1794210E+04  0.7818609E-02  0.8709384E-01
       -1   -1    0    0    0  501  0.00000000000E+00  0.00000000000E+00  0.66787284278E+03  0.66787284280E+03  0.50400001928E-02 0.  1.
        1   -1    0    0  501    0  0.00000000000E+00  0.00000000000E+00 -0.12050165341E+04  0.12050165341E+04  0.50400001928E-02 0. -1.
    10030    2    1    2    0    0  0.00000000000E+00  0.00000000000E+00 -0.53714369133E+03  0.18728893769E+04  0.17942104874E+04 0.  0.
        3    1    3    3  502    0  0.55525231985E+02  0.56995611903E+03  0.45226397321E+03  0.72970935355E+03  0.10100000352E+00 0.  1.
       -3    1    3    3    0  502 -0.55525231985E+02 -0.56995611903E+03 -0.98940766454E+03  0.11431800234E+04  0.10100000352E+00 0. -1.
</event>
<event>
 5   0  0.8492114E-05  0.1794282E+04  0.7818609E-02  0.8709346E-01
        1   -1    0    0  501    0  0.00000000000E+00  0.00000000000E+00  0.11414354761E+04  0.11414354761E+04  0.50400001928E-02 0. -1.
       -1   -1    0    0    0  501  0.00000000000E+00  0.00000000000E+00 -0.70513129690E+03  0.70513129692E+03  0.50400001928E-02 0.  1.
    10030    2    1    2    0    0  0.00000000000E+00  0.00000000000E+00  0.43630417919E+03  0.18465667730E+04  0.17942818927E+04 0.  0.
        2    1    3    3  502    0 -0.70040440393E+02  0.12307550806E+03 -0.69355688159E+03  0.70786608336E+03  0.25500000920E-02 0.  1.
       -2    1    3    3    0  502  0.70040440393E+02 -0.12307550806E+03  0.11298610608E+04  0.11387006897E+04  0.25500000920E-02 0. -1.
</event>
<event>
 5   0  0.1628397E-04  0.1793978E+04  0.7818609E-02  0.8709508E-01
       -2   -1    0    0    0  501  0.00000000000E+00  0.00000000000E+00  0.83326159276E+03  0.83326159277E+03  0.25500000920E-02 0.  1.
        2   -1    0    0  501    0  0.00000000000E+00  0.00000000000E+00 -0.96559066192E+03  0.96559066193E+03  0.25500000920E-02 0. -1.
    10030    2    1    2    0    0  0.00000000000E+00  0.00000000000E+00 -0.13232906916E+03  0.17988522547E+04  0.17939783866E+04 0.  0.
        3    1    3    3  502    0 -0.15262731368E+03 -0.84735202527E+03  0.18609209021E+03  0.88086935913E+03  0.10100000352E+00 0.  1.
       -3    1    3    3    0  502  0.15262731368E+03  0.84735202527E+03 -0.31842115937E+03  0.91798289556E+03  0.10100000352E+00 0. -1.
</event>
<event>
 5   0  0.5820500E-05  0.1808473E+04  0.7818609E-02  0.8701807E-01
        3   -1    0    0  501    0  0.00000000000E+00  0.00000000000E+00  0.19155227942E+04  0.19155227969E+04  0.10100000352E+00 0.  1.
       -3   -1    0    0    0  501  0.00000000000E+00  0.00000000000E+00 -0.42685140423E+03  0.42685141618E+03  0.10100000352E+00 0. -1.
    10030    2    1    2    0    0  0.00000000000E+00  0.00000000000E+00  0.14886713900E+04  0.23423742131E+04  0.18084729599E+04 0.  0.
        1    1    3    3  502    0 -0.47396465488E+03 -0.39828969584E+03 -0.10929964885E+03  0.62866810731E+03  0.50400001928E-02 0. -1.
       -1    1    3    3    0  502  0.47396465488E+03  0.39828969584E+03  0.15979710388E+04  0.17137061058E+04  0.50400001928E-02 0.  1.
</event>
<event>
 5   0  0.8254914E-05  0.1788223E+04  0.7818609E-02  0.8712587E-01
       -1   -1    0    0    0  501  0.00000000000E+00  0.00000000000E+00  0.73074142395E+03  0.73074142397E+03  0.50400001928E-02 0.  1.
        1   -1    0    0  501    0  0.00000000000E+00  0.00000000000E+00 -0.10940062395E+04  0.10940062395E+04  0.50400001928E-02 0. -1.
    10030    2    1    2    0    0  0.00000000000E+00  0.00000000000E+00 -0.36326481553E+03  0.18247476635E+04  0.17882233387E+04 0.  0.
        4    1    3    3  502    0 -0.24243012664E+02  0.85178715730E+03 -0.45791135690E+03  0.96737454416E+03  0.12699999809E+01 0.  1.
       -4    1    3    3    0  502  0.24243012664E+02 -0.85178715730E+03  0.94646541369E+02  0.85737311930E+03  0.12699999809E+01 0. -1.
</event>
<event>
 5   0  0.8132598E-05  0.1780596E+04  0.7818609E-02  0.8716687E-01
       -1   -1    0    0    0  501  0.00000000000E+00  0.00000000000E+00  0.62951590476E+03  0.62951590478E+03  0.50400001928E-02 0.  1.
        1   -1    0    0  501    0  0.00000000000E+00  0.00000000000E+00 -0.12591111111E+04  0.12591111111E+04  0.50400001928E-02 0. -1.
    10030    2    1    2    0    0  0.00000000000E+00  0.00000000000E+00 -0.62959520636E+03  0.18886270159E+04  0.17805959343E+04 0.  0.
        3    1    3    3  502    0  0.29123863895E+03 -0.28846721276E+02  0.57703611383E+03  0.64701063747E+03  0.10100000352E+00 0.  1.
       -3    1    3    3    0  502 -0.29123863895E+03  0.28846721276E+02 -0.12066313202E+04  0.12416163784E+04  0.10100000352E+00 0. -1.
</event>
<event>
 5   0  0.1573981E-04  0.1786195E+04  0.7818609E-02  0.8713675E-01
        2   -1    0    0  501    0  0.00000000000E+00  0.00000000000E+00  0.16961066715E+04  0.16961066715E+04  0.25500000920E-02 0. -1.
       -2   -1    0    0    0  501  0.00000000000E+00  0.00000000000E+00 -0.47026712176E+03  0.47026712177E+03  0.25500000920E-02 0.  1.
    10030    2    1    2    0    0  0.00000000000E+00  0.00000000000E+00  0.12258395498E+04  0.21663737933E+04  0.17861950651E+04 0.  0.
        1    1    3    3  502    0 -0.35227306158E+03  0.59465081043E+03 -0.73079055799E+02  0.69501542766E+03  0.50400001928E-02 0.  1.
       -1    1    3    3    0  502  0.35227306158E+03 -0.59465081043E+03  0.12989186056E+04  0.14713583657E+04  0.50400001928E-02 0. -1.
</event>
<event>
 5   0  0.8206783E-05  0.1783937E+04  0.7818609E-02  0.8714889E-01
       -1   -1    0    0    0  501  0.00000000000E+00  0.00000000000E+00  0.84647921474E+03  0.84647921475E+03  0.50400001928E-02 0.  1.
        1   -1    0    0  501    0  0.00000000000E+00  0.00000000000E+00 -0.93990196197E+03  0.93990196198E+03  0.50400001928E-02 0. -1.
    10030    2    1    2    0    0  0.00000000000E+00  0.00000000000E+00 -0.93422747226E+02  0.17863811767E+04  0.17839366297E+04 0.  0.
        1    1    3    3  502    0 -0.43192850437E+03  0.76081685207E+03 -0.22073950637E+03  0.90229177375E+03  0.50400001928E-02 0. -1.
       -1    1    3    3    0  502  0.43192850437E+03 -0.76081685207E+03  0.12731675914E+03  0.88408940298E+03  0.50400001928E-02 0.  1.
</event>
<event>
 5   0  0.1628397E-04  0.1736655E+04  0.7818609E-02  0.8740731E-01
       -2   -1    0    0    0  501  0.00000000000E+00  0.00000000000E+00  0.10922211935E+04  0.10922211935E+04  0.25500000920E-02 0.  1.
        2   -1    0    0  501    0  0.00000000000E+00  0.00000000000E+00 -0.69032952322E+03  0.69032952322E+03  0.25500000920E-02 0. -1.
    10030    2    1    2    0    0  0.00000000000E+00  0.00000000000E+00  0.40189167031E+03  0.17825507168E+04  0.17366548716E+04 0.  0.
        3    1    3    3  502    0  0.15184504131E+03  0.60151496940E+03  0.82455060680E+03  0.10318725155E+04  0.10100000352E+00 0.  1.
       -3    1    3    3    0  502 -0.15184504131E+03 -0.60151496940E+03 -0.42265893648E+03  0.75067820121E+03  0.10100000352E+00 0. -1.
</event>
<event>
 5   0  0.1628397E-04  0.1785482E+04  0.7818609E-02  0.8714058E-01
       -2   -1    0    0    0  501  0.00000000000E+00  0.00000000000E+00  0.36235449680E+03  0.36235449681E+03  0.25500000920E-02 0. -1.
        2   -1    0    0  501    0  0.00000000000E+00  0.00000000000E+00 -0.21994668002E+04  0.21994668002E+04  0.25500000920E-02 0.  1.
    10030    2    1    2    0    0  0.00000000000E+00  0.00000000000E+00 -0.18371123034E+04  0.25618212970E+04  0.17854822157E+04 0.  0.
        3    1    3    3  502    0  0.60183924542E+02  0.50071767695E+03 -0.19754996158E+04  0.20388572876E+04  0.10100000352E+00 0. -1.
       -3    1    3    3    0  502 -0.60183924542E+02 -0.50071767695E+03  0.13838731237E+03  0.52296400948E+03  0.10100000352E+00 0.  1.
</event>
<event>
 5   0  0.1549012E-04  0.1794501E+04  0.7818609E-02  0.8709229E-01
        2   -1    0    0  501    0  0.00000000000E+00  0.00000000000E+00  0.16247757843E+04  0.16247757843E+04  0.25500000920E-02 0.  1.
       -2   -1    0    0    0  501  0.00000000000E+00  0.00000000000E+00 -0.49548898958E+03  0.49548898958E+03  0.25500000920E-02 0. -1.
    10030    2    1    2    0    0  0.00000000000E+00  0.00000000000E+00  0.11292867947E+04  0.21202647739E+04  0.17945010579E+04 0.  0.
        4    1    3    3  502    0  0.58596910918E+03 -0.65450375729E+03  0.34896260207E+03  0.94525735954E+03  0.12699999809E+01 0. -1.
       -4    1    3    3    0  502 -0.58596910918E+03  0.65450375729E+03  0.78032419265E+03  0.11750074143E+04  0.12699999809E+01 0.  1.
</event>
<event>
 5   0  0.8430513E-05  0.1812183E+04  0.7818609E-02  0.8699848E-01
        1   -1    0    0  501    0  0.00000000000E+00  0.00000000000E+00  0.14012962177E+04  0.14012962177E+04  0.50400001928E-02 0. -1.
       -1   -1    0    0    0  501  0.00000000000E+00  0.00000000000E+00 -0.58588712942E+03  0.58588712944E+03  0.50400001928E-02 0.  1.
    10030    2    1    2    0    0  0.00000000000E+00  0.00000000000E+00  0.81540908825E+03  0.19871833471E+04  0.18121825719E+04 0.  0.
        5    1    3    3  502    0  0.43738174963E+03 -0.78919857863E+03  0.31699940917E+03  0.95637226373E+03  0.46999998093E+01 0.  1.
       -5    1    3    3    0  502 -0.43738174963E+03  0.78919857863E+03  0.49840967908E+03  0.10308110834E+04  0.46999998093E+01 0. -1.
</event>
<event>
 5   0  0.1549012E-04  0.1790471E+04  0.7818609E-02  0.8711383E-01
       -2   -1    0    0    0  501  0.00000000000E+00  0.00000000000E+00  0.11121099541E+04  0.11121099541E+04  0.25500000920E-02 0.  1.
        2   -1    0    0  501    0  0.00000000000E+00  0.00000000000E+00 -0.72065387100E+03  0.72065387100E+03  0.25500000920E-02 0. -1.
    10030    2    1    2    0    0  0.00000000000E+00  0.00000000000E+00  0.39145608308E+03  0.18327638251E+04  0.17904707128E+04 0.  0.
        4    1    3    3  502    0 -0.48872510235E+03 -0.47912638275E+03 -0.39499135507E+03  0.79021142727E+03  0.12699999809E+01 0. -1.
       -4    1    3    3    0  502  0.48872510235E+03  0.47912638275E+03  0.78644743815E+03  0.10425523978E+04  0.12699999809E+01 0.  1.
</event>
<event>
 5   0  0.8430513E-05  0.1773120E+04  0.7818609E-02  0.8720726E-01
       -1   -1    0    0    0  501  0.00000000000E+00  0.00000000000E+00  0.12152562526E+04  0.12152562526E+04  0.50400001928E-02 0.  1.
        1   -1    0    0  501    0  0.00000000000E+00  0.00000000000E+00 -0.64676799709E+03  0.64676799711E+03  0.50400001928E-02 0. -1.
    10030    2    1    2    0    0  0.00000000000E+00  0.00000000000E+00  0.56848825547E+03  0.18620242497E+04  0.17731202469E+04 0.  0.
        5    1    3    3  502    0  0.35110546730E+03 -0.20358821533E+03 -0.54346565983E+03  0.67830688040E+03  0.46999998093E+01 0. -1.
       -5    1    3    3    0  502 -0.35110546730E+03  0.20358821533E+03  0.11119539153E+04  0.11837173693E+04  0.46999998093E+01 0.  1.
</event>
<event>
 5   0  0.1573981E-04  0.1817816E+04  0.7818609E-02  0.8696882E-01
       -2   -1    0    0    0  501  0.00000000000E+00  0.00000000000E+00  0.47843985100E+03  0.47843985101E+03  0.25500000920E-02 0.  1.
        2   -1    0    0  501    0  0.00000000000E+00  0.00000000000E+00 -0.17266833452E+04  0.17266833452E+04  0.25500000920E-02 0. -1.
    10030    2    1    2    0    0  0.00000000000E+00  0.00000000000E+00 -0.12482434942E+04  0.22051231962E+04  0.18178164070E+04 0.  0.
        1    1    3    3  502    0 -0.79169595554E+03 -0.29240063721E+03 -0.10333992664E+04  0.13342393573E+04  0.50400001928E-02 0. -1.
       -1    1    3    3    0  502  0.79169595554E+03  0.29240063721E+03 -0.21484422777E+03  0.87088383892E+03  0.50400001928E-02 0.  1.
</event>
<event>
 5   0  0.8492114E-05  0.1807984E+04  0.7818609E-02  0.8702065E-01
       -1   -1    0    0    0  501  0.00000000000E+00  0.00000000000E+00  0.80946053212E+03  0.80946053214E+03  0.50400001928E-02 0.  1.
        1   -1    0    0  501    0  0.00000000000E+00  0.00000000000E+00 -0.10095636754E+04  0.10095636754E+04  0.50400001928E-02 0. -1.
    10030    2    1    2    0    0  0.00000000000E+00  0.00000000000E+00 -0.20010314326E+03  0.18190242075E+04  0.18079844578E+04 0.  0.
        2    1    3    3  502    0 -0.32939481418E+03  0.41395605969E+03 -0.83756330129E+03  0.99064264326E+03  0.25500000920E-02 0. -1.
       -2    1    3    3    0  502  0.32939481418E+03 -0.41395605969E+03  0.63746015803E+03  0.82838156428E+03  0.25500000920E-02 0.  1.
</event>
<event>
 5   0  0.1603564E-04  0.1786367E+04  0.7818609E-02  0.8713583E-01
        2   -1    0    0  501    0  0.00000000000E+00  0.00000000000E+00  0.68060841688E+03  0.68060841688E+03  0.25500000920E-02 0.  1.
       -2   -1    0    0    0  501  0.00000000000E+00  0.00000000000E+00 -0.11721517339E+04  0.11721517339E+04  0.25500000920E-02 0. -1.
    10030    2    1    2    0    0  0.00000000000E+00  0.00000000000E+00 -0.49154331704E+03  0.18527601508E+04  0.17863665200E+04 0.  0.
        5    1    3    3  502    0 -0.70618518889E+01  0.60903096105E+03  0.43179736401E+03  0.74661880155E+03  0.46999998093E+01 0.  1.
       -5    1    3    3    0  502  0.70618518889E+01 -0.60903096105E+03 -0.92334068104E+03  0.11061413493E+04  0.46999998093E+01 0. -1.
</event>
<event>
 5   0  0.8132598E-05  0.1803508E+04  0.7818609E-02  0.8704436E-01
       -1   -1    0    0    0  501  0.00000000000E+00  0.00000000000E+00  0.10242597848E+04  0.10242597849E+04  0.50400001928E-02 0.  1.
        1   -1    0    0  501    0  0.00000000000E+00  0.00000000000E+00 -0.79389999706E+03  0.79389999707E+03  0.50400001928E-02 0. -1.
    10030    2    1    2    0    0  0.00000000000E+00  0.00000000000E+00  0.23035978779E+03  0.18181597819E+04  0.18035075161E+04 0.  0.
        3    1    3    3  502    0 -0.36215958509E+03  0.76318726226E+03  0.43325145164E+03  0.94937937249E+03  0.10100000352E+00 0.  1.
       -3    1    3    3    0  502  0.36215958509E+03 -0.76318726226E+03 -0.20289166386E+03  0.86878040944E+03  0.10100000352E+00 0. -1.
</event>
<event>
 5   0  0.8132598E-05  0.1778141E+04  0.7818609E-02  0.8718011E-01
        1   -1    0    0  501    0  0.00000000000E+00  0.00000000000E+00  0.61673269801E+03  0.61673269803E+03  0.50400001928E-02 0.  1.
       -1   -1    0    0    0  501  0.00000000000E+00  0.00000000000E+00 -0.12816673353E+04  0.12816673354E+04  0.50400001928E-02 0. -1.
    10030    2    1    2    0    0  0.00000000000E+00  0.00000000000E+00 -0.66493463734E+03  0.18984000334E+04  0.17781407748E+04 0.  0.
        3    1    3    3  502    0 -0.69175623666E+03 -0.54318182233E+03 -0.19378623196E+03  0.90062550317E+03  0.10100000352E+00 0.  1.
       -3    1    3    3    0  502  0.69175623666E+03  0.54318182233E+03 -0.47114840537E+03  0.99777453022E+03  0.10100000352E+00 0. -1.
</event>
<event>
 5   0  0.5820500E-05  0.1790378E+04  0.7818609E-02  0.8711433E-01
        3   -1    0    0  501    0  0.00000000000E+00  0.00000000000E+00  0.83691077615E+03  0.83691078225E+03  0.10100000352E+00 0. -1.
       -3   -1    0    0    0  501  0.00000000000E+00  0.00000000000E+00 -0.95752535836E+03  0.95752536368E+03  0.10100000352E+00 0.  1.
    10030    2    1    2    0    0  0.00000000000E+00  0.00000000000E+00 -0.12061458220E+03  0.17944361459E+04  0.17903779502E+04 0.  0.
        5    1    3    3  502    0 -0.26157057418E+03 -0.14150890092E+03  0.78593897629E+03  0.84033689599E+03  0.46999998093E+01 0. -1.
       -5    1    3    3    0  502  0.26157057418E+03  0.14150890092E+03 -0.90655355849E+03  0.95409924994E+03  0.46999998093E+01 0.  1.
</event>
<event>
 5   0  0.8132598E-05  0.1797905E+04  0.7818609E-02  0.8707414E-01
       -1   -1    0    0    0  501  0.00000000000E+00  0.00000000000E+00  0.69124283270E+03  0.69124283272E+03  0.50400001928E-02 0. -1.
        1   -1    0    0  501    0  0.00000000000E+00  0.00000000000E+00 -0.11690767469E+04  0.11690767469E+04  0.50400001928E-02 0.  1.
    10030    2    1    2    0    0  0.00000000000E+00  0.00000000000E+00 -0.47783391422E+03  0.18603195797E+04  0.17979053615E+04 0.  0.
        3    1    3    3  502    0 -0.64814818224E+03 -0.61654761053E+03 -0.33081974259E+03  0.95376555531E+03  0.10100000352E+00 0. -1.
       -3    1    3    3    0  502  0.64814818224E+03  0.61654761053E+03 -0.14701417163E+03  0.90655402435E+03  0.10100000352E+00 0.  1.
</event>
<event>
 5   0  0.8492114E-05  0.1846998E+04  0.7818609E-02  0.8681698E-01
       -1   -1    0    0    0  501  0.00000000000E+00  0.00000000000E+00  0.90739934263E+03  0.90739934265E+03  0.50400001928E-02 0. -1.
        1   -1    0    0  501    0  0.00000000000E+00  0.00000000000E+00 -0.93988477310E+03  0.93988477311E+03  0.50400001928E-02 0.  1.
    10030    2    1    2    0    0  0.00000000000E+00  0.00000000000E+00 -0.32485430462E+02  0.18472841158E+04  0.18469984573E+04 0.  0.
        2    1    3    3  502    0  0.78437536975E+03 -0.27762716995E+03  0.38448027908E+03  0.91659514027E+03  0.25500000920E-02 0.  1.
       -2    1    3    3    0  502 -0.78437536975E+03  0.27762716995E+03 -0.41696570954E+03  0.93068897549E+03  0.25500000920E-02 0. -1.
</event>
<event>
 5   0  0.8430513E-05  0.1799133E+04  0.7818609E-02  0.8706761E-01
        1   -1    0    0  501    0  0.00000000000E+00  0.00000000000E+00  0.14762027836E+04  0.14762027836E+04  0.50400001928E-02 0. -1.
       -1   -1    0    0    0  501  0.00000000000E+00  0.00000000000E+00 -0.54817648856E+03  0.54817648858E+03  0.50400001928E-02 0.  1.
    10030    2    1    2    0    0  0.00000000000E+00  0.00000000000E+00  0.92802629501E+03  0.20243792722E+04  0.17991327448E+04 0.  0.
        5    1    3    3  502    0 -0.72276826212E+03 -0.52128645070E+03  0.32591130893E+03  0.94888028523E+03  0.46999998093E+01 0.  1.
       -5    1    3    3    0  502  0.72276826212E+03  0.52128645070E+03  0.60211498607E+03  0.10754989869E+04  0.46999998093E+01 0. -1.
</event>
<event>
 5   0  0.1603564E-04  0.1796012E+04  0.7818609E-02  0.8708423E-01
        2   -1    0    0  501    0  0.00000000000E+00  0.00000000000E+00  0.11468436973E+04  0.11468436973E+04  0.25500000920E-02 0.  1.
       -2   -1    0    0    0  501  0.00000000000E+00  0.00000000000E+00 -0.70316016950E+03  0.70316016950E+03  0.25500000920E-02 0. -1.
    10030    2    1    2    0    0  0.00000000000E+00  0.00000000000E+00  0.44368352780E+03  0.18500038668E+04  0.17960120362E+04 0.  0.
        5    1    3    3  502    0  0.78245474796E+03  0.29316906170E+03  0.56068237853E+03  0.10062655469E+04  0.46999998093E+01 0. -1.
       -5    1    3    3    0  502 -0.78245474796E+03 -0.29316906170E+03 -0.11699885073E+03  0.84373831987E+03  0.46999998093E+01 0.  1.
</event>
<event>
 5   0  0.5820500E-05  0.1806834E+04  0.7818609E-02  0.8702674E-01
        3   -1    0    0  501    0  0.00000000000E+00  0.00000000000E+00  0.96512546029E+03  0.96512546558E+03  0.10100000352E+00 0.  1.
       -3   -1    0    0    0  501  0.00000000000E+00  0.00000000000E+00 -0.84565424712E+03  0.84565425315E+03  0.10100000352E+00 0. -1.
    10030    2    1    2    0    0  0.00000000000E+00  0.00000000000E+00  0.11947121317E+03  0.18107797187E+04  0.18068341980E+04 0.  0.
        4    1    3    3  502    0 -0.47571913945E+03  0.56745568261E+02  0.82732722716E+03  0.95603384504E+03  0.12699999809E+01 0.  1.
       -4    1    3    3    0  502  0.47571913945E+03 -0.56745568261E+02 -0.70785601399E+03  0.85474587369E+03  0.12699999809E+01 0. -1.
</event>
<event>
 5   0  0.1573981E-04  0.1794869E+04  0.7818609E-02  0.8709033E-01
       -2   -1    0    0    0  501  0.00000000000E+00  0.00000000000E+00  0.10567327286E+04  0.10567327286E+04  0.25500000920E-02 0. -1.
        2   -1    0    0  501    0  0.00000000000E+00  0.00000000000E+00 -0.76214979971E+03  0.76214979971E+03  0.25500000920E-02 0.  1.
    10030    2    1    2    0    0  0.00000000000E+00  0.00000000000E+00  0.29458292893E+03  0.18188825284E+04  0.17948689506E+04 0.  0.
        1    1    3    3  502    0  0.51839592590E+03  0.15677834204E+03 -0.57787653475E+03  0.79199436486E+03  0.50400001928E-02 0.  1.
       -1    1    3    3    0  502 -0.51839592590E+03 -0.15677834204E+03  0.87245946368E+03  0.10268881635E+04  0.50400001928E-02 0. -1.
</event>
<event>
 5   0  0.8206783E-05  0.1797428E+04  0.7818609E-02  0.8707668E-01
        1   -1    0    0  501    0  0.00000000000E+00  0.00000000000E+00  0.20489959525E+04  0.20489959525E+04  0.50400001928E-02 0.  1.
       -1   -1    0    0    0  501  0.00000000000E+00  0.00000000000E+00 -0.39418683079E+03  0.39418683082E+03  0.50400001928E-02 0. -1.
    10030    2    1    2    0    0  0.00000000000E+00  0.00000000000E+00  0.16548091217E+04  0.24431827833E+04  0.17974284084E+04 0.  0.
        1    1    3    3  502    0 -0.40991470002E+03  0.70917087368E+03  0.13300275511E+04  0.15620264646E+04  0.50400001928E-02 0. -1.
       -1    1    3    3    0  502  0.40991470002E+03 -0.70917087368E+03  0.32478157055E+03  0.88115631869E+03  0.50400001928E-02 0.  1.
</event>
<event>
 5   0  0.1549012E-04  0.1793179E+04  0.7818609E-02  0.8709935E-01
        2   -1    0    0  501    0  0.00000000000E+00  0.00000000000E+00  0.16595030944E+04  0.16595030944E+04  0.25500000920E-02 0. -1.
       -2   -1    0    0    0  501  0.00000000000E+00  0.00000000000E+00 -0.48440560561E+03  0.48440560562E+03  0.25500000920E-02 0.  1.
    10030    2    1    2    0    0  0.00000000000E+00  0.00000000000E+00  0.11750974888E+04  0.21439087000E+04  0.17931788549E+04 0.  0.
        4    1    3    3  502    0  0.60193255369E+03  0.58235241388E+03  0.20493370620E+03  0.86223927652E+03  0.12699999809E+01 0.  1.
       -4    1    3    3    0  502 -0.60193255369E+03 -0.58235241388E+03  0.97016378256E+03  0.12816694235E+04  0.12699999809E+01 0. -1.
</event>
<event>
 5   0  0.1628397E-04  0.1800967E+04  0.7818609E-02  0.8705785E-01
        2   -1    0    0  501    0  0.00000000000E+00  0.00000000000E+00  0.12768544148E+04  0.12768544148E+04  0.25500000920E-02 0.  1.
       -2   -1    0    0    0  501  0.00000000000E+00  0.00000000000E+00 -0.63505337060E+03  0.63505337061E+03  0.25500000920E-02 0. -1.
    10030    2    1    2    0    0  0.00000000000E+00  0.00000000000E+00  0.64180104416E+03  0.19119077854E+04  0.18009671845E+04 0.  0.
        3    1    3    3  502    0  0.48404271538E+02 -0.29344749250E+03 -0.58140768153E+03  0.65306148769E+03  0.10100000352E+00 0. -1.
       -3    1    3    3    0  502 -0.48404271538E+02  0.29344749250E+03  0.12232087257E+04  0.12588462977E+04  0.10100000352E+00 0.  1.
</event>
<event>
 5   0  0.8132598E-05  0.1810348E+04  0.7818609E-02  0.8700816E-01
       -1   -1    0    0    0  501  0.00000000000E+00  0.00000000000E+00  0.35433089173E+03  0.35433089176E+03  0.50400001928E-02 0.  1.
        1   -1    0    0  501    0  0.00000000000E+00  0.00000000000E+00 -0.23123586379E+04  0.23123586379E+04  0.50400001928E-02 0. -1.
    10030    2    1    2    0    0  0.00000000000E+00  0.00000000000E+00 -0.19580277461E+04  0.26666895296E+04  0.18103481413E+04 0.  0.
        3    1    3    3  502    0 -0.17624128003E+03 -0.97821286150E+02  0.32085114961E+03  0.37891353000E+03  0.10100000352E+00 0.  1.
       -3    1    3    3    0  502  0.17624128003E+03  0.97821286150E+02 -0.22788788957E+04  0.22877759996E+04  0.10100000352E+00 0. -1.
</event>
<event>
 5   0  0.8430513E-05  0.1795001E+04  0.7818609E-02  0.8708963E-01
       -1   -1    0    0    0  501  0.00000000000E+00  0.00000000000E+00  0.72529790926E+03  0.72529790927E+03  0.50400001928E-02 0. -1.
        1   -1    0    0  501    0  0.00000000000E+00  0.00000000000E+00 -0.11105875007E+04  0.11105875007E+04  0.50400001928E-02 0.  1.
    10030    2    1    2    0    0  0.00000000000E+00  0.00000000000E+00 -0.38528959143E+03  0.18358854100E+04  0.17950006043E+04 0.  0.
        5    1    3    3  502    0 -0.42722932871E+03 -0.60426423985E+03  0.32668482023E+03  0.80895317086E+03  0.46999998093E+01 0. -1.
       -5    1    3    3    0  502  0.42722932871E+03  0.60426423985E+03 -0.71197441166E+03  0.10269322391E+04  0.46999998093E+01 0.  1.
</event>
<event>
 5   0  0.8254914E-05  0.1796655E+04  0.7818609E-02  0.8708080E-01
        1   -1    0    0  501    0  0.00000000000E+00  0.00000000000E+00  0.83952373547E+03  0.83952373548E+03  0.50400001928E-02 0. -1.
       -1   -1    0    0    0  501  0.00000000000E+00  0.00000000000E+00 -0.96125008933E+03  0.96125008934E+03  0.50400001928E-02 0.  1.
    10030    2    1    2    0    0  0.00000000000E+00  0.00000000000E+00 -0.12172635386E+03  0.18007738248E+04  0.17966549649E+04 0.  0.
        4    1    3    3  502    0 -0.37129430702E+03  0.81798881358E+03 -0.55802714872E+02  0.90004484192E+03  0.12699999809E+01 0.  1.
       -4    1    3    3    0  502  0.37129430702E+03 -0.81798881358E+03 -0.65923638987E+02  0.90072898291E+03  0.12699999809E+01 0. -1.
</event>
<event>
 5   0  0.1628397E-04  0.1802710E+04  0.7818609E-02  0.8704860E-01
       -2   -1    0    0    0  501  0.00000000000E+00  0.00000000000E+00  0.75020728794E+03  0.75020728795E+03  0.25500000920E-02 0. -1.
        2   -1    0    0  501    0  0.00000000000E+00  0.00000000000E+00 -0.10829546427E+04  0.10829546427E+04  0.25500000920E-02 0.  1.
    10030    2    1    2    0    0  0.00000000000E+00  0.00000000000E+00 -0.33274735479E+03  0.18331619307E+04  0.18027095889E+04 0.  0.
        3    1    3    3  502    0  0.77626705515E+03 -0.20400007428E+03 -0.58346561665E+03  0.99228962870E+03  0.10100000352E+00 0.  1.
       -3    1    3    3    0  502 -0.77626705515E+03  0.20400007428E+03  0.25071826186E+03  0.84087230198E+03  0.10100000352E+00 0. -1.
</event>
<event>
 5   0  0.1608627E-04  0.1796852E+04  0.7818609E-02  0.8707975E-01
       -2   -1    0    0    0  501  0.00000000000E+00  0.00000000000E+00  0.30508685530E+04  0.30508685530E+04  0.25500000920E-02 0.  1.
        2   -1    0    0  501    0  0.00000000000E+00  0.00000000000E+00 -0.26457043533E+03  0.26457043534E+03  0.25500000920E-02 0. -1.
    10030    2    1    2    0    0  0.00000000000E+00  0.00000000000E+00  0.27862981177E+04  0.33154389883E+04  0.17968523826E+04 0.  0.
        2    1    3    3  502    0 -0.94125458573E+02 -0.46039656322E+03  0.28060290095E+04  0.28451051649E+04  0.25500000920E-02 0.  1.
       -2    1    3    3    0  502  0.94125458573E+02  0.46039656322E+03 -0.19730891793E+02  0.47033382344E+03  0.25500000920E-02 0. -1.
</event>
<event>
 5   0  0.1628397E-04  0.1806455E+04  0.7818609E-02  0.8702875E-01
        2   -1    0    0  501    0  0.00000000000E+00  0.00000000000E+00  0.16066219547E+04  0.16066219547E+04  0.25500000920E-02 0.  1.
       -2   -1    0    0    0  501  0.00000000000E+00  0.00000000000E+00 -0.50778560093E+03  0.50778560094E+03  0.25500000920E-02 0. -1.
    10030    2    1    2    0    0  0.00000000000E+00  0.00000000000E+00  0.10988363538E+04  0.21144075556E+04  0.18064545328E+04 0.  0.
        3    1    3    3  502    0 -0.68208513177E+03 -0.35672388794E+03 -0.37188059732E+01  0.76974404767E+03  0.10100000352E+00 0. -1.
       -3    1    3    3    0  502  0.68208513177E+03  0.35672388794E+03  0.11025551597E+04  0.13446635080E+04  0.10100000352E+00 0.  1.
</event>
<event>
 5   0  0.1608627E-04  0.1806866E+04  0.7818609E-02  0.8702657E-01
       -2   -1    0    0    0  501  0.00000000000E+00  0.00000000000E+00  0.11266887438E+04  0.11266887438E+04  0.25500000920E-02 0.  1.
        2   -1    0    0  501    0  0.00000000000E+00  0.00000000000E+00 -0.72441617737E+03  0.72441617737E+03  0.25500000920E-02 0. -1.
    10030    2    1    2    0    0  0.00000000000E+00  0.00000000000E+00  0.40227256642E+03  0.18511049212E+04  0.18068664066E+04 0.  0.
        2    1    3    3  502    0 -0.81770642113E+03 -0.16665377041E+03 -0.15342130195E+03  0.84850183633E+03  0.25500000920E-02 0. -1.
       -2    1    3    3    0  502  0.81770642113E+03  0.16665377041E+03  0.55569386837E+03  0.10026030848E+04  0.25500000920E-02 0.  1.
</event>
<event>
 5   0  0.1628397E-04  0.1806822E+04  0.7818609E-02  0.8702680E-01
        2   -1    0    0  501    0  0.00000000000E+00  0.00000000000E+00  0.25002980810E+04  0.25002980810E+04  0.25500000920E-02 0.  1.
       -2   -1    0    0    0  501  0.00000000000E+00  0.00000000000E+00 -0.32642183126E+03  0.32642183127E+03  0.25500000920E-02 0. -1.
    10030    2    1    2    0    0  0.00000000000E+00  0.00000000000E+00  0.21738762498E+04  0.28267199123E+04  0.18068224908E+04 0.  0.
        3    1    3    3  502    0 -0.47584203932E+03 -0.62597961707E+03  0.39101131568E+03  0.87816056992E+03  0.10100000352E+00 0.  1.
       -3    1    3    3    0  502  0.47584203932E+03  0.62597961707E+03  0.17828649341E+04  0.19485593424E+04  0.10100000352E+00 0. -1.
</event>
<event>
 5   0  0.1603564E-04  0.1794886E+04  0.7818609E-02  0.8709024E-01
        2   -1    0    0  501    0  0.00000000000E+00  0.00000000000E+00  0.12057799383E+04  0.12057799383E+04  0.25500000920E-02 0.  1.
       -2   -1    0    0    0  501  0.00000000000E+00  0.00000000000E+00 -0.66795247226E+03  0.66795247227E+03  0.25500000920E-02 0. -1.
    10030    2    1    2    0    0  0.00000000000E+00  0.00000000000E+00  0.53782746606E+03  0.18737324106E+04  0.17948857243E+04 0.  0.
        5    1    3    3  502    0 -0.19110984412E+03  0.86739030479E+03  0.13484840351E+03  0.89838471453E+03  0.46999998093E+01 0. -1.
       -5    1    3    3    0  502  0.19110984412E+03 -0.86739030479E+03  0.40297906255E+03  0.97534769607E+03  0.46999998093E+01 0.  1.
</event>
<event>
 5   0  0.1549012E-04  0.1795949E+04  0.7818609E-02  0.8708457E-01
        2   -1    0    0  501    0  0.00000000000E+00  0.00000000000E+00  0.10754936494E+04  0.10754936494E+04  0.25500000920E-02 0.  1.
       -2   -1    0    0    0  501  0.00000000000E+00  0.00000000000E+00 -0.74975630206E+03  0.74975630207E+03  0.25500000920E-02 0. -1.
    10030    2    1    2    0    0  0.00000000000E+00  0.00000000000E+00  0.32573734736E+03  0.18252499515E+04  0.17959489319E+04 0.  0.
        4    1    3    3  502    0  0.69434677878E+02 -0.10107306221E+03  0.10669433842E+04  0.10739677539E+04  0.12699999809E+01 0.  1.
       -4    1    3    3    0  502 -0.69434677878E+02  0.10107306221E+03 -0.74120603688E+03  0.75128219758E+03  0.12699999809E+01 0. -1.
</event>
<event>
 5   0  0.1549012E-04  0.1797668E+04  0.7818609E-02  0.8707541E-01
       -2   -1    0    0    0  501  0.00000000000E+00  0.00000000000E+00  0.49807643465E+03  0.49807643466E+03  0.25500000920E-02 0. -1.
        2   -1    0    0  501    0  0.00000000000E+00  0.00000000000E+00 -0.16220447233E+04  0.16220447233E+04  0.25500000920E-02 0.  1.
    10030    2    1    2    0    0  0.00000000000E+00  0.00000000000E+00 -0.11239682886E+04  0.21201211579E+04  0.17976676585E+04 0.  0.
        4    1    3    3  502    0  0.63573151264E+03 -0.25676296142E+03 -0.12474616761E+04  0.14234619843E+04  0.12699999809E+01 0.  1.
       -4    1    3    3    0  502 -0.63573151264E+03  0.25676296142E+03  0.12349338750E+03  0.69665917361E+03  0.12699999809E+01 0. -1.
</event>
<event>
 5   0  0.8206783E-05  0.1812179E+04  0.7818609E-02  0.8699849E-01
       -1   -1    0    0    0  501  0.00000000000E+00  0.00000000000E+00  0.64363058523E+03  0.64363058525E+03  0.50400001928E-02 0.  1.
        1   -1    0    0  501    0  0.00000000000E+00  0.00000000000E+00 -0.12755739996E+04  0.12755739996E+04  0.50400001928E-02 0. -1.
    10030    2    1    2    0    0  0.00000000000E+00  0.00000000000E+00 -0.63194341440E+03  0.19192045849E+04  0.18121792846E+04 0.  0.
        1    1    3    3  502    0 -0.11985952561E+03 -0.38730261969E+03  0.54221163292E+03  0.67702516939E+03  0.50400001928E-02 0.  1.
       -1    1    3    3    0  502  0.11985952561E+03  0.38730261969E+03 -0.11741550473E+04  0.12421794155E+04  0.50400001928E-02 0. -1.
</event>
<event>
 5   0  0.1608627E-04  0.1820750E+04  0.7818609E-02  0.8695342E-01
        2   -1    0    0  501    0  0.00000000000E+00  0.00000000000E+00  0.81789355689E+03  0.81789355689E+03  0.25500000920E-02 0.  1.
       -2   -1    0    0    0  501  0.00000000000E+00  0.00000000000E+00 -0.10133132960E+04  0.10133132960E+04  0.25500000920E-02 0. -1.
    10030    2    1    2    0    0  0.00000000000E+00  0.00000000000E+00 -0.19541973909E+03  0.18312068529E+04  0.18207497531E+04 0.  0.
        2    1    3    3  502    0  0.44378628838E+03 -0.56936112542E+03  0.46015051907E+03  0.85607059353E+03  0.25500000920E-02 0.  1.
       -2    1    3    3    0  502 -0.44378628838E+03  0.56936112542E+03 -0.65557025816E+03  0.97513625934E+03  0.25500000920E-02 0. -1.
</event>
<event>
 5   0  0.8430513E-05  0.1791720E+04  0.7818609E-02  0.8710715E-01
        1   -1    0    0  501    0  0.00000000000E+00  0.00000000000E+00  0.15246011611E+04  0.15246011611E+04  0.50400001928E-02 0.  1.
       -1   -1    0    0    0  501  0.00000000000E+00  0.00000000000E+00 -0.52640987345E+03  0.52640987348E+03  0.50400001928E-02 0. -1.
    10030    2    1    2    0    0  0.00000000000E+00  0.00000000000E+00  0.99819128764E+03  0.20510110346E+04  0.17917199606E+04 0.  0.
        5    1    3    3  502    0 -0.57282287971E+03  0.68610638249E+03  0.42970095645E+03  0.99173233364E+03  0.46999998093E+01 0.  1.
       -5    1    3    3    0  502  0.57282287971E+03 -0.68610638249E+03  0.56849033118E+03  0.10592787009E+04  0.46999998093E+01 0. -1.
</event>
<event>
 5   0  0.8206783E-05  0.1807004E+04  0.7818609E-02  0.8702583E-01
        1   -1    0    0  501    0  0.00000000000E+00  0.00000000000E+00  0.23013823922E+04  0.23013823922E+04  0.50400001928E-02 0. -1.
       -1   -1    0    0    0  501  0.00000000000E+00  0.00000000000E+00 -0.35470691807E+03  0.35470691811E+03  0.50400001928E-02 0.  1.
    10030    2    1    2    0    0  0.00000000000E+00  0.00000000000E+00  0.19466754741E+04  0.26560893103E+04  0.18070044335E+04 0.  0.
        1    1    3    3  502    0  0.46090835507E+03  0.25336220877E+03 -0.10649022456E+03  0.53662751379E+03  0.50400001928E-02 0.  1.
       -1    1    3    3    0  502 -0.46090835507E+03 -0.25336220877E+03  0.20531656987E+04  0.21194617965E+04  0.50400001928E-02 0. -1.
</event>
<event>
 5   0  0.8430513E-05  0.1769105E+04  0.7818609E-02  0.8722904E-01
        1   -1    0    0  501    0  0.00000000000E+00  0.00000000000E+00  0.10487362577E+04  0.10487362577E+04  0.50400001928E-02 0. -1.
       -1   -1    0    0    0  501  0.00000000000E+00  0.00000000000E+00 -0.74607195680E+03  0.74607195682E+03  0.50400001928E-02 0.  1.
    10030    2    1    2    0    0  0.00000000000E+00  0.00000000000E+00  0.30266430086E+03  0.17948082145E+04  0.17691045327E+04 0.  0.
        5    1    3    3  502    0  0.47080723153E+03  0.71742029274E+03  0.36906462194E+03  0.93412103651E+03  0.46999998093E+01 0. -1.
       -5    1    3    3    0  502 -0.47080723153E+03 -0.71742029274E+03 -0.66400321077E+02  0.86068717797E+03  0.46999998093E+01 0.  1.
</event>
<event>
 5   0  0.1573981E-04  0.1789881E+04  0.7818609E-02  0.8711699E-01
        2   -1    0    0  501    0  0.00000000000E+00  0.00000000000E+00  0.17566528037E+04  0.17566528037E+04  0.25500000920E-02 0. -1.
       -2   -1    0    0    0  501  0.00000000000E+00  0.00000000000E+00 -0.45593466464E+03  0.45593466464E+03  0.25500000920E-02 0.  1.
    10030    2    1    2    0    0  0.00000000000E+00  0.00000000000E+00  0.13007181391E+04  0.22125874683E+04  0.17898814564E+04 0.  0.
        1    1    3    3  502    0 -0.41765965183E+03 -0.78353407863E+03  0.51185532021E+03  0.10248712631E+04  0.50400001928E-02 0.  1.
       -1    1    3    3    0  502  0.41765965183E+03  0.78353407863E+03  0.78886281885E+03  0.11877162052E+04  0.50400001928E-02 0. -1.
</event>
<event>
 5   0  0.1628397E-04  0.1795783E+04  0.7818609E-02  0.8708545E-01
        2   -1    0    0  501    0  0.00000000000E+00  0.00000000000E+00  0.12958024835E+04  0.12958024835E+04  0.25500000920E-02 0.  1.
       -2   -1    0    0    0  501  0.00000000000E+00  0.00000000000E+00 -0.62216991422E+03  0.62216991422E+03  0.25500000920E-02 0. -1.
    10030    2    1    2    0    0  0.00000000000E+00  0.00000000000E+00  0.67363256928E+03  0.19179723977E+04  0.17957831940E+04 0.  0.
        3    1    3    3  502    0  0.42414418014E+02 -0.24132627309E+03 -0.58577194894E+03  0.63495365131E+03  0.10100000352E+00 0. -1.
       -3    1    3    3    0  502 -0.42414418014E+02  0.24132627309E+03  0.12594045182E+04  0.12830187464E+04  0.10100000352E+00 0.  1.
</event>
<event>
 5   0  0.1603564E-04  0.1803292E+04  0.7818609E-02  0.8704551E-01
        2   -1    0    0  501    0  0.00000000000E+00  0.00000000000E+00  0.88822624207E+03  0.88822624208E+03  0.25500000920E-02 0. -1.
       -2   -1    0    0    0  501  0.00000000000E+00  0.00000000000E+00 -0.91526860110E+03  0.91526860110E+03  0.25500000920E-02 0.  1.
    10030    2    1    2    0    0  0.00000000000E+00  0.00000000000E+00 -0.27042359024E+02  0.18034948432E+04  0.18032920895E+04 0.  0.
        5    1    3    3  502    0  0.52710868612E+03 -0.74422623937E+02  0.71427020236E+03  0.89083461199E+03  0.46999998093E+01 0. -1.
       -5    1    3    3    0  502 -0.52710868612E+03  0.74422623937E+02 -0.74131256139E+03  0.91266023119E+03  0.46999998093E+01 0.  1.
</event>
<event>
 5   0  0.8430513E-05  0.1813473E+04  0.7818609E-02  0.8699167E-01
       -1   -1    0    0    0  501  0.00000000000E+00  0.00000000000E+00  0.15353770460E+04  0.15353770461E+04  0.50400001928E-02 0.  1.
        1   -1    0    0  501    0  0.00000000000E+00  0.00000000000E+00 -0.53548471221E+03  0.53548471223E+03  0.50400001928E-02 0. -1.
    10030    2    1    2    0    0  0.00000000000E+00  0.00000000000E+00  0.99989233384E+03  0.20708617583E+04  0.18134728403E+04 0.  0.
        5    1    3    3  502    0  0.74934666147E+03 -0.17998553419E+03  0.10454902820E+04  0.12988407259E+04  0.46999998093E+01 0.  1.
       -5    1    3    3    0  502 -0.74934666147E+03  0.17998553419E+03 -0.45597948138E+02  0.77202103238E+03  0.46999998093E+01 0. -1.
</event>
<event>
 5   0  0.1628397E-04  0.1806175E+04  0.7818609E-02  0.8703023E-01
       -2   -1    0    0    0  501  0.00000000000E+00  0.00000000000E+00  0.35386326752E+03  0.35386326753E+03  0.25500000920E-02 0.  1.
        2   -1    0    0  501    0  0.00000000000E+00  0.00000000000E+00 -0.23047511316E+04  0.23047511316E+04  0.25500000920E-02 0. -1.
    10030    2    1    2    0    0  0.00000000000E+00  0.00000000000E+00 -0.19508878640E+04  0.26586143991E+04  0.18061747050E+04 0.  0.
        3    1    3    3  502    0 -0.53877484496E+02  0.81283577711E+03 -0.15492472529E+04  0.17503633464E+04  0.10100000352E+00 0. -1.
       -3    1    3    3    0  502  0.53877484496E+02 -0.81283577711E+03 -0.40164061118E+03  0.90825105265E+03  0.10100000352E+00 0.  1.
</event>
<event>
 5   0  0.1549012E-04  0.1976088E+04  0.7818609E-02  0.8617883E-01
       -2   -1    0    0    0  501  0.00000000000E+00  0.00000000000E+00  0.78799875248E+03  0.78799875249E+03  0.25500000920E-02 0.  1.
        2   -1    0    0  501    0  0.00000000000E+00  0.00000000000E+00 -0.12388732053E+04  0.12388732053E+04  0.25500000920E-02 0. -1.
    10030    2    1    2    0    0  0.00000000000E+00  0.00000000000E+00 -0.45087445278E+03  0.20268719578E+04  0.19760875894E+04 0.  0.
        4    1    3    3  502    0  0.42649577156E+03  0.87430142186E+03 -0.47996237347E+02  0.97396451225E+03  0.12699999809E+01 0.  1.
       -4    1    3    3    0  502 -0.42649577156E+03 -0.87430142186E+03 -0.40287821543E+03  0.10529074455E+04  0.12699999809E+01 0. -1.
</event>
<event>
 5   0  0.1603564E-04  0.1793220E+04  0.7818609E-02  0.8709913E-01
        2   -1    0    0  501    0  0.00000000000E+00  0.00000000000E+00  0.71476075820E+03  0.71476075821E+03  0.25500000920E-02 0.  1.
       -2   -1    0    0    0  501  0.00000000000E+00  0.00000000000E+00 -0.11247252982E+04  0.11247252982E+04  0.25500000920E-02 0. -1.
    10030    2    1    2    0    0  0.00000000000E+00  0.00000000000E+00 -0.40996453995E+03  0.18394860564E+04  0.17932200165E+04 0.  0.
        5    1    3    3  502    0 -0.50868393818E+03 -0.16392993319E+03 -0.94345538919E+03  0.10843258428E+04  0.46999998093E+01 0. -1.
       -5    1    3    3    0  502  0.50868393818E+03  0.16392993319E+03  0.53349084923E+03  0.75516021358E+03  0.46999998093E+01 0.  1.
</event>
<event>
 5   0  0.8430513E-05  0.1791186E+04  0.7818609E-02  0.8711000E-01
       -1   -1    0    0    0  501  0.00000000000E+00  0.00000000000E+00  0.30843986420E+03  0.30843986424E+03  0.50400001928E-02 0.  1.
        1   -1    0    0  501    0  0.00000000000E+00  0.00000000000E+00 -0.26004655790E+04  0.26004655790E+04  0.50400001928E-02 0. -1.
    10030    2    1    2    0    0  0.00000000000E+00  0.00000000000E+00 -0.22920257148E+04  0.29089054433E+04  0.17911864784E+04 0.  0.
        5    1    3    3  502    0  0.58622777507E+03  0.68088672834E+02 -0.22399813661E+04  0.23164277847E+04  0.46999998093E+01 0. -1.
       -5    1    3    3    0  502 -0.58622777507E+03 -0.68088672834E+02 -0.52044348785E+02  0.59247765854E+03  0.46999998093E+01 0.  1.
</event>
<event>
 5   0  0.1628397E-04  0.1790420E+04  0.7818609E-02  0.8711410E-01
       -2   -1    0    0    0  501  0.00000000000E+00  0.00000000000E+00  0.42707627363E+03  0.42707627364E+03  0.25500000920E-02 0.  1.
        2   -1    0    0  501    0  0.00000000000E+00  0.00000000000E+00 -0.18764829476E+04  0.18764829476E+04  0.25500000920E-02 0. -1.
    10030    2    1    2    0    0  0.00000000000E+00  0.00000000000E+00 -0.14494066739E+04  0.23035592212E+04  0.17904204476E+04 0.  0.
        3    1    3    3  502    0  0.12173403444E+03  0.29685279714E+03 -0.17999678220E+04  0.18283393910E+04  0.10100000352E+00 0. -1.
       -3    1    3    3    0  502 -0.12173403444E+03 -0.29685279714E+03  0.35056114804E+03  0.47521983021E+03  0.10100000352E+00 0.  1.
</event>
<event>
 5   0  0.1573981E-04  0.1802481E+04  0.7818609E-02  0.8704981E-01
        2   -1    0    0  501    0  0.00000000000E+00  0.00000000000E+00  0.12226557998E+04  0.12226557999E+04  0.25500000920E-02 0.  1.
       -2   -1    0    0    0  501  0.00000000000E+00  0.00000000000E+00 -0.66432014710E+03  0.66432014710E+03  0.25500000920E-02 0. -1.
    10030    2    1    2    0    0  0.00000000000E+00  0.00000000000E+00  0.55833565275E+03  0.18869759470E+04  0.18024814904E+04 0.  0.
        1    1    3    3  502    0  0.60125491814E+03  0.57285870716E+03 -0.87329211256E+02  0.83504548746E+03  0.50400001928E-02 0. -1.
       -1    1    3    3    0  502 -0.60125491814E+03 -0.57285870716E+03  0.64566486401E+03  0.10519304595E+04  0.50400001928E-02 0.  1.
</event>
<event>
 5   0  0.1549012E-04  0.1803985E+04  0.7818609E-02  0.8704183E-01
        2   -1    0    0  501    0  0.00000000000E+00  0.00000000000E+00  0.10660612265E+04  0.10660612265E+04  0.25500000920E-02 0.  1.
       -2   -1    0    0    0  501  0.00000000000E+00  0.00000000000E+00 -0.76317465761E+03  0.76317465761E+03  0.25500000920E-02 0. -1.
    10030    2    1    2    0    0  0.00000000000E+00  0.00000000000E+00  0.30288656890E+03  0.18292358841E+04  0.18039854895E+04 0.  0.
        4    1    3    3  502    0 -0.78435660661E+03 -0.34844094552E+03 -0.12986170817E+03  0.86803920131E+03  0.12699999809E+01 0.  1.
       -4    1    3    3    0  502  0.78435660661E+03  0.34844094552E+03  0.43274827707E+03  0.96119668282E+03  0.12699999809E+01 0. -1.
</event>
<event>
 5   0  0.1573981E-04  0.1805879E+04  0.7818609E-02  0.8703179E-01
        2   -1    0    0  501    0  0.00000000000E+00  0.00000000000E+00  0.15324447011E+04  0.15324447011E+04  0.25500000920E-02 0. -1.
       -2   -1    0    0    0  501  0.00000000000E+00  0.00000000000E+00 -0.53202570304E+03  0.53202570305E+03  0.25500000920E-02 0.  1.
    10030    2    1    2    0    0  0.00000000000E+00  0.00000000000E+00  0.10004189981E+04  0.20644704042E+04  0.18058792534E+04 0.  0.
        1    1    3    3  502    0  0.43700123988E+03  0.29465794889E+03  0.13383403842E+04  0.14383839455E+04  0.50400001928E-02 0. -1.
       -1    1    3    3    0  502 -0.43700123988E+03 -0.29465794889E+03 -0.33792138616E+03  0.62608645869E+03  0.50400001928E-02 0.  1.
</event>
<event>
 5   0  0.1628397E-04  0.1810994E+04  0.7818609E-02  0.8700475E-01
        2   -1    0    0  501    0  0.00000000000E+00  0.00000000000E+00  0.84748103437E+03  0.84748103437E+03  0.25500000920E-02 0.  1.
       -2   -1    0    0    0  501  0.00000000000E+00  0.00000000000E+00 -0.96748417577E+03  0.96748417577E+03  0.25500000920E-02 0. -1.
    10030    2    1    2    0    0  0.00000000000E+00  0.00000000000E+00 -0.12000314140E+03  0.18149652101E+04  0.18109936389E+04 0.  0.
        3    1    3    3  502    0  0.41243225734E+03 -0.51993240202E+03  0.55738058320E+03  0.86666209926E+03  0.10100000352E+00 0.  1.
       -3    1    3    3    0  502 -0.41243225734E+03  0.51993240202E+03 -0.67738372460E+03  0.94830311088E+03  0.10100000352E+00 0. -1.
</event>
<event>
 5   0  0.1608627E-04  0.1803646E+04  0.7818609E-02  0.8704363E-01
       -2   -1    0    0    0  501  0.00000000000E+00  0.00000000000E+00  0.39709584558E+03  0.39709584558E+03  0.25500000920E-02 0.  1.
        2   -1    0    0  501    0  0.00000000000E+00  0.00000000000E+00 -0.20480820416E+04  0.20480820416E+04  0.25500000920E-02 0. -1.
    10030    2    1    2    0    0  0.00000000000E+00  0.00000000000E+00 -0.16509861960E+04  0.24451778872E+04  0.18036461628E+04 0.  0.
        2    1    3    3  502    0  0.47024121080E+03 -0.72973035745E+03 -0.49438450315E+03  0.99902413779E+03  0.25500000920E-02 0.  1.
       -2    1    3    3    0  502 -0.47024121080E+03  0.72973035745E+03 -0.11566016928E+04  0.14461537494E+04  0.25500000920E-02 0. -1.
</event>
<event>
 5   0  0.1573981E-04  0.1794394E+04  0.7818609E-02  0.8709286E-01
       -2   -1    0    0    0  501  0.00000000000E+00  0.00000000000E+00  0.53512136592E+03  0.53512136593E+03  0.25500000920E-02 0.  1.
        2   -1    0    0  501    0  0.00000000000E+00  0.00000000000E+00 -0.15042616202E+04  0.15042616202E+04  0.25500000920E-02 0. -1.
    10030    2    1    2    0    0  0.00000000000E+00  0.00000000000E+00 -0.96914025430E+03  0.20393829862E+04  0.17943940848E+04 0.  0.
        1    1    3    3  502    0  0.40909125682E+03 -0.16520075375E+03 -0.13724581423E+04  0.14416269621E+04  0.50400001928E-02 0. -1.
       -1    1    3    3    0  502 -0.40909125682E+03  0.16520075375E+03  0.40331788803E+03  0.59775602404E+03  0.50400001928E-02 0.  1.
</event>
<event>
 5   0  0.1608627E-04  0.1769964E+04  0.7818609E-02  0.8722437E-01
        2   -1    0    0  501    0  0.00000000000E+00  0.00000000000E+00  0.56374008559E+03  0.56374008559E+03  0.25500000920E-02 0. -1.
       -2   -1    0    0    0  501  0.00000000000E+00  0.00000000000E+00 -0.13892812270E+04  0.13892812270E+04  0.25500000920E-02 0.  1.
    10030    2    1    2    0    0  0.00000000000E+00  0.00000000000E+00 -0.82554114141E+03  0.19530213126E+04  0.17699644266E+04 0.  0.
        2    1    3    3  502    0 -0.49215599728E+03  0.60682658446E+03 -0.87137236046E+03  0.11703614057E+04  0.25500000920E-02 0.  1.
       -2    1    3    3    0  502  0.49215599728E+03 -0.60682658446E+03  0.45831219053E+02  0.78265990693E+03  0.25500000920E-02 0. -1.
</event>
<event>
 5   0  0.8206783E-05  0.1809327E+04  0.7818609E-02  0.8701355E-01
        1   -1    0    0  501    0  0.00000000000E+00  0.00000000000E+00  0.15219326842E+04  0.15219326842E+04  0.50400001928E-02 0.  1.
       -1   -1    0    0    0  501  0.00000000000E+00  0.00000000000E+00 -0.53774765810E+03  0.53774765812E+03  0.50400001928E-02 0. -1.
    10030    2    1    2    0    0  0.00000000000E+00  0.00000000000E+00  0.98418502606E+03  0.20596803423E+04  0.18093266557E+04 0.  0.
        1    1    3    3  502    0 -0.40256955721E+02  0.75746381718E+03 -0.69116980111E+02  0.76167526793E+03  0.50400001928E-02 0. -1.
       -1    1    3    3    0  502  0.40256955721E+02 -0.75746381718E+03  0.10533020062E+04  0.12980050744E+04  0.50400001928E-02 0.  1.
</event>
<event>
 5   0  0.8492114E-05  0.1806958E+04  0.7818609E-02  0.8702608E-01
        1   -1    0    0  501    0  0.00000000000E+00  0.00000000000E+00  0.53197663370E+03  0.53197663372E+03  0.50400001928E-02 0.  1.
       -1   -1    0    0    0  501  0.00000000000E+00  0.00000000000E+00 -0.15344182038E+04  0.15344182038E+04  0.50400001928E-02 0. -1.
    10030    2    1    2    0    0  0.00000000000E+00  0.00000000000E+00 -0.10024415701E+04  0.20663948376E+04  0.18069583623E+04 0.  0.
        2    1    3    3  502    0 -0.55265786513E+03  0.60949126018E+03 -0.74306230821E+02  0.82609426100E+03  0.25500000920E-02 0. -1.
       -2    1    3    3    0  502  0.55265786513E+03 -0.60949126018E+03 -0.92813533931E+03  0.12403005766E+04  0.25500000920E-02 0.  1.
</event>
<event>
 5   0  0.8254914E-05  0.1829117E+04  0.7818609E-02  0.8690967E-01
       -1   -1    0    0    0  501  0.00000000000E+00  0.00000000000E+00  0.96338846000E+03  0.96338846001E+03  0.50400001928E-02 0.  1.
        1   -1    0    0  501    0  0.00000000000E+00  0.00000000000E+00 -0.86820357797E+03  0.86820357799E+03  0.50400001928E-02 0. -1.
    10030    2    1    2    0    0  0.00000000000E+00  0.00000000000E+00  0.95184882026E+02  0.18315920380E+04  0.18291170635E+04 0.  0.
        4    1    3    3  502    0  0.62998932079E+03 -0.17820073905E+03 -0.59184317678E+03  0.88256558199E+03  0.12699999809E+01 0. -1.
       -4    1    3    3    0  502 -0.62998932079E+03  0.17820073905E+03  0.68702805881E+03  0.94902645601E+03  0.12699999809E+01 0.  1.
</event>
<event>
 5   0  0.5820500E-05  0.1806551E+04  0.7818609E-02  0.8702824E-01
       -3   -1    0    0    0  501  0.00000000000E+00  0.00000000000E+00  0.83293432608E+03  0.83293433221E+03  0.10100000352E+00 0. -1.
        3   -1    0    0  501    0  0.00000000000E+00  0.00000000000E+00 -0.97955643930E+03  0.97955644450E+03  0.10100000352E+00 0.  1.
    10030    2    1    2    0    0  0.00000000000E+00  0.00000000000E+00 -0.14662211321E+03  0.18124907767E+04  0.18065505173E+04 0.  0.
        2    1    3    3  502    0  0.39271599702E+03 -0.61177766963E+03  0.46455661208E+03  0.86273438393E+03  0.25500000920E-02 0. -1.
       -2    1    3    3    0  502 -0.39271599702E+03  0.61177766963E+03 -0.61117872530E+03  0.94975639278E+03  0.25500000920E-02 0.  1.
</event>
<event>
 5   0  0.1628397E-04  0.1842064E+04  0.7818609E-02  0.8684245E-01
        2   -1    0    0  501    0  0.00000000000E+00  0.00000000000E+00  0.11644838217E+04  0.11644838217E+04  0.25500000920E-02 0.  1.
       -2   -1    0    0    0  501  0.00000000000E+00  0.00000000000E+00 -0.72847688982E+03  0.72847688982E+03  0.25500000920E-02 0. -1.
    10030    2    1    2    0    0  0.00000000000E+00  0.00000000000E+00  0.43600693185E+03  0.18929607115E+04  0.18420635740E+04 0.  0.
        3    1    3    3  502    0 -0.37087782912E+03  0.45377289200E+03  0.94815597355E+03  0.11146568809E+04  0.10100000352E+00 0.  1.
       -3    1    3    3    0  502  0.37087782912E+03 -0.45377289200E+03 -0.51214904171E+03  0.77830383063E+03  0.10100000352E+00 0. -1.
</event>
<event>
 5   0  0.1628397E-04  0.1805479E+04  0.7818609E-02  0.8703391E-01
        2   -1    0    0  501    0  0.00000000000E+00  0.00000000000E+00  0.88739286167E+03  0.88739286167E+03  0.25500000920E-02 0. -1.
       -2   -1    0    0    0  501  0.00000000000E+00  0.00000000000E+00 -0.91835136574E+03  0.91835136575E+03  0.25500000920E-02 0.  1.
    10030    2    1    2    0    0  0.00000000000E+00  0.00000000000E+00 -0.30958504075E+02  0.18057442274E+04  0.18054788245E+04 0.  0.
        3    1    3    3  502    0 -0.77495438077E+02 -0.45312856888E+03  0.76155669652E+03  0.88955025438E+03  0.10100000352E+00 0. -1.
       -3    1    3    3    0  502  0.77495438077E+02  0.45312856888E+03 -0.79251520059E+03  0.91619397304E+03  0.10100000352E+00 0.  1.
</event>
<event>
 5   0  0.8132598E-05  0.1796004E+04  0.7818609E-02  0.8708427E-01
        1   -1    0    0  501    0  0.00000000000E+00  0.00000000000E+00  0.16469545510E+04  0.16469545510E+04  0.50400001928E-02 0. -1.
       -1   -1    0    0    0  501  0.00000000000E+00  0.00000000000E+00 -0.48963568928E+03  0.48963568930E+03  0.50400001928E-02 0.  1.
    10030    2    1    2    0    0  0.00000000000E+00  0.00000000000E+00  0.11573188617E+04  0.21365902403E+04  0.17960041501E+04 0.  0.
        3    1    3    3  502    0 -0.81146135281E+03  0.49558436344E+02  0.10324116490E+04  0.13140773907E+04  0.10100000352E+00 0. -1.
       -3    1    3    3    0  502  0.81146135281E+03 -0.49558436344E+02  0.12490721275E+03  0.82251284957E+03  0.10100000352E+00 0.  1.
</event>
<event>
 5   0  0.8254914E-05  0.1744160E+04  0.7818609E-02  0.8736571E-01
        1   -1    0    0  501    0  0.00000000000E+00  0.00000000000E+00  0.75715742974E+03  0.75715742975E+03  0.50400001928E-02 0.  1.
       -1   -1    0    0    0  501  0.00000000000E+00  0.00000000000E+00 -0.10044457820E+04  0.10044457820E+04  0.50400001928E-02 0. -1.
    10030    2    1    2    0    0  0.00000000000E+00  0.00000000000E+00 -0.24728835229E+03  0.17616032118E+04  0.17441600691E+04 0.  0.
        4    1    3    3  502    0 -0.68462645880E+03  0.47171049314E+03 -0.38952160242E+03  0.91812464789E+03  0.12699999809E+01 0. -1.
       -4    1    3    3    0  502  0.68462645880E+03 -0.47171049314E+03  0.14223325012E+03  0.84347856390E+03  0.12699999809E+01 0.  1.
</event>
<event>
 5   0  0.8430513E-05  0.1782170E+04  0.7818609E-02  0.8715839E-01
        1   -1    0    0  501    0  0.00000000000E+00  0.00000000000E+00  0.88563991119E+03  0.88563991121E+03  0.50400001928E-02 0. -1.
       -1   -1    0    0    0  501  0.00000000000E+00  0.00000000000E+00 -0.89656383220E+03  0.89656383222E+03  0.50400001928E-02 0.  1.
    10030    2    1    2    0    0  0.00000000000E+00  0.00000000000E+00 -0.10923921010E+02  0.17822037434E+04  0.17821702643E+04 0.  0.
        5    1    3    3  502    0  0.52017006618E+03  0.66594693137E+03  0.27729484911E+03  0.88936872921E+03  0.46999998093E+01 0. -1.
       -5    1    3    3    0  502 -0.52017006618E+03 -0.66594693137E+03 -0.28821877012E+03  0.89283501421E+03  0.46999998093E+01 0.  1.
</event>
<event>
 5   0  0.1549012E-04  0.1802857E+04  0.7818609E-02  0.8704782E-01
       -2   -1    0    0    0  501  0.00000000000E+00  0.00000000000E+00  0.33786516524E+03  0.33786516525E+03  0.25500000920E-02 0. -1.
        2   -1    0    0  501    0  0.00000000000E+00  0.00000000000E+00 -0.24050215116E+04  0.24050215116E+04  0.25500000920E-02 0.  1.
    10030    2    1    2    0    0  0.00000000000E+00  0.00000000000E+00 -0.20671563464E+04  0.27428866768E+04  0.18028566115E+04 0.  0.
        4    1    3    3  502    0 -0.53947463800E+03  0.60661341736E+03 -0.16297669922E+04  0.18207566517E+04  0.12699999809E+01 0.  1.
       -4    1    3    3    0  502  0.53947463800E+03 -0.60661341736E+03 -0.43738935421E+03  0.92213002513E+03  0.12699999809E+01 0. -1.
</event>
<event>
 5   0  0.1549012E-04  0.1829791E+04  0.7818609E-02  0.8690616E-01
       -2   -1    0    0    0  501  0.00000000000E+00  0.00000000000E+00  0.13460630895E+04  0.13460630895E+04  0.25500000920E-02 0. -1.
        2   -1    0    0  501    0  0.00000000000E+00  0.00000000000E+00 -0.62183836417E+03  0.62183836418E+03  0.25500000920E-02 0.  1.
    10030    2    1    2    0    0  0.00000000000E+00  0.00000000000E+00  0.72422472537E+03  0.19679014537E+04  0.18297908839E+04 0.  0.
        4    1    3    3  502    0 -0.11835053272E+03  0.33457656386E+03 -0.54479360196E+03  0.65019228488E+03  0.12699999809E+01 0.  1.
       -4    1    3    3    0  502  0.11835053272E+03 -0.33457656386E+03  0.12690183273E+04  0.13177091688E+04  0.12699999809E+01 0. -1.
</event>
<event>
 5   0  0.1628397E-04  0.1794729E+04  0.7818609E-02  0.8709108E-01
       -2   -1    0    0    0  501  0.00000000000E+00  0.00000000000E+00  0.64243869388E+03  0.64243869389E+03  0.25500000920E-02 0. -1.
        2   -1    0    0  501    0  0.00000000000E+00  0.00000000000E+00 -0.12534474306E+04  0.12534474306E+04  0.25500000920E-02 0.  1.
    10030    2    1    2    0    0  0.00000000000E+00  0.00000000000E+00 -0.61100873672E+03  0.18958861245E+04  0.17947290940E+04 0.  0.
        3    1    3    3  502    0  0.43977198384E+03 -0.70931349259E+03 -0.65384505050E+03  0.10602067670E+04  0.10100000352E+00 0. -1.
       -3    1    3    3    0  502 -0.43977198384E+03  0.70931349259E+03  0.42836313782E+02  0.83567935748E+03  0.10100000352E+00 0.  1.
</event>
<event>
 5   0  0.8206783E-05  0.1790760E+04  0.7818609E-02  0.8711229E-01
       -1   -1    0    0    0  501  0.00000000000E+00  0.00000000000E+00  0.44492472502E+03  0.44492472505E+03  0.50400001928E-02 0. -1.
        1   -1    0    0  501    0  0.00000000000E+00  0.00000000000E+00 -0.18018890053E+04  0.18018890053E+04  0.50400001928E-02 0.  1.
    10030    2    1    2    0    0  0.00000000000E+00  0.00000000000E+00 -0.13569642803E+04  0.22468137304E+04  0.17907595821E+04 0.  0.
        1    1    3    3  502    0 -0.84021219525E+03 -0.28589043645E+03 -0.82701680359E+03  0.12131144497E+04  0.50400001928E-02 0.  1.
       -1    1    3    3    0  502  0.84021219525E+03  0.28589043645E+03 -0.52994747670E+03  0.10336992806E+04  0.50400001928E-02 0. -1.
</event>
<event>
 5   0  0.1549012E-04  0.1802419E+04  0.7818609E-02  0.8705014E-01
       -2   -1    0    0    0  501  0.00000000000E+00  0.00000000000E+00  0.80252856938E+03  0.80252856938E+03  0.25500000920E-02 0. -1.
        2   -1    0    0  501    0  0.00000000000E+00  0.00000000000E+00 -0.10120240738E+04  0.10120240738E+04  0.25500000920E-02 0.  1.
    10030    2    1    2    0    0  0.00000000000E+00  0.00000000000E+00 -0.20949550439E+03  0.18145526432E+04  0.18024186330E+04 0.  0.
        4    1    3    3  502    0 -0.89710922806E+03 -0.53888733367E+02 -0.17203825815E+03  0.91504521081E+03  0.12699999809E+01 0.  1.
       -4    1    3    3    0  502  0.89710922806E+03  0.53888733367E+02 -0.37457246243E+02  0.89950743235E+03  0.12699999809E+01 0. -1.
</event>
<event>
 5   0  0.8254914E-05  0.1786689E+04  0.7818609E-02  0.8713410E-01
       -1   -1    0    0    0  501  0.00000000000E+00  0.00000000000E+00  0.61127701511E+03  0.61127701513E+03  0.50400001928E-02 0.  1.
        1   -1    0    0  501    0  0.00000000000E+00  0.00000000000E+00 -0.13055698138E+04  0.13055698138E+04  0.50400001928E-02 0. -1.
    10030    2    1    2    0    0  0.00000000000E+00  0.00000000000E+00 -0.69429279864E+03  0.19168468289E+04  0.17866894736E+04 0.  0.
        4    1    3    3  502    0  0.77427347983E+02 -0.26692700668E+03  0.56371269583E+03  0.62850508148E+03  0.12699999809E+01 0.  1.
       -4    1    3    3    0  502 -0.77427347983E+02  0.26692700668E+03 -0.12580054945E+04  0.12883417474E+04  0.12699999809E+01 0. -1.
</event>
<event>
 5   0  0.1573981E-04  0.1794746E+04  0.7818609E-02  0.8709098E-01
        2   -1    0    0  501    0  0.00000000000E+00  0.00000000000E+00  0.17653157600E+04  0.17653157600E+04  0.25500000920E-02 0. -1.
       -2   -1    0    0    0  501  0.00000000000E+00  0.00000000000E+00 -0.45616683138E+03  0.45616683139E+03  0.25500000920E-02 0.  1.
    10030    2    1    2    0    0  0.00000000000E+00  0.00000000000E+00  0.13091489287E+04  0.22214825914E+04  0.17947462179E+04 0.  0.
        1    1    3    3  502    0 -0.41465457854E+03 -0.72621601009E+03  0.25168015373E+03  0.87331037588E+03  0.50400001928E-02 0.  1.
       -1    1    3    3    0  502  0.41465457854E+03  0.72621601009E+03  0.10574687749E+04  0.13481722155E+04  0.50400001928E-02 0. -1.
</event>
<event>
 5   0  0.1603564E-04  0.1802154E+04  0.7818609E-02  0.8705155E-01
        2   -1    0    0  501    0  0.00000000000E+00  0.00000000000E+00  0.17663190497E+04  0.17663190497E+04  0.25500000920E-02 0.  1.
       -2   -1    0    0    0  501  0.00000000000E+00  0.00000000000E+00 -0.45967890648E+03  0.45967890648E+03  0.25500000920E-02 0. -1.
    10030    2    1    2    0    0  0.00000000000E+00  0.00000000000E+00  0.13066401432E+04  0.22259979562E+04  0.18021538328E+04 0.  0.
        5    1    3    3  502    0 -0.13477038323E+02 -0.80156719460E+03  0.11614401366E+04  0.14112607409E+04  0.46999998093E+01 0.  1.
       -5    1    3    3    0  502  0.13477038323E+02  0.80156719460E+03  0.14520000666E+03  0.81473721528E+03  0.46999998093E+01 0. -1.
</event>
<event>
 5   0  0.8206783E-05  0.1799428E+04  0.7818609E-02  0.8706604E-01
       -1   -1    0    0    0  501  0.00000000000E+00  0.00000000000E+00  0.88299181101E+03  0.88299181102E+03  0.50400001928E-02 0. -1.
        1   -1    0    0  501    0  0.00000000000E+00  0.00000000000E+00 -0.91675299115E+03  0.91675299117E+03  0.50400001928E-02 0.  1.
    10030    2    1    2    0    0  0.00000000000E+00  0.00000000000E+00 -0.33761180145E+02  0.17997448022E+04  0.17994281135E+04 0.  0.
        1    1    3    3  502    0  0.92592025883E+02 -0.87421093968E+03  0.17464027353E+03  0.89627968597E+03  0.50400001928E-02 0.  1.
       -1    1    3    3    0  502 -0.92592025883E+02  0.87421093968E+03 -0.20840145368E+03  0.90346511622E+03  0.50400001928E-02 0. -1.
</event>
<event>
 5   0  0.8206783E-05  0.1800496E+04  0.7818609E-02  0.8706036E-01
        1   -1    0    0  501    0  0.00000000000E+00  0.00000000000E+00  0.70978936985E+03  0.70978936987E+03  0.50400001928E-02 0. -1.
       -1   -1    0    0    0  501  0.00000000000E+00  0.00000000000E+00 -0.11418128330E+04  0.11418128330E+04  0.50400001928E-02 0.  1.
    10030    2    1    2    0    0  0.00000000000E+00  0.00000000000E+00 -0.43202346314E+03  0.18516022029E+04  0.18004961663E+04 0.  0.
        1    1    3    3  502    0  0.51919047645E+03  0.11455981529E+03  0.53108241152E+03  0.75148601449E+03  0.50400001928E-02 0. -1.
       -1    1    3    3    0  502 -0.51919047645E+03 -0.11455981529E+03 -0.96310587466E+03  0.11001161884E+04  0.50400001928E-02 0.  1.
</event>
<event>
 5   0  0.8254914E-05  0.1799935E+04  0.7818609E-02  0.8706334E-01
        1   -1    0    0  501    0  0.00000000000E+00  0.00000000000E+00  0.68279891337E+03  0.68279891339E+03  0.50400001928E-02 0.  1.
       -1   -1    0    0    0  501  0.00000000000E+00  0.00000000000E+00 -0.11862084364E+04  0.11862084364E+04  0.50400001928E-02 0. -1.
    10030    2    1    2    0    0  0.00000000000E+00  0.00000000000E+00 -0.50340952300E+03  0.18690073498E+04  0.17999353671E+04 0.  0.
        4    1    3    3  502    0  0.49645381306E+03 -0.64749423477E+03 -0.64604803901E+03  0.10407184317E+04  0.12699999809E+01 0.  1.
       -4    1    3    3    0  502 -0.49645381306E+03  0.64749423477E+03  0.14263851601E+03  0.82828891802E+03  0.12699999809E+01 0. -1.
</event>
<event>
 5   0  0.1549012E-04  0.1823100E+04  0.7818609E-02  0.8694111E-01
        2   -1    0    0  501    0  0.00000000000E+00  0.00000000000E+00  0.18630755770E+04  0.18630755770E+04  0.25500000920E-02 0. -1.
       -2   -1    0    0    0  501  0.00000000000E+00  0.00000000000E+00 -0.44599572069E+03  0.44599572070E+03  0.25500000920E-02 0.  1.
    10030    2    1    2    0    0  0.00000000000E+00  0.00000000000E+00  0.14170798563E+04  0.23090712977E+04  0.18231003644E+04 0.  0.
        4    1    3    3  502    0  0.43496146591E+03 -0.24736915929E+03 -0.25649385968E+03  0.56229324267E+03  0.12699999809E+01 0.  1.
       -4    1    3    3    0  502 -0.43496146591E+03  0.24736915929E+03  0.16735737160E+04  0.17467780550E+04  0.12699999809E+01 0. -1.
</event>
<event>
 5   0  0.8206783E-05  0.1790040E+04  0.7818609E-02  0.8711614E-01
       -1   -1    0    0    0  501  0.00000000000E+00  0.00000000000E+00  0.42906889169E+03  0.42906889172E+03  0.50400001928E-02 0.  1.
        1   -1    0    0  501    0  0.00000000000E+00  0.00000000000E+00 -0.18669746867E+04  0.18669746867E+04  0.50400001928E-02 0. -1.
    10030    2    1    2    0    0  0.00000000000E+00  0.00000000000E+00 -0.14379057950E+04  0.22960435784E+04  0.17900399545E+04 0.  0.
        1    1    3    3  502    0  0.69766566812E+03 -0.46312148112E+03 -0.11242502369E+04  0.14018407491E+04  0.50400001928E-02 0. -1.
       -1    1    3    3    0  502 -0.69766566812E+03  0.46312148112E+03 -0.31365555810E+03  0.89420282928E+03  0.50400001928E-02 0.  1.
</event>
<event>
 5   0  0.1573981E-04  0.1795739E+04  0.7818609E-02  0.8708569E-01
        2   -1    0    0  501    0  0.00000000000E+00  0.00000000000E+00  0.22722959237E+04  0.22722959238E+04  0.25500000920E-02 0.  1.
       -2   -1    0    0    0  501  0.00000000000E+00  0.00000000000E+00 -0.35478187158E+03  0.35478187158E+03  0.25500000920E-02 0. -1.
    10030    2    1    2    0    0  0.00000000000E+00  0.00000000000E+00  0.19175140522E+04  0.26270777953E+04  0.17957387345E+04 0.  0.
        1    1    3    3  502    0 -0.10594271574E+03  0.20636853398E+03 -0.31018543699E+03  0.38733297843E+03  0.50400001928E-02 0. -1.
       -1    1    3    3    0  502  0.10594271574E+03 -0.20636853398E+03  0.22276994892E+04  0.22397448169E+04  0.50400001928E-02 0.  1.
</event>
<event>
 5   0  0.5820500E-05  0.1815732E+04  0.7818609E-02  0.8697978E-01
        3   -1    0    0  501    0  0.00000000000E+00  0.00000000000E+00  0.10730571705E+04  0.10730571752E+04  0.10100000352E+00 0.  1.
       -3   -1    0    0    0  501  0.00000000000E+00  0.00000000000E+00 -0.76810478309E+03  0.76810478973E+03  0.10100000352E+00 0. -1.
    10030    2    1    2    0    0  0.00000000000E+00  0.00000000000E+00  0.30495238739E+03  0.18411619650E+04  0.18157316494E+04 0.  0.
        2    1    3    3  502    0  0.90644226176E+03  0.27147022928E+02  0.19604093214E+03  0.92779662742E+03  0.25500000920E-02 0. -1.
       -2    1    3    3    0  502 -0.90644226176E+03 -0.27147022928E+02  0.10891145525E+03  0.91336533756E+03  0.25500000920E-02 0.  1.
</event>
<event>
 5   0  0.1628397E-04  0.1780986E+04  0.7818609E-02  0.8716477E-01
        2   -1    0    0  501    0  0.00000000000E+00  0.00000000000E+00  0.68862241947E+03  0.68862241948E+03  0.25500000920E-02 0. -1.
       -2   -1    0    0    0  501  0.00000000000E+00  0.00000000000E+00 -0.11515426186E+04  0.11515426186E+04  0.25500000920E-02 0.  1.
    10030    2    1    2    0    0  0.00000000000E+00  0.00000000000E+00 -0.46292019917E+03  0.18401650381E+04  0.17809863157E+04 0.  0.
        3    1    3    3  502    0 -0.26028186141E+03  0.47754429561E+03 -0.96000154555E+03  0.11033576842E+04  0.10100000352E+00 0.  1.
       -3    1    3    3    0  502  0.26028186141E+03 -0.47754429561E+03  0.49708134638E+03  0.73680735391E+03  0.10100000352E+00 0. -1.
</event>
<event>
 5   0  0.8206783E-05  0.1799346E+04  0.7818609E-02  0.8706647E-01
       -1   -1    0    0    0  501  0.00000000000E+00  0.00000000000E+00  0.74261206576E+03  0.74261206578E+03  0.50400001928E-02 0. -1.
        1   -1    0    0  501    0  0.00000000000E+00  0.00000000000E+00 -0.10899524511E+04  0.10899524511E+04  0.50400001928E-02 0.  1.
    10030    2    1    2    0    0  0.00000000000E+00  0.00000000000E+00 -0.34734038537E+03  0.18325645169E+04  0.17993463717E+04 0.  0.
        1    1    3    3  502    0  0.33652708659E+03 -0.37119916600E+03 -0.93470851619E+03  0.10605278455E+04  0.50400001928E-02 0.  1.
       -1    1    3    3    0  502 -0.33652708659E+03  0.37119916600E+03  0.58736813083E+03  0.77203667140E+03  0.50400001928E-02 0. -1.
</event>
<event>
 5   0  0.5820500E-05  0.1795073E+04  0.7818609E-02  0.8708924E-01
       -3   -1    0    0    0  501  0.00000000000E+00  0.00000000000E+00  0.11950721763E+04  0.11950721806E+04  0.10100000352E+00 0. -1.
        3   -1    0    0  501    0  0.00000000000E+00  0.00000000000E+00 -0.67407777615E+03  0.67407778372E+03  0.10100000352E+00 0.  1.
    10030    2    1    2    0    0  0.00000000000E+00  0.00000000000E+00  0.52099440016E+03  0.18691499643E+04  0.17950728186E+04 0.  0.
        4    1    3    3  502    0 -0.15024387155E+03 -0.83358044489E+03  0.56963322574E+03  0.10207414971E+04  0.12699999809E+01 0.  1.
       -4    1    3    3    0  502  0.15024387155E+03  0.83358044489E+03 -0.48638825573E+02  0.84840846725E+03  0.12699999809E+01 0. -1.
</event>
<event>
 5   0  0.1603564E-04  0.1790893E+04  0.7818609E-02  0.8711158E-01
        2   -1    0    0  501    0  0.00000000000E+00  0.00000000000E+00  0.16769562163E+04  0.16769562163E+04  0.25500000920E-02 0.  1.
       -2   -1    0    0    0  501  0.00000000000E+00  0.00000000000E+00 -0.47814267275E+03  0.47814267275E+03  0.25500000920E-02 0. -1.
    10030    2    1    2    0    0  0.00000000000E+00  0.00000000000E+00  0.11988135435E+04  0.21550988890E+04  0.17908928805E+04 0.  0.
        5    1    3    3  502    0  0.75420884307E+03  0.34090382186E+03  0.18822211162E+03  0.84882038620E+03  0.46999998093E+01 0. -1.
       -5    1    3    3    0  502 -0.75420884307E+03 -0.34090382186E+03  0.10105914319E+04  0.13062785028E+04  0.46999998093E+01 0.  1.
</event>
<event>
 5   0  0.8206783E-05  0.1815156E+04  0.7818609E-02  0.8698281E-01
       -1   -1    0    0    0  501  0.00000000000E+00  0.00000000000E+00  0.19837251812E+04  0.19837251812E+04  0.50400001928E-02 0.  1.
        1   -1    0    0  501    0  0.00000000000E+00  0.00000000000E+00 -0.41522776381E+03  0.41522776384E+03  0.50400001928E-02 0. -1.
    10030    2    1    2    0    0  0.00000000000E+00  0.00000000000E+00  0.15684974174E+04  0.23989529451E+04  0.18151559394E+04 0.  0.
        1    1    3    3  502    0 -0.87052432307E+03 -0.21823687601E+03  0.60566884551E+03  0.10827163440E+04  0.50400001928E-02 0. -1.
       -1    1    3    3    0  502  0.87052432307E+03  0.21823687601E+03  0.96282857189E+03  0.13162366011E+04  0.50400001928E-02 0.  1.
</event>
<event>
 5   0  0.8430513E-05  0.1812119E+04  0.7818609E-02  0.8699881E-01
        1   -1    0    0  501    0  0.00000000000E+00  0.00000000000E+00  0.65391992297E+03  0.65391992299E+03  0.50400001928E-02 0. -1.
       -1   -1    0    0    0  501  0.00000000000E+00  0.00000000000E+00 -0.12554191078E+04  0.12554191078E+04  0.50400001928E-02 0.  1.
    10030    2    1    2    0    0  0.00000000000E+00  0.00000000000E+00 -0.60149918481E+03  0.19093390308E+04  0.18121187227E+04 0.  0.
        5    1    3    3  502    0  0.90069322381E+03  0.38718842489E+02 -0.39601053876E+03  0.98467957681E+03  0.46999998093E+01 0.  1.
       -5    1    3    3    0  502 -0.90069322381E+03 -0.38718842489E+02 -0.20548864605E+03  0.92465945398E+03  0.46999998093E+01 0. -1.
</event>
<event>
 5   0  0.8132598E-05  0.1794085E+04  0.7818609E-02  0.8709451E-01
       -1   -1    0    0    0  501  0.00000000000E+00  0.00000000000E+00  0.74116109998E+03  0.74116110000E+03  0.50400001928E-02 0. -1.
        1   -1    0    0  501    0  0.00000000000E+00  0.00000000000E+00 -0.10857095389E+04  0.10857095390E+04  0.50400001928E-02 0.  1.
    10030    2    1    2    0    0  0.00000000000E+00  0.00000000000E+00 -0.34454843896E+03  0.18268706390E+04  0.17940854786E+04 0.  0.
        3    1    3    3  502    0 -0.63743606742E+03  0.40944451810E+03 -0.66138093708E+03  0.10056810168E+04  0.10100000352E+00 0. -1.
       -3    1    3    3    0  502  0.63743606742E+03 -0.40944451810E+03  0.31683249812E+03  0.82118962214E+03  0.10100000352E+00 0.  1.
</event>
<event>
 5   0  0.1549012E-04  0.1848489E+04  0.7818609E-02  0.8680930E-01
       -2   -1    0    0    0  501  0.00000000000E+00  0.00000000000E+00  0.44210314535E+03  0.44210314536E+03  0.25500000920E-02 0. -1.
        2   -1    0    0  501    0  0.00000000000E+00  0.00000000000E+00 -0.19321914516E+04  0.19321914516E+04  0.25500000920E-02 0.  1.
    10030    2    1    2    0    0  0.00000000000E+00  0.00000000000E+00 -0.14900883062E+04  0.23742945969E+04  0.18484890242E+04 0.  0.
        4    1    3    3  502    0 -0.61858494911E+03 -0.99012765859E+02 -0.16178811423E+04  0.17349328144E+04  0.12699999809E+01 0.  1.
       -4    1    3    3    0  502  0.61858494911E+03  0.99012765859E+02  0.12779283608E+03  0.63936178250E+03  0.12699999809E+01 0. -1.
</event>
<event>
 5   0  0.8492114E-05  0.1788041E+04  0.7818609E-02  0.8712685E-01
       -1   -1    0    0    0  501  0.00000000000E+00  0.00000000000E+00  0.66336337702E+03  0.66336337704E+03  0.50400001928E-02 0. -1.
        1   -1    0    0  501    0  0.00000000000E+00  0.00000000000E+00 -0.12048794718E+04  0.12048794718E+04  0.50400001928E-02 0.  1.
    10030    2    1    2    0    0  0.00000000000E+00  0.00000000000E+00 -0.54151609473E+03  0.18682428488E+04  0.17880412918E+04 0.  0.
        2    1    3    3  502    0 -0.70703752754E+03  0.48015849877E+03 -0.54485796793E+03  0.10135701527E+04  0.25500000920E-02 0.  1.
       -2    1    3    3    0  502  0.70703752754E+03 -0.48015849877E+03  0.33418731942E+01  0.85467269607E+03  0.25500000920E-02 0. -1.
</event>
<event>
 5   0  0.5820500E-05  0.1737336E+04  0.7818609E-02  0.8740352E-01
       -3   -1    0    0    0  501  0.00000000000E+00  0.00000000000E+00  0.68213881058E+03  0.68213881806E+03  0.10100000352E+00 0. -1.
        3   -1    0    0  501    0  0.00000000000E+00  0.00000000000E+00 -0.11062024877E+04  0.11062024923E+04  0.10100000352E+00 0.  1.
    10030    2    1    2    0    0  0.00000000000E+00  0.00000000000E+00 -0.42406367710E+03  0.17883413104E+04  0.17373355002E+04 0.  0.
        5    1    3    3  502    0 -0.61770847160E+03 -0.30366305528E+03  0.33341807246E+03  0.76482985564E+03  0.46999998093E+01 0. -1.
       -5    1    3    3    0  502  0.61770847160E+03  0.30366305528E+03 -0.75748174955E+03  0.10235114547E+04  0.46999998093E+01 0.  1.
</event>
<event>
 5   0  0.1573981E-04  0.1789328E+04  0.7818609E-02  0.8711996E-01
       -2   -1    0    0    0  501  0.00000000000E+00  0.00000000000E+00  0.73276257871E+03  0.73276257871E+03  0.25500000920E-02 0. -1.
        2   -1    0    0  501    0  0.00000000000E+00  0.00000000000E+00 -0.10923365561E+04  0.10923365561E+04  0.25500000920E-02 0.  1.
    10030    2    1    2    0    0  0.00000000000E+00  0.00000000000E+00 -0.35957397739E+03  0.18250991348E+04  0.17893276410E+04 0.  0.
        1    1    3    3  502    0 -0.32398513960E+03 -0.65865222440E+03  0.34194067895E+03  0.80976079884E+03  0.50400001928E-02 0. -1.
       -1    1    3    3    0  502  0.32398513960E+03  0.65865222440E+03 -0.70151465635E+03  0.10153383360E+04  0.50400001928E-02 0.  1.
</event>
<event>
 5   0  0.1549012E-04  0.1798425E+04  0.7818609E-02  0.8707138E-01
        2   -1    0    0  501    0  0.00000000000E+00  0.00000000000E+00  0.24545618399E+04  0.24545618399E+04  0.25500000920E-02 0. -1.
       -2   -1    0    0    0  501  0.00000000000E+00  0.00000000000E+00 -0.32942041745E+03  0.32942041746E+03  0.25500000920E-02 0.  1.
    10030    2    1    2    0    0  0.00000000000E+00  0.00000000000E+00  0.21251414225E+04  0.27839822574E+04  0.17984246284E+04 0.  0.
        4    1    3    3  502    0  0.66393076475E+03 -0.35147496975E+03  0.18276118745E+04  0.19759821587E+04  0.12699999809E+01 0. -1.
       -4    1    3    3    0  502 -0.66393076475E+03  0.35147496975E+03  0.29752954803E+03  0.80800009875E+03  0.12699999809E+01 0.  1.
</event>
<event>
 5   0  0.1549012E-04  0.1799429E+04  0.7818609E-02  0.8706603E-01
       -2   -1    0    0    0  501  0.00000000000E+00  0.00000000000E+00  0.61003557444E+03  0.61003557445E+03  0.25500000920E-02 0.  1.
        2   -1    0    0  501    0  0.00000000000E+00  0.00000000000E+00 -0.13269488049E+04  0.13269488049E+04  0.25500000920E-02 0. -1.
    10030    2    1    2    0    0  0.00000000000E+00  0.00000000000E+00 -0.71691323045E+03  0.19369843793E+04  0.17994287721E+04 0.  0.
        4    1    3    3  502    0 -0.31793527328E+03  0.52906807942E+03  0.34617323900E+03  0.70769583506E+03  0.12699999809E+01 0.  1.
       -4    1    3    3    0  502  0.31793527328E+03 -0.52906807942E+03 -0.10630864695E+04  0.12292885443E+04  0.12699999809E+01 0. -1.
</event>
<event>
 5   0  0.1608627E-04  0.1778099E+04  0.7818609E-02  0.8718034E-01
        2   -1    0    0  501    0  0.00000000000E+00  0.00000000000E+00  0.52176842698E+03  0.52176842699E+03  0.25500000920E-02 0. -1.
       -2   -1    0    0    0  501  0.00000000000E+00  0.00000000000E+00 -0.15148651369E+04  0.15148651369E+04  0.25500000920E-02 0.  1.
    10030    2    1    2    0    0  0.00000000000E+00  0.00000000000E+00 -0.99309670994E+03  0.20366335639E+04  0.17780987594E+04 0.  0.
        2    1    3    3  502    0 -0.27912860411E+03 -0.78060576698E+03 -0.12867950034E+03  0.83893775389E+03  0.25500000920E-02 0. -1.
       -2    1    3    3    0  502  0.27912860411E+03  0.78060576698E+03 -0.86441720960E+03  0.11976958100E+04  0.25500000920E-02 0.  1.
</event>
<event>
 5   0  0.1628397E-04  0.1765900E+04  0.7818609E-02  0.8724647E-01
        2   -1    0    0  501    0  0.00000000000E+00  0.00000000000E+00  0.50497764223E+03  0.50497764224E+03  0.25500000920E-02 0. -1.
       -2   -1    0    0    0  501  0.00000000000E+00  0.00000000000E+00 -0.15438323339E+04  0.15438323339E+04  0.25500000920E-02 0.  1.
    10030    2    1    2    0    0  0.00000000000E+00  0.00000000000E+00 -0.10388546917E+04  0.20488099762E+04  0.17659001240E+04 0.  0.
        3    1    3    3  502    0  0.15034555248E+03 -0.55889423742E+03  0.25420923832E+03  0.63213044604E+03  0.10100000352E+00 0. -1.
       -3    1    3    3    0  502 -0.15034555248E+03  0.55889423742E+03 -0.12930639300E+04  0.14166795301E+04  0.10100000352E+00 0.  1.
</event>
<event>
 5   0  0.8132598E-05  0.1799556E+04  0.7818609E-02  0.8706536E-01
        1   -1    0    0  501    0  0.00000000000E+00  0.00000000000E+00  0.93222852511E+03  0.93222852513E+03  0.50400001928E-02 0.  1.
       -1   -1    0    0    0  501  0.00000000000E+00  0.00000000000E+00 -0.86845679192E+03  0.86845679193E+03  0.50400001928E-02 0. -1.
    10030    2    1    2    0    0  0.00000000000E+00  0.00000000000E+00  0.63771733193E+02  0.18006853171E+04  0.17995557166E+04 0.  0.
        3    1    3    3  502    0  0.59293194437E+03  0.39581271134E+03  0.58119693402E+03  0.91979665113E+03  0.10100000352E+00 0.  1.
       -3    1    3    3    0  502 -0.59293194437E+03 -0.39581271134E+03 -0.51742520082E+03  0.88088866593E+03  0.10100000352E+00 0. -1.
</event>
<event>
 5   0  0.8254914E-05  0.1805261E+04  0.7818609E-02  0.8703507E-01
       -1   -1    0    0    0  501  0.00000000000E+00  0.00000000000E+00  0.11548325672E+04  0.11548325672E+04  0.50400001928E-02 0. -1.
        1   -1    0    0  501    0  0.00000000000E+00  0.00000000000E+00 -0.70550629100E+03  0.70550629102E+03  0.50400001928E-02 0.  1.
    10030    2    1    2    0    0  0.00000000000E+00  0.00000000000E+00  0.44932627621E+03  0.18603388582E+04  0.18052608025E+04 0.  0.
        4    1    3    3  502    0 -0.43308468588E+03  0.21244329852E+03 -0.56153241599E+03  0.74028019516E+03  0.12699999809E+01 0.  1.
       -4    1    3    3    0  502  0.43308468588E+03 -0.21244329852E+03  0.10108586922E+04  0.11200586631E+04  0.12699999809E+01 0. -1.
</event>
<event>
 5   0  0.1628397E-04  0.1804933E+04  0.7818609E-02  0.8703681E-01
        2   -1    0    0  501    0  0.00000000000E+00  0.00000000000E+00  0.10017278301E+04  0.10017278301E+04  0.25500000920E-02 0. -1.
       -2   -1    0    0    0  501  0.00000000000E+00  0.00000000000E+00 -0.81304078567E+03  0.81304078567E+03  0.25500000920E-02 0.  1.
    10030    2    1    2    0    0  0.00000000000E+00  0.00000000000E+00  0.18868704441E+03  0.18147686158E+04  0.18049327766E+04 0.  0.
        3    1    3    3  502    0  0.45503308818E+03 -0.35987188750E+03 -0.60071420528E+03  0.83511702975E+03  0.10100000352E+00 0.  1.
       -3    1    3    3    0  502 -0.45503308818E+03  0.35987188750E+03  0.78940124969E+03  0.97965158600E+03  0.10100000352E+00 0. -1.
</event>
<event>
 5   0  0.1608627E-04  0.1791648E+04  0.7818609E-02  0.8710754E-01
        2   -1    0    0  501    0  0.00000000000E+00  0.00000000000E+00  0.23405722558E+04  0.23405722558E+04  0.25500000920E-02 0.  1.
       -2   -1    0    0    0  501  0.00000000000E+00  0.00000000000E+00 -0.34286498212E+03  0.34286498213E+03  0.25500000920E-02 0. -1.
    10030    2    1    2    0    0  0.00000000000E+00  0.00000000000E+00  0.19977072737E+04  0.26834372380E+04  0.17916475822E+04 0.  0.
        2    1    3    3  502    0  0.56513587764E+03 -0.40495456257E+01  0.20398752780E+04  0.21167158782E+04  0.25500000920E-02 0.  1.
       -2    1    3    3    0  502 -0.56513587764E+03  0.40495456257E+01 -0.42168004346E+02  0.56672135976E+03  0.25500000920E-02 0. -1.
</event>
<event>
 5   0  0.8206783E-05  0.1803355E+04  0.7818609E-02  0.8704517E-01
       -1   -1    0    0    0  501  0.00000000000E+00  0.00000000000E+00  0.64468319420E+03  0.64468319422E+03  0.50400001928E-02 0. -1.
        1   -1    0    0  501    0  0.00000000000E+00  0.00000000000E+00 -0.12611195427E+04  0.12611195428E+04  0.50400001928E-02 0.  1.
    10030    2    1    2    0    0  0.00000000000E+00  0.00000000000E+00 -0.61643634855E+03  0.19058027370E+04  0.18033552896E+04 0.  0.
        1    1    3    3  502    0  0.55096824036E+03  0.21945340468E+03  0.40955439664E+03  0.72073615321E+03  0.50400001928E-02 0. -1.
       -1    1    3    3    0  502 -0.55096824036E+03 -0.21945340468E+03 -0.10259907452E+04  0.11850665838E+04  0.50400001928E-02 0.  1.
</event>
<event>
 5   0  0.1573981E-04  0.1799025E+04  0.7818609E-02  0.8706818E-01
       -2   -1    0    0    0  501  0.00000000000E+00  0.00000000000E+00  0.64075642837E+03  0.64075642838E+03  0.25500000920E-02 0. -1.
        2   -1    0    0  501    0  0.00000000000E+00  0.00000000000E+00 -0.12627619258E+04  0.12627619258E+04  0.25500000920E-02 0.  1.
    10030    2    1    2    0    0  0.00000000000E+00  0.00000000000E+00 -0.62200549743E+03  0.19035183542E+04  0.17990250932E+04 0.  0.
        1    1    3    3  502    0 -0.67676960051E+03  0.22485361366E+02  0.31550419531E+03  0.74703787115E+03  0.50400001928E-02 0. -1.
       -1    1    3    3    0  502  0.67676960051E+03 -0.22485361366E+02 -0.93750969273E+03  0.11564804830E+04  0.50400001928E-02 0.  1.
</event>
<event>
 5   0  0.8492114E-05  0.1802682E+04  0.7818609E-02  0.8704875E-01
       -1   -1    0    0    0  501  0.00000000000E+00  0.00000000000E+00  0.93310145123E+03  0.93310145125E+03  0.50400001928E-02 0. -1.
        1   -1    0    0  501    0  0.00000000000E+00  0.00000000000E+00 -0.87066124348E+03  0.87066124349E+03  0.50400001928E-02 0.  1.
    10030    2    1    2    0    0  0.00000000000E+00  0.00000000000E+00  0.62440207758E+02  0.18037626947E+04  0.18026816356E+04 0.  0.
        2    1    3    3  502    0 -0.28541320634E+03  0.38218021671E+03 -0.73402141251E+03  0.87539125562E+03  0.25500000920E-02 0.  1.
       -2    1    3    3    0  502  0.28541320634E+03 -0.38218021671E+03  0.79646162027E+03  0.92837143911E+03  0.25500000920E-02 0. -1.
</event>
<event>
 5   0  0.1603564E-04  0.1791499E+04  0.7818609E-02  0.8710834E-01
       -2   -1    0    0    0  501  0.00000000000E+00  0.00000000000E+00  0.39360095711E+03  0.39360095712E+03  0.25500000920E-02 0. -1.
        2   -1    0    0  501    0  0.00000000000E+00  0.00000000000E+00 -0.20385285150E+04  0.20385285150E+04  0.25500000920E-02 0.  1.
    10030    2    1    2    0    0  0.00000000000E+00  0.00000000000E+00 -0.16449275579E+04  0.24321294721E+04  0.17914985622E+04 0.  0.
        5    1    3    3  502    0 -0.47516436717E+03 -0.31657726636E+03 -0.17594427001E+04  0.18497737825E+04  0.46999998093E+01 0.  1.
       -5    1    3    3    0  502  0.47516436717E+03  0.31657726636E+03  0.11451514225E+03  0.58235568960E+03  0.46999998093E+01 0. -1.
</event>
<event>
 5   0  0.8492114E-05  0.1784142E+04  0.7818609E-02  0.8714778E-01
        1   -1    0    0  501    0  0.00000000000E+00  0.00000000000E+00  0.67999112125E+03  0.67999112127E+03  0.50400001928E-02 0. -1.
       -1   -1    0    0    0  501  0.00000000000E+00  0.00000000000E+00 -0.11702958825E+04  0.11702958825E+04  0.50400001928E-02 0.  1.
    10030    2    1    2    0    0  0.00000000000E+00  0.00000000000E+00 -0.49030476129E+03  0.18502870038E+04  0.17841421573E+04 0.  0.
        2    1    3    3  502    0 -0.38916350277E+03 -0.19097435303E+03 -0.10537184062E+04  0.11394041930E+04  0.25500000920E-02 0.  1.
       -2    1    3    3    0  502  0.38916350277E+03  0.19097435303E+03  0.56341364494E+03  0.71088281081E+03  0.25500000920E-02 0. -1.
</event>
<event>
 5   0  0.8132598E-05  0.1825527E+04  0.7818609E-02  0.8692841E-01
        1   -1    0    0  501    0  0.00000000000E+00  0.00000000000E+00  0.99380591840E+03  0.99380591842E+03  0.50400001928E-02 0. -1.
       -1   -1    0    0    0  501  0.00000000000E+00  0.00000000000E+00 -0.83833014638E+03  0.83833014640E+03  0.50400001928E-02 0.  1.
    10030    2    1    2    0    0  0.00000000000E+00  0.00000000000E+00  0.15547577202E+03  0.18321360648E+04  0.18255272784E+04 0.  0.
        3    1    3    3  502    0  0.57671732048E+03  0.56996667526E+03 -0.34291258253E+03  0.88037147165E+03  0.10100000352E+00 0.  1.
       -3    1    3    3    0  502 -0.57671732048E+03 -0.56996667526E+03  0.49838835455E+03  0.95176459316E+03  0.10100000352E+00 0. -1.
</event>
<event>
 5   0  0.8430513E-05  0.1782316E+04  0.7818609E-02  0.8715760E-01
       -1   -1    0    0    0  501  0.00000000000E+00  0.00000000000E+00  0.33961131883E+03  0.33961131886E+03  0.50400001928E-02 0.  1.
        1   -1    0    0  501    0  0.00000000000E+00  0.00000000000E+00 -0.23384466209E+04  0.23384466209E+04  0.50400001928E-02 0. -1.
    10030    2    1    2    0    0  0.00000000000E+00  0.00000000000E+00 -0.19988353021E+04  0.26780579398E+04  0.17823164040E+04 0.  0.
        5    1    3    3  502    0  0.11993555329E+03 -0.86026154575E+03 -0.70000830695E+03  0.11155573422E+04  0.46999998093E+01 0.  1.
       -5    1    3    3    0  502 -0.11993555329E+03  0.86026154575E+03 -0.12988269952E+04  0.15625005976E+04  0.46999998093E+01 0. -1.
</event>
<event>
 5   0  0.1573981E-04  0.1796269E+04  0.7818609E-02  0.8708286E-01
        2   -1    0    0  501    0  0.00000000000E+00  0.00000000000E+00  0.69388909967E+03  0.69388909967E+03  0.25500000920E-02 0. -1.
       -2   -1    0    0    0  501  0.00000000000E+00  0.00000000000E+00 -0.11624998729E+04  0.11624998729E+04  0.25500000920E-02 0.  1.
    10030    2    1    2    0    0  0.00000000000E+00  0.00000000000E+00 -0.46861077322E+03  0.18563889726E+04  0.17962694566E+04 0.  0.
        1    1    3    3  502    0 -0.15680270387E+03 -0.24171814653E+03  0.64483078324E+03  0.70627295668E+03  0.50400001928E-02 0. -1.
       -1    1    3    3    0  502  0.15680270387E+03  0.24171814653E+03 -0.11134415565E+04  0.11501160159E+04  0.50400001928E-02 0.  1.
</event>
<event>
 5   0  0.8132598E-05  0.1799146E+04  0.7818609E-02  0.8706754E-01
       -1   -1    0    0    0  501  0.00000000000E+00  0.00000000000E+00  0.61654270447E+03  0.61654270449E+03  0.50400001928E-02 0.  1.
        1   -1    0    0  501    0  0.00000000000E+00  0.00000000000E+00 -0.13125314888E+04  0.13125314888E+04  0.50400001928E-02 0. -1.
    10030    2    1    2    0    0  0.00000000000E+00  0.00000000000E+00 -0.69598878435E+03  0.19290741933E+04  0.17991461462E+04 0.  0.
        3    1    3    3  502    0 -0.40295146372E+03  0.78677918775E+03 -0.52689824251E+03  0.10290836412E+04  0.10100000352E+00 0. -1.
       -3    1    3    3    0  502  0.40295146372E+03 -0.78677918775E+03 -0.16909054184E+03  0.89999055213E+03  0.10100000352E+00 0.  1.
</event>
<event>
 5   0  0.1608627E-04  0.1831465E+04  0.7818609E-02  0.8689743E-01
       -2   -1    0    0    0  501  0.00000000000E+00  0.00000000000E+00  0.41867728618E+03  0.41867728619E+03  0.25500000920E-02 0. -1.
        2   -1    0    0  501    0  0.00000000000E+00  0.00000000000E+00 -0.20028940835E+04  0.20028940835E+04  0.25500000920E-02 0.  1.
    10030    2    1    2    0    0  0.00000000000E+00  0.00000000000E+00 -0.15842167973E+04  0.24215713696E+04  0.18314652706E+04 0.  0.
        2    1    3    3  502    0  0.39948448702E+03  0.10284471473E+03 -0.18730873831E+04  0.19179732103E+04  0.25500000920E-02 0.  1.
       -2    1    3    3    0  502 -0.39948448702E+03 -0.10284471473E+03  0.28887058583E+03  0.50359815933E+03  0.25500000920E-02 0. -1.
</event>
<event>
 5   0  0.8254914E-05  0.1809280E+04  0.7818609E-02  0.8701380E-01
        1   -1    0    0  501    0  0.00000000000E+00  0.00000000000E+00  0.12204056847E+04  0.12204056847E+04  0.50400001928E-02 0. -1.
       -1   -1    0    0    0  501  0.00000000000E+00  0.00000000000E+00 -0.67057517055E+03  0.67057517057E+03  0.50400001928E-02 0.  1.
    10030    2    1    2    0    0  0.00000000000E+00  0.00000000000E+00  0.54983051414E+03  0.18909808553E+04  0.18092802438E+04 0.  0.
        4    1    3    3  502    0  0.53610145103E+02 -0.58738245179E+03 -0.44197363096E+03  0.73704443264E+03  0.12699999809E+01 0.  1.
       -4    1    3    3    0  502 -0.53610145103E+02  0.58738245179E+03  0.99180414510E+03  0.11539364226E+04  0.12699999809E+01 0. -1.
</event>
<event>
 5   0  0.8430513E-05  0.1793236E+04  0.7818609E-02  0.8709905E-01
        1   -1    0    0  501    0  0.00000000000E+00  0.00000000000E+00  0.10684943338E+04  0.10684943338E+04  0.50400001928E-02 0.  1.
       -1   -1    0    0    0  501  0.00000000000E+00  0.00000000000E+00 -0.75238942160E+03  0.75238942162E+03  0.50400001928E-02 0. -1.
    10030    2    1    2    0    0  0.00000000000E+00  0.00000000000E+00  0.31610491219E+03  0.18208837554E+04  0.17932359954E+04 0.  0.
        5    1    3    3  502    0  0.73904639202E+03  0.15479994722E+03  0.64898270744E+03  0.99566723245E+03  0.46999998093E+01 0.  1.
       -5    1    3    3    0  502 -0.73904639202E+03 -0.15479994722E+03 -0.33287779525E+03  0.82521652297E+03  0.46999998093E+01 0. -1.
</event>
<event>
 5   0  0.1603564E-04  0.1822918E+04  0.7818609E-02  0.8694206E-01
       -2   -1    0    0    0  501  0.00000000000E+00  0.00000000000E+00  0.12597023389E+04  0.12597023389E+04  0.25500000920E-02 0.  1.
        2   -1    0    0  501    0  0.00000000000E+00  0.00000000000E+00 -0.65948686917E+03  0.65948686918E+03  0.25500000920E-02 0. -1.
    10030    2    1    2    0    0  0.00000000000E+00  0.00000000000E+00  0.60021546975E+03  0.19191892081E+04  0.18229176082E+04 0.  0.
        5    1    3    3  502    0  0.14062366239E+03 -0.47764705054E+03 -0.50363210427E+03  0.70822955725E+03  0.46999998093E+01 0. -1.
       -5    1    3    3    0  502 -0.14062366239E+03  0.47764705054E+03  0.11038475740E+04  0.12109596509E+04  0.46999998093E+01 0.  1.
</event>
<event>
 5   0  0.8430513E-05  0.1795530E+04  0.7818609E-02  0.8708680E-01
       -1   -1    0    0    0  501  0.00000000000E+00  0.00000000000E+00  0.11438592518E+04  0.11438592519E+04  0.50400001928E-02 0. -1.
        1   -1    0    0  501    0  0.00000000000E+00  0.00000000000E+00 -0.70461665989E+03  0.70461665990E+03  0.50400001928E-02 0.  1.
    10030    2    1    2    0    0  0.00000000000E+00  0.00000000000E+00  0.43924259196E+03  0.18484759118E+04  0.17955303233E+04 0.  0.
        5    1    3    3  502    0 -0.82710510564E+03 -0.34774097466E+03  0.25107637827E+03  0.93171244434E+03  0.46999998093E+01 0. -1.
       -5    1    3    3    0  502  0.82710510564E+03  0.34774097466E+03  0.18816621369E+03  0.91676346742E+03  0.46999998093E+01 0.  1.
</event>
<event>
 5   0  0.8492114E-05  0.1779010E+04  0.7818609E-02  0.8717542E-01
       -1   -1    0    0    0  501  0.00000000000E+00  0.00000000000E+00  0.89218302433E+03  0.89218302434E+03  0.50400001928E-02 0.  1.
        1   -1    0    0  501    0  0.00000000000E+00  0.00000000000E+00 -0.88683535072E+03  0.88683535073E+03  0.50400001928E-02 0. -1.
    10030    2    1    2    0    0  0.00000000000E+00  0.00000000000E+00  0.53476736112E+01  0.17790183751E+04  0.17790103376E+04 0.  0.
        2    1    3    3  502    0 -0.15327570958E+03 -0.20141552646E+03 -0.85006548937E+03  0.88694587978E+03  0.25500000920E-02 0. -1.
       -2    1    3    3    0  502  0.15327570958E+03  0.20141552646E+03  0.85541316298E+03  0.89207249529E+03  0.25500000920E-02 0.  1.
</event>
<event>
 5   0  0.1573981E-04  0.1711235E+04  0.7818609E-02  0.8754982E-01
       -2   -1    0    0    0  501  0.00000000000E+00  0.00000000000E+00  0.11483208098E+04  0.11483208098E+04  0.25500000920E-02 0.  1.
        2   -1    0    0  501    0  0.00000000000E+00  0.00000000000E+00 -0.63752331922E+03  0.63752331923E+03  0.25500000920E-02 0. -1.
    10030    2    1    2    0    0  0.00000000000E+00  0.00000000000E+00  0.51079749061E+03  0.17858441291E+04  0.17112349859E+04 0.  0.
        1    1    3    3  502    0 -0.56837217883E+03 -0.22039562391E+03 -0.37116103983E+03  0.71370980252E+03  0.50400001928E-02 0. -1.
       -1    1    3    3    0  502  0.56837217883E+03  0.22039562391E+03  0.88195853044E+03  0.10721343265E+04  0.50400001928E-02 0.  1.
</event>
<event>
 5   0  0.8254914E-05  0.1822508E+04  0.7818609E-02  0.8694421E-01
       -1   -1    0    0    0  501  0.00000000000E+00  0.00000000000E+00  0.78941172712E+03  0.78941172714E+03  0.50400001928E-02 0. -1.
        1   -1    0    0  501    0  0.00000000000E+00  0.00000000000E+00 -0.10519021056E+04  0.10519021056E+04  0.50400001928E-02 0.  1.
    10030    2    1    2    0    0  0.00000000000E+00  0.00000000000E+00 -0.26249037847E+03  0.18413138327E+04  0.18225080060E+04 0.  0.
        4    1    3    3  502    0 -0.50643544619E+03 -0.53365090715E+03  0.41200390481E+03  0.84321348562E+03  0.12699999809E+01 0. -1.
       -4    1    3    3    0  502  0.50643544619E+03  0.53365090715E+03 -0.67449428328E+03  0.99810034713E+03  0.12699999809E+01 0.  1.
</event>
<event>
 5   0  0.1573981E-04  0.1794120E+04  0.7818609E-02  0.8709433E-01
        2   -1    0    0  501    0  0.00000000000E+00  0.00000000000E+00  0.82459731095E+03  0.82459731095E+03  0.25500000920E-02 0. -1.
       -2   -1    0    0    0  501  0.00000000000E+00  0.00000000000E+00 -0.97589029143E+03  0.97589029143E+03  0.25500000920E-02 0.  1.
    10030    2    1    2    0    0  0.00000000000E+00  0.00000000000E+00 -0.15129298048E+03  0.18004876024E+04  0.17941198512E+04 0.  0.
        1    1    3    3  502    0  0.19300319869E+03  0.77567313264E+03  0.33298104585E+03  0.86590728159E+03  0.50400001928E-02 0. -1.
       -1    1    3    3    0  502 -0.19300319869E+03 -0.77567313264E+03 -0.48427402633E+03  0.93458032079E+03  0.50400001928E-02 0.  1.
</event>
<event>
 5   0  0.1573981E-04  0.1804954E+04  0.7818609E-02  0.8703670E-01
       -2   -1    0    0    0  501  0.00000000000E+00  0.00000000000E+00  0.87498681624E+03  0.87498681624E+03  0.25500000920E-02 0. -1.
        2   -1    0    0  501    0  0.00000000000E+00  0.00000000000E+00 -0.93083051710E+03  0.93083051710E+03  0.25500000920E-02 0.  1.
    10030    2    1    2    0    0  0.00000000000E+00  0.00000000000E+00 -0.55843700857E+02  0.18058173333E+04  0.18049536621E+04 0.  0.
        1    1    3    3  502    0 -0.42357705820E+03 -0.70011649841E+02  0.76627489419E+03  0.87834866018E+03  0.50400001928E-02 0. -1.
       -1    1    3    3    0  502  0.42357705820E+03  0.70011649841E+02 -0.82211859505E+03  0.92746867316E+03  0.50400001928E-02 0.  1.
</event>
<event>
 5   0  0.8254914E-05  0.1806359E+04  0.7818609E-02  0.8702925E-01
        1   -1    0    0  501    0  0.00000000000E+00  0.00000000000E+00  0.10896054340E+04  0.10896054340E+04  0.50400001928E-02 0.  1.
       -1   -1    0    0    0  501  0.00000000000E+00  0.00000000000E+00 -0.74865020839E+03  0.74865020840E+03  0.50400001928E-02 0. -1.
    10030    2    1    2    0    0  0.00000000000E+00  0.00000000000E+00  0.34095522558E+03  0.18382556424E+04  0.18063591395E+04 0.  0.
        4    1    3    3  502    0 -0.15943672775E+03  0.82409269551E+03  0.50980645033E+03  0.98206571605E+03  0.12699999809E+01 0.  1.
       -4    1    3    3    0  502  0.15943672775E+03 -0.82409269551E+03 -0.16885122475E+03  0.85618992633E+03  0.12699999809E+01 0. -1.
</event>
<event>
 5   0  0.8132598E-05  0.1801415E+04  0.7818609E-02  0.8705547E-01
       -1   -1    0    0    0  501  0.00000000000E+00  0.00000000000E+00  0.10397510559E+04  0.10397510559E+04  0.50400001928E-02 0.  1.
        1   -1    0    0  501    0  0.00000000000E+00  0.00000000000E+00 -0.78025828470E+03  0.78025828471E+03  0.50400001928E-02 0. -1.
    10030    2    1    2    0    0  0.00000000000E+00  0.00000000000E+00  0.25949277121E+03  0.18200093406E+04  0.18014154162E+04 0.  0.
        3    1    3    3  502    0  0.60711042678E+03 -0.44547033692E+02  0.80045617566E+03  0.10056329389E+04  0.10100000352E+00 0.  1.
       -3    1    3    3    0  502 -0.60711042678E+03  0.44547033692E+02 -0.54096340444E+03  0.81437640171E+03  0.10100000352E+00 0. -1.
</event>
<event>
 5   0  0.1549012E-04  0.1799964E+04  0.7818609E-02  0.8706318E-01
        2   -1    0    0  501    0  0.00000000000E+00  0.00000000000E+00  0.18187344761E+04  0.18187344761E+04  0.25500000920E-02 0. -1.
       -2   -1    0    0    0  501  0.00000000000E+00  0.00000000000E+00 -0.44534702418E+03  0.44534702419E+03  0.25500000920E-02 0.  1.
    10030    2    1    2    0    0  0.00000000000E+00  0.00000000000E+00  0.13733874519E+04  0.22640815003E+04  0.17999644293E+04 0.  0.
        4    1    3    3  502    0  0.85143191350E+03  0.14642250381E+03  0.36950019274E+03  0.93963176739E+03  0.12699999809E+01 0.  1.
       -4    1    3    3    0  502 -0.85143191350E+03 -0.14642250381E+03  0.10038872592E+04  0.13244497329E+04  0.12699999809E+01 0. -1.
</event>
<event>
 5   0  0.8254914E-05  0.1797151E+04  0.7818609E-02  0.8707816E-01
       -1   -1    0    0    0  501  0.00000000000E+00  0.00000000000E+00  0.83445774884E+03  0.83445774886E+03  0.50400001928E-02 0.  1.
        1   -1    0    0  501    0  0.00000000000E+00  0.00000000000E+00 -0.96762028012E+03  0.96762028014E+03  0.50400001928E-02 0. -1.
    10030    2    1    2    0    0  0.00000000000E+00  0.00000000000E+00 -0.13316253128E+03  0.18020780290E+04  0.17971513467E+04 0.  0.
        4    1    3    3  502    0  0.76139409885E+03 -0.36139169249E+03 -0.37906305618E+03  0.92412950533E+03  0.12699999809E+01 0. -1.
       -4    1    3    3    0  502 -0.76139409885E+03  0.36139169249E+03  0.24590052490E+03  0.87794852366E+03  0.12699999809E+01 0.  1.
</event>
<event>
 5   0  0.8206783E-05  0.1807755E+04  0.7818609E-02  0.8702186E-01
        1   -1    0    0  501    0  0.00000000000E+00  0.00000000000E+00  0.18501299547E+04  0.18501299547E+04  0.50400001928E-02 0. -1.
       -1   -1    0    0    0  501  0.00000000000E+00  0.00000000000E+00 -0.44158748901E+03  0.44158748904E+03  0.50400001928E-02 0.  1.
    10030    2    1    2    0    0  0.00000000000E+00  0.00000000000E+00  0.14085424657E+04  0.22917174438E+04  0.18077546748E+04 0.  0.
        1    1    3    3  502    0 -0.31738200785E+03  0.31850628268E+03 -0.28974708413E+03  0.53491210848E+03  0.50400001928E-02 0.  1.
       -1    1    3    3    0  502  0.31738200785E+03 -0.31850628268E+03  0.16982895498E+04  0.17568053353E+04  0.50400001928E-02 0. -1.
</event>
<event>
 5   0  0.8430513E-05  0.1795097E+04  0.7818609E-02  0.8708911E-01
       -1   -1    0    0    0  501  0.00000000000E+00  0.00000000000E+00  0.70746461469E+03  0.70746461471E+03  0.50400001928E-02 0. -1.
        1   -1    0    0  501    0  0.00000000000E+00  0.00000000000E+00 -0.11387041298E+04  0.11387041298E+04  0.50400001928E-02 0.  1.
    10030    2    1    2    0    0  0.00000000000E+00  0.00000000000E+00 -0.43123951512E+03  0.18461687445E+04  0.17950965194E+04 0.  0.
        5    1    3    3  502    0  0.75960206023E+03 -0.22267031874E+03  0.21949331525E+03  0.82144796926E+03  0.46999998093E+01 0. -1.
       -5    1    3    3    0  502 -0.75960206023E+03  0.22267031874E+03 -0.65073283037E+03  0.10247207753E+04  0.46999998093E+01 0.  1.
</event>
<event>
 5   0  0.1549012E-04  0.1804317E+04  0.7818609E-02  0.8704007E-01
       -2   -1    0    0    0  501  0.00000000000E+00  0.00000000000E+00  0.14207666984E+04  0.14207666984E+04  0.25500000920E-02 0. -1.
        2   -1    0    0  501    0  0.00000000000E+00  0.00000000000E+00 -0.57285270862E+03  0.57285270863E+03  0.25500000920E-02 0.  1.
    10030    2    1    2    0    0  0.00000000000E+00  0.00000000000E+00  0.84791398978E+03  0.19936194070E+04  0.18043171024E+04 0.  0.
        4    1    3    3  502    0  0.65164855791E+02 -0.31130872251E+03 -0.50884949552E+03  0.60007416303E+03  0.12699999809E+01 0.  1.
       -4    1    3    3    0  502 -0.65164855791E+02  0.31130872251E+03  0.13567634853E+04  0.13935452440E+04  0.12699999809E+01 0. -1.
</event>
<event>
 5   0  0.1608627E-04  0.1787058E+04  0.7818609E-02  0.8713213E-01
        2   -1    0    0  501    0  0.00000000000E+00  0.00000000000E+00  0.93014163951E+03  0.93014163951E+03  0.25500000920E-02 0.  1.
       -2   -1    0    0    0  501  0.00000000000E+00  0.00000000000E+00 -0.85835714920E+03  0.85835714920E+03  0.25500000920E-02 0. -1.
    10030    2    1    2    0    0  0.00000000000E+00  0.00000000000E+00  0.71784490307E+02  0.17884987887E+04  0.17870576108E+04 0.  0.
        2    1    3    3  502    0  0.73146957113E+02 -0.18726208806E+02 -0.85515861307E+03  0.85848552798E+03  0.25500000920E-02 0. -1.
       -2    1    3    3    0  502 -0.73146957113E+02  0.18726208806E+02  0.92694310338E+03  0.93001326073E+03  0.25500000920E-02 0.  1.
</event>
<event>
 5   0  0.8430513E-05  0.1792558E+04  0.7818609E-02  0.8710267E-01
        1   -1    0    0  501    0  0.00000000000E+00  0.00000000000E+00  0.14962331529E+04  0.14962331529E+04  0.50400001928E-02 0. -1.
       -1   -1    0    0    0  501  0.00000000000E+00  0.00000000000E+00 -0.53689200627E+03  0.53689200629E+03  0.50400001928E-02 0.  1.
    10030    2    1    2    0    0  0.00000000000E+00  0.00000000000E+00  0.95934114666E+03  0.20331251592E+04  0.17925575242E+04 0.  0.
        5    1    3    3  502    0 -0.60829449892E+03  0.63786814868E+03  0.66394133352E+03  0.11035117384E+04  0.46999998093E+01 0.  1.
       -5    1    3    3    0  502  0.60829449892E+03 -0.63786814868E+03  0.29539981314E+03  0.92961342079E+03  0.46999998093E+01 0. -1.
</event>
<event>
 5   0  0.8206783E-05  0.1796962E+04  0.7818609E-02  0.8707916E-01
        1   -1    0    0  501    0  0.00000000000E+00  0.00000000000E+00  0.23142081558E+04  0.23142081558E+04  0.50400001928E-02 0. -1.
       -1   -1    0    0    0  501  0.00000000000E+00  0.00000000000E+00 -0.34883141080E+03  0.34883141084E+03  0.50400001928E-02 0.  1.
    10030    2    1    2    0    0  0.00000000000E+00  0.00000000000E+00  0.19653767450E+04  0.26630395667E+04  0.17969624325E+04 0.  0.
        1    1    3    3  502    0 -0.52525485200E+03 -0.68809108162E+03  0.62607117854E+03  0.10683291238E+04  0.50400001928E-02 0. -1.
       -1    1    3    3    0  502  0.52525485200E+03  0.68809108162E+03  0.13393055665E+04  0.15947104429E+04  0.50400001928E-02 0.  1.
</event>
<event>
 5   0  0.1628397E-04  0.1805400E+04  0.7818609E-02  0.8703433E-01
        2   -1    0    0  501    0  0.00000000000E+00  0.00000000000E+00  0.19029361682E+04  0.19029361682E+04  0.25500000920E-02 0. -1.
       -2   -1    0    0    0  501  0.00000000000E+00  0.00000000000E+00 -0.42821594027E+03  0.42821594028E+03  0.25500000920E-02 0.  1.
    10030    2    1    2    0    0  0.00000000000E+00  0.00000000000E+00  0.14747202279E+04  0.23311521084E+04  0.18054003440E+04 0.  0.
        3    1    3    3  502    0 -0.55976277549E+03  0.66973712931E+03  0.44014204177E+03  0.97755164279E+03  0.10100000352E+00 0.  1.
       -3    1    3    3    0  502  0.55976277549E+03 -0.66973712931E+03  0.10345781861E+04  0.13536004656E+04  0.10100000352E+00 0. -1.
</event>
<event>
 5   0  0.1549012E-04  0.1799381E+04  0.7818609E-02  0.8706628E-01
       -2   -1    0    0    0  501  0.00000000000E+00  0.00000000000E+00  0.11232915173E+04  0.11232915173E+04  0.25500000920E-02 0. -1.
        2   -1    0    0  501    0  0.00000000000E+00  0.00000000000E+00 -0.72059957513E+03  0.72059957514E+03  0.25500000920E-02 0.  1.
    10030    2    1    2    0    0  0.00000000000E+00  0.00000000000E+00  0.40269194212E+03  0.18438910924E+04  0.17993814383E+04 0.  0.
        4    1    3    3  502    0  0.11473308051E+03  0.56752584059E+03  0.90699602428E+03  0.10760542089E+04  0.12699999809E+01 0. -1.
       -4    1    3    3    0  502 -0.11473308051E+03 -0.56752584059E+03 -0.50430408216E+03  0.76783688351E+03  0.12699999809E+01 0.  1.
</event>
<event>
 5   0  0.1549012E-04  0.1667103E+04  0.7818609E-02  0.8780352E-01
        2   -1    0    0  501    0  0.00000000000E+00  0.00000000000E+00  0.60512488756E+03  0.60512488756E+03  0.25500000920E-02 0.  1.
       -2   -1    0    0    0  501  0.00000000000E+00  0.00000000000E+00 -0.11482059950E+04  0.11482059950E+04  0.25500000920E-02 0. -1.
    10030    2    1    2    0    0  0.00000000000E+00  0.00000000000E+00 -0.54308110742E+03  0.17533308825E+04  0.16671029046E+04 0.  0.
        4    1    3    3  502    0  0.53332236094E+03 -0.42257669611E+03  0.23482089208E+03  0.71982377637E+03  0.12699999809E+01 0. -1.
       -4    1    3    3    0  502 -0.53332236094E+03  0.42257669611E+03 -0.77790199951E+03  0.10335071062E+04  0.12699999809E+01 0.  1.
</event>
<event>
 5   0  0.8132598E-05  0.1795799E+04  0.7818609E-02  0.8708537E-01
        1   -1    0    0  501    0  0.00000000000E+00  0.00000000000E+00  0.21800600664E+04  0.21800600664E+04  0.50400001928E-02 0.  1.
       -1   -1    0    0    0  501  0.00000000000E+00  0.00000000000E+00 -0.36981714440E+03  0.36981714443E+03  0.50400001928E-02 0. -1.
    10030    2    1    2    0    0  0.00000000000E+00  0.00000000000E+00  0.18102429220E+04  0.25498772109E+04  0.17957990850E+04 0.  0.
        3    1    3    3  502    0  0.69377404372E+03 -0.31589891621E+03  0.23143475234E+03  0.79666592985E+03  0.10100000352E+00 0. -1.
       -3    1    3    3    0  502 -0.69377404372E+03  0.31589891621E+03  0.15788081697E+04  0.17532112810E+04  0.10100000352E+00 0.  1.
</event>
<event>
 5   0  0.8132598E-05  0.1847099E+04  0.7818609E-02  0.8681646E-01
       -1   -1    0    0    0  501  0.00000000000E+00  0.00000000000E+00  0.15787375994E+04  0.15787375994E+04  0.50400001928E-02 0.  1.
        1   -1    0    0  501    0  0.00000000000E+00  0.00000000000E+00 -0.54026950104E+03  0.54026950106E+03  0.50400001928E-02 0. -1.
    10030    2    1    2    0    0  0.00000000000E+00  0.00000000000E+00  0.10384680984E+04  0.21190071005E+04  0.18470991042E+04 0.  0.
        3    1    3    3  502    0  0.39739897533E+03  0.21667818643E+03  0.14427675021E+04  0.15121023303E+04  0.10100000352E+00 0.  1.
       -3    1    3    3    0  502 -0.39739897533E+03 -0.21667818643E+03 -0.40429940368E+03  0.60690477020E+03  0.10100000352E+00 0. -1.
</event>
<event>
 5   0  0.8132598E-05  0.1826154E+04  0.7818609E-02  0.8692513E-01
       -1   -1    0    0    0  501  0.00000000000E+00  0.00000000000E+00  0.43721806344E+03  0.43721806347E+03  0.50400001928E-02 0.  1.
        1   -1    0    0  501    0  0.00000000000E+00  0.00000000000E+00 -0.19068508614E+04  0.19068508614E+04  0.50400001928E-02 0. -1.
    10030    2    1    2    0    0  0.00000000000E+00  0.00000000000E+00 -0.14696327980E+04  0.23440689249E+04  0.18261540362E+04 0.  0.
        3    1    3    3  502    0 -0.31773642704E+03  0.13406600294E+03  0.35040666303E+03  0.49164516667E+03  0.10100000352E+00 0.  1.
       -3    1    3    3    0  502  0.31773642704E+03 -0.13406600294E+03 -0.18200394610E+04  0.18524237582E+04  0.10100000352E+00 0. -1.
</event>
<event>
 5   0  0.8492114E-05  0.1804925E+04  0.7818609E-02  0.8703685E-01
       -1   -1    0    0    0  501  0.00000000000E+00  0.00000000000E+00  0.71250836969E+03  0.71250836971E+03  0.50400001928E-02 0. -1.
        1   -1    0    0  501    0  0.00000000000E+00  0.00000000000E+00 -0.11430582191E+04  0.11430582191E+04  0.50400001928E-02 0.  1.
    10030    2    1    2    0    0  0.00000000000E+00  0.00000000000E+00 -0.43054984939E+03  0.18555665888E+04  0.18049249826E+04 0.  0.
        2    1    3    3  502    0 -0.38985749277E+02 -0.60802504520E+02  0.70953216828E+03  0.71319894211E+03  0.25500000920E-02 0. -1.
       -2    1    3    3    0  502  0.38985749277E+02  0.60802504520E+02 -0.11400820177E+04  0.11423676467E+04  0.25500000920E-02 0.  1.
</event>
<event>
 5   0  0.1628397E-04  0.1800029E+04  0.7818609E-02  0.8706284E-01
        2   -1    0    0  501    0  0.00000000000E+00  0.00000000000E+00  0.10047517655E+04  0.10047517655E+04  0.25500000920E-02 0.  1.
       -2   -1    0    0    0  501  0.00000000000E+00  0.00000000000E+00 -0.80619508103E+03  0.80619508103E+03  0.25500000920E-02 0. -1.
    10030    2    1    2    0    0  0.00000000000E+00  0.00000000000E+00  0.19855668450E+03  0.18109468466E+04  0.18000288120E+04 0.  0.
        3    1    3    3  502    0  0.26948315126E+03 -0.85701899500E+03  0.15367285405E+03  0.91143737189E+03  0.10100000352E+00 0. -1.
       -3    1    3    3    0  502 -0.26948315126E+03  0.85701899500E+03  0.44883830455E+02  0.89950947468E+03  0.10100000352E+00 0.  1.
</event>
<event>
 5   0  0.1628397E-04  0.1803869E+04  0.7818609E-02  0.8704245E-01
        2   -1    0    0  501    0  0.00000000000E+00  0.00000000000E+00  0.17860981160E+04  0.17860981160E+04  0.25500000920E-02 0. -1.
       -2   -1    0    0    0  501  0.00000000000E+00  0.00000000000E+00 -0.45545398876E+03  0.45545398877E+03  0.25500000920E-02 0.  1.
    10030    2    1    2    0    0  0.00000000000E+00  0.00000000000E+00  0.13306441273E+04  0.22415521048E+04  0.18038686330E+04 0.  0.
        3    1    3    3  502    0 -0.75785102896E+03 -0.16232957420E+03  0.12385483516E+04  0.14610582132E+04  0.10100000352E+00 0. -1.
       -3    1    3    3    0  502  0.75785102896E+03  0.16232957420E+03  0.92095775618E+02  0.78049389161E+03  0.10100000352E+00 0.  1.
</event>
<event>
 5   0  0.8132598E-05  0.1790871E+04  0.7818609E-02  0.8711169E-01
        1   -1    0    0  501    0  0.00000000000E+00  0.00000000000E+00  0.92816816103E+03  0.92816816104E+03  0.50400001928E-02 0. -1.
       -1   -1    0    0    0  501  0.00000000000E+00  0.00000000000E+00 -0.86385761308E+03  0.86385761309E+03  0.50400001928E-02 0.  1.
    10030    2    1    2    0    0  0.00000000000E+00  0.00000000000E+00  0.64310547951E+02  0.17920257741E+04  0.17908714439E+04 0.  0.
        3    1    3    3  502    0  0.81702457339E+03 -0.18047367281E+03 -0.28696284683E+03  0.88456067388E+03  0.10100000352E+00 0.  1.
       -3    1    3    3    0  502 -0.81702457339E+03  0.18047367281E+03  0.35127339478E+03  0.90746510026E+03  0.10100000352E+00 0. -1.
</event>
<event>
 5   0  0.1608627E-04  0.1799717E+04  0.7818609E-02  0.8706450E-01
       -2   -1    0    0    0  501  0.00000000000E+00  0.00000000000E+00  0.78874956151E+03  0.78874956151E+03  0.25500000920E-02 0.  1.
        2   -1    0    0  501    0  0.00000000000E+00  0.00000000000E+00 -0.10266195694E+04  0.10266195694E+04  0.25500000920E-02 0. -1.
    10030    2    1    2    0    0  0.00000000000E+00  0.00000000000E+00 -0.23787000792E+03  0.18153691310E+04  0.17997174614E+04 0.  0.
        2    1    3    3  502    0 -0.61689770858E+03 -0.96800912047E+02  0.53462928978E+03  0.82204724738E+03  0.25500000920E-02 0.  1.
       -2    1    3    3    0  502  0.61689770858E+03  0.96800912047E+02 -0.77249929770E+03  0.99332188357E+03  0.25500000920E-02 0. -1.
</event>
<event>
 5   0  0.1573981E-04  0.1799346E+04  0.7818609E-02  0.8706648E-01
       -2   -1    0    0    0  501  0.00000000000E+00  0.00000000000E+00  0.61354031458E+03  0.61354031459E+03  0.25500000920E-02 0. -1.
        2   -1    0    0  501    0  0.00000000000E+00  0.00000000000E+00 -0.13192469722E+04  0.13192469722E+04  0.25500000920E-02 0.  1.
    10030    2    1    2    0    0  0.00000000000E+00  0.00000000000E+00 -0.70570665760E+03  0.19327872868E+04  0.17993456614E+04 0.  0.
        1    1    3    3  502    0  0.68115106413E+03  0.63092454752E+02  0.27483170861E+03  0.73721089120E+03  0.50400001928E-02 0. -1.
       -1    1    3    3    0  502 -0.68115106413E+03 -0.63092454752E+02 -0.98053836621E+03  0.11955763956E+04  0.50400001928E-02 0.  1.
</event>
<event>
 5   0  0.1549012E-04  0.1816261E+04  0.7818609E-02  0.8697700E-01
        2   -1    0    0  501    0  0.00000000000E+00  0.00000000000E+00  0.14394160033E+04  0.14394160033E+04  0.25500000920E-02 0.  1.
       -2   -1    0    0    0  501  0.00000000000E+00  0.00000000000E+00 -0.57294114003E+03  0.57294114003E+03  0.25500000920E-02 0. -1.
    10030    2    1    2    0    0  0.00000000000E+00  0.00000000000E+00  0.86647486325E+03  0.20123571433E+04  0.18162606045E+04 0.  0.
        4    1    3    3  502    0 -0.31418054276E+03 -0.56876302184E+03 -0.26968741039E+03  0.70351524553E+03  0.12699999809E+01 0. -1.
       -4    1    3    3    0  502  0.31418054276E+03  0.56876302184E+03  0.11361622736E+04  0.13088418978E+04  0.12699999809E+01 0.  1.
</event>
<event>
 5   0  0.8430513E-05  0.1804931E+04  0.7818609E-02  0.8703682E-01
        1   -1    0    0  501    0  0.00000000000E+00  0.00000000000E+00  0.97973831132E+03  0.97973831134E+03  0.50400001928E-02 0.  1.
       -1   -1    0    0    0  501  0.00000000000E+00  0.00000000000E+00 -0.83128690284E+03  0.83128690285E+03  0.50400001928E-02 0. -1.
    10030    2    1    2    0    0  0.00000000000E+00  0.00000000000E+00  0.14845140849E+03  0.18110252142E+04  0.18049306097E+04 0.  0.
        5    1    3    3  502    0  0.85833096098E+03 -0.25778642185E+03  0.18058201235E+03  0.91423073184E+03  0.46999998093E+01 0.  1.
       -5    1    3    3    0  502 -0.85833096098E+03  0.25778642185E+03 -0.32130603864E+02  0.89679448235E+03  0.46999998093E+01 0. -1.
</event>
<event>
 5   0  0.1573981E-04  0.1796348E+04  0.7818609E-02  0.8708244E-01
       -2   -1    0    0    0  501  0.00000000000E+00  0.00000000000E+00  0.39902864859E+03  0.39902864859E+03  0.25500000920E-02 0.  1.
        2   -1    0    0  501    0  0.00000000000E+00  0.00000000000E+00 -0.20217014988E+04  0.20217014988E+04  0.25500000920E-02 0. -1.
    10030    2    1    2    0    0  0.00000000000E+00  0.00000000000E+00 -0.16226728502E+04  0.24207301474E+04  0.17963483147E+04 0.  0.
        1    1    3    3  502    0 -0.25877315979E+03  0.16835338761E+03  0.32528525235E+03  0.44846059667E+03  0.50400001928E-02 0.  1.
       -1    1    3    3    0  502  0.25877315979E+03 -0.16835338761E+03 -0.19479581026E+04  0.19722695507E+04  0.50400001928E-02 0. -1.
</event>
<event>
 5   0  0.1628397E-04  0.1832825E+04  0.7818609E-02  0.8689036E-01
        2   -1    0    0  501    0  0.00000000000E+00  0.00000000000E+00  0.19259034070E+04  0.19259034070E+04  0.25500000920E-02 0.  1.
       -2   -1    0    0    0  501  0.00000000000E+00  0.00000000000E+00 -0.43606107152E+03  0.43606107153E+03  0.25500000920E-02 0. -1.
    10030    2    1    2    0    0  0.00000000000E+00  0.00000000000E+00  0.14898423355E+04  0.23619644785E+04  0.18328245997E+04 0.  0.
        3    1    3    3  502    0  0.16859830363E+03  0.89209712975E+03  0.58422662723E+03  0.10796218963E+04  0.10100000352E+00 0. -1.
       -3    1    3    3    0  502 -0.16859830363E+03 -0.89209712975E+03  0.90561570826E+03  0.12823425822E+04  0.10100000352E+00 0.  1.
</event>
<event>
 5   0  0.8254914E-05  0.1793537E+04  0.7818609E-02  0.8709744E-01
       -1   -1    0    0    0  501  0.00000000000E+00  0.00000000000E+00  0.59466871791E+03  0.59466871793E+03  0.50400001928E-02 0.  1.
        1   -1    0    0  501    0  0.00000000000E+00  0.00000000000E+00 -0.13523385314E+04  0.13523385314E+04  0.50400001928E-02 0. -1.
    10030    2    1    2    0    0  0.00000000000E+00  0.00000000000E+00 -0.75766981349E+03  0.19470072493E+04  0.17935366410E+04 0.  0.
        4    1    3    3  502    0 -0.61876836073E+03  0.54767518160E+03 -0.75702657030E+03  0.11206753454E+04  0.12699999809E+01 0. -1.
       -4    1    3    3    0  502  0.61876836073E+03 -0.54767518160E+03 -0.64324319509E+00  0.82633190393E+03  0.12699999809E+01 0.  1.
</event>
<event>
 5   0  0.1603564E-04  0.1807858E+04  0.7818609E-02  0.8702132E-01
       -2   -1    0    0    0  501  0.00000000000E+00  0.00000000000E+00  0.99009667440E+03  0.99009667441E+03  0.25500000920E-02 0.  1.
        2   -1    0    0  501    0  0.00000000000E+00  0.00000000000E+00 -0.82526054403E+03  0.82526054403E+03  0.25500000920E-02 0. -1.
    10030    2    1    2    0    0  0.00000000000E+00  0.00000000000E+00  0.16483613037E+03  0.18153572184E+04  0.18078580920E+04 0.  0.
        5    1    3    3  502    0  0.66310606949E+03 -0.56310369209E+03  0.32893632031E+03  0.93006269695E+03  0.46999998093E+01 0. -1.
       -5    1    3    3    0  502 -0.66310606949E+03  0.56310369209E+03 -0.16410018994E+03  0.88529452149E+03  0.46999998093E+01 0.  1.
</event>
<event>
 5   0  0.1608627E-04  0.1813592E+04  0.7818609E-02  0.8699104E-01
        2   -1    0    0  501    0  0.00000000000E+00  0.00000000000E+00  0.10303259698E+04  0.10303259698E+04  0.25500000920E-02 0.  1.
       -2   -1    0    0    0  501  0.00000000000E+00  0.00000000000E+00 -0.79807687826E+03  0.79807687826E+03  0.25500000920E-02 0. -1.
    10030    2    1    2    0    0  0.00000000000E+00  0.00000000000E+00  0.23224909154E+03  0.18284028481E+04  0.18135923837E+04 0.  0.
        2    1    3    3  502    0  0.46281857901E+02 -0.88348000447E+03 -0.84499054178E+02  0.88871762604E+03  0.25500000920E-02 0.  1.
       -2    1    3    3    0  502 -0.46281857901E+02  0.88348000447E+03  0.31674814571E+03  0.93968522202E+03  0.25500000920E-02 0. -1.
</event>
<event>
 5   0  0.1608627E-04  0.1806679E+04  0.7818609E-02  0.8702756E-01
        2   -1    0    0  501    0  0.00000000000E+00  0.00000000000E+00  0.18064265241E+04  0.18064265241E+04  0.25500000920E-02 0.  1.
       -2   -1    0    0    0  501  0.00000000000E+00  0.00000000000E+00 -0.45173278771E+03  0.45173278771E+03  0.25500000920E-02 0. -1.
    10030    2    1    2    0    0  0.00000000000E+00  0.00000000000E+00  0.13546937364E+04  0.22581593118E+04  0.18066788198E+04 0.  0.
        2    1    3    3  502    0 -0.27845848743E+03 -0.19426145863E+03  0.17236409448E+04  0.17567625765E+04  0.25500000920E-02 0.  1.
       -2    1    3    3    0  502  0.27845848743E+03  0.19426145863E+03 -0.36894720845E+03  0.50139673529E+03  0.25500000920E-02 0. -1.
</event>
<event>
 5   0  0.8132598E-05  0.1795253E+04  0.7818609E-02  0.8708828E-01
        1   -1    0    0  501    0  0.00000000000E+00  0.00000000000E+00  0.93143934051E+03  0.93143934053E+03  0.50400001928E-02 0.  1.
       -1   -1    0    0    0  501  0.00000000000E+00  0.00000000000E+00 -0.86504081804E+03  0.86504081805E+03  0.50400001928E-02 0. -1.
    10030    2    1    2    0    0  0.00000000000E+00  0.00000000000E+00  0.66398522477E+02  0.17964801586E+04  0.17952526832E+04 0.  0.
        3    1    3    3  502    0  0.17685494073E+03 -0.15829331221E+02 -0.84729143345E+03  0.86569684139E+03  0.10100000352E+00 0. -1.
       -3    1    3    3    0  502 -0.17685494073E+03  0.15829331221E+02  0.91368995593E+03  0.93078331719E+03  0.10100000352E+00 0.  1.
</event>
<event>
 5   0  0.8492114E-05  0.1806673E+04  0.7818609E-02  0.8702759E-01
       -1   -1    0    0    0  501  0.00000000000E+00  0.00000000000E+00  0.10613859558E+04  0.10613859558E+04  0.50400001928E-02 0.  1.
        1   -1    0    0  501    0  0.00000000000E+00  0.00000000000E+00 -0.76882195413E+03  0.76882195414E+03  0.50400001928E-02 0. -1.
    10030    2    1    2    0    0  0.00000000000E+00  0.00000000000E+00  0.29256400162E+03  0.18302079099E+04  0.18066729916E+04 0.  0.
        2    1    3    3  502    0 -0.30247344209E+02 -0.78765123654E+03 -0.30072277473E+03  0.84364895513E+03  0.25500000920E-02 0. -1.
       -2    1    3    3    0  502  0.30247344209E+02  0.78765123654E+03  0.59328677635E+03  0.98655895478E+03  0.25500000920E-02 0.  1.
</event>
<event>
 5   0  0.1573981E-04  0.1788655E+04  0.7818609E-02  0.8712356E-01
        2   -1    0    0  501    0  0.00000000000E+00  0.00000000000E+00  0.11404657866E+04  0.11404657866E+04  0.25500000920E-02 0. -1.
       -2   -1    0    0    0  501  0.00000000000E+00  0.00000000000E+00 -0.70131123392E+03  0.70131123392E+03  0.25500000920E-02 0.  1.
    10030    2    1    2    0    0  0.00000000000E+00  0.00000000000E+00  0.43915455267E+03  0.18417770205E+04  0.17886547661E+04 0.  0.
        1    1    3    3  502    0 -0.45170114957E+03  0.34171331791E+02 -0.57444051009E+03  0.73156237472E+03  0.50400001928E-02 0.  1.
       -1    1    3    3    0  502  0.45170114957E+03 -0.34171331791E+02  0.10135950628E+04  0.11102146458E+04  0.50400001928E-02 0. -1.
</event>
<event>
 5   0  0.5820500E-05  0.1796613E+04  0.7818609E-02  0.8708103E-01
        4   -1    0    0  501    0  0.00000000000E+00  0.00000000000E+00  0.12131495893E+04  0.12131502541E+04  0.12699999809E+01 0.  1.
       -4   -1    0    0    0  501  0.00000000000E+00  0.00000000000E+00 -0.66517168757E+03  0.66517289996E+03  0.12699999809E+01 0. -1.
    10030    2    1    2    0    0  0.00000000000E+00  0.00000000000E+00  0.54797790174E+03  0.18783231540E+04  0.17966129495E+04 0.  0.
        5    1    3    3  502    0  0.19078607408E+03  0.72841514036E+03 -0.23813038893E+03  0.78975699737E+03  0.46999998093E+01 0. -1.
       -5    1    3    3    0  502 -0.19078607408E+03 -0.72841514036E+03  0.78610829067E+03  0.10885661567E+04  0.46999998093E+01 0.  1.
</event>
<event>
 5   0  0.8430513E-05  0.1749772E+04  0.7818609E-02  0.8733476E-01
        1   -1    0    0  501    0  0.00000000000E+00  0.00000000000E+00  0.16705403843E+04  0.16705403843E+04  0.50400001928E-02 0. -1.
       -1   -1    0    0    0  501  0.00000000000E+00  0.00000000000E+00 -0.45819060576E+03  0.45819060579E+03  0.50400001928E-02 0.  1.
    10030    2    1    2    0    0  0.00000000000E+00  0.00000000000E+00  0.12123497785E+04  0.21287309901E+04  0.17497724545E+04 0.  0.
        5    1    3    3  502    0 -0.63748275799E+02  0.55194557190E+03  0.14283282594E+04  0.15325963146E+04  0.46999998093E+01 0. -1.
       -5    1    3    3    0  502  0.63748275799E+02 -0.55194557190E+03 -0.21597848093E+03  0.59613467541E+03  0.46999998093E+01 0.  1.
</event>
<event>
 5   0  0.1603564E-04  0.1799983E+04  0.7818609E-02  0.8706308E-01
       -2   -1    0    0    0  501  0.00000000000E+00  0.00000000000E+00  0.41921875203E+03  0.41921875203E+03  0.25500000920E-02 0. -1.
        2   -1    0    0  501    0  0.00000000000E+00  0.00000000000E+00 -0.19321293709E+04  0.19321293709E+04  0.25500000920E-02 0.  1.
    10030    2    1    2    0    0  0.00000000000E+00  0.00000000000E+00 -0.15129106189E+04  0.23513481230E+04  0.17999831818E+04 0.  0.
        5    1    3    3  502    0  0.58615393316E+02 -0.85672018086E+03 -0.40457921499E+03  0.94926901552E+03  0.46999998093E+01 0. -1.
       -5    1    3    3    0  502 -0.58615393316E+02  0.85672018086E+03 -0.11083314039E+04  0.14020791074E+04  0.46999998093E+01 0.  1.
</event>
<event>
 5   0  0.8492114E-05  0.1749654E+04  0.7818609E-02  0.8733541E-01
        1   -1    0    0  501    0  0.00000000000E+00  0.00000000000E+00  0.16498228653E+04  0.16498228653E+04  0.50400001928E-02 0.  1.
       -1   -1    0    0    0  501  0.00000000000E+00  0.00000000000E+00 -0.46388124302E+03  0.46388124305E+03  0.50400001928E-02 0. -1.
    10030    2    1    2    0    0  0.00000000000E+00  0.00000000000E+00  0.11859416223E+04  0.21137041084E+04  0.17496535446E+04 0.  0.
        2    1    3    3  502    0  0.50248054976E+03  0.36012209494E+03  0.13407527821E+04  0.14764120864E+04  0.25500000920E-02 0.  1.
       -2    1    3    3    0  502 -0.50248054976E+03 -0.36012209494E+03 -0.15481115975E+03  0.63729202203E+03  0.25500000920E-02 0. -1.
</event>
<event>
 5   0  0.8132598E-05  0.1799116E+04  0.7818609E-02  0.8706770E-01
       -1   -1    0    0    0  501  0.00000000000E+00  0.00000000000E+00  0.12254660187E+04  0.12254660187E+04  0.50400001928E-02 0.  1.
        1   -1    0    0  501    0  0.00000000000E+00  0.00000000000E+00 -0.66032409352E+03  0.66032409354E+03  0.50400001928E-02 0. -1.
    10030    2    1    2    0    0  0.00000000000E+00  0.00000000000E+00  0.56514192521E+03  0.18857901123E+04  0.17991161585E+04 0.  0.
        3    1    3    3  502    0  0.71397406302E+03  0.59674020080E+02 -0.28758735011E+03  0.77202749011E+03  0.10100000352E+00 0. -1.
       -3    1    3    3    0  502 -0.71397406302E+03 -0.59674020080E+02  0.85272927532E+03  0.11137626222E+04  0.10100000352E+00 0.  1.
</event>
<event>
 5   0  0.8430513E-05  0.1806946E+04  0.7818609E-02  0.8702614E-01
       -1   -1    0    0    0  501  0.00000000000E+00  0.00000000000E+00  0.36948189958E+03  0.36948189962E+03  0.50400001928E-02 0.  1.
        1   -1    0    0  501    0  0.00000000000E+00  0.00000000000E+00 -0.22092108535E+04  0.22092108535E+04  0.50400001928E-02 0. -1.
    10030    2    1    2    0    0  0.00000000000E+00  0.00000000000E+00 -0.18397289539E+04  0.25786927531E+04  0.18069459569E+04 0.  0.
        5    1    3    3  502    0  0.68279629066E+03 -0.58103379315E+03 -0.10789735907E+04  0.14028603433E+04  0.46999998093E+01 0. -1.
       -5    1    3    3    0  502 -0.68279629066E+03  0.58103379315E+03 -0.76075536318E+03  0.11758324098E+04  0.46999998093E+01 0.  1.
</event>
<event>
 5   0  0.1608627E-04  0.1804867E+04  0.7818609E-02  0.8703716E-01
       -2   -1    0    0    0  501  0.00000000000E+00  0.00000000000E+00  0.86705170743E+03  0.86705170743E+03  0.25500000920E-02 0.  1.
        2   -1    0    0  501    0  0.00000000000E+00  0.00000000000E+00 -0.93925901374E+03  0.93925901375E+03  0.25500000920E-02 0. -1.
    10030    2    1    2    0    0  0.00000000000E+00  0.00000000000E+00 -0.72207306315E+02  0.18063107212E+04  0.18048668999E+04 0.  0.
        2    1    3    3  502    0 -0.88499595360E+03  0.17267438277E+03 -0.72900595281E+02  0.90462631907E+03  0.25500000920E-02 0.  1.
       -2    1    3    3    0  502  0.88499595360E+03 -0.17267438277E+03  0.69328896580E+00  0.90168440211E+03  0.25500000920E-02 0. -1.
</event>
<event>
 5   0  0.1573981E-04  0.1783384E+04  0.7818609E-02  0.8715186E-01
       -2   -1    0    0    0  501  0.00000000000E+00  0.00000000000E+00  0.16678581908E+04  0.16678581908E+04  0.25500000920E-02 0. -1.
        2   -1    0    0  501    0  0.00000000000E+00  0.00000000000E+00 -0.47672770031E+03  0.47672770032E+03  0.25500000920E-02 0.  1.
    10030    2    1    2    0    0  0.00000000000E+00  0.00000000000E+00  0.11911304905E+04  0.21445858911E+04  0.17833835255E+04 0.  0.
        1    1    3    3  502    0  0.65427570221E+03  0.40355891625E+02  0.13224879919E+04  0.14760351558E+04  0.50400001928E-02 0. -1.
       -1    1    3    3    0  502 -0.65427570221E+03 -0.40355891625E+02 -0.13135750139E+03  0.66855073531E+03  0.50400001928E-02 0.  1.
</event>
<event>
 5   0  0.8132598E-05  0.1804292E+04  0.7818609E-02  0.8704021E-01
        1   -1    0    0  501    0  0.00000000000E+00  0.00000000000E+00  0.16649147115E+04  0.16649147115E+04  0.50400001928E-02 0.  1.
       -1   -1    0    0    0  501  0.00000000000E+00  0.00000000000E+00 -0.48883403743E+03  0.48883403746E+03  0.50400001928E-02 0. -1.
    10030    2    1    2    0    0  0.00000000000E+00  0.00000000000E+00  0.11760806741E+04  0.21537487490E+04  0.18042915290E+04 0.  0.
        3    1    3    3  502    0  0.86805110671E+03 -0.18292272156E+03  0.78379503231E+03  0.11837686044E+04  0.10100000352E+00 0.  1.
       -3    1    3    3    0  502 -0.86805110671E+03  0.18292272156E+03  0.39228564180E+03  0.96998014458E+03  0.10100000352E+00 0. -1.
</event>
<event>
 5   0  0.1573981E-04  0.1799104E+04  0.7818609E-02  0.8706776E-01
       -2   -1    0    0    0  501  0.00000000000E+00  0.00000000000E+00  0.41568379826E+03  0.41568379826E+03  0.25500000920E-02 0. -1.
        2   -1    0    0  501    0  0.00000000000E+00  0.00000000000E+00 -0.19466569110E+04  0.19466569110E+04  0.25500000920E-02 0.  1.
    10030    2    1    2    0    0  0.00000000000E+00  0.00000000000E+00 -0.15309731128E+04  0.23623407093E+04  0.17991039311E+04 0.  0.
        1    1    3    3  502    0  0.23169647291E+03  0.34411427957E+03  0.28257952990E+03  0.50194529952E+03  0.50400001928E-02 0. -1.
       -1    1    3    3    0  502 -0.23169647291E+03 -0.34411427957E+03 -0.18135526427E+04  0.18603954098E+04  0.50400001928E-02 0.  1.
</event>
<event>
 5   0  0.1573981E-04  0.1818183E+04  0.7818609E-02  0.8696689E-01
        2   -1    0    0  501    0  0.00000000000E+00  0.00000000000E+00  0.12548119752E+04  0.12548119752E+04  0.25500000920E-02 0.  1.
       -2   -1    0    0    0  501  0.00000000000E+00  0.00000000000E+00 -0.65862281078E+03  0.65862281079E+03  0.25500000920E-02 0. -1.
    10030    2    1    2    0    0  0.00000000000E+00  0.00000000000E+00  0.59618916440E+03  0.19134347860E+04  0.18181834782E+04 0.  0.
        1    1    3    3  502    0 -0.59727583924E+03  0.15147676451E+02  0.10191762663E+04  0.11813924589E+04  0.50400001928E-02 0.  1.
       -1    1    3    3    0  502  0.59727583924E+03 -0.15147676451E+02 -0.42298710186E+03  0.73204232706E+03  0.50400001928E-02 0. -1.
</event>
<event>
 5   0  0.1603564E-04  0.1807710E+04  0.7818609E-02  0.8702210E-01
        2   -1    0    0  501    0  0.00000000000E+00  0.00000000000E+00  0.14360565693E+04  0.14360565693E+04  0.25500000920E-02 0.  1.
       -2   -1    0    0    0  501  0.00000000000E+00  0.00000000000E+00 -0.56888716604E+03  0.56888716604E+03  0.25500000920E-02 0. -1.
    10030    2    1    2    0    0  0.00000000000E+00  0.00000000000E+00  0.86716940326E+03  0.20049437353E+04  0.18077103219E+04 0.  0.
        5    1    3    3  502    0 -0.30402473823E+03  0.27450056886E+03  0.13271906185E+04  0.13889703494E+04  0.46999998093E+01 0.  1.
       -5    1    3    3    0  502  0.30402473823E+03 -0.27450056886E+03 -0.46002121520E+03  0.61597338595E+03  0.46999998093E+01 0. -1.
</event>
<event>
 5   0  0.1573981E-04  0.1796477E+04  0.7818609E-02  0.8708175E-01
        2   -1    0    0  501    0  0.00000000000E+00  0.00000000000E+00  0.11611394223E+04  0.11611394223E+04  0.25500000920E-02 0. -1.
       -2   -1    0    0    0  501  0.00000000000E+00  0.00000000000E+00 -0.69486297007E+03  0.69486297007E+03  0.25500000920E-02 0.  1.
    10030    2    1    2    0    0  0.00000000000E+00  0.00000000000E+00  0.46627645218E+03  0.18560023923E+04  0.17964774283E+04 0.  0.
        1    1    3    3  502    0  0.29084360571E+02  0.16643486446E+02  0.11604934268E+04  0.11609771313E+04  0.50400001928E-02 0. -1.
       -1    1    3    3    0  502 -0.29084360571E+02 -0.16643486446E+02 -0.69421697460E+03  0.69502526107E+03  0.50400001928E-02 0.  1.
</event>
<event>
 5   0  0.8206783E-05  0.1797253E+04  0.7818609E-02  0.8707762E-01
        1   -1    0    0  501    0  0.00000000000E+00  0.00000000000E+00  0.17152818335E+04  0.17152818335E+04  0.50400001928E-02 0.  1.
       -1   -1    0    0    0  501  0.00000000000E+00  0.00000000000E+00 -0.47078523463E+03  0.47078523466E+03  0.50400001928E-02 0. -1.
    10030    2    1    2    0    0  0.00000000000E+00  0.00000000000E+00  0.12444965988E+04  0.21860670681E+04  0.17972527485E+04 0.  0.
        1    1    3    3  502    0 -0.38451393899E+03 -0.17024859200E+03  0.15882182333E+04  0.16429463500E+04  0.50400001928E-02 0.  1.
       -1    1    3    3    0  502  0.38451393899E+03  0.17024859200E+03 -0.34372163451E+03  0.54312071809E+03  0.50400001928E-02 0. -1.
</event>
<event>
 5   0  0.8206783E-05  0.1780614E+04  0.7818609E-02  0.8716677E-01
       -1   -1    0    0    0  501  0.00000000000E+00  0.00000000000E+00  0.87062759376E+03  0.87062759377E+03  0.50400001928E-02 0. -1.
        1   -1    0    0  501    0  0.00000000000E+00  0.00000000000E+00 -0.91043125221E+03  0.91043125222E+03  0.50400001928E-02 0.  1.
    10030    2    1    2    0    0  0.00000000000E+00  0.00000000000E+00 -0.39803658446E+02  0.17810588460E+04  0.17806140182E+04 0.  0.
        1    1    3    3  502    0 -0.46957928052E+03  0.57868666965E+03  0.46731697981E+03  0.87964090513E+03  0.50400001928E-02 0. -1.
       -1    1    3    3    0  502  0.46957928052E+03 -0.57868666965E+03 -0.50712063826E+03  0.90141794086E+03  0.50400001928E-02 0.  1.
</event>
<event>
 5   0  0.8132598E-05  0.1804103E+04  0.7818609E-02  0.8704121E-01
        1   -1    0    0  501    0  0.00000000000E+00  0.00000000000E+00  0.71542660032E+03  0.71542660034E+03  0.50400001928E-02 0. -1.
       -1   -1    0    0    0  501  0.00000000000E+00  0.00000000000E+00 -0.11373592262E+04  0.11373592262E+04  0.50400001928E-02 0.  1.
    10030    2    1    2    0    0  0.00000000000E+00  0.00000000000E+00 -0.42193262586E+03  0.18527858265E+04  0.18041031507E+04 0.  0.
        3    1    3    3  502    0 -0.23161776757E+03  0.39674428393E+03  0.58628336346E+03  0.74483623002E+03  0.10100000352E+00 0. -1.
       -3    1    3    3    0  502  0.23161776757E+03 -0.39674428393E+03 -0.10082159893E+04  0.11079495965E+04  0.10100000352E+00 0.  1.
</event>
<event>
 5   0  0.1603564E-04  0.1738346E+04  0.7818609E-02  0.8739791E-01
       -2   -1    0    0    0  501  0.00000000000E+00  0.00000000000E+00  0.88670049155E+03  0.88670049155E+03  0.25500000920E-02 0.  1.
        2   -1    0    0  501    0  0.00000000000E+00  0.00000000000E+00 -0.85199218347E+03  0.85199218347E+03  0.25500000920E-02 0. -1.
    10030    2    1    2    0    0  0.00000000000E+00  0.00000000000E+00  0.34708308074E+02  0.17386926750E+04  0.17383462116E+04 0.  0.
        5    1    3    3  502    0  0.54314666097E+03  0.48192069622E+03  0.49513539182E+03  0.87888395082E+03  0.46999998093E+01 0.  1.
       -5    1    3    3    0  502 -0.54314666097E+03 -0.48192069622E+03 -0.46042708375E+03  0.85980872421E+03  0.46999998093E+01 0. -1.
</event>
<event>
 5   0  0.1573981E-04  0.1779417E+04  0.7818609E-02  0.8717323E-01
        2   -1    0    0  501    0  0.00000000000E+00  0.00000000000E+00  0.98808765669E+03  0.98808765669E+03  0.25500000920E-02 0.  1.
       -2   -1    0    0    0  501  0.00000000000E+00  0.00000000000E+00 -0.80112424690E+03  0.80112424691E+03  0.25500000920E-02 0. -1.
    10030    2    1    2    0    0  0.00000000000E+00  0.00000000000E+00  0.18696340978E+03  0.17892119036E+04  0.17794167357E+04 0.  0.
        1    1    3    3  502    0  0.35992449660E+03 -0.43323274410E+03 -0.59903642269E+03  0.82224138156E+03  0.50400001928E-02 0. -1.
       -1    1    3    3    0  502 -0.35992449660E+03  0.43323274410E+03  0.78599983247E+03  0.96697052204E+03  0.50400001928E-02 0.  1.
</event>
<event>
 5   0  0.8430513E-05  0.1813901E+04  0.7818609E-02  0.8698942E-01
       -1   -1    0    0    0  501  0.00000000000E+00  0.00000000000E+00  0.13150056051E+04  0.13150056051E+04  0.50400001928E-02 0. -1.
        1   -1    0    0  501    0  0.00000000000E+00  0.00000000000E+00 -0.62551740222E+03  0.62551740224E+03  0.50400001928E-02 0.  1.
    10030    2    1    2    0    0  0.00000000000E+00  0.00000000000E+00  0.68948820291E+03  0.19405230074E+04  0.18139006478E+04 0.  0.
        5    1    3    3  502    0  0.37008867734E+03 -0.54575724705E+03 -0.32139436573E+03  0.73357551085E+03  0.46999998093E+01 0.  1.
       -5    1    3    3    0  502 -0.37008867734E+03  0.54575724705E+03  0.10108825686E+04  0.12069474965E+04  0.46999998093E+01 0. -1.
</event>
<event>
 5   0  0.8430513E-05  0.1791712E+04  0.7818609E-02  0.8710720E-01
       -1   -1    0    0    0  501  0.00000000000E+00  0.00000000000E+00  0.56501807089E+03  0.56501807091E+03  0.50400001928E-02 0. -1.
        1   -1    0    0  501    0  0.00000000000E+00  0.00000000000E+00 -0.14204107900E+04  0.14204107900E+04  0.50400001928E-02 0.  1.
    10030    2    1    2    0    0  0.00000000000E+00  0.00000000000E+00 -0.85539271911E+03  0.19854288609E+04  0.17917117675E+04 0.  0.
        5    1    3    3  502    0 -0.85173710188E+02 -0.71549531450E+03 -0.10175522622E+04  0.12468451396E+04  0.46999998093E+01 0.  1.
       -5    1    3    3    0  502  0.85173710188E+02  0.71549531450E+03  0.16215954305E+03  0.73858372130E+03  0.46999998093E+01 0. -1.
</event>
<event>
 5   0  0.1573981E-04  0.1805281E+04  0.7818609E-02  0.8703496E-01
       -2   -1    0    0    0  501  0.00000000000E+00  0.00000000000E+00  0.88767149723E+03  0.88767149723E+03  0.25500000920E-02 0. -1.
        2   -1    0    0  501    0  0.00000000000E+00  0.00000000000E+00 -0.91786189736E+03  0.91786189737E+03  0.25500000920E-02 0.  1.
    10030    2    1    2    0    0  0.00000000000E+00  0.00000000000E+00 -0.30190400132E+02  0.18055333946E+04  0.18052809695E+04 0.  0.
        1    1    3    3  502    0  0.61077677176E+02 -0.84840788291E+03 -0.31718614930E+03  0.90781797282E+03  0.50400001928E-02 0.  1.
       -1    1    3    3    0  502 -0.61077677176E+02  0.84840788291E+03  0.28699574917E+03  0.89771542178E+03  0.50400001928E-02 0. -1.
</event>
<event>
 5   0  0.8132598E-05  0.1790309E+04  0.7818609E-02  0.8711470E-01
        1   -1    0    0  501    0  0.00000000000E+00  0.00000000000E+00  0.10915430828E+04  0.10915430828E+04  0.50400001928E-02 0.  1.
       -1   -1    0    0    0  501  0.00000000000E+00  0.00000000000E+00 -0.73409974339E+03  0.73409974341E+03  0.50400001928E-02 0. -1.
    10030    2    1    2    0    0  0.00000000000E+00  0.00000000000E+00  0.35744333936E+03  0.18256428262E+04  0.17903089085E+04 0.  0.
        3    1    3    3  502    0  0.67212855857E+03  0.17416002468E+03 -0.39741843735E+03  0.80001871102E+03  0.10100000352E+00 0. -1.
       -3    1    3    3    0  502 -0.67212855857E+03 -0.17416002468E+03  0.75486177671E+03  0.10256241152E+04  0.10100000352E+00 0.  1.
</event>
<event>
 5   0  0.8492114E-05  0.1788880E+04  0.7818609E-02  0.8712235E-01
        1   -1    0    0  501    0  0.00000000000E+00  0.00000000000E+00  0.24098508715E+04  0.24098508715E+04  0.50400001928E-02 0. -1.
       -1   -1    0    0    0  501  0.00000000000E+00  0.00000000000E+00 -0.33198035931E+03  0.33198035935E+03  0.50400001928E-02 0.  1.
    10030    2    1    2    0    0  0.00000000000E+00  0.00000000000E+00  0.20778705122E+04  0.27418312308E+04  0.17888802735E+04 0.  0.
        2    1    3    3  502    0 -0.38962125237E+03  0.62663712318E+03  0.26412994535E+03  0.78373683879E+03  0.25500000920E-02 0.  1.
       -2    1    3    3    0  502  0.38962125237E+03 -0.62663712318E+03  0.18137405668E+04  0.19580943920E+04  0.25500000920E-02 0. -1.
</event>
<event>
 5   0  0.8254914E-05  0.1791953E+04  0.7818609E-02  0.8710591E-01
        1   -1    0    0  501    0  0.00000000000E+00  0.00000000000E+00  0.15988949720E+04  0.15988949720E+04  0.50400001928E-02 0. -1.
       -1   -1    0    0    0  501  0.00000000000E+00  0.00000000000E+00 -0.50208016532E+03  0.50208016534E+03  0.50400001928E-02 0.  1.
    10030    2    1    2    0    0  0.00000000000E+00  0.00000000000E+00  0.10968148066E+04  0.21009751373E+04  0.17919525126E+04 0.  0.
        4    1    3    3  502    0  0.65572942508E+03  0.21656239956E+03  0.12177229682E+04  0.13999039938E+04  0.12699999809E+01 0. -1.
       -4    1    3    3    0  502 -0.65572942508E+03 -0.21656239956E+03 -0.12090816152E+03  0.70107114349E+03  0.12699999809E+01 0.  1.
</event>
<event>
 5   0  0.8254914E-05  0.1826785E+04  0.7818609E-02  0.8692184E-01
       -1   -1    0    0    0  501  0.00000000000E+00  0.00000000000E+00  0.59855777830E+03  0.59855777832E+03  0.50400001928E-02 0.  1.
        1   -1    0    0  501    0  0.00000000000E+00  0.00000000000E+00 -0.13938271325E+04  0.13938271325E+04  0.50400001928E-02 0. -1.
    10030    2    1    2    0    0  0.00000000000E+00  0.00000000000E+00 -0.79526935423E+03  0.19923849109E+04  0.18267852329E+04 0.  0.
        4    1    3    3  502    0 -0.22750709919E+03  0.36891371689E+03  0.47925652611E+03  0.64617740707E+03  0.12699999809E+01 0.  1.
       -4    1    3    3    0  502  0.22750709919E+03 -0.36891371689E+03 -0.12745258803E+04  0.13462075038E+04  0.12699999809E+01 0. -1.
</event>
<event>
 5   0  0.8206783E-05  0.1795902E+04  0.7818609E-02  0.8708482E-01
       -1   -1    0    0    0  501  0.00000000000E+00  0.00000000000E+00  0.71821590375E+03  0.71821590376E+03  0.50400001928E-02 0. -1.
        1   -1    0    0  501    0  0.00000000000E+00  0.00000000000E+00 -0.11226651782E+04  0.11226651782E+04  0.50400001928E-02 0.  1.
    10030    2    1    2    0    0  0.00000000000E+00  0.00000000000E+00 -0.40444927441E+03  0.18408810819E+04  0.17959019857E+04 0.  0.
        1    1    3    3  502    0 -0.83210384945E+02 -0.43288732554E+03 -0.10041224356E+04  0.10966208418E+04  0.50400001928E-02 0.  1.
       -1    1    3    3    0  502  0.83210384945E+02  0.43288732554E+03  0.59967316124E+03  0.74426024018E+03  0.50400001928E-02 0. -1.
</event>
<event>
 5   0  0.8132598E-05  0.1802911E+04  0.7818609E-02  0.8704753E-01
        1   -1    0    0  501    0  0.00000000000E+00  0.00000000000E+00  0.14115255548E+04  0.14115255548E+04  0.50400001928E-02 0.  1.
       -1   -1    0    0    0  501  0.00000000000E+00  0.00000000000E+00 -0.57570451760E+03  0.57570451762E+03  0.50400001928E-02 0. -1.
    10030    2    1    2    0    0  0.00000000000E+00  0.00000000000E+00  0.83582103717E+03  0.19872300724E+04  0.18029105786E+04 0.  0.
        3    1    3    3  502    0  0.13952013965E+03 -0.84488731938E+02  0.13951253447E+04  0.14046276919E+04  0.10100000352E+00 0.  1.
       -3    1    3    3    0  502 -0.13952013965E+03  0.84488731938E+02 -0.55930430751E+03  0.58260238053E+03  0.10100000352E+00 0. -1.
</event>
<event>
 5   0  0.8254914E-05  0.1811555E+04  0.7818609E-02  0.8700179E-01
       -1   -1    0    0    0  501  0.00000000000E+00  0.00000000000E+00  0.49452720928E+03  0.49452720931E+03  0.50400001928E-02 0. -1.
        1   -1    0    0  501    0  0.00000000000E+00  0.00000000000E+00 -0.16590244175E+04  0.16590244175E+04  0.50400001928E-02 0.  1.
    10030    2    1    2    0    0  0.00000000000E+00  0.00000000000E+00 -0.11644972082E+04  0.21535516268E+04  0.18115548188E+04 0.  0.
        4    1    3    3  502    0  0.13257305177E+03 -0.77422144472E+03 -0.46058990382E+02  0.78684020171E+03  0.12699999809E+01 0.  1.
       -4    1    3    3    0  502 -0.13257305177E+03  0.77422144472E+03 -0.11184382179E+04  0.13667114251E+04  0.12699999809E+01 0. -1.
</event>
<event>
 5   0  0.1628397E-04  0.1798981E+04  0.7818609E-02  0.8706842E-01
       -2   -1    0    0    0  501  0.00000000000E+00  0.00000000000E+00  0.50636570823E+03  0.50636570823E+03  0.25500000920E-02 0. -1.
        2   -1    0    0  501    0  0.00000000000E+00  0.00000000000E+00 -0.15978232894E+04  0.15978232894E+04  0.25500000920E-02 0.  1.
    10030    2    1    2    0    0  0.00000000000E+00  0.00000000000E+00 -0.10914575811E+04  0.21041889976E+04  0.17989807354E+04 0.  0.
        3    1    3    3  502    0  0.27423176636E+03 -0.65047466110E+02 -0.15448429927E+04  0.15703420381E+04  0.10100000352E+00 0.  1.
       -3    1    3    3    0  502 -0.27423176636E+03  0.65047466110E+02  0.45338541154E+03  0.53384695946E+03  0.10100000352E+00 0. -1.
</event>
<event>
 5   0  0.8492114E-05  0.1799859E+04  0.7818609E-02  0.8706375E-01
       -1   -1    0    0    0  501  0.00000000000E+00  0.00000000000E+00  0.48493538192E+03  0.48493538195E+03  0.50400001928E-02 0. -1.
        1   -1    0    0  501    0  0.00000000000E+00  0.00000000000E+00 -0.16700635671E+04  0.16700635671E+04  0.50400001928E-02 0.  1.
    10030    2    1    2    0    0  0.00000000000E+00  0.00000000000E+00 -0.11851281852E+04  0.21549989491E+04  0.17998587876E+04 0.  0.
        2    1    3    3  502    0  0.19687838062E+03 -0.86028787635E+03 -0.80342964231E+03  0.11934636639E+04  0.25500000920E-02 0.  1.
       -2    1    3    3    0  502 -0.19687838062E+03  0.86028787635E+03 -0.38169854289E+03  0.96153528515E+03  0.25500000920E-02 0. -1.
</event>
<event>
 5   0  0.8132598E-05  0.1796544E+04  0.7818609E-02  0.8708139E-01
        1   -1    0    0  501    0  0.00000000000E+00  0.00000000000E+00  0.15386774124E+04  0.15386774124E+04  0.50400001928E-02 0. -1.
       -1   -1    0    0    0  501  0.00000000000E+00  0.00000000000E+00 -0.52440674143E+03  0.52440674145E+03  0.50400001928E-02 0.  1.
    10030    2    1    2    0    0  0.00000000000E+00  0.00000000000E+00  0.10142706709E+04  0.20630841538E+04  0.17965442471E+04 0.  0.
        3    1    3    3  502    0 -0.52313478317E+03  0.52390957465E+02  0.13435328000E+04  0.14427387874E+04  0.10100000352E+00 0. -1.
       -3    1    3    3    0  502  0.52313478317E+03 -0.52390957465E+02 -0.32926212908E+03  0.62034536642E+03  0.10100000352E+00 0.  1.
</event>
<event>
 5   0  0.8492114E-05  0.1807737E+04  0.7818609E-02  0.8702196E-01
        1   -1    0    0  501    0  0.00000000000E+00  0.00000000000E+00  0.95527442289E+03  0.95527442290E+03  0.50400001928E-02 0.  1.
       -1   -1    0    0    0  501  0.00000000000E+00  0.00000000000E+00 -0.85522931797E+03  0.85522931798E+03  0.50400001928E-02 0. -1.
    10030    2    1    2    0    0  0.00000000000E+00  0.00000000000E+00  0.10004510492E+03  0.18105037409E+04  0.18077374734E+04 0.  0.
        2    1    3    3  502    0 -0.26830362342E+03 -0.29906260557E+03  0.86092406100E+03  0.95006079553E+03  0.25500000920E-02 0.  1.
       -2    1    3    3    0  502  0.26830362342E+03  0.29906260557E+03 -0.76087895608E+03  0.86044294535E+03  0.25500000920E-02 0. -1.
</event>
<event>
 5   0  0.1573981E-04  0.1813902E+04  0.7818609E-02  0.8698941E-01
       -2   -1    0    0    0  501  0.00000000000E+00  0.00000000000E+00  0.85051179522E+03  0.85051179522E+03  0.25500000920E-02 0.  1.
        2   -1    0    0  501    0  0.00000000000E+00  0.00000000000E+00 -0.96713524730E+03  0.96713524730E+03  0.25500000920E-02 0. -1.
    10030    2    1    2    0    0  0.00000000000E+00  0.00000000000E+00 -0.11662345208E+03  0.18176470425E+04  0.18139018004E+04 0.  0.
        1    1    3    3  502    0  0.86711044004E+03  0.20810436488E+02 -0.32389923844E+03  0.92586408623E+03  0.50400001928E-02 0. -1.
       -1    1    3    3    0  502 -0.86711044004E+03 -0.20810436488E+02  0.20727578636E+03  0.89178295629E+03  0.50400001928E-02 0.  1.
</event>
<event>
 5   0  0.8206783E-05  0.1810061E+04  0.7818609E-02  0.8700968E-01
       -1   -1    0    0    0  501  0.00000000000E+00  0.00000000000E+00  0.12545984349E+04  0.12545984350E+04  0.50400001928E-02 0. -1.
        1   -1    0    0  501    0  0.00000000000E+00  0.00000000000E+00 -0.65286228039E+03  0.65286228041E+03  0.50400001928E-02 0.  1.
    10030    2    1    2    0    0  0.00000000000E+00  0.00000000000E+00  0.60173615455E+03  0.19074607154E+04  0.18100607672E+04 0.  0.
        1    1    3    3  502    0 -0.57583473762E+03  0.39162311429E+03 -0.30827228765E+03  0.76156819265E+03  0.50400001928E-02 0.  1.
       -1    1    3    3    0  502  0.57583473762E+03 -0.39162311429E+03  0.91000844220E+03  0.11458925227E+04  0.50400001928E-02 0. -1.
</event>
<event>
 5   0  0.1608627E-04  0.1769043E+04  0.7818609E-02  0.8722937E-01
       -2   -1    0    0    0  501  0.00000000000E+00  0.00000000000E+00  0.39454939773E+03  0.39454939774E+03  0.25500000920E-02 0. -1.
        2   -1    0    0  501    0  0.00000000000E+00  0.00000000000E+00 -0.19829667588E+04  0.19829667588E+04  0.25500000920E-02 0.  1.
    10030    2    1    2    0    0  0.00000000000E+00  0.00000000000E+00 -0.15884173610E+04  0.23775161565E+04  0.17690430638E+04 0.  0.
        2    1    3    3  502    0 -0.57987358801E+03  0.55733315051E+03 -0.29948547024E+03  0.85823374766E+03  0.25500000920E-02 0. -1.
       -2    1    3    3    0  502  0.57987358801E+03 -0.55733315051E+03 -0.12889318908E+04  0.15192824089E+04  0.25500000920E-02 0.  1.
</event>
<event>
 5   0  0.5820500E-05  0.1771042E+04  0.7818609E-02  0.8721852E-01
        3   -1    0    0  501    0  0.00000000000E+00  0.00000000000E+00  0.64904101907E+03  0.64904102693E+03  0.10100000352E+00 0.  1.
       -3   -1    0    0    0  501  0.00000000000E+00  0.00000000000E+00 -0.12081637634E+04  0.12081637676E+04  0.10100000352E+00 0. -1.
    10030    2    1    2    0    0  0.00000000000E+00  0.00000000000E+00 -0.55912274431E+03  0.18572047945E+04  0.17710424630E+04 0.  0.
        1    1    3    3  502    0  0.57040936885E+02  0.81651034556E+03 -0.63394484059E+03  0.10352916854E+04  0.50400001928E-02 0. -1.
       -1    1    3    3    0  502 -0.57040936885E+02 -0.81651034556E+03  0.74822096285E+02  0.82191310915E+03  0.50400001928E-02 0.  1.
</event>
<event>
 5   0  0.8206783E-05  0.1798017E+04  0.7818609E-02  0.8707355E-01
       -1   -1    0    0    0  501  0.00000000000E+00  0.00000000000E+00  0.10860366739E+04  0.10860366740E+04  0.50400001928E-02 0. -1.
        1   -1    0    0  501    0  0.00000000000E+00  0.00000000000E+00 -0.74418843627E+03  0.74418843629E+03  0.50400001928E-02 0.  1.
    10030    2    1    2    0    0  0.00000000000E+00  0.00000000000E+00  0.34184823767E+03  0.18302251102E+04  0.17980166119E+04 0.  0.
        1    1    3    3  502    0 -0.16065268244E+03  0.69109880443E+03 -0.39104250113E+03  0.81014880089E+03  0.50400001928E-02 0.  1.
       -1    1    3    3    0  502  0.16065268244E+03 -0.69109880443E+03  0.73289073880E+03  0.10200763094E+04  0.50400001928E-02 0. -1.
</event>
<event>
 5   0  0.8132598E-05  0.1803656E+04  0.7818609E-02  0.8704358E-01
        1   -1    0    0  501    0  0.00000000000E+00  0.00000000000E+00  0.10608301643E+04  0.10608301643E+04  0.50400001928E-02 0.  1.
       -1   -1    0    0    0  501  0.00000000000E+00  0.00000000000E+00 -0.76665804119E+03  0.76665804120E+03  0.50400001928E-02 0. -1.
    10030    2    1    2    0    0  0.00000000000E+00  0.00000000000E+00  0.29417212308E+03  0.18274882055E+04  0.18036562597E+04 0.  0.
        3    1    3    3  502    0 -0.54820201560E+02  0.59879039943E+03 -0.53390982905E+03  0.80412369242E+03  0.10100000352E+00 0. -1.
       -3    1    3    3    0  502  0.54820201560E+02 -0.59879039943E+03  0.82808195212E+03  0.10233645131E+04  0.10100000352E+00 0.  1.
</event>
<event>
 5   0  0.1628397E-04  0.1801482E+04  0.7818609E-02  0.8705512E-01
        2   -1    0    0  501    0  0.00000000000E+00  0.00000000000E+00  0.84997018911E+03  0.84997018911E+03  0.25500000920E-02 0.  1.
       -2   -1    0    0    0  501  0.00000000000E+00  0.00000000000E+00 -0.95454459982E+03  0.95454459982E+03  0.25500000920E-02 0. -1.
    10030    2    1    2    0    0  0.00000000000E+00  0.00000000000E+00 -0.10457441071E+03  0.18045147889E+04  0.18014821165E+04 0.  0.
        3    1    3    3  502    0 -0.56352686585E+03 -0.30341199957E+03 -0.68716256748E+03  0.93904939932E+03  0.10100000352E+00 0. -1.
       -3    1    3    3    0  502  0.56352686585E+03  0.30341199957E+03  0.58258815677E+03  0.86546538962E+03  0.10100000352E+00 0.  1.
</event>
<event>
 5   0  0.1549012E-04  0.1791940E+04  0.7818609E-02  0.8710597E-01
        2   -1    0    0  501    0  0.00000000000E+00  0.00000000000E+00  0.19872285411E+04  0.19872285411E+04  0.25500000920E-02 0.  1.
       -2   -1    0    0    0  501  0.00000000000E+00  0.00000000000E+00 -0.40396091726E+03  0.40396091726E+03  0.25500000920E-02 0. -1.
    10030    2    1    2    0    0  0.00000000000E+00  0.00000000000E+00  0.15832676238E+04  0.23911894583E+04  0.17919404725E+04 0.  0.
        4    1    3    3  502    0  0.54312329813E+03  0.22706271691E+03 -0.10968385061E+03  0.59880928046E+03  0.12699999809E+01 0. -1.
       -4    1    3    3    0  502 -0.54312329813E+03 -0.22706271691E+03  0.16929514744E+04  0.17923801779E+04  0.12699999809E+01 0.  1.
</event>
<event>
 5   0  0.8206783E-05  0.1799987E+04  0.7818609E-02  0.8706306E-01
       -1   -1    0    0    0  501  0.00000000000E+00  0.00000000000E+00  0.59886467345E+03  0.59886467347E+03  0.50400001928E-02 0.  1.
        1   -1    0    0  501    0  0.00000000000E+00  0.00000000000E+00 -0.13525405349E+04  0.13525405349E+04  0.50400001928E-02 0. -1.
    10030    2    1    2    0    0  0.00000000000E+00  0.00000000000E+00 -0.75367586143E+03  0.19514052083E+04  0.17999874953E+04 0.  0.
        1    1    3    3  502    0  0.43146862094E+03 -0.78738562976E+03 -0.44408357791E+03  0.10016743608E+04  0.50400001928E-02 0. -1.
       -1    1    3    3    0  502 -0.43146862094E+03  0.78738562976E+03 -0.30959228352E+03  0.94973084759E+03  0.50400001928E-02 0.  1.
</event>
<event>
 5   0  0.8430513E-05  0.1803232E+04  0.7818609E-02  0.8704583E-01
        1   -1    0    0  501    0  0.00000000000E+00  0.00000000000E+00  0.98863848198E+03  0.98863848199E+03  0.50400001928E-02 0.  1.
       -1   -1    0    0    0  501  0.00000000000E+00  0.00000000000E+00 -0.82225325298E+03  0.82225325300E+03  0.50400001928E-02 0. -1.
    10030    2    1    2    0    0  0.00000000000E+00  0.00000000000E+00  0.16638522899E+03  0.18108917350E+04  0.18032317742E+04 0.  0.
        5    1    3    3  502    0  0.16688841453E+03  0.61839054336E+03 -0.55403454287E+03  0.84689726161E+03  0.46999998093E+01 0. -1.
       -5    1    3    3    0  502 -0.16688841453E+03 -0.61839054336E+03  0.72041977186E+03  0.96399447338E+03  0.46999998093E+01 0.  1.
</event>
<event>
 5   0  0.1628397E-04  0.1839174E+04  0.7818609E-02  0.8685740E-01
        2   -1    0    0  501    0  0.00000000000E+00  0.00000000000E+00  0.22361534962E+04  0.22361534962E+04  0.25500000920E-02 0.  1.
       -2   -1    0    0    0  501  0.00000000000E+00  0.00000000000E+00 -0.37816716636E+03  0.37816716637E+03  0.25500000920E-02 0. -1.
    10030    2    1    2    0    0  0.00000000000E+00  0.00000000000E+00  0.18579863298E+04  0.26143206626E+04  0.18391735440E+04 0.  0.
        3    1    3    3  502    0 -0.49724130139E+03  0.76396751717E+03  0.11015975347E+04  0.14298295065E+04  0.10100000352E+00 0.  1.
       -3    1    3    3    0  502  0.49724130139E+03 -0.76396751717E+03  0.75638879512E+03  0.11844911560E+04  0.10100000352E+00 0. -1.
</event>
<event>
 5   0  0.8254914E-05  0.1772052E+04  0.7818609E-02  0.8721305E-01
        1   -1    0    0  501    0  0.00000000000E+00  0.00000000000E+00  0.69563110039E+03  0.69563110040E+03  0.50400001928E-02 0.  1.
       -1   -1    0    0    0  501  0.00000000000E+00  0.00000000000E+00 -0.11285324812E+04  0.11285324812E+04  0.50400001928E-02 0. -1.
    10030    2    1    2    0    0  0.00000000000E+00  0.00000000000E+00 -0.43290138081E+03  0.18241635816E+04  0.17720522472E+04 0.  0.
        4    1    3    3  502    0  0.90027578671E+02  0.48970191527E+03  0.53799164866E+03  0.73304130693E+03  0.12699999809E+01 0.  1.
       -4    1    3    3    0  502 -0.90027578671E+02 -0.48970191527E+03 -0.97089302947E+03  0.10911222747E+04  0.12699999809E+01 0. -1.
</event>
<event>
 5   0  0.1628397E-04  0.1786716E+04  0.7818609E-02  0.8713396E-01
        2   -1    0    0  501    0  0.00000000000E+00  0.00000000000E+00  0.15177117246E+04  0.15177117246E+04  0.25500000920E-02 0.  1.
       -2   -1    0    0    0  501  0.00000000000E+00  0.00000000000E+00 -0.52584987336E+03  0.52584987336E+03  0.25500000920E-02 0. -1.
    10030    2    1    2    0    0  0.00000000000E+00  0.00000000000E+00  0.99186185128E+03  0.20435615980E+04  0.17867160023E+04 0.  0.
        3    1    3    3  502    0 -0.83902915302E+03  0.25409597868E+03  0.69255606007E+03  0.11172146582E+04  0.10100000352E+00 0.  1.
       -3    1    3    3    0  502  0.83902915302E+03 -0.25409597868E+03  0.29930579122E+03  0.92634693979E+03  0.10100000352E+00 0. -1.
</event>
<event>
 5   0  0.5820500E-05  0.1814893E+04  0.7818609E-02  0.8698419E-01
       -3   -1    0    0    0  501  0.00000000000E+00  0.00000000000E+00  0.13268205382E+04  0.13268205421E+04  0.10100000352E+00 0. -1.
        3   -1    0    0  501    0  0.00000000000E+00  0.00000000000E+00 -0.62062604494E+03  0.62062605316E+03  0.10100000352E+00 0.  1.
    10030    2    1    2    0    0  0.00000000000E+00  0.00000000000E+00  0.70619449328E+03  0.19474465952E+04  0.18148932693E+04 0.  0.
        4    1    3    3  502    0 -0.83607137211E+03 -0.34649645600E+03  0.42413394846E+03  0.99948304258E+03  0.12699999809E+01 0. -1.
       -4    1    3    3    0  502  0.83607137211E+03  0.34649645600E+03  0.28206054482E+03  0.94796355263E+03  0.12699999809E+01 0.  1.
</event>
<event>
 5   0  0.8492114E-05  0.1782605E+04  0.7818609E-02  0.8715605E-01
        1   -1    0    0  501    0  0.00000000000E+00  0.00000000000E+00  0.12785330024E+04  0.12785330024E+04  0.50400001928E-02 0.  1.
       -1   -1    0    0    0  501  0.00000000000E+00  0.00000000000E+00 -0.62135294820E+03  0.62135294822E+03  0.50400001928E-02 0. -1.
    10030    2    1    2    0    0  0.00000000000E+00  0.00000000000E+00  0.65718005420E+03  0.18998859506E+04  0.17826051166E+04 0.  0.
        2    1    3    3  502    0  0.43073565165E+03 -0.12842089773E+03  0.11489002413E+04  0.12336923819E+04  0.25500000920E-02 0.  1.
       -2    1    3    3    0  502 -0.43073565165E+03  0.12842089773E+03 -0.49172018714E+03  0.66619356873E+03  0.25500000920E-02 0. -1.
</event>
<event>
 5   0  0.1603564E-04  0.1810218E+04  0.7818609E-02  0.8700885E-01
       -2   -1    0    0    0  501  0.00000000000E+00  0.00000000000E+00  0.80075664141E+03  0.80075664142E+03  0.25500000920E-02 0.  1.
        2   -1    0    0  501    0  0.00000000000E+00  0.00000000000E+00 -0.10230598827E+04  0.10230598827E+04  0.25500000920E-02 0. -1.
    10030    2    1    2    0    0  0.00000000000E+00  0.00000000000E+00 -0.22230324131E+03  0.18238165241E+04  0.18102176617E+04 0.  0.
        5    1    3    3  502    0  0.17434562532E+03 -0.37198385298E+03  0.70140033227E+03  0.81286708634E+03  0.46999998093E+01 0.  1.
       -5    1    3    3    0  502 -0.17434562532E+03  0.37198385298E+03 -0.92370357357E+03  0.10109494378E+04  0.46999998093E+01 0. -1.
</event>
<event>
 5   0  0.8206783E-05  0.1807068E+04  0.7818609E-02  0.8702550E-01
        1   -1    0    0  501    0  0.00000000000E+00  0.00000000000E+00  0.15376188396E+04  0.15376188397E+04  0.50400001928E-02 0. -1.
       -1   -1    0    0    0  501  0.00000000000E+00  0.00000000000E+00 -0.53093363337E+03  0.53093363339E+03  0.50400001928E-02 0.  1.
    10030    2    1    2    0    0  0.00000000000E+00  0.00000000000E+00  0.10066852063E+04  0.20685524730E+04  0.18070678541E+04 0.  0.
        1    1    3    3  502    0 -0.66386355875E+03  0.26337401041E+03 -0.13017767510E+03  0.72596619833E+03  0.50400001928E-02 0.  1.
       -1    1    3    3    0  502  0.66386355875E+03 -0.26337401041E+03  0.11368628814E+04  0.13425862747E+04  0.50400001928E-02 0. -1.
</event>
<event>
 5   0  0.8206783E-05  0.1784925E+04  0.7818609E-02  0.8714357E-01
        1   -1    0    0  501    0  0.00000000000E+00  0.00000000000E+00  0.14503386981E+04  0.14503386981E+04  0.50400001928E-02 0. -1.
       -1   -1    0    0    0  501  0.00000000000E+00  0.00000000000E+00 -0.54917489199E+03  0.54917489201E+03  0.50400001928E-02 0.  1.
    10030    2    1    2    0    0  0.00000000000E+00  0.00000000000E+00  0.90116380611E+03  0.19995135901E+04  0.17849253182E+04 0.  0.
        1    1    3    3  502    0 -0.46542038399E+03 -0.46235374314E+03 -0.22722446693E+03  0.69427521634E+03  0.50400001928E-02 0.  1.
       -1    1    3    3    0  502  0.46542038399E+03  0.46235374314E+03  0.11283882730E+04  0.13052383738E+04  0.50400001928E-02 0. -1.
</event>
<event>
 5   0  0.1628397E-04  0.1798131E+04  0.7818609E-02  0.8707294E-01
        2   -1    0    0  501    0  0.00000000000E+00  0.00000000000E+00  0.63138972073E+03  0.63138972073E+03  0.25500000920E-02 0.  1.
       -2   -1    0    0    0  501  0.00000000000E+00  0.00000000000E+00 -0.12802218816E+04  0.12802218816E+04  0.25500000920E-02 0. -1.
    10030    2    1    2    0    0  0.00000000000E+00  0.00000000000E+00 -0.64883216084E+03  0.19116116023E+04  0.17981311813E+04 0.  0.
        3    1    3    3  502    0  0.45599544684E+03  0.77376691124E+02  0.49521356664E+03  0.67761012880E+03  0.10100000352E+00 0.  1.
       -3    1    3    3    0  502 -0.45599544684E+03 -0.77376691124E+02 -0.11440457275E+04  0.12340014735E+04  0.10100000352E+00 0. -1.
</event>
<event>
 5   0  0.8254914E-05  0.1793573E+04  0.7818609E-02  0.8709725E-01
       -1   -1    0    0    0  501  0.00000000000E+00  0.00000000000E+00  0.13449001955E+04  0.13449001955E+04  0.50400001928E-02 0.  1.
        1   -1    0    0  501    0  0.00000000000E+00  0.00000000000E+00 -0.59798208774E+03  0.59798208776E+03  0.50400001928E-02 0. -1.
    10030    2    1    2    0    0  0.00000000000E+00  0.00000000000E+00  0.74691810773E+03  0.19428822832E+04  0.17935732232E+04 0.  0.
        4    1    3    3  502    0  0.46119192579E+03 -0.66425131164E+03 -0.46495473096E+02  0.80999459217E+03  0.12699999809E+01 0. -1.
       -4    1    3    3    0  502 -0.46119192579E+03  0.66425131164E+03  0.79341358083E+03  0.11328876911E+04  0.12699999809E+01 0.  1.
</event>
<event>
 5   0  0.8206783E-05  0.1899828E+04  0.7818609E-02  0.8654942E-01
        1   -1    0    0  501    0  0.00000000000E+00  0.00000000000E+00  0.12966409910E+04  0.12966409910E+04  0.50400001928E-02 0.  1.
       -1   -1    0    0    0  501  0.00000000000E+00  0.00000000000E+00 -0.69590313510E+03  0.69590313512E+03  0.50400001928E-02 0. -1.
    10030    2    1    2    0    0  0.00000000000E+00  0.00000000000E+00  0.60073785591E+03  0.19925441261E+04  0.18998279193E+04 0.  0.
        1    1    3    3  502    0 -0.55417539355E+03 -0.72373342476E+03  0.20049930201E+02  0.91175788269E+03  0.50400001928E-02 0. -1.
       -1    1    3    3    0  502  0.55417539355E+03  0.72373342476E+03  0.58068792571E+03  0.10807862434E+04  0.50400001928E-02 0.  1.
</event>
<event>
 5   0  0.1603564E-04  0.1800360E+04  0.7818609E-02  0.8706108E-01
       -2   -1    0    0    0  501  0.00000000000E+00  0.00000000000E+00  0.59761752893E+03  0.59761752894E+03  0.25500000920E-02 0.  1.
        2   -1    0    0  501    0  0.00000000000E+00  0.00000000000E+00 -0.13559245934E+04  0.13559245934E+04  0.25500000920E-02 0. -1.
    10030    2    1    2    0    0  0.00000000000E+00  0.00000000000E+00 -0.75830706449E+03  0.19535421224E+04  0.18003603028E+04 0.  0.
        5    1    3    3  502    0  0.78392930879E+03 -0.91976340148E+02  0.90447706229E+02  0.79448579968E+03  0.46999998093E+01 0.  1.
       -5    1    3    3    0  502 -0.78392930879E+03  0.91976340148E+02 -0.84875477071E+03  0.11590563227E+04  0.46999998093E+01 0. -1.
</event>
<event>
 5   0  0.8430513E-05  0.1806857E+04  0.7818609E-02  0.8702661E-01
        1   -1    0    0  501    0  0.00000000000E+00  0.00000000000E+00  0.13576466392E+04  0.13576466392E+04  0.50400001928E-02 0.  1.
       -1   -1    0    0    0  501  0.00000000000E+00  0.00000000000E+00 -0.60117511758E+03  0.60117511760E+03  0.50400001928E-02 0. -1.
    10030    2    1    2    0    0  0.00000000000E+00  0.00000000000E+00  0.75647152161E+03  0.19588217568E+04  0.18068573579E+04 0.  0.
        5    1    3    3  502    0  0.61026783994E+03 -0.51502818070E+03  0.83623667592E+03  0.11562848834E+04  0.46999998093E+01 0.  1.
       -5    1    3    3    0  502 -0.61026783994E+03  0.51502818070E+03 -0.79765154305E+02  0.80253687343E+03  0.46999998093E+01 0. -1.
</event>
<event>
 5   0  0.1628397E-04  0.1827519E+04  0.7818609E-02  0.8691800E-01
        2   -1    0    0  501    0  0.00000000000E+00  0.00000000000E+00  0.12684529565E+04  0.12684529565E+04  0.25500000920E-02 0.  1.
       -2   -1    0    0    0  501  0.00000000000E+00  0.00000000000E+00 -0.65824805366E+03  0.65824805367E+03  0.25500000920E-02 0. -1.
    10030    2    1    2    0    0  0.00000000000E+00  0.00000000000E+00  0.61020490284E+03  0.19267010102E+04  0.18275192910E+04 0.  0.
        3    1    3    3  502    0  0.48941036187E+03  0.52816123741E+03  0.89819901924E+03  0.11511899424E+04  0.10100000352E+00 0.  1.
       -3    1    3    3    0  502 -0.48941036187E+03 -0.52816123741E+03 -0.28799411640E+03  0.77551106781E+03  0.10100000352E+00 0. -1.
</event>
<event>
 5   0  0.8492114E-05  0.1806599E+04  0.7818609E-02  0.8702798E-01
        1   -1    0    0  501    0  0.00000000000E+00  0.00000000000E+00  0.14875888828E+04  0.14875888828E+04  0.50400001928E-02 0. -1.
       -1   -1    0    0    0  501  0.00000000000E+00  0.00000000000E+00 -0.54850524094E+03  0.54850524097E+03  0.50400001928E-02 0.  1.
    10030    2    1    2    0    0  0.00000000000E+00  0.00000000000E+00  0.93908364181E+03  0.20360941237E+04  0.18065993453E+04 0.  0.
        2    1    3    3  502    0  0.28104321276E+03  0.27077870518E+02  0.14365792595E+04  0.14640623168E+04  0.25500000920E-02 0. -1.
       -2    1    3    3    0  502 -0.28104321276E+03 -0.27077870518E+02 -0.49749561771E+03  0.57203180695E+03  0.25500000920E-02 0.  1.
</event>
<event>
 5   0  0.8254914E-05  0.1793266E+04  0.7818609E-02  0.8709889E-01
        1   -1    0    0  501    0  0.00000000000E+00  0.00000000000E+00  0.10405210113E+04  0.10405210113E+04  0.50400001928E-02 0.  1.
       -1   -1    0    0    0  501  0.00000000000E+00  0.00000000000E+00 -0.77264284969E+03  0.77264284971E+03  0.50400001928E-02 0. -1.
    10030    2    1    2    0    0  0.00000000000E+00  0.00000000000E+00  0.26787816164E+03  0.18131638610E+04  0.17932664268E+04 0.  0.
        4    1    3    3  502    0  0.83888041978E+01 -0.34365988334E+03 -0.70336594941E+03  0.78287786988E+03  0.12699999809E+01 0. -1.
       -4    1    3    3    0  502 -0.83888041978E+01  0.34365988334E+03  0.97124411105E+03  0.10302859912E+04  0.12699999809E+01 0.  1.
</event>
<event>
 5   0  0.8206783E-05  0.1753855E+04  0.7818609E-02  0.8731231E-01
       -1   -1    0    0    0  501  0.00000000000E+00  0.00000000000E+00  0.69630916082E+03  0.69630916084E+03  0.50400001928E-02 0.  1.
        1   -1    0    0  501    0  0.00000000000E+00  0.00000000000E+00 -0.11043972770E+04  0.11043972770E+04  0.50400001928E-02 0. -1.
    10030    2    1    2    0    0  0.00000000000E+00  0.00000000000E+00 -0.40808811616E+03  0.18007064378E+04  0.17538551151E+04 0.  0.
        1    1    3    3  502    0 -0.82262596844E+03 -0.79460712621E+02 -0.50509078694E+03  0.96857843868E+03  0.50400001928E-02 0. -1.
       -1    1    3    3    0  502  0.82262596844E+03  0.79460712621E+02  0.97002670779E+02  0.83212799915E+03  0.50400001928E-02 0.  1.
</event>
<event>
 5   0  0.8254914E-05  0.1779576E+04  0.7818609E-02  0.8717237E-01
        1   -1    0    0  501    0  0.00000000000E+00  0.00000000000E+00  0.22624492056E+04  0.22624492056E+04  0.50400001928E-02 0. -1.
       -1   -1    0    0    0  501  0.00000000000E+00  0.00000000000E+00 -0.34994038841E+03  0.34994038845E+03  0.50400001928E-02 0.  1.
    10030    2    1    2    0    0  0.00000000000E+00  0.00000000000E+00  0.19125088172E+04  0.26123895940E+04  0.17795756279E+04 0.  0.
        4    1    3    3  502    0  0.15960601249E+03 -0.70655974059E+03  0.19768838370E+03  0.75085488358E+03  0.12699999809E+01 0.  1.
       -4    1    3    3    0  502 -0.15960601249E+03  0.70655974059E+03  0.17148204335E+04  0.18615347104E+04  0.12699999809E+01 0. -1.
</event>
<event>
 5   0  0.1608627E-04  0.1796206E+04  0.7818609E-02  0.8708320E-01
       -2   -1    0    0    0  501  0.00000000000E+00  0.00000000000E+00  0.37641990200E+03  0.37641990201E+03  0.25500000920E-02 0. -1.
        2   -1    0    0  501    0  0.00000000000E+00  0.00000000000E+00 -0.21427901547E+04  0.21427901547E+04  0.25500000920E-02 0.  1.
    10030    2    1    2    0    0  0.00000000000E+00  0.00000000000E+00 -0.17663702527E+04  0.25192100567E+04  0.17962058457E+04 0.  0.
        2    1    3    3  502    0  0.34838299552E+03  0.12816255873E+03  0.26378993525E+03  0.45539157104E+03  0.25500000920E-02 0. -1.
       -2    1    3    3    0  502 -0.34838299552E+03 -0.12816255873E+03 -0.20301601880E+04  0.20638184857E+04  0.25500000920E-02 0.  1.
</event>
<event>
 5   0  0.1573981E-04  0.1797175E+04  0.7818609E-02  0.8707803E-01
        2   -1    0    0  501    0  0.00000000000E+00  0.00000000000E+00  0.17074966567E+04  0.17074966567E+04  0.25500000920E-02 0.  1.
       -2   -1    0    0    0  501  0.00000000000E+00  0.00000000000E+00 -0.47289076169E+03  0.47289076169E+03  0.25500000920E-02 0. -1.
    10030    2    1    2    0    0  0.00000000000E+00  0.00000000000E+00  0.12346058950E+04  0.21803874184E+04  0.17971748881E+04 0.  0.
        1    1    3    3  502    0  0.66410061164E+03 -0.58323844526E+03  0.42068963770E+03  0.97886489246E+03  0.50400001928E-02 0. -1.
       -1    1    3    3    0  502 -0.66410061164E+03  0.58323844526E+03  0.81391625735E+03  0.12015225260E+04  0.50400001928E-02 0.  1.
</event>
<event>
 5   0  0.1628397E-04  0.1805853E+04  0.7818609E-02  0.8703193E-01
       -2   -1    0    0    0  501  0.00000000000E+00  0.00000000000E+00  0.53046125240E+03  0.53046125240E+03  0.25500000920E-02 0.  1.
        2   -1    0    0  501    0  0.00000000000E+00  0.00000000000E+00 -0.15369193826E+04  0.15369193826E+04  0.25500000920E-02 0. -1.
    10030    2    1    2    0    0  0.00000000000E+00  0.00000000000E+00 -0.10064581302E+04  0.20673806350E+04  0.18058529071E+04 0.  0.
        3    1    3    3  502    0  0.26665302616E+03  0.31681649813E+03  0.41534342801E+03  0.58650379644E+03  0.10100000352E+00 0.  1.
       -3    1    3    3    0  502 -0.26665302616E+03 -0.31681649813E+03 -0.14218015582E+04  0.14808768385E+04  0.10100000352E+00 0. -1.
</event>
<event>
 5   0  0.1573981E-04  0.1804711E+04  0.7818609E-02  0.8703798E-01
        2   -1    0    0  501    0  0.00000000000E+00  0.00000000000E+00  0.88666053739E+03  0.88666053740E+03  0.25500000920E-02 0. -1.
       -2   -1    0    0    0  501  0.00000000000E+00  0.00000000000E+00 -0.91832859516E+03  0.91832859517E+03  0.25500000920E-02 0.  1.
    10030    2    1    2    0    0  0.00000000000E+00  0.00000000000E+00 -0.31668057769E+02  0.18049891326E+04  0.18047113073E+04 0.  0.
        1    1    3    3  502    0 -0.76138586663E+03  0.40793329505E+03  0.24521901541E+03  0.89791445954E+03  0.50400001928E-02 0. -1.
       -1    1    3    3    0  502  0.76138586663E+03 -0.40793329505E+03 -0.27688707318E+03  0.90707467302E+03  0.50400001928E-02 0.  1.
</event>
<event>
 5   0  0.1549012E-04  0.1802322E+04  0.7818609E-02  0.8705066E-01
       -2   -1    0    0    0  501  0.00000000000E+00  0.00000000000E+00  0.54504868175E+03  0.54504868176E+03  0.25500000920E-02 0. -1.
        2   -1    0    0  501    0  0.00000000000E+00  0.00000000000E+00 -0.14899419397E+04  0.14899419397E+04  0.25500000920E-02 0.  1.
    10030    2    1    2    0    0  0.00000000000E+00  0.00000000000E+00 -0.94489325790E+03  0.20349906214E+04  0.18023217139E+04 0.  0.
        4    1    3    3  502    0 -0.45472076698E+03  0.11582478590E+03 -0.13411176594E+04  0.14208393809E+04  0.12699999809E+01 0.  1.
       -4    1    3    3    0  502  0.45472076698E+03 -0.11582478590E+03  0.39622440154E+03  0.61415124051E+03  0.12699999809E+01 0. -1.
</event>
<event>
 5   0  0.8132598E-05  0.1795509E+04  0.7818609E-02  0.8708691E-01
       -1   -1    0    0    0  501  0.00000000000E+00  0.00000000000E+00  0.57476612923E+03  0.57476612926E+03  0.50400001928E-02 0. -1.
        1   -1    0    0  501    0  0.00000000000E+00  0.00000000000E+00 -0.14022452567E+04  0.14022452567E+04  0.50400001928E-02 0.  1.
    10030    2    1    2    0    0  0.00000000000E+00  0.00000000000E+00 -0.82747912742E+03  0.19770113859E+04  0.17955089289E+04 0.  0.
        3    1    3    3  502    0  0.34143796698E+03 -0.61194364884E+02  0.49799659320E+03  0.60689805786E+03  0.10100000352E+00 0. -1.
       -3    1    3    3    0  502 -0.34143796698E+03  0.61194364884E+02 -0.13254757206E+04  0.13701133281E+04  0.10100000352E+00 0.  1.
</event>
<event>
 5   0  0.8206783E-05  0.1801374E+04  0.7818609E-02  0.8705569E-01
       -1   -1    0    0    0  501  0.00000000000E+00  0.00000000000E+00  0.64541271409E+03  0.64541271410E+03  0.50400001928E-02 0.  1.
        1   -1    0    0  501    0  0.00000000000E+00  0.00000000000E+00 -0.12569280324E+04  0.12569280324E+04  0.50400001928E-02 0. -1.
    10030    2    1    2    0    0  0.00000000000E+00  0.00000000000E+00 -0.61151531833E+03  0.19023407465E+04  0.18013742896E+04 0.  0.
        1    1    3    3  502    0 -0.20324732167E+02  0.41248116671E+03  0.53953311424E+03  0.67944815035E+03  0.50400001928E-02 0.  1.
       -1    1    3    3    0  502  0.20324732167E+02 -0.41248116671E+03 -0.11510484326E+04  0.12228925962E+04  0.50400001928E-02 0. -1.
</event>
<event>
 5   0  0.5820500E-05  0.1810389E+04  0.7818609E-02  0.8700794E-01
       -3   -1    0    0    0  501  0.00000000000E+00  0.00000000000E+00  0.17953203051E+04  0.17953203080E+04  0.10100000352E+00 0. -1.
        3   -1    0    0  501    0  0.00000000000E+00  0.00000000000E+00 -0.45639624061E+03  0.45639625179E+03  0.10100000352E+00 0.  1.
    10030    2    1    2    0    0  0.00000000000E+00  0.00000000000E+00  0.13389240645E+04  0.22517165597E+04  0.18103894097E+04 0.  0.
        1    1    3    3  502    0 -0.31174666616E+03 -0.84451214991E+03  0.55152819261E+03  0.10557320221E+04  0.50400001928E-02 0. -1.
       -1    1    3    3    0  502  0.31174666616E+03  0.84451214991E+03  0.78739587189E+03  0.11959845376E+04  0.50400001928E-02 0.  1.
</event>
<event>
 5   0  0.8206783E-05  0.1789600E+04  0.7818609E-02  0.8711850E-01
        1   -1    0    0  501    0  0.00000000000E+00  0.00000000000E+00  0.20426104936E+04  0.20426104936E+04  0.50400001928E-02 0.  1.
       -1   -1    0    0    0  501  0.00000000000E+00  0.00000000000E+00 -0.39198216625E+03  0.39198216628E+03  0.50400001928E-02 0. -1.
    10030    2    1    2    0    0  0.00000000000E+00  0.00000000000E+00  0.16506283274E+04  0.24345926599E+04  0.17895998280E+04 0.  0.
        1    1    3    3  502    0 -0.33842797613E+03  0.28130486936E+03  0.18852145940E+04  0.19358977220E+04  0.50400001928E-02 0.  1.
       -1    1    3    3    0  502  0.33842797613E+03 -0.28130486936E+03 -0.23458626665E+03  0.49869493789E+03  0.50400001928E-02 0. -1.
</event>
<event>
 5   0  0.8254914E-05  0.1798818E+04  0.7818609E-02  0.8706928E-01
        1   -1    0    0  501    0  0.00000000000E+00  0.00000000000E+00  0.16200718262E+04  0.16200718262E+04  0.50400001928E-02 0. -1.
       -1   -1    0    0    0  501  0.00000000000E+00  0.00000000000E+00 -0.49932150491E+03  0.49932150493E+03  0.50400001928E-02 0.  1.
    10030    2    1    2    0    0  0.00000000000E+00  0.00000000000E+00  0.11207503213E+04  0.21193933311E+04  0.17988181702E+04 0.  0.
        4    1    3    3  502    0  0.77859216707E+03 -0.99187590105E+02  0.42910795845E+02  0.78605781591E+03  0.12699999809E+01 0.  1.
       -4    1    3    3    0  502 -0.77859216707E+03  0.99187590105E+02  0.10778395254E+04  0.13333355152E+04  0.12699999809E+01 0. -1.
</event>
<event>
 5   0  0.8132598E-05  0.1729915E+04  0.7818609E-02  0.8744485E-01
       -1   -1    0    0    0  501  0.00000000000E+00  0.00000000000E+00  0.67676323262E+03  0.67676323264E+03  0.50400001928E-02 0. -1.
        1   -1    0    0  501    0  0.00000000000E+00  0.00000000000E+00 -0.11054842621E+04  0.11054842621E+04  0.50400001928E-02 0.  1.
    10030    2    1    2    0    0  0.00000000000E+00  0.00000000000E+00 -0.42872102944E+03  0.17822474947E+04  0.17299145676E+04 0.  0.
        3    1    3    3  502    0  0.90733122868E+02 -0.76225466104E+03 -0.62502462855E+03  0.98990932128E+03  0.10100000352E+00 0.  1.
       -3    1    3    3    0  502 -0.90733122868E+02  0.76225466104E+03  0.19630359911E+03  0.79233817344E+03  0.10100000352E+00 0. -1.
</event>
<event>
 5   0  0.1549012E-04  0.1798662E+04  0.7818609E-02  0.8707011E-01
       -2   -1    0    0    0  501  0.00000000000E+00  0.00000000000E+00  0.48191021615E+03  0.48191021616E+03  0.25500000920E-02 0.  1.
        2   -1    0    0  501    0  0.00000000000E+00  0.00000000000E+00 -0.16783125848E+04  0.16783125848E+04  0.25500000920E-02 0. -1.
    10030    2    1    2    0    0  0.00000000000E+00  0.00000000000E+00 -0.11964023686E+04  0.21602228009E+04  0.17986617030E+04 0.  0.
        4    1    3    3  502    0  0.72832282347E+03 -0.49194550032E+03 -0.82711969033E+03  0.12068939910E+04  0.12699999809E+01 0. -1.
       -4    1    3    3    0  502 -0.72832282347E+03  0.49194550032E+03 -0.36928267827E+03  0.95332880992E+03  0.12699999809E+01 0.  1.
</event>
<event>
 5   0  0.8492114E-05  0.1793135E+04  0.7818609E-02  0.8709959E-01
       -1   -1    0    0    0  501  0.00000000000E+00  0.00000000000E+00  0.99257222953E+03  0.99257222954E+03  0.50400001928E-02 0.  1.
        1   -1    0    0  501    0  0.00000000000E+00  0.00000000000E+00 -0.80984847235E+03  0.80984847237E+03  0.50400001928E-02 0. -1.
    10030    2    1    2    0    0  0.00000000000E+00  0.00000000000E+00  0.18272375717E+03  0.18024207019E+04  0.17931348012E+04 0.  0.
        2    1    3    3  502    0  0.86633883582E+03  0.15972366158E+03 -0.76169994936E+02  0.88422649511E+03  0.25500000920E-02 0. -1.
       -2    1    3    3    0  502 -0.86633883582E+03 -0.15972366158E+03  0.25889375211E+03  0.91819420680E+03  0.25500000920E-02 0.  1.
</event>
<event>
 5   0  0.8132598E-05  0.1829828E+04  0.7818609E-02  0.8690596E-01
       -1   -1    0    0    0  501  0.00000000000E+00  0.00000000000E+00  0.84257286663E+03  0.84257286664E+03  0.50400001928E-02 0. -1.
        1   -1    0    0  501    0  0.00000000000E+00  0.00000000000E+00 -0.99346596492E+03  0.99346596493E+03  0.50400001928E-02 0.  1.
    10030    2    1    2    0    0  0.00000000000E+00  0.00000000000E+00 -0.15089309829E+03  0.18360388316E+04  0.18298278236E+04 0.  0.
        3    1    3    3  502    0  0.26492123401E+02  0.83374394024E+03  0.30164375221E+03  0.88702860942E+03  0.10100000352E+00 0. -1.
       -3    1    3    3    0  502 -0.26492123401E+02 -0.83374394024E+03 -0.45253685050E+03  0.94901022215E+03  0.10100000352E+00 0.  1.
</event>
<event>
 5   0  0.1603564E-04  0.1802389E+04  0.7818609E-02  0.8705030E-01
        2   -1    0    0  501    0  0.00000000000E+00  0.00000000000E+00  0.85716297255E+03  0.85716297256E+03  0.25500000920E-02 0. -1.
       -2   -1    0    0    0  501  0.00000000000E+00  0.00000000000E+00 -0.94748813693E+03  0.94748813693E+03  0.25500000920E-02 0.  1.
    10030    2    1    2    0    0  0.00000000000E+00  0.00000000000E+00 -0.90325164378E+02  0.18046511095E+04  0.18023892453E+04 0.  0.
        5    1    3    3  502    0  0.17769382935E+03 -0.79905412168E+03 -0.42255344385E+03  0.92121446431E+03  0.46999998093E+01 0.  1.
       -5    1    3    3    0  502 -0.17769382935E+03  0.79905412168E+03  0.33222827947E+03  0.88343664517E+03  0.46999998093E+01 0. -1.
</event>
<event>
 5   0  0.8492114E-05  0.1573878E+04  0.7818609E-02  0.8836758E-01
       -1   -1    0    0    0  501  0.00000000000E+00  0.00000000000E+00  0.78762358545E+03  0.78762358546E+03  0.50400001928E-02 0. -1.
        1   -1    0    0  501    0  0.00000000000E+00  0.00000000000E+00 -0.78625509825E+03  0.78625509827E+03  0.50400001928E-02 0.  1.
    10030    2    1    2    0    0  0.00000000000E+00  0.00000000000E+00  0.13684871932E+01  0.15738786837E+04  0.15738780888E+04 0.  0.
        2    1    3    3  502    0  0.23943494289E+03  0.50594022958E+03 -0.55246011651E+03  0.78645838296E+03  0.25500000920E-02 0.  1.
       -2    1    3    3    0  502 -0.23943494289E+03 -0.50594022958E+03  0.55382860371E+03  0.78742030077E+03  0.25500000920E-02 0. -1.
</event>
<event>
 5   0  0.8430513E-05  0.1795199E+04  0.7818609E-02  0.8708857E-01
       -1   -1    0    0    0  501  0.00000000000E+00  0.00000000000E+00  0.12918162140E+04  0.12918162140E+04  0.50400001928E-02 0.  1.
        1   -1    0    0  501    0  0.00000000000E+00  0.00000000000E+00 -0.62368363611E+03  0.62368363613E+03  0.50400001928E-02 0. -1.
    10030    2    1    2    0    0  0.00000000000E+00  0.00000000000E+00  0.66813257789E+03  0.19154998501E+04  0.17951987451E+04 0.  0.
        5    1    3    3  502    0  0.54669587974E+03 -0.18012844230E+03 -0.40081030730E+03  0.70142257812E+03  0.46999998093E+01 0. -1.
       -5    1    3    3    0  502 -0.54669587974E+03  0.18012844230E+03  0.10689428852E+04  0.12140772720E+04  0.46999998093E+01 0.  1.
</event>
<event>
 5   0  0.8430513E-05  0.1834451E+04  0.7818609E-02  0.8688190E-01
       -1   -1    0    0    0  501  0.00000000000E+00  0.00000000000E+00  0.69349083422E+03  0.69349083424E+03  0.50400001928E-02 0. -1.
        1   -1    0    0  501    0  0.00000000000E+00  0.00000000000E+00 -0.12131419207E+04  0.12131419208E+04  0.50400001928E-02 0.  1.
    10030    2    1    2    0    0  0.00000000000E+00  0.00000000000E+00 -0.51965108652E+03  0.19066327550E+04  0.18344512015E+04 0.  0.
        5    1    3    3  502    0  0.67216005959E+03 -0.29517172997E+03 -0.83132999716E+03  0.11090794156E+04  0.46999998093E+01 0.  1.
       -5    1    3    3    0  502 -0.67216005959E+03  0.29517172997E+03  0.31167891064E+03  0.79755333941E+03  0.46999998093E+01 0. -1.
</event>
<event>
 5   0  0.1608627E-04  0.1785066E+04  0.7818609E-02  0.8714282E-01
        2   -1    0    0  501    0  0.00000000000E+00  0.00000000000E+00  0.14025987135E+04  0.14025987136E+04  0.25500000920E-02 0.  1.
       -2   -1    0    0    0  501  0.00000000000E+00  0.00000000000E+00 -0.56795645084E+03  0.56795645085E+03  0.25500000920E-02 0. -1.
    10030    2    1    2    0    0  0.00000000000E+00  0.00000000000E+00  0.83464226271E+03  0.19705551644E+04  0.17850658109E+04 0.  0.
        2    1    3    3  502    0 -0.42364771108E+03 -0.25932106804E+02 -0.44941843636E+03  0.61816404636E+03  0.25500000920E-02 0. -1.
       -2    1    3    3    0  502  0.42364771108E+03  0.25932106804E+02  0.12840606991E+04  0.13523911180E+04  0.25500000920E-02 0.  1.
</event>
<event>
 5   0  0.1608627E-04  0.1793992E+04  0.7818609E-02  0.8709501E-01
       -2   -1    0    0    0  501  0.00000000000E+00  0.00000000000E+00  0.44853204258E+03  0.44853204259E+03  0.25500000920E-02 0.  1.
        2   -1    0    0  501    0  0.00000000000E+00  0.00000000000E+00 -0.17938568176E+04  0.17938568176E+04  0.25500000920E-02 0. -1.
    10030    2    1    2    0    0  0.00000000000E+00  0.00000000000E+00 -0.13453247750E+04  0.22423888602E+04  0.17939924889E+04 0.  0.
        2    1    3    3  502    0  0.23836389643E+03 -0.63309654032E+03  0.63610107399E+02  0.67946657185E+03  0.25500000920E-02 0.  1.
       -2    1    3    3    0  502 -0.23836389643E+03  0.63309654032E+03 -0.14089348824E+04  0.15629222884E+04  0.25500000920E-02 0. -1.
</event>
<event>
 5   0  0.1628397E-04  0.1799468E+04  0.7818609E-02  0.8706582E-01
        2   -1    0    0  501    0  0.00000000000E+00  0.00000000000E+00  0.13244043251E+04  0.13244043251E+04  0.25500000920E-02 0. -1.
       -2   -1    0    0    0  501  0.00000000000E+00  0.00000000000E+00 -0.61123420431E+03  0.61123420431E+03  0.25500000920E-02 0.  1.
    10030    2    1    2    0    0  0.00000000000E+00  0.00000000000E+00  0.71317012084E+03  0.19356385295E+04  0.17994679479E+04 0.  0.
        3    1    3    3  502    0  0.19597195158E+03 -0.17897299878E+03  0.12813413629E+04  0.13085381303E+04  0.10100000352E+00 0. -1.
       -3    1    3    3    0  502 -0.19597195158E+03  0.17897299878E+03 -0.56817124205E+03  0.62710039913E+03  0.10100000352E+00 0.  1.
</event>
<event>
 5   0  0.1549012E-04  0.1806836E+04  0.7818609E-02  0.8702672E-01
        2   -1    0    0  501    0  0.00000000000E+00  0.00000000000E+00  0.83068775949E+03  0.83068775949E+03  0.25500000920E-02 0. -1.
       -2   -1    0    0    0  501  0.00000000000E+00  0.00000000000E+00 -0.98251655944E+03  0.98251655944E+03  0.25500000920E-02 0.  1.
    10030    2    1    2    0    0  0.00000000000E+00  0.00000000000E+00 -0.15182879995E+03  0.18132043189E+04  0.18068364391E+04 0.  0.
        4    1    3    3  502    0  0.55981857474E+03  0.66675933134E+03  0.16617848387E+03  0.88633049364E+03  0.12699999809E+01 0. -1.
       -4    1    3    3    0  502 -0.55981857474E+03 -0.66675933134E+03 -0.31800728382E+03  0.92687382529E+03  0.12699999809E+01 0.  1.
</event>
<event>
 5   0  0.8206783E-05  0.1709969E+04  0.7818609E-02  0.8755699E-01
        1   -1    0    0  501    0  0.00000000000E+00  0.00000000000E+00  0.17607758082E+04  0.17607758082E+04  0.50400001928E-02 0. -1.
       -1   -1    0    0    0  501  0.00000000000E+00  0.00000000000E+00 -0.41515722162E+03  0.41515722166E+03  0.50400001928E-02 0.  1.
    10030    2    1    2    0    0  0.00000000000E+00  0.00000000000E+00  0.13456185866E+04  0.21759330299E+04  0.17099693477E+04 0.  0.
        1    1    3    3  502    0 -0.69652319673E+03  0.17087458842E+03  0.80508023451E+02  0.72168152978E+03  0.50400001928E-02 0.  1.
       -1    1    3    3    0  502  0.69652319673E+03 -0.17087458842E+03  0.12651105631E+04  0.14542515001E+04  0.50400001928E-02 0. -1.
</event>
<event>
 5   0  0.1549012E-04  0.1797385E+04  0.7818609E-02  0.8707691E-01
       -2   -1    0    0    0  501  0.00000000000E+00  0.00000000000E+00  0.43470466318E+03  0.43470466319E+03  0.25500000920E-02 0.  1.
        2   -1    0    0  501    0  0.00000000000E+00  0.00000000000E+00 -0.18579248072E+04  0.18579248072E+04  0.25500000920E-02 0. -1.
    10030    2    1    2    0    0  0.00000000000E+00  0.00000000000E+00 -0.14232201440E+04  0.22926294703E+04  0.17973854094E+04 0.  0.
        4    1    3    3  502    0  0.48387026961E+03  0.74914558945E+03 -0.57016118603E+03  0.10585059957E+04  0.12699999809E+01 0.  1.
       -4    1    3    3    0  502 -0.48387026961E+03 -0.74914558945E+03 -0.85305895795E+03  0.12341234746E+04  0.12699999809E+01 0. -1.
</event>
<event>
 5   0  0.8254914E-05  0.1803385E+04  0.7818609E-02  0.8704501E-01
       -1   -1    0    0    0  501  0.00000000000E+00  0.00000000000E+00  0.59457479663E+03  0.59457479665E+03  0.50400001928E-02 0.  1.
        1   -1    0    0  501    0  0.00000000000E+00  0.00000000000E+00 -0.13674472370E+04  0.13674472370E+04  0.50400001928E-02 0. -1.
    10030    2    1    2    0    0  0.00000000000E+00  0.00000000000E+00 -0.77287244040E+03  0.19620220337E+04  0.18033853309E+04 0.  0.
        4    1    3    3  502    0 -0.68162658506E+03  0.23706780496E+03  0.20170187445E+03  0.74933384060E+03  0.12699999809E+01 0.  1.
       -4    1    3    3    0  502  0.68162658506E+03 -0.23706780496E+03 -0.97457431485E+03  0.12126881931E+04  0.12699999809E+01 0. -1.
</event>
<event>
 5   0  0.1573981E-04  0.1796722E+04  0.7818609E-02  0.8708045E-01
       -2   -1    0    0    0  501  0.00000000000E+00  0.00000000000E+00  0.77138257700E+03  0.77138257700E+03  0.25500000920E-02 0.  1.
        2   -1    0    0  501    0  0.00000000000E+00  0.00000000000E+00 -0.10462417596E+04  0.10462417596E+04  0.25500000920E-02 0. -1.
    10030    2    1    2    0    0  0.00000000000E+00  0.00000000000E+00 -0.27485918256E+03  0.18176243366E+04  0.17967221985E+04 0.  0.
        1    1    3    3  502    0 -0.35748176162E+03 -0.25444721098E+03  0.65560077640E+03  0.78889097543E+03  0.50400001928E-02 0.  1.
       -1    1    3    3    0  502  0.35748176162E+03  0.25444721098E+03 -0.93045995897E+03  0.10287333611E+04  0.50400001928E-02 0. -1.
</event>
<event>
 5   0  0.8132598E-05  0.1798110E+04  0.7818609E-02  0.8707305E-01
        1   -1    0    0  501    0  0.00000000000E+00  0.00000000000E+00  0.13215331207E+04  0.13215331207E+04  0.50400001928E-02 0.  1.
       -1   -1    0    0    0  501  0.00000000000E+00  0.00000000000E+00 -0.61163782822E+03  0.61163782824E+03  0.50400001928E-02 0. -1.
    10030    2    1    2    0    0  0.00000000000E+00  0.00000000000E+00  0.70989529244E+03  0.19331709489E+04  0.17981097273E+04 0.  0.
        3    1    3    3  502    0 -0.39796037482E+03 -0.80442190683E+03  0.41216722657E+03  0.98759753795E+03  0.10100000352E+00 0. -1.
       -3    1    3    3    0  502  0.39796037482E+03  0.80442190683E+03  0.29772806587E+03  0.94557341096E+03  0.10100000352E+00 0.  1.
</event>
<event>
 5   0  0.1628397E-04  0.1784059E+04  0.7818609E-02  0.8714823E-01
        2   -1    0    0  501    0  0.00000000000E+00  0.00000000000E+00  0.10947989669E+04  0.10947989669E+04  0.25500000920E-02 0. -1.
       -2   -1    0    0    0  501  0.00000000000E+00  0.00000000000E+00 -0.72681488437E+03  0.72681488437E+03  0.25500000920E-02 0.  1.
    10030    2    1    2    0    0  0.00000000000E+00  0.00000000000E+00  0.36798408252E+03  0.18216138513E+04  0.17840585019E+04 0.  0.
        3    1    3    3  502    0  0.60657430500E+03 -0.53132102929E+03  0.57344184363E+03  0.98947965208E+03  0.10100000352E+00 0. -1.
       -3    1    3    3    0  502 -0.60657430500E+03  0.53132102929E+03 -0.20545776110E+03  0.83213419918E+03  0.10100000352E+00 0.  1.
</event>
<event>
 5   0  0.8430513E-05  0.1785555E+04  0.7818609E-02  0.8714019E-01
       -1   -1    0    0    0  501  0.00000000000E+00  0.00000000000E+00  0.80982684586E+03  0.80982684588E+03  0.50400001928E-02 0.  1.
        1   -1    0    0  501    0  0.00000000000E+00  0.00000000000E+00 -0.98422451052E+03  0.98422451053E+03  0.50400001928E-02 0. -1.
    10030    2    1    2    0    0  0.00000000000E+00  0.00000000000E+00 -0.17439766466E+03  0.17940513564E+04  0.17855547385E+04 0.  0.
        5    1    3    3  502    0  0.48600450990E+03 -0.69311273347E+03  0.19774136225E+03  0.86932697030E+03  0.46999998093E+01 0.  1.
       -5    1    3    3    0  502 -0.48600450990E+03  0.69311273347E+03 -0.37213902690E+03  0.92472438612E+03  0.46999998093E+01 0. -1.
</event>
<event>
 5   0  0.1573981E-04  0.1805912E+04  0.7818609E-02  0.8703162E-01
        2   -1    0    0  501    0  0.00000000000E+00  0.00000000000E+00  0.20351320108E+04  0.20351320108E+04  0.25500000920E-02 0.  1.
       -2   -1    0    0    0  501  0.00000000000E+00  0.00000000000E+00 -0.40062718703E+03  0.40062718704E+03  0.25500000920E-02 0. -1.
    10030    2    1    2    0    0  0.00000000000E+00  0.00000000000E+00  0.16345048238E+04  0.24357591979E+04  0.18059116399E+04 0.  0.
        1    1    3    3  502    0 -0.84310176560E+03  0.32282171555E+03  0.84040908675E+03  0.12334187773E+04  0.50400001928E-02 0.  1.
       -1    1    3    3    0  502  0.84310176560E+03 -0.32282171555E+03  0.79409573703E+03  0.12023404205E+04  0.50400001928E-02 0. -1.
</event>
<event>
 5   0  0.1628397E-04  0.1806895E+04  0.7818609E-02  0.8702641E-01
       -2   -1    0    0    0  501  0.00000000000E+00  0.00000000000E+00  0.33565818528E+03  0.33565818529E+03  0.25500000920E-02 0.  1.
        2   -1    0    0  501    0  0.00000000000E+00  0.00000000000E+00 -0.24316933859E+04  0.24316933859E+04  0.25500000920E-02 0. -1.
    10030    2    1    2    0    0  0.00000000000E+00  0.00000000000E+00 -0.20960352006E+04  0.27673515711E+04  0.18068954470E+04 0.  0.
        3    1    3    3  502    0 -0.36724047113E+03 -0.15058956725E+03  0.19497030308E+03  0.44221737945E+03  0.10100000352E+00 0.  1.
       -3    1    3    3    0  502  0.36724047113E+03  0.15058956725E+03 -0.22910055037E+04  0.23251341917E+04  0.10100000352E+00 0. -1.
</event>
<event>
 5   0  0.5820500E-05  0.1803465E+04  0.7818609E-02  0.8704459E-01
       -3   -1    0    0    0  501  0.00000000000E+00  0.00000000000E+00  0.18614245806E+04  0.18614245833E+04  0.10100000352E+00 0.  1.
        3   -1    0    0  501    0  0.00000000000E+00  0.00000000000E+00 -0.43682770264E+03  0.43682771432E+03  0.10100000352E+00 0. -1.
    10030    2    1    2    0    0  0.00000000000E+00  0.00000000000E+00  0.14245968780E+04  0.22982522977E+04  0.18034653751E+04 0.  0.
        1    1    3    3  502    0 -0.35238816901E+03 -0.47487188587E+03 -0.15523689484E+03  0.61137486307E+03  0.50400001928E-02 0. -1.
       -1    1    3    3    0  502  0.35238816901E+03  0.47487188587E+03  0.15798337728E+04  0.16868774346E+04  0.50400001928E-02 0.  1.
</event>
<event>
 5   0  0.8254914E-05  0.1799365E+04  0.7818609E-02  0.8706637E-01
        1   -1    0    0  501    0  0.00000000000E+00  0.00000000000E+00  0.62263982728E+03  0.62263982730E+03  0.50400001928E-02 0.  1.
       -1   -1    0    0    0  501  0.00000000000E+00  0.00000000000E+00 -0.12999949350E+04  0.12999949350E+04  0.50400001928E-02 0. -1.
    10030    2    1    2    0    0  0.00000000000E+00  0.00000000000E+00 -0.67735510772E+03  0.19226347623E+04  0.17993650234E+04 0.  0.
        4    1    3    3  502    0  0.20834728082E+03 -0.60305057422E+03 -0.10164418213E+04  0.12000975683E+04  0.12699999809E+01 0. -1.
       -4    1    3    3    0  502 -0.20834728082E+03  0.60305057422E+03  0.33908671358E+03  0.72253719400E+03  0.12699999809E+01 0.  1.
</event>
<event>
 5   0  0.8492114E-05  0.1813376E+04  0.7818609E-02  0.8699218E-01
       -1   -1    0    0    0  501  0.00000000000E+00  0.00000000000E+00  0.73395718012E+03  0.73395718014E+03  0.50400001928E-02 0.  1.
        1   -1    0    0  501    0  0.00000000000E+00  0.00000000000E+00 -0.11200695181E+04  0.11200695181E+04  0.50400001928E-02 0. -1.
    10030    2    1    2    0    0  0.00000000000E+00  0.00000000000E+00 -0.38611233793E+03  0.18540266982E+04  0.18133759291E+04 0.  0.
        2    1    3    3  502    0 -0.76109097387E+02 -0.69979755972E+03 -0.77733323185E+03  0.10486926016E+04  0.25500000920E-02 0. -1.
       -2    1    3    3    0  502  0.76109097387E+02  0.69979755972E+03  0.39122089393E+03  0.80533409660E+03  0.25500000920E-02 0.  1.
</event>
<event>
 5   0  0.1549012E-04  0.1937852E+04  0.7818609E-02  0.8636241E-01
        2   -1    0    0  501    0  0.00000000000E+00  0.00000000000E+00  0.15044134097E+04  0.15044134097E+04  0.25500000920E-02 0.  1.
       -2   -1    0    0    0  501  0.00000000000E+00  0.00000000000E+00 -0.62404238412E+03  0.62404238413E+03  0.25500000920E-02 0. -1.
    10030    2    1    2    0    0  0.00000000000E+00  0.00000000000E+00  0.88037102560E+03  0.21284557939E+04  0.19378521419E+04 0.  0.
        4    1    3    3  502    0 -0.62559726079E+03 -0.32892966753E+03 -0.28776124336E+03  0.76313485372E+03  0.12699999809E+01 0. -1.
       -4    1    3    3    0  502  0.62559726079E+03  0.32892966753E+03  0.11681322690E+04  0.13653209401E+04  0.12699999809E+01 0.  1.
</event>
<event>
 5   0  0.1573981E-04  0.1743469E+04  0.7818609E-02  0.8736954E-01
        2   -1    0    0  501    0  0.00000000000E+00  0.00000000000E+00  0.12044108606E+04  0.12044108606E+04  0.25500000920E-02 0.  1.
       -2   -1    0    0    0  501  0.00000000000E+00  0.00000000000E+00 -0.63094829795E+03  0.63094829796E+03  0.25500000920E-02 0. -1.
    10030    2    1    2    0    0  0.00000000000E+00  0.00000000000E+00  0.57346256264E+03  0.18353591586E+04  0.17434689358E+04 0.  0.
        1    1    3    3  502    0 -0.72876639190E+03  0.18326556637E+03 -0.17840997945E+03  0.77234502819E+03  0.50400001928E-02 0. -1.
       -1    1    3    3    0  502  0.72876639190E+03 -0.18326556637E+03  0.75187254209E+03  0.10630141304E+04  0.50400001928E-02 0.  1.
</event>
<event>
 5   0  0.8206783E-05  0.1808392E+04  0.7818609E-02  0.8701850E-01
        1   -1    0    0  501    0  0.00000000000E+00  0.00000000000E+00  0.82544650536E+03  0.82544650538E+03  0.50400001928E-02 0.  1.
       -1   -1    0    0    0  501  0.00000000000E+00  0.00000000000E+00 -0.99045786654E+03  0.99045786655E+03  0.50400001928E-02 0. -1.
    10030    2    1    2    0    0  0.00000000000E+00  0.00000000000E+00 -0.16501136118E+03  0.18159043719E+04  0.18083915336E+04 0.  0.
        1    1    3    3  502    0  0.66178046832E+03  0.43074431683E+03  0.35986501211E+03  0.86775392923E+03  0.50400001928E-02 0.  1.
       -1    1    3    3    0  502 -0.66178046832E+03 -0.43074431683E+03 -0.52487637329E+03  0.94815044270E+03  0.50400001928E-02 0. -1.
</event>
<event>
 5   0  0.1603564E-04  0.1819109E+04  0.7818609E-02  0.8696203E-01
        2   -1    0    0  501    0  0.00000000000E+00  0.00000000000E+00  0.14922480343E+04  0.14922480343E+04  0.25500000920E-02 0.  1.
       -2   -1    0    0    0  501  0.00000000000E+00  0.00000000000E+00 -0.55439112678E+03  0.55439112679E+03  0.25500000920E-02 0. -1.
    10030    2    1    2    0    0  0.00000000000E+00  0.00000000000E+00  0.93785690748E+03  0.20466391611E+04  0.18191086489E+04 0.  0.
        5    1    3    3  502    0 -0.68745785650E+03 -0.51546836521E+03  0.13335888888E+03  0.86954736687E+03  0.46999998093E+01 0. -1.
       -5    1    3    3    0  502  0.68745785650E+03  0.51546836521E+03  0.80449801860E+03  0.11770917942E+04  0.46999998093E+01 0.  1.
</event>
<event>
 5   0  0.8254914E-05  0.1670925E+04  0.7818609E-02  0.8778123E-01
        1   -1    0    0  501    0  0.00000000000E+00  0.00000000000E+00  0.80558741357E+03  0.80558741358E+03  0.50400001928E-02 0. -1.
       -1   -1    0    0    0  501  0.00000000000E+00  0.00000000000E+00 -0.86644534043E+03  0.86644534045E+03  0.50400001928E-02 0.  1.
    10030    2    1    2    0    0  0.00000000000E+00  0.00000000000E+00 -0.60857926866E+02  0.16720327540E+04  0.16709248467E+04 0.  0.
        4    1    3    3  502    0  0.39375546645E+03  0.42882847571E+03  0.56918334860E+03  0.81419194675E+03  0.12699999809E+01 0. -1.
       -4    1    3    3    0  502 -0.39375546645E+03 -0.42882847571E+03 -0.63004127546E+03  0.85784080728E+03  0.12699999809E+01 0.  1.
</event>
<event>
 5   0  0.8430513E-05  0.1795315E+04  0.7818609E-02  0.8708795E-01
        1   -1    0    0  501    0  0.00000000000E+00  0.00000000000E+00  0.16570779677E+04  0.16570779677E+04  0.50400001928E-02 0.  1.
       -1   -1    0    0    0  501  0.00000000000E+00  0.00000000000E+00 -0.48627117760E+03  0.48627117763E+03  0.50400001928E-02 0. -1.
    10030    2    1    2    0    0  0.00000000000E+00  0.00000000000E+00  0.11708067901E+04  0.21433491453E+04  0.17953152980E+04 0.  0.
        5    1    3    3  502    0 -0.88893429914E+03 -0.12474354825E+03  0.58710175987E+03  0.10726023063E+04  0.46999998093E+01 0.  1.
       -5    1    3    3    0  502  0.88893429914E+03  0.12474354825E+03  0.58370503023E+03  0.10707468390E+04  0.46999998093E+01 0. -1.
</event>
<event>
 5   0  0.8492114E-05  0.1817018E+04  0.7818609E-02  0.8697302E-01
       -1   -1    0    0    0  501  0.00000000000E+00  0.00000000000E+00  0.74253975038E+03  0.74253975040E+03  0.50400001928E-02 0. -1.
        1   -1    0    0  501    0  0.00000000000E+00  0.00000000000E+00 -0.11115744130E+04  0.11115744130E+04  0.50400001928E-02 0.  1.
    10030    2    1    2    0    0  0.00000000000E+00  0.00000000000E+00 -0.36903466258E+03  0.18541141634E+04  0.18170175422E+04 0.  0.
        2    1    3    3  502    0 -0.90740022795E+03  0.44153334573E+02 -0.17638617510E+03  0.92543869241E+03  0.25500000920E-02 0. -1.
       -2    1    3    3    0  502  0.90740022795E+03 -0.44153334573E+02 -0.19264848748E+03  0.92867547097E+03  0.25500000920E-02 0.  1.
</event>
<event>
 5   0  0.1549012E-04  0.1790099E+04  0.7818609E-02  0.8711582E-01
        2   -1    0    0  501    0  0.00000000000E+00  0.00000000000E+00  0.26048596566E+04  0.26048596566E+04  0.25500000920E-02 0. -1.
       -2   -1    0    0    0  501  0.00000000000E+00  0.00000000000E+00 -0.30754591521E+03  0.30754591522E+03  0.25500000920E-02 0.  1.
    10030    2    1    2    0    0  0.00000000000E+00  0.00000000000E+00  0.22973137414E+04  0.29124055718E+04  0.17900993795E+04 0.  0.
        4    1    3    3  502    0  0.13434479098E+03  0.56632909442E+02  0.25854097174E+04  0.25895174896E+04  0.12699999809E+01 0. -1.
       -4    1    3    3    0  502 -0.13434479098E+03 -0.56632909442E+02 -0.28809597604E+03  0.32288808217E+03  0.12699999809E+01 0.  1.
</event>
<event>
 5   0  0.8206783E-05  0.1822931E+04  0.7818609E-02  0.8694199E-01
        1   -1    0    0  501    0  0.00000000000E+00  0.00000000000E+00  0.20139276759E+04  0.20139276759E+04  0.50400001928E-02 0. -1.
       -1   -1    0    0    0  501  0.00000000000E+00  0.00000000000E+00 -0.41251202809E+03  0.41251202812E+03  0.50400001928E-02 0.  1.
    10030    2    1    2    0    0  0.00000000000E+00  0.00000000000E+00  0.16014156478E+04  0.24264397040E+04  0.18229310355E+04 0.  0.
        1    1    3    3  502    0  0.24031576904E+03 -0.87388792934E+03  0.92933036543E+03  0.12981088976E+04  0.50400001928E-02 0. -1.
       -1    1    3    3    0  502 -0.24031576904E+03  0.87388792934E+03  0.67208528236E+03  0.11283308064E+04  0.50400001928E-02 0.  1.
</event>
<event>
 5   0  0.8132598E-05  0.1794919E+04  0.7818609E-02  0.8709006E-01
        1   -1    0    0  501    0  0.00000000000E+00  0.00000000000E+00  0.11369894641E+04  0.11369894641E+04  0.50400001928E-02 0.  1.
       -1   -1    0    0    0  501  0.00000000000E+00  0.00000000000E+00 -0.70839157369E+03  0.70839157371E+03  0.50400001928E-02 0. -1.
    10030    2    1    2    0    0  0.00000000000E+00  0.00000000000E+00  0.42859789037E+03  0.18453810378E+04  0.17949192246E+04 0.  0.
        3    1    3    3  502    0  0.15154849548E+03 -0.51399296991E+03  0.95445371551E+03  0.10945947309E+04  0.10100000352E+00 0.  1.
       -3    1    3    3    0  502 -0.15154849548E+03  0.51399296991E+03 -0.52585582514E+03  0.75078630691E+03  0.10100000352E+00 0. -1.
</event>
<event>
 5   0  0.1608627E-04  0.1792520E+04  0.7818609E-02  0.8710288E-01
       -2   -1    0    0    0  501  0.00000000000E+00  0.00000000000E+00  0.69270714642E+03  0.69270714643E+03  0.25500000920E-02 0.  1.
        2   -1    0    0  501    0  0.00000000000E+00  0.00000000000E+00 -0.11596265092E+04  0.11596265092E+04  0.25500000920E-02 0. -1.
    10030    2    1    2    0    0  0.00000000000E+00  0.00000000000E+00 -0.46691936276E+03  0.18523336556E+04  0.17925195342E+04 0.  0.
        2    1    3    3  502    0 -0.62645494854E+02 -0.34848663317E+02  0.68973987838E+03  0.69345510827E+03  0.25500000920E-02 0.  1.
       -2    1    3    3    0  502  0.62645494854E+02  0.34848663317E+02 -0.11566592411E+04  0.11588785473E+04  0.25500000920E-02 0. -1.
</event>
<event>
 5   0  0.1549012E-04  0.1799038E+04  0.7818609E-02  0.8706811E-01
       -2   -1    0    0    0  501  0.00000000000E+00  0.00000000000E+00  0.90879883765E+03  0.90879883766E+03  0.25500000920E-02 0. -1.
        2   -1    0    0  501    0  0.00000000000E+00  0.00000000000E+00 -0.89033415842E+03  0.89033415842E+03  0.25500000920E-02 0.  1.
    10030    2    1    2    0    0  0.00000000000E+00  0.00000000000E+00  0.18464679234E+02  0.17991329961E+04  0.17990382412E+04 0.  0.
        4    1    3    3  502    0 -0.76889695384E+03  0.20960313028E+03 -0.40791915181E+03  0.89528523117E+03  0.12699999809E+01 0.  1.
       -4    1    3    3    0  502  0.76889695384E+03 -0.20960313028E+03  0.42638383104E+03  0.90384776490E+03  0.12699999809E+01 0. -1.
</event>
<event>
 5   0  0.8430513E-05  0.1764325E+04  0.7818609E-02  0.8725504E-01
       -1   -1    0    0    0  501  0.00000000000E+00  0.00000000000E+00  0.59008131288E+03  0.59008131291E+03  0.50400001928E-02 0.  1.
        1   -1    0    0  501    0  0.00000000000E+00  0.00000000000E+00 -0.13188200602E+04  0.13188200602E+04  0.50400001928E-02 0. -1.
    10030    2    1    2    0    0  0.00000000000E+00  0.00000000000E+00 -0.72873874727E+03  0.19089013731E+04  0.17643254491E+04 0.  0.
        5    1    3    3  502    0 -0.59525262813E+03 -0.54801627351E+03 -0.74465608359E+03  0.10996282554E+04  0.46999998093E+01 0. -1.
       -5    1    3    3    0  502  0.59525262813E+03  0.54801627351E+03  0.15917336323E+02  0.80927311763E+03  0.46999998093E+01 0.  1.
</event>
<event>
 5   0  0.1549012E-04  0.1803453E+04  0.7818609E-02  0.8704465E-01
       -2   -1    0    0    0  501  0.00000000000E+00  0.00000000000E+00  0.68659875104E+03  0.68659875104E+03  0.25500000920E-02 0. -1.
        2   -1    0    0  501    0  0.00000000000E+00  0.00000000000E+00 -0.11842586870E+04  0.11842586870E+04  0.25500000920E-02 0.  1.
    10030    2    1    2    0    0  0.00000000000E+00  0.00000000000E+00 -0.49765993594E+03  0.18708574380E+04  0.18034528387E+04 0.  0.
        4    1    3    3  502    0 -0.75012436550E+03  0.25949493764E+03  0.19504634952E+03  0.81735480529E+03  0.12699999809E+01 0. -1.
       -4    1    3    3    0  502  0.75012436550E+03 -0.25949493764E+03 -0.69270628546E+03  0.10535026327E+04  0.12699999809E+01 0.  1.
</event>
<event>
 5   0  0.8492114E-05  0.1794090E+04  0.7818609E-02  0.8709449E-01
       -1   -1    0    0    0  501  0.00000000000E+00  0.00000000000E+00  0.36798691069E+03  0.36798691072E+03  0.50400001928E-02 0. -1.
        1   -1    0    0  501    0  0.00000000000E+00  0.00000000000E+00 -0.21867334924E+04  0.21867334924E+04  0.50400001928E-02 0.  1.
    10030    2    1    2    0    0  0.00000000000E+00  0.00000000000E+00 -0.18187465817E+04  0.25547204031E+04  0.17940895211E+04 0.  0.
        2    1    3    3  502    0  0.37406285883E+03 -0.70511837646E+03 -0.14922853573E+04  0.16923446856E+04  0.25500000920E-02 0.  1.
       -2    1    3    3    0  502 -0.37406285883E+03  0.70511837646E+03 -0.32646122441E+03  0.86237571756E+03  0.25500000920E-02 0. -1.
</event>
<event>
 5   0  0.1603564E-04  0.1831604E+04  0.7818609E-02  0.8689671E-01
       -2   -1    0    0    0  501  0.00000000000E+00  0.00000000000E+00  0.47166868104E+03  0.47166868104E+03  0.25500000920E-02 0. -1.
        2   -1    0    0  501    0  0.00000000000E+00  0.00000000000E+00 -0.17781403465E+04  0.17781403465E+04  0.25500000920E-02 0.  1.
    10030    2    1    2    0    0  0.00000000000E+00  0.00000000000E+00 -0.13064716655E+04  0.22498090276E+04  0.18316037912E+04 0.  0.
        5    1    3    3  502    0  0.67837099549E+03 -0.61503384488E+03 -0.63513376753E+03  0.11143925837E+04  0.46999998093E+01 0.  1.
       -5    1    3    3    0  502 -0.67837099549E+03  0.61503384488E+03 -0.67133789797E+03  0.11354164439E+04  0.46999998093E+01 0. -1.
</event>
<event>
 5   0  0.8254914E-05  0.1793034E+04  0.7818609E-02  0.8710013E-01
        1   -1    0    0  501    0  0.00000000000E+00  0.00000000000E+00  0.13203134631E+04  0.13203134631E+04  0.50400001928E-02 0. -1.
       -1   -1    0    0    0  501  0.00000000000E+00  0.00000000000E+00 -0.60875138625E+03  0.60875138628E+03  0.50400001928E-02 0.  1.
    10030    2    1    2    0    0  0.00000000000E+00  0.00000000000E+00  0.71156207680E+03  0.19290648493E+04  0.17930339104E+04 0.  0.
        4    1    3    3  502    0 -0.39831526659E+02  0.81260521884E+03 -0.49389780436E+02  0.81507960072E+03  0.12699999809E+01 0.  1.
       -4    1    3    3    0  502  0.39831526659E+02 -0.81260521884E+03  0.76095185724E+03  0.11139852486E+04  0.12699999809E+01 0. -1.
</event>
<event>
 5   0  0.1628397E-04  0.1798671E+04  0.7818609E-02  0.8707006E-01
        2   -1    0    0  501    0  0.00000000000E+00  0.00000000000E+00  0.10390267846E+04  0.10390267846E+04  0.25500000920E-02 0. -1.
       -2   -1    0    0    0  501  0.00000000000E+00  0.00000000000E+00 -0.77842507715E+03  0.77842507715E+03  0.25500000920E-02 0.  1.
    10030    2    1    2    0    0  0.00000000000E+00  0.00000000000E+00  0.26060170741E+03  0.18174518617E+04  0.17986711817E+04 0.  0.
        3    1    3    3  502    0 -0.61984250283E+03 -0.14141859286E+03  0.77302464107E+03  0.10008851346E+04  0.10100000352E+00 0. -1.
       -3    1    3    3    0  502  0.61984250283E+03  0.14141859286E+03 -0.51242293365E+03  0.81656672713E+03  0.10100000352E+00 0.  1.
</event>
<event>
 5   0  0.5820500E-05  0.1797893E+04  0.7818609E-02  0.8707421E-01
       -4   -1    0    0    0  501  0.00000000000E+00  0.00000000000E+00  0.50763569122E+03  0.50763727986E+03  0.12699999809E+01 0.  1.
        4   -1    0    0  501    0  0.00000000000E+00  0.00000000000E+00 -0.15918955037E+04  0.15918960103E+04  0.12699999809E+01 0. -1.
    10030    2    1    2    0    0  0.00000000000E+00  0.00000000000E+00 -0.10842598125E+04  0.20995332901E+04  0.17978934049E+04 0.  0.
        4    1    3    3  502    0  0.25332049912E+03 -0.52332537644E+03  0.25850917282E+03  0.63629343091E+03  0.12699999809E+01 0.  1.
       -4    1    3    3    0  502 -0.25332049912E+03  0.52332537644E+03 -0.13427689853E+04  0.14632398592E+04  0.12699999809E+01 0. -1.
</event>
<event>
 5   0  0.1608627E-04  0.1797662E+04  0.7818609E-02  0.8707544E-01
       -2   -1    0    0    0  501  0.00000000000E+00  0.00000000000E+00  0.78567466487E+03  0.78567466487E+03  0.25500000920E-02 0. -1.
        2   -1    0    0  501    0  0.00000000000E+00  0.00000000000E+00 -0.10282847248E+04  0.10282847248E+04  0.25500000920E-02 0.  1.
    10030    2    1    2    0    0  0.00000000000E+00  0.00000000000E+00 -0.24261005997E+03  0.18139593897E+04  0.17976621002E+04 0.  0.
        2    1    3    3  502    0 -0.12352424670E+03 -0.27471819447E+03  0.73323070940E+03  0.79268884129E+03  0.25500000920E-02 0. -1.
       -2    1    3    3    0  502  0.12352424670E+03  0.27471819447E+03 -0.97584076938E+03  0.10212705484E+04  0.25500000920E-02 0.  1.
</event>
<event>
 5   0  0.5820500E-05  0.1797706E+04  0.7818609E-02  0.8707521E-01
       -3   -1    0    0    0  501  0.00000000000E+00  0.00000000000E+00  0.36021460124E+03  0.36021461540E+03  0.10100000352E+00 0.  1.
        3   -1    0    0  501    0  0.00000000000E+00  0.00000000000E+00 -0.22429307659E+04  0.22429307681E+04  0.10100000352E+00 0. -1.
    10030    2    1    2    0    0  0.00000000000E+00  0.00000000000E+00 -0.18827161646E+04  0.26031453835E+04  0.17977056854E+04 0.  0.
        5    1    3    3  502    0 -0.24820181175E+03  0.37392214505E+03  0.18633917758E+03  0.48596943218E+03  0.46999998093E+01 0.  1.
       -5    1    3    3    0  502  0.24820181175E+03 -0.37392214505E+03 -0.20690553422E+04  0.21171759514E+04  0.46999998093E+01 0. -1.
</event>
<event>
 5   0  0.1549012E-04  0.1821252E+04  0.7818609E-02  0.8695079E-01
       -2   -1    0    0    0  501  0.00000000000E+00  0.00000000000E+00  0.31170919569E+03  0.31170919570E+03  0.25500000920E-02 0. -1.
        2   -1    0    0  501    0  0.00000000000E+00  0.00000000000E+00 -0.26603000410E+04  0.26603000410E+04  0.25500000920E-02 0.  1.
    10030    2    1    2    0    0  0.00000000000E+00  0.00000000000E+00 -0.23485908453E+04  0.29720092367E+04  0.18212523011E+04 0.  0.
        4    1    3    3  502    0  0.83692456406E+03 -0.35870486602E+03 -0.11926467535E+04  0.15005065140E+04  0.12699999809E+01 0. -1.
       -4    1    3    3    0  502 -0.83692456406E+03  0.35870486602E+03 -0.11559440918E+04  0.14715027227E+04  0.12699999809E+01 0.  1.
</event>
<event>
 5   0  0.1603564E-04  0.1792404E+04  0.7818609E-02  0.8710349E-01
       -2   -1    0    0    0  501  0.00000000000E+00  0.00000000000E+00  0.93388127567E+03  0.93388127567E+03  0.25500000920E-02 0. -1.
        2   -1    0    0  501    0  0.00000000000E+00  0.00000000000E+00 -0.86004327809E+03  0.86004327809E+03  0.25500000920E-02 0.  1.
    10030    2    1    2    0    0  0.00000000000E+00  0.00000000000E+00  0.73837997578E+02  0.17939245538E+04  0.17924043223E+04 0.  0.
        5    1    3    3  502    0  0.55153806768E+03  0.21461850195E+03  0.71046889719E+03  0.92468561433E+03  0.46999998093E+01 0. -1.
       -5    1    3    3    0  502 -0.55153806768E+03 -0.21461850195E+03 -0.63663089961E+03  0.86923893943E+03  0.46999998093E+01 0.  1.
</event>
<event>
 5   0  0.8206783E-05  0.1772619E+04  0.7818609E-02  0.8720997E-01
       -1   -1    0    0    0  501  0.00000000000E+00  0.00000000000E+00  0.12806605788E+04  0.12806605788E+04  0.50400001928E-02 0. -1.
        1   -1    0    0  501    0  0.00000000000E+00  0.00000000000E+00 -0.61339041678E+03  0.61339041680E+03  0.50400001928E-02 0.  1.
    10030    2    1    2    0    0  0.00000000000E+00  0.00000000000E+00  0.66727016205E+03  0.18940509956E+04  0.17726194473E+04 0.  0.
        1    1    3    3  502    0  0.63319654610E+03  0.14539619152E+03 -0.31054702368E+03  0.72008150403E+03  0.50400001928E-02 0.  1.
       -1    1    3    3    0  502 -0.63319654610E+03 -0.14539619152E+03  0.97781718572E+03  0.11739694916E+04  0.50400001928E-02 0. -1.
</event>
<event>
 5   0  0.5820500E-05  0.1788141E+04  0.7818609E-02  0.8712631E-01
        4   -1    0    0  501    0  0.00000000000E+00  0.00000000000E+00  0.49397383609E+03  0.49397546866E+03  0.12699999809E+01 0. -1.
       -4   -1    0    0    0  501  0.00000000000E+00  0.00000000000E+00 -0.16182232088E+04  0.16182237071E+04  0.12699999809E+01 0.  1.
    10030    2    1    2    0    0  0.00000000000E+00  0.00000000000E+00 -0.11242493727E+04  0.21121991758E+04  0.17881411315E+04 0.  0.
        5    1    3    3  502    0  0.69125667172E+03  0.45854924710E+03 -0.16815982158E+03  0.84640593914E+03  0.46999998093E+01 0.  1.
       -5    1    3    3    0  502 -0.69125667172E+03 -0.45854924710E+03 -0.95608955110E+03  0.12657932366E+04  0.46999998093E+01 0. -1.
</event>
<event>
 5   0  0.1603564E-04  0.1813900E+04  0.7818609E-02  0.8698942E-01
       -2   -1    0    0    0  501  0.00000000000E+00  0.00000000000E+00  0.31338638925E+03  0.31338638926E+03  0.25500000920E-02 0. -1.
        2   -1    0    0  501    0  0.00000000000E+00  0.00000000000E+00 -0.26247410890E+04  0.26247410890E+04  0.25500000920E-02 0.  1.
    10030    2    1    2    0    0  0.00000000000E+00  0.00000000000E+00 -0.23113546997E+04  0.29381274782E+04  0.18138998127E+04 0.  0.
        5    1    3    3  502    0 -0.72459735726E+02 -0.28545638325E+03 -0.25451094047E+04  0.25620967453E+04  0.46999998093E+01 0.  1.
       -5    1    3    3    0  502  0.72459735726E+02  0.28545638325E+03  0.23375470500E+03  0.37603073298E+03  0.46999998093E+01 0. -1.
</event>
<event>
 5   0  0.8132598E-05  0.1799557E+04  0.7818609E-02  0.8706535E-01
       -1   -1    0    0    0  501  0.00000000000E+00  0.00000000000E+00  0.83753702231E+03  0.83753702232E+03  0.50400001928E-02 0.  1.
        1   -1    0    0  501    0  0.00000000000E+00  0.00000000000E+00 -0.96664509460E+03  0.96664509461E+03  0.50400001928E-02 0. -1.
    10030    2    1    2    0    0  0.00000000000E+00  0.00000000000E+00 -0.12910807229E+03  0.18041821169E+04  0.17995566723E+04 0.  0.
        3    1    3    3  502    0  0.68697652191E+02 -0.37371021134E+03  0.75315399488E+03  0.84357550918E+03  0.10100000352E+00 0.  1.
       -3    1    3    3    0  502 -0.68697652191E+02  0.37371021134E+03 -0.88226206717E+03  0.96060660775E+03  0.10100000352E+00 0. -1.
</event>
<event>
 5   0  0.1573981E-04  0.1772603E+04  0.7818609E-02  0.8721006E-01
        2   -1    0    0  501    0  0.00000000000E+00  0.00000000000E+00  0.22577334605E+04  0.22577334605E+04  0.25500000920E-02 0. -1.
       -2   -1    0    0    0  501  0.00000000000E+00  0.00000000000E+00 -0.34792880896E+03  0.34792880897E+03  0.25500000920E-02 0.  1.
    10030    2    1    2    0    0  0.00000000000E+00  0.00000000000E+00  0.19098046515E+04  0.26056622695E+04  0.17726031861E+04 0.  0.
        1    1    3    3  502    0 -0.87889949677E+03  0.11390478422E+03  0.94081147268E+03  0.12925033278E+04  0.50400001928E-02 0. -1.
       -1    1    3    3    0  502  0.87889949677E+03 -0.11390478422E+03  0.96899317884E+03  0.13131589416E+04  0.50400001928E-02 0.  1.
</event>
<event>
 5   0  0.8206783E-05  0.1805558E+04  0.7818609E-02  0.8703349E-01
        1   -1    0    0  501    0  0.00000000000E+00  0.00000000000E+00  0.11592073554E+04  0.11592073554E+04  0.50400001928E-02 0. -1.
       -1   -1    0    0    0  501  0.00000000000E+00  0.00000000000E+00 -0.70307515249E+03  0.70307515251E+03  0.50400001928E-02 0.  1.
    10030    2    1    2    0    0  0.00000000000E+00  0.00000000000E+00  0.45613220294E+03  0.18622825080E+04  0.18055579617E+04 0.  0.
        1    1    3    3  502    0 -0.77766027179E+03 -0.41355954069E+03  0.23796397901E+02  0.88110910822E+03  0.50400001928E-02 0.  1.
       -1    1    3    3    0  502  0.77766027179E+03  0.41355954069E+03  0.43233580504E+03  0.98117339974E+03  0.50400001928E-02 0. -1.
</event>
<event>
 5   0  0.1573981E-04  0.1797585E+04  0.7818609E-02  0.8707585E-01
       -2   -1    0    0    0  501  0.00000000000E+00  0.00000000000E+00  0.49825631890E+03  0.49825631891E+03  0.25500000920E-02 0. -1.
        2   -1    0    0  501    0  0.00000000000E+00  0.00000000000E+00 -0.16213099474E+04  0.16213099474E+04  0.25500000920E-02 0.  1.
    10030    2    1    2    0    0  0.00000000000E+00  0.00000000000E+00 -0.11230536285E+04  0.21195662663E+04  0.17975849646E+04 0.  0.
        1    1    3    3  502    0  0.74292546777E+03 -0.32416625096E+03 -0.10363090534E+03  0.81716667424E+03  0.50400001928E-02 0. -1.
       -1    1    3    3    0  502 -0.74292546777E+03  0.32416625096E+03 -0.10194227232E+04  0.13023995921E+04  0.50400001928E-02 0.  1.
</event>
<event>
 5   0  0.1573981E-04  0.1799378E+04  0.7818609E-02  0.8706631E-01
       -2   -1    0    0    0  501  0.00000000000E+00  0.00000000000E+00  0.53119839640E+03  0.53119839641E+03  0.25500000920E-02 0. -1.
        2   -1    0    0  501    0  0.00000000000E+00  0.00000000000E+00 -0.15237997279E+04  0.15237997279E+04  0.25500000920E-02 0.  1.
    10030    2    1    2    0    0  0.00000000000E+00  0.00000000000E+00 -0.99260133154E+03  0.20549981244E+04  0.17993776390E+04 0.  0.
        1    1    3    3  502    0  0.13257836737E+03  0.61914448028E+02  0.51751818496E+03  0.53780618643E+03  0.50400001928E-02 0. -1.
       -1    1    3    3    0  502 -0.13257836737E+03 -0.61914448028E+02 -0.15101195165E+04  0.15171919379E+04  0.50400001928E-02 0.  1.
</event>
<event>
 5   0  0.1603564E-04  0.1790172E+04  0.7818609E-02  0.8711543E-01
        2   -1    0    0  501    0  0.00000000000E+00  0.00000000000E+00  0.89912821991E+03  0.89912821992E+03  0.25500000920E-02 0.  1.
       -2   -1    0    0    0  501  0.00000000000E+00  0.00000000000E+00 -0.89106185075E+03  0.89106185075E+03  0.25500000920E-02 0. -1.
    10030    2    1    2    0    0  0.00000000000E+00  0.00000000000E+00  0.80663691642E+01  0.17901900707E+04  0.17901718976E+04 0.  0.
        5    1    3    3  502    0 -0.49764643653E+03  0.56915280608E+02  0.74583950226E+03  0.89843752042E+03  0.46999998093E+01 0.  1.
       -5    1    3    3    0  502  0.49764643653E+03 -0.56915280608E+02 -0.73777313310E+03  0.89175255025E+03  0.46999998093E+01 0. -1.
</event>
<event>
 5   0  0.1628397E-04  0.1786897E+04  0.7818609E-02  0.8713299E-01
        2   -1    0    0  501    0  0.00000000000E+00  0.00000000000E+00  0.14051118519E+04  0.14051118519E+04  0.25500000920E-02 0. -1.
       -2   -1    0    0    0  501  0.00000000000E+00  0.00000000000E+00 -0.56810451559E+03  0.56810451559E+03  0.25500000920E-02 0.  1.
    10030    2    1    2    0    0  0.00000000000E+00  0.00000000000E+00  0.83700733631E+03  0.19732163675E+04  0.17868971856E+04 0.  0.
        3    1    3    3  502    0 -0.34151568131E+01  0.22901942546E+02  0.14047804515E+04  0.14049712771E+04  0.10100000352E+00 0. -1.
       -3    1    3    3    0  502  0.34151568131E+01 -0.22901942546E+02 -0.56777311518E+03  0.56824509043E+03  0.10100000352E+00 0.  1.
</event>
<event>
 5   0  0.8492114E-05  0.1779015E+04  0.7818609E-02  0.8717539E-01
       -1   -1    0    0    0  501  0.00000000000E+00  0.00000000000E+00  0.99752803906E+03  0.99752803907E+03  0.50400001928E-02 0.  1.
        1   -1    0    0  501    0  0.00000000000E+00  0.00000000000E+00 -0.79318401748E+03  0.79318401750E+03  0.50400001928E-02 0. -1.
    10030    2    1    2    0    0  0.00000000000E+00  0.00000000000E+00  0.20434402158E+03  0.17907120566E+04  0.17790146684E+04 0.  0.
        2    1    3    3  502    0  0.40285089981E+03  0.69917592771E+01 -0.69606533405E+03  0.80426654875E+03  0.25500000920E-02 0. -1.
       -2    1    3    3    0  502 -0.40285089981E+03 -0.69917592771E+01  0.90040935563E+03  0.98644550781E+03  0.25500000920E-02 0.  1.
</event>
<event>
 5   0  0.8132598E-05  0.1779237E+04  0.7818609E-02  0.8717419E-01
        1   -1    0    0  501    0  0.00000000000E+00  0.00000000000E+00  0.10279707191E+04  0.10279707191E+04  0.50400001928E-02 0.  1.
       -1   -1    0    0    0  501  0.00000000000E+00  0.00000000000E+00 -0.76988689951E+03  0.76988689953E+03  0.50400001928E-02 0. -1.
    10030    2    1    2    0    0  0.00000000000E+00  0.00000000000E+00  0.25808381956E+03  0.17978576186E+04  0.17792371283E+04 0.  0.
        3    1    3    3  502    0 -0.80854101262E+03 -0.36785455962E+03  0.17818870263E+03  0.90598386855E+03  0.10100000352E+00 0.  1.
       -3    1    3    3    0  502  0.80854101262E+03  0.36785455962E+03  0.79895116928E+02  0.89187375005E+03  0.10100000352E+00 0. -1.
</event>
<event>
 5   0  0.8492114E-05  0.1780817E+04  0.7818609E-02  0.8716568E-01
        1   -1    0    0  501    0  0.00000000000E+00  0.00000000000E+00  0.68908974852E+03  0.68908974854E+03  0.50400001928E-02 0.  1.
       -1   -1    0    0    0  501  0.00000000000E+00  0.00000000000E+00 -0.11505427338E+04  0.11505427338E+04  0.50400001928E-02 0. -1.
    10030    2    1    2    0    0  0.00000000000E+00  0.00000000000E+00 -0.46145298524E+03  0.18396324823E+04  0.17808168947E+04 0.  0.
        2    1    3    3  502    0  0.70817012943E+03  0.47952209536E+03 -0.48666061017E+03  0.98401469585E+03  0.25500000920E-02 0.  1.
       -2    1    3    3    0  502 -0.70817012943E+03 -0.47952209536E+03  0.25207624924E+02  0.85561778646E+03  0.25500000920E-02 0. -1.
</event>
<event>
 5   0  0.8206783E-05  0.1800992E+04  0.7818609E-02  0.8705772E-01
        1   -1    0    0  501    0  0.00000000000E+00  0.00000000000E+00  0.85736986731E+03  0.85736986732E+03  0.50400001928E-02 0. -1.
       -1   -1    0    0    0  501  0.00000000000E+00  0.00000000000E+00 -0.94579184183E+03  0.94579184184E+03  0.50400001928E-02 0.  1.
    10030    2    1    2    0    0  0.00000000000E+00  0.00000000000E+00 -0.88421974519E+02  0.18031617092E+04  0.18009924219E+04 0.  0.
        1    1    3    3  502    0 -0.19895199303E+01 -0.72081459347E+02  0.85447461338E+03  0.85751184243E+03  0.50400001928E-02 0. -1.
       -1    1    3    3    0  502  0.19895199303E+01  0.72081459347E+02 -0.94289658790E+03  0.94564986674E+03  0.50400001928E-02 0.  1.
</event>
<event>
 5   0  0.1549012E-04  0.1795975E+04  0.7818609E-02  0.8708443E-01
       -2   -1    0    0    0  501  0.00000000000E+00  0.00000000000E+00  0.41771283852E+03  0.41771283853E+03  0.25500000920E-02 0.  1.
        2   -1    0    0  501    0  0.00000000000E+00  0.00000000000E+00 -0.19304691551E+04  0.19304691551E+04  0.25500000920E-02 0. -1.
    10030    2    1    2    0    0  0.00000000000E+00  0.00000000000E+00 -0.15127563166E+04  0.23481819936E+04  0.17959752231E+04 0.  0.
        4    1    3    3  502    0  0.49163420771E+02  0.25573862668E+03  0.36725501883E+03  0.45021900102E+03  0.12699999809E+01 0.  1.
       -4    1    3    3    0  502 -0.49163420771E+02 -0.25573862668E+03 -0.18800113354E+04  0.18979629926E+04  0.12699999809E+01 0. -1.
</event>
<event>
 5   0  0.8132598E-05  0.1805353E+04  0.7818609E-02  0.8703458E-01
        1   -1    0    0  501    0  0.00000000000E+00  0.00000000000E+00  0.12941735936E+04  0.12941735936E+04  0.50400001928E-02 0.  1.
       -1   -1    0    0    0  501  0.00000000000E+00  0.00000000000E+00 -0.62961049606E+03  0.62961049608E+03  0.50400001928E-02 0. -1.
    10030    2    1    2    0    0  0.00000000000E+00  0.00000000000E+00  0.66456309757E+03  0.19237840897E+04  0.18053534593E+04 0.  0.
        3    1    3    3  502    0  0.47096709629E+03  0.48054263636E+03  0.97349817184E+03  0.11833976221E+04  0.10100000352E+00 0.  1.
       -3    1    3    3    0  502 -0.47096709629E+03 -0.48054263636E+03 -0.30893507428E+03  0.74038646764E+03  0.10100000352E+00 0. -1.
</event>
<event>
 5   0  0.1608627E-04  0.1805809E+04  0.7818609E-02  0.8703216E-01
       -2   -1    0    0    0  501  0.00000000000E+00  0.00000000000E+00  0.73397711654E+03  0.73397711654E+03  0.25500000920E-02 0. -1.
        2   -1    0    0  501    0  0.00000000000E+00  0.00000000000E+00 -0.11107111173E+04  0.11107111173E+04  0.25500000920E-02 0.  1.
    10030    2    1    2    0    0  0.00000000000E+00  0.00000000000E+00 -0.37673400078E+03  0.18446882339E+04  0.18058090078E+04 0.  0.
        2    1    3    3  502    0 -0.64380429098E+03  0.52901651309E+03  0.16681727322E+03  0.84980611839E+03  0.25500000920E-02 0. -1.
       -2    1    3    3    0  502  0.64380429098E+03 -0.52901651309E+03 -0.54355127399E+03  0.99488211547E+03  0.25500000920E-02 0.  1.
</event>
<event>
 5   0  0.8430513E-05  0.1704719E+04  0.7818609E-02  0.8758677E-01
        1   -1    0    0  501    0  0.00000000000E+00  0.00000000000E+00  0.48189773868E+03  0.48189773871E+03  0.50400001928E-02 0.  1.
       -1   -1    0    0    0  501  0.00000000000E+00  0.00000000000E+00 -0.15076167138E+04  0.15076167139E+04  0.50400001928E-02 0. -1.
    10030    2    1    2    0    0  0.00000000000E+00  0.00000000000E+00 -0.10257189752E+04  0.19895144526E+04  0.17047194317E+04 0.  0.
        5    1    3    3  502    0  0.29361787260E+02 -0.33923472095E+03 -0.14247774272E+04  0.14649078870E+04  0.46999998093E+01 0. -1.
       -5    1    3    3    0  502 -0.29361787260E+02  0.33923472095E+03  0.39905845204E+03  0.52460656552E+03  0.46999998093E+01 0.  1.
</event>
<event>
 5   0  0.1549012E-04  0.1824829E+04  0.7818609E-02  0.8693206E-01
        2   -1    0    0  501    0  0.00000000000E+00  0.00000000000E+00  0.20225673351E+04  0.20225673351E+04  0.25500000920E-02 0.  1.
       -2   -1    0    0    0  501  0.00000000000E+00  0.00000000000E+00 -0.41160584568E+03  0.41160584569E+03  0.25500000920E-02 0. -1.
    10030    2    1    2    0    0  0.00000000000E+00  0.00000000000E+00  0.16109614894E+04  0.24341731808E+04  0.18248293492E+04 0.  0.
        4    1    3    3  502    0 -0.86508298320E+03  0.74914470776E+02  0.11792592539E+04  0.14644571508E+04  0.12699999809E+01 0.  1.
       -4    1    3    3    0  502  0.86508298320E+03 -0.74914470776E+02  0.43170223552E+03  0.96971602998E+03  0.12699999809E+01 0. -1.
</event>
<event>
 5   0  0.1573981E-04  0.1801702E+04  0.7818609E-02  0.8705395E-01
        2   -1    0    0  501    0  0.00000000000E+00  0.00000000000E+00  0.13327127185E+04  0.13327127185E+04  0.25500000920E-02 0.  1.
       -2   -1    0    0    0  501  0.00000000000E+00  0.00000000000E+00 -0.60893291730E+03  0.60893291731E+03  0.25500000920E-02 0. -1.
    10030    2    1    2    0    0  0.00000000000E+00  0.00000000000E+00  0.72377980118E+03  0.19416456358E+04  0.18017021325E+04 0.  0.
        1    1    3    3  502    0 -0.54794410045E+02 -0.32311516618E+02  0.13302893370E+04  0.13318093639E+04  0.50400001928E-02 0.  1.
       -1    1    3    3    0  502  0.54794410045E+02  0.32311516618E+02 -0.60650953583E+03  0.60983627193E+03  0.50400001928E-02 0. -1.
</event>
<event>
 5   0  0.1573981E-04  0.1780363E+04  0.7818609E-02  0.8716812E-01
        2   -1    0    0  501    0  0.00000000000E+00  0.00000000000E+00  0.13064376622E+04  0.13064376622E+04  0.25500000920E-02 0.  1.
       -2   -1    0    0    0  501  0.00000000000E+00  0.00000000000E+00 -0.60655257813E+03  0.60655257813E+03  0.25500000920E-02 0. -1.
    10030    2    1    2    0    0  0.00000000000E+00  0.00000000000E+00  0.69988508409E+03  0.19129902404E+04  0.17803630329E+04 0.  0.
        1    1    3    3  502    0 -0.36420585715E+03 -0.72415955915E+03  0.74527789708E+03  0.11011321980E+04  0.50400001928E-02 0.  1.
       -1    1    3    3    0  502  0.36420585715E+03  0.72415955915E+03 -0.45392812984E+02  0.81185804239E+03  0.50400001928E-02 0. -1.
</event>
<event>
 5   0  0.8254914E-05  0.1789532E+04  0.7818609E-02  0.8711886E-01
       -1   -1    0    0    0  501  0.00000000000E+00  0.00000000000E+00  0.79126808538E+03  0.79126808540E+03  0.50400001928E-02 0.  1.
        1   -1    0    0  501    0  0.00000000000E+00  0.00000000000E+00 -0.10118016524E+04  0.10118016524E+04  0.50400001928E-02 0. -1.
    10030    2    1    2    0    0  0.00000000000E+00  0.00000000000E+00 -0.22053356701E+03  0.18030697378E+04  0.17895321806E+04 0.  0.
        4    1    3    3  502    0 -0.32180457013E+03  0.11750848267E+02 -0.95139245150E+03  0.10044129995E+04  0.12699999809E+01 0. -1.
       -4    1    3    3    0  502  0.32180457013E+03 -0.11750848267E+02  0.73085888449E+03  0.79865673836E+03  0.12699999809E+01 0.  1.
</event>
<event>
 5   0  0.1549012E-04  0.1740249E+04  0.7818609E-02  0.8738736E-01
       -2   -1    0    0    0  501  0.00000000000E+00  0.00000000000E+00  0.39828237927E+03  0.39828237928E+03  0.25500000920E-02 0. -1.
        2   -1    0    0  501    0  0.00000000000E+00  0.00000000000E+00 -0.19009541172E+04  0.19009541172E+04  0.25500000920E-02 0.  1.
    10030    2    1    2    0    0  0.00000000000E+00  0.00000000000E+00 -0.15026717379E+04  0.22992364965E+04  0.17402488658E+04 0.  0.
        4    1    3    3  502    0 -0.90705543011E+02  0.84753697836E+03 -0.98233443417E+03  0.13005879358E+04  0.12699999809E+01 0. -1.
       -4    1    3    3    0  502  0.90705543011E+02 -0.84753697836E+03 -0.52033730376E+03  0.99864856070E+03  0.12699999809E+01 0.  1.
</event>
<event>
 5   0  0.1549012E-04  0.1791349E+04  0.7818609E-02  0.8710914E-01
       -2   -1    0    0    0  501  0.00000000000E+00  0.00000000000E+00  0.89468746628E+03  0.89468746629E+03  0.25500000920E-02 0.  1.
        2   -1    0    0  501    0  0.00000000000E+00  0.00000000000E+00 -0.89666233001E+03  0.89666233001E+03  0.25500000920E-02 0. -1.
    10030    2    1    2    0    0  0.00000000000E+00  0.00000000000E+00 -0.19748637274E+01  0.17913497963E+04  0.17913487077E+04 0.  0.
        4    1    3    3  502    0 -0.70984593936E+03  0.48901035100E+03 -0.24433620672E+03  0.89594317667E+03  0.12699999809E+01 0. -1.
       -4    1    3    3    0  502  0.70984593936E+03 -0.48901035100E+03  0.24236134299E+03  0.89540661963E+03  0.12699999809E+01 0.  1.
</event>
<event>
 5   0  0.8492114E-05  0.1793835E+04  0.7818609E-02  0.8709585E-01
       -1   -1    0    0    0  501  0.00000000000E+00  0.00000000000E+00  0.88129885633E+03  0.88129885634E+03  0.50400001928E-02 0. -1.
        1   -1    0    0  501    0  0.00000000000E+00  0.00000000000E+00 -0.91281290458E+03  0.91281290460E+03  0.50400001928E-02 0.  1.
    10030    2    1    2    0    0  0.00000000000E+00  0.00000000000E+00 -0.31514048254E+02  0.17941117609E+04  0.17938349633E+04 0.  0.
        2    1    3    3  502    0  0.40047502460E+03  0.67711368613E+03 -0.44663410792E+03  0.90462435056E+03  0.25500000920E-02 0.  1.
       -2    1    3    3    0  502 -0.40047502460E+03 -0.67711368613E+03  0.41512005966E+03  0.88948741037E+03  0.25500000920E-02 0. -1.
</event>
<event>
 5   0  0.1549012E-04  0.1842791E+04  0.7818609E-02  0.8683869E-01
       -2   -1    0    0    0  501  0.00000000000E+00  0.00000000000E+00  0.11260579499E+04  0.11260579499E+04  0.25500000920E-02 0.  1.
        2   -1    0    0  501    0  0.00000000000E+00  0.00000000000E+00 -0.75393109223E+03  0.75393109223E+03  0.25500000920E-02 0. -1.
    10030    2    1    2    0    0  0.00000000000E+00  0.00000000000E+00  0.37212685765E+03  0.18799890421E+04  0.18427914696E+04 0.  0.
        4    1    3    3  502    0 -0.78785474099E+03  0.46206465030E+03  0.62163793122E+02  0.91546970678E+03  0.12699999809E+01 0. -1.
       -4    1    3    3    0  502  0.78785474099E+03 -0.46206465030E+03  0.30996306453E+03  0.96451933533E+03  0.12699999809E+01 0.  1.
</event>
<event>
 5   0  0.8430513E-05  0.1786767E+04  0.7818609E-02  0.8713369E-01
        1   -1    0    0  501    0  0.00000000000E+00  0.00000000000E+00  0.96041522910E+03  0.96041522911E+03  0.50400001928E-02 0.  1.
       -1   -1    0    0    0  501  0.00000000000E+00  0.00000000000E+00 -0.83103009889E+03  0.83103009890E+03  0.50400001928E-02 0. -1.
    10030    2    1    2    0    0  0.00000000000E+00  0.00000000000E+00  0.12938513021E+03  0.17914453280E+04  0.17867668710E+04 0.  0.
        5    1    3    3  502    0  0.47737915024E+03  0.47307297400E+03  0.65481077257E+03  0.93834328989E+03  0.46999998093E+01 0.  1.
       -5    1    3    3    0  502 -0.47737915024E+03 -0.47307297400E+03 -0.52542564236E+03  0.85310203812E+03  0.46999998093E+01 0. -1.
</event>
<event>
 5   0  0.8430513E-05  0.1808561E+04  0.7818609E-02  0.8701760E-01
       -1   -1    0    0    0  501  0.00000000000E+00  0.00000000000E+00  0.91831939885E+03  0.91831939886E+03  0.50400001928E-02 0.  1.
        1   -1    0    0  501    0  0.00000000000E+00  0.00000000000E+00 -0.89045647286E+03  0.89045647288E+03  0.50400001928E-02 0. -1.
    10030    2    1    2    0    0  0.00000000000E+00  0.00000000000E+00  0.27862925986E+02  0.18087758717E+04  0.18085612546E+04 0.  0.
        5    1    3    3  502    0 -0.25656291107E+03 -0.62966091700E+03  0.61015987548E+03  0.91357241715E+03  0.46999998093E+01 0.  1.
       -5    1    3    3    0  502  0.25656291107E+03  0.62966091700E+03 -0.58229694949E+03  0.89520345459E+03  0.46999998093E+01 0. -1.
</event>
<event>
 5   0  0.8430513E-05  0.1808484E+04  0.7818609E-02  0.8701801E-01
       -1   -1    0    0    0  501  0.00000000000E+00  0.00000000000E+00  0.58272938316E+03  0.58272938318E+03  0.50400001928E-02 0. -1.
        1   -1    0    0  501    0  0.00000000000E+00  0.00000000000E+00 -0.14031450671E+04  0.14031450672E+04  0.50400001928E-02 0.  1.
    10030    2    1    2    0    0  0.00000000000E+00  0.00000000000E+00 -0.82041568398E+03  0.19858744503E+04  0.18084842930E+04 0.  0.
        5    1    3    3  502    0  0.54884589209E+03 -0.32832147200E+03 -0.11121298640E+04  0.12829192206E+04  0.46999998093E+01 0.  1.
       -5    1    3    3    0  502 -0.54884589209E+03  0.32832147200E+03  0.29171417998E+03  0.70295522975E+03  0.46999998093E+01 0. -1.
</event>
<event>
 5   0  0.8492114E-05  0.1797960E+04  0.7818609E-02  0.8707385E-01
        1   -1    0    0  501    0  0.00000000000E+00  0.00000000000E+00  0.11175327759E+04  0.11175327759E+04  0.50400001928E-02 0.  1.
       -1   -1    0    0    0  501  0.00000000000E+00  0.00000000000E+00 -0.72316909972E+03  0.72316909973E+03  0.50400001928E-02 0. -1.
    10030    2    1    2    0    0  0.00000000000E+00  0.00000000000E+00  0.39436367618E+03  0.18407018756E+04  0.17979601458E+04 0.  0.
        2    1    3    3  502    0 -0.46904880100E+03 -0.61241788668E+03  0.66978638593E+03  0.10216047418E+04  0.25500000920E-02 0.  1.
       -2    1    3    3    0  502  0.46904880100E+03  0.61241788668E+03 -0.27542270975E+03  0.81909713386E+03  0.25500000920E-02 0. -1.
</event>
<event>
 5   0  0.1628397E-04  0.1716460E+04  0.7818609E-02  0.8752032E-01
        2   -1    0    0  501    0  0.00000000000E+00  0.00000000000E+00  0.76792587159E+03  0.76792587160E+03  0.25500000920E-02 0.  1.
       -2   -1    0    0    0  501  0.00000000000E+00  0.00000000000E+00 -0.95915307921E+03  0.95915307922E+03  0.25500000920E-02 0. -1.
    10030    2    1    2    0    0  0.00000000000E+00  0.00000000000E+00 -0.19122720762E+03  0.17270789508E+04  0.17164596871E+04 0.  0.
        3    1    3    3  502    0 -0.37305512796E+03 -0.77201973057E+03 -0.13290855322E+03  0.86766888074E+03  0.10100000352E+00 0.  1.
       -3    1    3    3    0  502  0.37305512796E+03  0.77201973057E+03 -0.58318654401E+02  0.85941007007E+03  0.10100000352E+00 0. -1.
</event>
<event>
 5   0  0.1603564E-04  0.1797953E+04  0.7818609E-02  0.8707389E-01
        2   -1    0    0  501    0  0.00000000000E+00  0.00000000000E+00  0.18509873315E+04  0.18509873315E+04  0.25500000920E-02 0.  1.
       -2   -1    0    0    0  501  0.00000000000E+00  0.00000000000E+00 -0.43660969382E+03  0.43660969383E+03  0.25500000920E-02 0. -1.
    10030    2    1    2    0    0  0.00000000000E+00  0.00000000000E+00  0.14143776376E+04  0.22875970253E+04  0.17979532942E+04 0.  0.
        5    1    3    3  502    0  0.11896000706E+03 -0.76595325587E+03  0.12789103533E+03  0.78562973491E+03  0.46999998093E+01 0. -1.
       -5    1    3    3    0  502 -0.11896000706E+03  0.76595325587E+03  0.12864866023E+04  0.15019672904E+04  0.46999998093E+01 0.  1.
</event>
<event>
 5   0  0.1608627E-04  0.1814176E+04  0.7818609E-02  0.8698797E-01
       -2   -1    0    0    0  501  0.00000000000E+00  0.00000000000E+00  0.53107452678E+03  0.53107452679E+03  0.25500000920E-02 0.  1.
        2   -1    0    0  501    0  0.00000000000E+00  0.00000000000E+00 -0.15493282703E+04  0.15493282703E+04  0.25500000920E-02 0. -1.
    10030    2    1    2    0    0  0.00000000000E+00  0.00000000000E+00 -0.10182537435E+04  0.20804027971E+04  0.18141761524E+04 0.  0.
        2    1    3    3  502    0 -0.37907130662E+03  0.37367243178E+03 -0.13514073028E+04  0.14524557962E+04  0.25500000920E-02 0. -1.
       -2    1    3    3    0  502  0.37907130662E+03 -0.37367243178E+03  0.33315355934E+03  0.62794700085E+03  0.25500000920E-02 0.  1.
</event>
<event>
 5   0  0.8492114E-05  0.1798165E+04  0.7818609E-02  0.8707276E-01
        1   -1    0    0  501    0  0.00000000000E+00  0.00000000000E+00  0.21810506063E+04  0.21810506063E+04  0.50400001928E-02 0.  1.
       -1   -1    0    0    0  501  0.00000000000E+00  0.00000000000E+00 -0.37062399521E+03  0.37062399524E+03  0.50400001928E-02 0. -1.
    10030    2    1    2    0    0  0.00000000000E+00  0.00000000000E+00  0.18104266111E+04  0.25516746016E+04  0.17981653867E+04 0.  0.
        2    1    3    3  502    0  0.15210336284E+02 -0.18651452975E+03  0.21531089624E+04  0.21612258623E+04  0.25500000920E-02 0.  1.
       -2    1    3    3    0  502 -0.15210336284E+02  0.18651452975E+03 -0.34268235124E+03  0.39044873926E+03  0.25500000920E-02 0. -1.
</event>
<event>
 5   0  0.1573981E-04  0.1811317E+04  0.7818609E-02  0.8700304E-01
        2   -1    0    0  501    0  0.00000000000E+00  0.00000000000E+00  0.20619013429E+04  0.20619013429E+04  0.25500000920E-02 0. -1.
       -2   -1    0    0    0  501  0.00000000000E+00  0.00000000000E+00 -0.39779668671E+03  0.39779668672E+03  0.25500000920E-02 0.  1.
    10030    2    1    2    0    0  0.00000000000E+00  0.00000000000E+00  0.16641046562E+04  0.24596980296E+04  0.18113172252E+04 0.  0.
        1    1    3    3  502    0  0.47044697304E+03  0.20418288674E+03 -0.18161481516E+03  0.54405417634E+03  0.50400001928E-02 0.  1.
       -1    1    3    3    0  502 -0.47044697304E+03 -0.20418288674E+03  0.18457194713E+04  0.19156438533E+04  0.50400001928E-02 0. -1.
</event>
<event>
 5   0  0.5820500E-05  0.1808448E+04  0.7818609E-02  0.8701820E-01
       -4   -1    0    0    0  501  0.00000000000E+00  0.00000000000E+00  0.69678420252E+03  0.69678535990E+03  0.12699999809E+01 0.  1.
        4   -1    0    0  501    0  0.00000000000E+00  0.00000000000E+00 -0.11734182601E+04  0.11734189474E+04  0.12699999809E+01 0. -1.
    10030    2    1    2    0    0  0.00000000000E+00  0.00000000000E+00 -0.47663405760E+03  0.18702043073E+04  0.18084479882E+04 0.  0.
        5    1    3    3  502    0 -0.89878605961E+03  0.44149356816E+02 -0.14678817162E+03  0.91177541313E+03  0.46999998093E+01 0. -1.
       -5    1    3    3    0  502  0.89878605961E+03 -0.44149356816E+02 -0.32984588598E+03  0.95842889416E+03  0.46999998093E+01 0.  1.
</event>
<event>
 5   0  0.8206783E-05  0.1798745E+04  0.7818609E-02  0.8706967E-01
       -1   -1    0    0    0  501  0.00000000000E+00  0.00000000000E+00  0.10653133542E+04  0.10653133542E+04  0.50400001928E-02 0.  1.
        1   -1    0    0  501    0  0.00000000000E+00  0.00000000000E+00 -0.75927958629E+03  0.75927958631E+03  0.50400001928E-02 0. -1.
    10030    2    1    2    0    0  0.00000000000E+00  0.00000000000E+00  0.30603376787E+03  0.18245929405E+04  0.17987447655E+04 0.  0.
        1    1    3    3  502    0 -0.32250897537E+03  0.43969273344E+03 -0.57247332102E+03  0.79061206817E+03  0.50400001928E-02 0. -1.
       -1    1    3    3    0  502  0.32250897537E+03 -0.43969273344E+03  0.87850708889E+03  0.10339808723E+04  0.50400001928E-02 0.  1.
</event>
<event>
 5   0  0.8132598E-05  0.1790419E+04  0.7818609E-02  0.8711411E-01
       -1   -1    0    0    0  501  0.00000000000E+00  0.00000000000E+00  0.71241282418E+03  0.71241282419E+03  0.50400001928E-02 0. -1.
        1   -1    0    0  501    0  0.00000000000E+00  0.00000000000E+00 -0.11249096402E+04  0.11249096402E+04  0.50400001928E-02 0.  1.
    10030    2    1    2    0    0  0.00000000000E+00  0.00000000000E+00 -0.41249681600E+03  0.18373224644E+04  0.17904190054E+04 0.  0.
        3    1    3    3  502    0 -0.72424007291E+03 -0.16468380138E+03  0.30659919294E+03  0.80352194304E+03  0.10100000352E+00 0. -1.
       -3    1    3    3    0  502  0.72424007291E+03  0.16468380138E+03 -0.71909600893E+03  0.10338005213E+04  0.10100000352E+00 0.  1.
</event>
<event>
 5   0  0.8492114E-05  0.1783983E+04  0.7818609E-02  0.8714864E-01
       -1   -1    0    0    0  501  0.00000000000E+00  0.00000000000E+00  0.13346114096E+04  0.13346114096E+04  0.50400001928E-02 0. -1.
        1   -1    0    0  501    0  0.00000000000E+00  0.00000000000E+00 -0.59616548678E+03  0.59616548680E+03  0.50400001928E-02 0.  1.
    10030    2    1    2    0    0  0.00000000000E+00  0.00000000000E+00  0.73844592278E+03  0.19307768964E+04  0.17839834760E+04 0.  0.
        2    1    3    3  502    0  0.18374112689E+03 -0.78504229552E+03  0.78219206267E+03  0.11233328226E+04  0.25500000920E-02 0. -1.
       -2    1    3    3    0  502 -0.18374112689E+03  0.78504229552E+03 -0.43746139893E+02  0.80744407375E+03  0.25500000920E-02 0.  1.
</event>
<event>
 5   0  0.8132598E-05  0.1838179E+04  0.7818609E-02  0.8686256E-01
       -1   -1    0    0    0  501  0.00000000000E+00  0.00000000000E+00  0.57037920552E+03  0.57037920554E+03  0.50400001928E-02 0. -1.
        1   -1    0    0  501    0  0.00000000000E+00  0.00000000000E+00 -0.14809896241E+04  0.14809896241E+04  0.50400001928E-02 0.  1.
    10030    2    1    2    0    0  0.00000000000E+00  0.00000000000E+00 -0.91061041855E+03  0.20513688296E+04  0.18381791917E+04 0.  0.
        3    1    3    3  502    0  0.78868456149E+03 -0.36890258225E+03 -0.12687128871E+03  0.87989134944E+03  0.10100000352E+00 0. -1.
       -3    1    3    3    0  502 -0.78868456149E+03  0.36890258225E+03 -0.78373912984E+03  0.11714774802E+04  0.10100000352E+00 0.  1.
</event>
<event>
 5   0  0.8206783E-05  0.1800466E+04  0.7818609E-02  0.8706052E-01
       -1   -1    0    0    0  501  0.00000000000E+00  0.00000000000E+00  0.48070386866E+03  0.48070386869E+03  0.50400001928E-02 0.  1.
        1   -1    0    0  501    0  0.00000000000E+00  0.00000000000E+00 -0.16859022789E+04  0.16859022789E+04  0.50400001928E-02 0. -1.
    10030    2    1    2    0    0  0.00000000000E+00  0.00000000000E+00 -0.12051984102E+04  0.21666061476E+04  0.18004663259E+04 0.  0.
        1    1    3    3  502    0 -0.33395897065E+03  0.21787010543E+03  0.36864126158E+03  0.54303992181E+03  0.50400001928E-02 0.  1.
       -1    1    3    3    0  502  0.33395897065E+03 -0.21787010543E+03 -0.15738396718E+04  0.16235662258E+04  0.50400001928E-02 0. -1.
</event>
<event>
 5   0  0.8492114E-05  0.1803399E+04  0.7818609E-02  0.8704494E-01
        1   -1    0    0  501    0  0.00000000000E+00  0.00000000000E+00  0.91212210543E+03  0.91212210544E+03  0.50400001928E-02 0. -1.
       -1   -1    0    0    0  501  0.00000000000E+00  0.00000000000E+00 -0.89139641531E+03  0.89139641533E+03  0.50400001928E-02 0.  1.
    10030    2    1    2    0    0  0.00000000000E+00  0.00000000000E+00  0.20725690118E+02  0.18035185208E+04  0.18033994290E+04 0.  0.
        2    1    3    3  502    0  0.87421497240E+03 -0.11821506393E+03 -0.17629287250E+03  0.89961424856E+03  0.25500000920E-02 0.  1.
       -2    1    3    3    0  502 -0.87421497240E+03  0.11821506393E+03  0.19701856262E+03  0.90390427221E+03  0.25500000920E-02 0. -1.
</event>
<event>
 5   0  0.1608627E-04  0.1774416E+04  0.7818609E-02  0.8720024E-01
       -2   -1    0    0    0  501  0.00000000000E+00  0.00000000000E+00  0.11006512953E+04  0.11006512953E+04  0.25500000920E-02 0. -1.
        2   -1    0    0  501    0  0.00000000000E+00  0.00000000000E+00 -0.71515676387E+03  0.71515676388E+03  0.25500000920E-02 0.  1.
    10030    2    1    2    0    0  0.00000000000E+00  0.00000000000E+00  0.38549453140E+03  0.18158080592E+04  0.17744162065E+04 0.  0.
        2    1    3    3  502    0  0.11617638870E+03 -0.75045505001E+03  0.66220625757E+03  0.10075697807E+04  0.25500000920E-02 0. -1.
       -2    1    3    3    0  502 -0.11617638870E+03  0.75045505001E+03 -0.27671172617E+03  0.80823827847E+03  0.25500000920E-02 0.  1.
</event>
<event>
 5   0  0.8492114E-05  0.1806477E+04  0.7818609E-02  0.8702862E-01
       -1   -1    0    0    0  501  0.00000000000E+00  0.00000000000E+00  0.49287096229E+03  0.49287096232E+03  0.50400001928E-02 0. -1.
        1   -1    0    0  501    0  0.00000000000E+00  0.00000000000E+00 -0.16552815947E+04  0.16552815947E+04  0.50400001928E-02 0.  1.
    10030    2    1    2    0    0  0.00000000000E+00  0.00000000000E+00 -0.11624106324E+04  0.21481525571E+04  0.18064774922E+04 0.  0.
        2    1    3    3  502    0 -0.82601708085E+03  0.16404154594E+03 -0.96950309866E+03  0.12841923941E+04  0.25500000920E-02 0. -1.
       -2    1    3    3    0  502  0.82601708085E+03 -0.16404154594E+03 -0.19290753378E+03  0.86396016299E+03  0.25500000920E-02 0.  1.
</event>
<event>
 5   0  0.8430513E-05  0.1819999E+04  0.7818609E-02  0.8695736E-01
        1   -1    0    0  501    0  0.00000000000E+00  0.00000000000E+00  0.14010172071E+04  0.14010172071E+04  0.50400001928E-02 0. -1.
       -1   -1    0    0    0  501  0.00000000000E+00  0.00000000000E+00 -0.59106987831E+03  0.59106987833E+03  0.50400001928E-02 0.  1.
    10030    2    1    2    0    0  0.00000000000E+00  0.00000000000E+00  0.80994732877E+03  0.19920870854E+04  0.18199989782E+04 0.  0.
        5    1    3    3  502    0 -0.25668652116E+03  0.11910603711E+03  0.13516222199E+04  0.13809340801E+04  0.46999998093E+01 0. -1.
       -5    1    3    3    0  502  0.25668652116E+03 -0.11910603711E+03 -0.54167489115E+03  0.61115300532E+03  0.46999998093E+01 0.  1.
</event>
<event>
 5   0  0.1628397E-04  0.1799706E+04  0.7818609E-02  0.8706456E-01
        2   -1    0    0  501    0  0.00000000000E+00  0.00000000000E+00  0.13616311124E+04  0.13616311124E+04  0.25500000920E-02 0. -1.
       -2   -1    0    0    0  501  0.00000000000E+00  0.00000000000E+00 -0.59468057387E+03  0.59468057388E+03  0.25500000920E-02 0.  1.
    10030    2    1    2    0    0  0.00000000000E+00  0.00000000000E+00  0.76695053856E+03  0.19563116863E+04  0.17997061664E+04 0.  0.
        3    1    3    3  502    0 -0.56526805164E+03 -0.69169604651E+03  0.50137616209E+03  0.10243775950E+04  0.10100000352E+00 0. -1.
       -3    1    3    3    0  502  0.56526805164E+03  0.69169604651E+03  0.26557437647E+03  0.93193409134E+03  0.10100000352E+00 0.  1.
</event>
<event>
 5   0  0.1628397E-04  0.1792217E+04  0.7818609E-02  0.8710449E-01
       -2   -1    0    0    0  501  0.00000000000E+00  0.00000000000E+00  0.11070905809E+04  0.11070905809E+04  0.25500000920E-02 0.  1.
        2   -1    0    0  501    0  0.00000000000E+00  0.00000000000E+00 -0.72533400403E+03  0.72533400403E+03  0.25500000920E-02 0. -1.
    10030    2    1    2    0    0  0.00000000000E+00  0.00000000000E+00  0.38175657688E+03  0.18324245849E+04  0.17922170001E+04 0.  0.
        3    1    3    3  502    0  0.80314981381E+03  0.61053994216E+02 -0.21065770408E+03  0.83255864186E+03  0.10100000352E+00 0. -1.
       -3    1    3    3    0  502 -0.80314981381E+03 -0.61053994216E+02  0.59241428096E+03  0.99986594308E+03  0.10100000352E+00 0.  1.
</event>
<event>
 5   0  0.1549012E-04  0.1839774E+04  0.7818609E-02  0.8685430E-01
       -2   -1    0    0    0  501  0.00000000000E+00  0.00000000000E+00  0.87748592969E+03  0.87748592970E+03  0.25500000920E-02 0.  1.
        2   -1    0    0  501    0  0.00000000000E+00  0.00000000000E+00 -0.96433665956E+03  0.96433665957E+03  0.25500000920E-02 0. -1.
    10030    2    1    2    0    0  0.00000000000E+00  0.00000000000E+00 -0.86850729870E+02  0.18418225893E+04  0.18397737364E+04 0.  0.
        4    1    3    3  502    0  0.33876446801E+03 -0.34195840159E+03 -0.82819459203E+03  0.95791691100E+03  0.12699999809E+01 0. -1.
       -4    1    3    3    0  502 -0.33876446801E+03  0.34195840159E+03  0.74134386216E+03  0.88390567827E+03  0.12699999809E+01 0.  1.
</event>
<event>
 5   0  0.1628397E-04  0.1796483E+04  0.7818609E-02  0.8708172E-01
       -2   -1    0    0    0  501  0.00000000000E+00  0.00000000000E+00  0.34041227835E+03  0.34041227836E+03  0.25500000920E-02 0.  1.
        2   -1    0    0  501    0  0.00000000000E+00  0.00000000000E+00 -0.23701794861E+04  0.23701794861E+04  0.25500000920E-02 0. -1.
    10030    2    1    2    0    0  0.00000000000E+00  0.00000000000E+00 -0.20297672078E+04  0.27105917645E+04  0.17964834527E+04 0.  0.
        3    1    3    3  502    0 -0.75730404676E+03  0.11518095765E+02 -0.17435043578E+04  0.19009075574E+04  0.10100000352E+00 0. -1.
       -3    1    3    3    0  502  0.75730404676E+03 -0.11518095765E+02 -0.28626284995E+03  0.80968420711E+03  0.10100000352E+00 0.  1.
</event>
<event>
 5   0  0.1573981E-04  0.1823370E+04  0.7818609E-02  0.8693969E-01
        2   -1    0    0  501    0  0.00000000000E+00  0.00000000000E+00  0.20510056012E+04  0.20510056012E+04  0.25500000920E-02 0.  1.
       -2   -1    0    0    0  501  0.00000000000E+00  0.00000000000E+00 -0.40524996264E+03  0.40524996265E+03  0.25500000920E-02 0. -1.
    10030    2    1    2    0    0  0.00000000000E+00  0.00000000000E+00  0.16457556386E+04  0.24562555638E+04  0.18233704432E+04 0.  0.
        1    1    3    3  502    0 -0.33154856230E+03 -0.36187475795E+03 -0.21210263006E+03  0.53466374041E+03  0.50400001928E-02 0. -1.
       -1    1    3    3    0  502  0.33154856230E+03  0.36187475795E+03  0.18578582686E+04  0.19215918234E+04  0.50400001928E-02 0.  1.
</event>
<event>
 5   0  0.1628397E-04  0.1802273E+04  0.7818609E-02  0.8705092E-01
        2   -1    0    0  501    0  0.00000000000E+00  0.00000000000E+00  0.20698348179E+04  0.20698348179E+04  0.25500000920E-02 0. -1.
       -2   -1    0    0    0  501  0.00000000000E+00  0.00000000000E+00 -0.39232439480E+03  0.39232439481E+03  0.25500000920E-02 0.  1.
    10030    2    1    2    0    0  0.00000000000E+00  0.00000000000E+00  0.16775104231E+04  0.24621592127E+04  0.18022726678E+04 0.  0.
        3    1    3    3  502    0  0.75088293990E+03 -0.62253401293E+02  0.15140575585E+04  0.16911744369E+04  0.10100000352E+00 0. -1.
       -3    1    3    3    0  502 -0.75088293990E+03  0.62253401293E+02  0.16345286463E+03  0.77098477583E+03  0.10100000352E+00 0.  1.
</event>
<event>
 5   0  0.1603564E-04  0.1849119E+04  0.7818609E-02  0.8680606E-01
       -2   -1    0    0    0  501  0.00000000000E+00  0.00000000000E+00  0.19611795201E+04  0.19611795201E+04  0.25500000920E-02 0.  1.
        2   -1    0    0  501    0  0.00000000000E+00  0.00000000000E+00 -0.43586554118E+03  0.43586554118E+03  0.25500000920E-02 0. -1.
    10030    2    1    2    0    0  0.00000000000E+00  0.00000000000E+00  0.15253139789E+04  0.23970450613E+04  0.18491193286E+04 0.  0.
        5    1    3    3  502    0 -0.35758013016E+03 -0.42947679039E+03  0.17174318428E+04  0.18060753272E+04  0.46999998093E+01 0.  1.
       -5    1    3    3    0  502  0.35758013016E+03  0.42947679039E+03 -0.19211786386E+03  0.59096973407E+03  0.46999998093E+01 0. -1.
</event>
<event>
 5   0  0.8132598E-05  0.1611174E+04  0.7818609E-02  0.8813713E-01
        1   -1    0    0  501    0  0.00000000000E+00  0.00000000000E+00  0.14783894398E+04  0.14783894398E+04  0.50400001928E-02 0.  1.
       -1   -1    0    0    0  501  0.00000000000E+00  0.00000000000E+00 -0.43897105753E+03  0.43897105756E+03  0.50400001928E-02 0. -1.
    10030    2    1    2    0    0  0.00000000000E+00  0.00000000000E+00  0.10394183822E+04  0.19173604973E+04  0.16111737037E+04 0.  0.
        3    1    3    3  502    0 -0.53442775629E+03 -0.60760853011E+02 -0.19398252320E+03  0.57178154697E+03  0.10100000352E+00 0. -1.
       -3    1    3    3    0  502  0.53442775629E+03  0.60760853011E+02  0.12334009054E+04  0.13455789504E+04  0.10100000352E+00 0.  1.
</event>
<event>
 5   0  0.8206783E-05  0.1806153E+04  0.7818609E-02  0.8703034E-01
        1   -1    0    0  501    0  0.00000000000E+00  0.00000000000E+00  0.17582452737E+04  0.17582452737E+04  0.50400001928E-02 0. -1.
       -1   -1    0    0    0  501  0.00000000000E+00  0.00000000000E+00 -0.46384158673E+03  0.46384158676E+03  0.50400001928E-02 0.  1.
    10030    2    1    2    0    0  0.00000000000E+00  0.00000000000E+00  0.12944036870E+04  0.22220868605E+04  0.18061531249E+04 0.  0.
        1    1    3    3  502    0 -0.14576380613E+03 -0.85796456170E+03  0.35040671494E+03  0.93815518024E+03  0.50400001928E-02 0.  1.
       -1    1    3    3    0  502  0.14576380613E+03  0.85796456170E+03  0.94399697206E+03  0.12839316803E+04  0.50400001928E-02 0. -1.
</event>
<event>
 5   0  0.8132598E-05  0.1750896E+04  0.7818609E-02  0.8732857E-01
       -1   -1    0    0    0  501  0.00000000000E+00  0.00000000000E+00  0.42354315902E+03  0.42354315905E+03  0.50400001928E-02 0. -1.
        1   -1    0    0  501    0  0.00000000000E+00  0.00000000000E+00 -0.18095194969E+04  0.18095194969E+04  0.50400001928E-02 0.  1.
    10030    2    1    2    0    0  0.00000000000E+00  0.00000000000E+00 -0.13859763378E+04  0.22330626559E+04  0.17508964607E+04 0.  0.
        3    1    3    3  502    0 -0.23212157766E+03  0.31442781955E+03  0.30610474358E+03  0.49643267898E+03  0.10100000352E+00 0. -1.
       -3    1    3    3    0  502  0.23212157766E+03 -0.31442781955E+03 -0.16920810814E+04  0.17366299769E+04  0.10100000352E+00 0.  1.
</event>
<event>
 5   0  0.8206783E-05  0.1795618E+04  0.7818609E-02  0.8708633E-01
       -1   -1    0    0    0  501  0.00000000000E+00  0.00000000000E+00  0.36229141074E+03  0.36229141077E+03  0.50400001928E-02 0. -1.
        1   -1    0    0  501    0  0.00000000000E+00  0.00000000000E+00 -0.22248962087E+04  0.22248962087E+04  0.50400001928E-02 0.  1.
    10030    2    1    2    0    0  0.00000000000E+00  0.00000000000E+00 -0.18626047980E+04  0.25871876195E+04  0.17956177614E+04 0.  0.
        1    1    3    3  502    0  0.21593771764E+03 -0.64180305562E+03 -0.17806867636E+04  0.19050946460E+04  0.50400001928E-02 0.  1.
       -1    1    3    3    0  502 -0.21593771764E+03  0.64180305562E+03 -0.81918034363E+02  0.68209297349E+03  0.50400001928E-02 0. -1.
</event>
<event>
 5   0  0.8254914E-05  0.1797689E+04  0.7818609E-02  0.8707530E-01
        1   -1    0    0  501    0  0.00000000000E+00  0.00000000000E+00  0.71334474105E+03  0.71334474107E+03  0.50400001928E-02 0. -1.
       -1   -1    0    0    0  501  0.00000000000E+00  0.00000000000E+00 -0.11325815617E+04  0.11325815617E+04  0.50400001928E-02 0.  1.
    10030    2    1    2    0    0  0.00000000000E+00  0.00000000000E+00 -0.41923682064E+03  0.18459263028E+04  0.17976886281E+04 0.  0.
        4    1    3    3  502    0  0.45394543878E+03  0.76730420006E+03 -0.92104134661E+02  0.89627394325E+03  0.12699999809E+01 0. -1.
       -4    1    3    3    0  502 -0.45394543878E+03 -0.76730420006E+03 -0.32713268598E+03  0.94965235953E+03  0.12699999809E+01 0.  1.
</event>
<event>
 5   0  0.1549012E-04  0.1575980E+04  0.7818609E-02  0.8835442E-01
        2   -1    0    0  501    0  0.00000000000E+00  0.00000000000E+00  0.12674129377E+04  0.12674129377E+04  0.25500000920E-02 0.  1.
       -2   -1    0    0    0  501  0.00000000000E+00  0.00000000000E+00 -0.48991781859E+03  0.48991781859E+03  0.25500000920E-02 0. -1.
    10030    2    1    2    0    0  0.00000000000E+00  0.00000000000E+00  0.77749511909E+03  0.17573307563E+04  0.15759799259E+04 0.  0.
        4    1    3    3  502    0  0.76076658099E+03 -0.72580463299E+02  0.60292511505E+03  0.97342386536E+03  0.12699999809E+01 0. -1.
       -4    1    3    3    0  502 -0.76076658099E+03  0.72580463299E+02  0.17457000404E+03  0.78390689091E+03  0.12699999809E+01 0.  1.
</event>
<event>
 5   0  0.1603564E-04  0.1815284E+04  0.7818609E-02  0.8698214E-01
       -2   -1    0    0    0  501  0.00000000000E+00  0.00000000000E+00  0.80456927667E+03  0.80456927667E+03  0.25500000920E-02 0. -1.
        2   -1    0    0  501    0  0.00000000000E+00  0.00000000000E+00 -0.10239192913E+04  0.10239192913E+04  0.25500000920E-02 0.  1.
    10030    2    1    2    0    0  0.00000000000E+00  0.00000000000E+00 -0.21935001466E+03  0.18284885680E+04  0.18152840038E+04 0.  0.
        5    1    3    3  502    0 -0.22903244127E+03 -0.35411524017E+03 -0.91922418808E+03  0.10113598076E+04  0.46999998093E+01 0.  1.
       -5    1    3    3    0  502  0.22903244127E+03  0.35411524017E+03  0.69987417342E+03  0.81712876041E+03  0.46999998093E+01 0. -1.
</event>
<event>
 5   0  0.8206783E-05  0.1781931E+04  0.7818609E-02  0.8715968E-01
       -1   -1    0    0    0  501  0.00000000000E+00  0.00000000000E+00  0.22952839455E+04  0.22952839456E+04  0.50400001928E-02 0. -1.
        1   -1    0    0  501    0  0.00000000000E+00  0.00000000000E+00 -0.34584824292E+03  0.34584824296E+03  0.50400001928E-02 0.  1.
    10030    2    1    2    0    0  0.00000000000E+00  0.00000000000E+00  0.19494357026E+04  0.26411321885E+04  0.17819314461E+04 0.  0.
        1    1    3    3  502    0  0.21989450258E+03 -0.69453686393E+03  0.21448420945E+03  0.75943302782E+03  0.50400001928E-02 0.  1.
       -1    1    3    3    0  502 -0.21989450258E+03  0.69453686393E+03  0.17349514932E+04  0.18816991607E+04  0.50400001928E-02 0. -1.
</event>
<event>
 5   0  0.1628397E-04  0.1808717E+04  0.7818609E-02  0.8701678E-01
        2   -1    0    0  501    0  0.00000000000E+00  0.00000000000E+00  0.15120175637E+04  0.15120175637E+04  0.25500000920E-02 0.  1.
       -2   -1    0    0    0  501  0.00000000000E+00  0.00000000000E+00 -0.54090921933E+03  0.54090921933E+03  0.25500000920E-02 0. -1.
    10030    2    1    2    0    0  0.00000000000E+00  0.00000000000E+00  0.97110834441E+03  0.20529267831E+04  0.18087169375E+04 0.  0.
        3    1    3    3  502    0 -0.65212588462E+03  0.38117979887E+02  0.11954108641E+04  0.13622511861E+04  0.10100000352E+00 0.  1.
       -3    1    3    3    0  502  0.65212588462E+03 -0.38117979887E+02 -0.22430251966E+03  0.69067559701E+03  0.10100000352E+00 0. -1.
</event>
<event>
 5   0  0.1573981E-04  0.1798560E+04  0.7818609E-02  0.8707066E-01
        2   -1    0    0  501    0  0.00000000000E+00  0.00000000000E+00  0.57732265230E+03  0.57732265230E+03  0.25500000920E-02 0.  1.
       -2   -1    0    0    0  501  0.00000000000E+00  0.00000000000E+00 -0.14007846563E+04  0.14007846563E+04  0.25500000920E-02 0. -1.
    10030    2    1    2    0    0  0.00000000000E+00  0.00000000000E+00 -0.82346200400E+03  0.19781073086E+04  0.17985602165E+04 0.  0.
        1    1    3    3  502    0  0.46900570879E+03  0.49229308353E+03  0.23556802429E+03  0.71959094565E+03  0.50400001928E-02 0.  1.
       -1    1    3    3    0  502 -0.46900570879E+03 -0.49229308353E+03 -0.10590300283E+04  0.12585163630E+04  0.50400001928E-02 0. -1.
</event>
<event>
 5   0  0.1608627E-04  0.1799996E+04  0.7818609E-02  0.8706302E-01
       -2   -1    0    0    0  501  0.00000000000E+00  0.00000000000E+00  0.13776643624E+04  0.13776643624E+04  0.25500000920E-02 0.  1.
        2   -1    0    0  501    0  0.00000000000E+00  0.00000000000E+00 -0.58794876667E+03  0.58794876668E+03  0.25500000920E-02 0. -1.
    10030    2    1    2    0    0  0.00000000000E+00  0.00000000000E+00  0.78971559570E+03  0.19656131291E+04  0.17999956253E+04 0.  0.
        2    1    3    3  502    0 -0.85972531366E+02 -0.37075707928E+03  0.12854613549E+04  0.13406203725E+04  0.25500000920E-02 0.  1.
       -2    1    3    3    0  502  0.85972531366E+02  0.37075707928E+03 -0.49574575925E+03  0.62499275660E+03  0.25500000920E-02 0. -1.
</event>
<event>
 5   0  0.8492114E-05  0.1794484E+04  0.7818609E-02  0.8709238E-01
        1   -1    0    0  501    0  0.00000000000E+00  0.00000000000E+00  0.80559395959E+03  0.80559395961E+03  0.50400001928E-02 0.  1.
       -1   -1    0    0    0  501  0.00000000000E+00  0.00000000000E+00 -0.99931685837E+03  0.99931685838E+03  0.50400001928E-02 0. -1.
    10030    2    1    2    0    0  0.00000000000E+00  0.00000000000E+00 -0.19372289878E+03  0.18049108180E+04  0.17944844662E+04 0.  0.
        2    1    3    3  502    0  0.13174702304E+03  0.51397452880E+03 -0.82460982450E+03  0.98056537620E+03  0.25500000920E-02 0. -1.
       -2    1    3    3    0  502 -0.13174702304E+03 -0.51397452880E+03  0.63088692573E+03  0.82434544179E+03  0.25500000920E-02 0.  1.
</event>
<event>
 5   0  0.8254914E-05  0.1796926E+04  0.7818609E-02  0.8707936E-01
        1   -1    0    0  501    0  0.00000000000E+00  0.00000000000E+00  0.15160220255E+04  0.15160220256E+04  0.50400001928E-02 0.  1.
       -1   -1    0    0    0  501  0.00000000000E+00  0.00000000000E+00 -0.53246965363E+03  0.53246965365E+03  0.50400001928E-02 0. -1.
    10030    2    1    2    0    0  0.00000000000E+00  0.00000000000E+00  0.98355237192E+03  0.20484916792E+04  0.17969259560E+04 0.  0.
        4    1    3    3  502    0  0.63877382866E+01 -0.70927369504E+03  0.11204559242E+04  0.13260969303E+04  0.12699999809E+01 0.  1.
       -4    1    3    3    0  502 -0.63877382866E+01  0.70927369504E+03 -0.13690355228E+03  0.72239474888E+03  0.12699999809E+01 0. -1.
</event>
<event>
 5   0  0.1603564E-04  0.1787599E+04  0.7818609E-02  0.8712922E-01
       -2   -1    0    0    0  501  0.00000000000E+00  0.00000000000E+00  0.86743098541E+03  0.86743098541E+03  0.25500000920E-02 0. -1.
        2   -1    0    0  501    0  0.00000000000E+00  0.00000000000E+00 -0.92096934798E+03  0.92096934798E+03  0.25500000920E-02 0.  1.
    10030    2    1    2    0    0  0.00000000000E+00  0.00000000000E+00 -0.53538362565E+02  0.17884003334E+04  0.17875987794E+04 0.  0.
        5    1    3    3  502    0  0.19423448133E+02  0.33759134342E+03  0.80095304008E+03  0.86942109930E+03  0.46999998093E+01 0. -1.
       -5    1    3    3    0  502 -0.19423448133E+02 -0.33759134342E+03 -0.85449140265E+03  0.91897923409E+03  0.46999998093E+01 0.  1.
</event>
<event>
 5   0  0.5820500E-05  0.1790936E+04  0.7818609E-02  0.8711134E-01
        4   -1    0    0  501    0  0.00000000000E+00  0.00000000000E+00  0.73033406302E+03  0.73033516724E+03  0.12699999809E+01 0.  1.
       -4   -1    0    0    0  501  0.00000000000E+00  0.00000000000E+00 -0.10979377836E+04  0.10979385182E+04  0.12699999809E+01 0. -1.
    10030    2    1    2    0    0  0.00000000000E+00  0.00000000000E+00 -0.36760372063E+03  0.18282736854E+04  0.17909361165E+04 0.  0.
        4    1    3    3  502    0  0.75638740185E+03  0.43128305240E+03 -0.39728962277E+03  0.95706197826E+03  0.12699999809E+01 0. -1.
       -4    1    3    3    0  502 -0.75638740185E+03 -0.43128305240E+03  0.29685902143E+02  0.87121170714E+03  0.12699999809E+01 0.  1.
</event>
<event>
 5   0  0.8430513E-05  0.1750441E+04  0.7818609E-02  0.8733107E-01
        1   -1    0    0  501    0  0.00000000000E+00  0.00000000000E+00  0.69022129537E+03  0.69022129539E+03  0.50400001928E-02 0.  1.
       -1   -1    0    0    0  501  0.00000000000E+00  0.00000000000E+00 -0.11098053698E+04  0.11098053698E+04  0.50400001928E-02 0. -1.
    10030    2    1    2    0    0  0.00000000000E+00  0.00000000000E+00 -0.41958407438E+03  0.18000266652E+04  0.17504414300E+04 0.  0.
        5    1    3    3  502    0 -0.48989201020E+03  0.38073622759E+03 -0.84455819291E+03  0.10479765684E+04  0.46999998093E+01 0. -1.
       -5    1    3    3    0  502  0.48989201020E+03 -0.38073622759E+03  0.42497411853E+03  0.75205009678E+03  0.46999998093E+01 0.  1.
</event>
<event>
 5   0  0.8254914E-05  0.1819698E+04  0.7818609E-02  0.8695894E-01
       -1   -1    0    0    0  501  0.00000000000E+00  0.00000000000E+00  0.90941319028E+03  0.90941319030E+03  0.50400001928E-02 0. -1.
        1   -1    0    0  501    0  0.00000000000E+00  0.00000000000E+00 -0.91028525468E+03  0.91028525469E+03  0.50400001928E-02 0.  1.
    10030    2    1    2    0    0  0.00000000000E+00  0.00000000000E+00 -0.87206439538E+00  0.18196984450E+04  0.18196982360E+04 0.  0.
        4    1    3    3  502    0  0.64555430269E+03 -0.62143515436E+03 -0.15823907900E+03  0.90992484734E+03  0.12699999809E+01 0. -1.
       -4    1    3    3    0  502 -0.64555430269E+03  0.62143515436E+03  0.15736701460E+03  0.90977359765E+03  0.12699999809E+01 0.  1.
</event>
<event>
 5   0  0.8132598E-05  0.1640395E+04  0.7818609E-02  0.8796109E-01
        1   -1    0    0  501    0  0.00000000000E+00  0.00000000000E+00  0.88587352096E+03  0.88587352097E+03  0.50400001928E-02 0.  1.
       -1   -1    0    0    0  501  0.00000000000E+00  0.00000000000E+00 -0.75939021705E+03  0.75939021707E+03  0.50400001928E-02 0. -1.
    10030    2    1    2    0    0  0.00000000000E+00  0.00000000000E+00  0.12648330391E+03  0.16452637380E+04  0.16403946908E+04 0.  0.
        3    1    3    3  502    0 -0.52035358315E+03  0.17780519948E+03 -0.54712127548E+03  0.77570886339E+03  0.10100000352E+00 0. -1.
       -3    1    3    3    0  502  0.52035358315E+03 -0.17780519948E+03  0.67360457939E+03  0.86955487465E+03  0.10100000352E+00 0.  1.
</event>
<event>
 5   0  0.8430513E-05  0.1841419E+04  0.7818609E-02  0.8684578E-01
       -1   -1    0    0    0  501  0.00000000000E+00  0.00000000000E+00  0.86699551762E+03  0.86699551764E+03  0.50400001928E-02 0.  1.
        1   -1    0    0  501    0  0.00000000000E+00  0.00000000000E+00 -0.97775131609E+03  0.97775131610E+03  0.50400001928E-02 0. -1.
    10030    2    1    2    0    0  0.00000000000E+00  0.00000000000E+00 -0.11075579846E+03  0.18447468337E+04  0.18414190272E+04 0.  0.
        5    1    3    3  502    0  0.16283165719E+03  0.45831578055E+03 -0.83853000851E+03  0.96939268022E+03  0.46999998093E+01 0. -1.
       -5    1    3    3    0  502 -0.16283165719E+03 -0.45831578055E+03  0.72777421005E+03  0.87535415352E+03  0.46999998093E+01 0.  1.
</event>
<event>
 5   0  0.8206783E-05  0.1810138E+04  0.7818609E-02  0.8700927E-01
        1   -1    0    0  501    0  0.00000000000E+00  0.00000000000E+00  0.77883922265E+03  0.77883922266E+03  0.50400001928E-02 0. -1.
       -1   -1    0    0    0  501  0.00000000000E+00  0.00000000000E+00 -0.10517578177E+04  0.10517578177E+04  0.50400001928E-02 0.  1.
    10030    2    1    2    0    0  0.00000000000E+00  0.00000000000E+00 -0.27291859506E+03  0.18305970404E+04  0.18101383828E+04 0.  0.
        1    1    3    3  502    0  0.48337533218E+02  0.34666933221E+03  0.70762018254E+03  0.78945707025E+03  0.50400001928E-02 0. -1.
       -1    1    3    3    0  502 -0.48337533218E+02 -0.34666933221E+03 -0.98053877760E+03  0.10411399701E+04  0.50400001928E-02 0.  1.
</event>
<event>
 5   0  0.1573981E-04  0.1744181E+04  0.7818609E-02  0.8736560E-01
       -2   -1    0    0    0  501  0.00000000000E+00  0.00000000000E+00  0.11831578673E+04  0.11831578674E+04  0.25500000920E-02 0.  1.
        2   -1    0    0  501    0  0.00000000000E+00  0.00000000000E+00 -0.64280692089E+03  0.64280692090E+03  0.25500000920E-02 0. -1.
    10030    2    1    2    0    0  0.00000000000E+00  0.00000000000E+00  0.54035094645E+03  0.18259647883E+04  0.17441812585E+04 0.  0.
        1    1    3    3  502    0  0.32892193765E+03 -0.77712296652E+03  0.39782931029E+02  0.84480318879E+03  0.50400001928E-02 0. -1.
       -1    1    3    3    0  502 -0.32892193765E+03  0.77712296652E+03  0.50056801542E+03  0.98116159946E+03  0.50400001928E-02 0.  1.
</event>
<event>
 5   0  0.8206783E-05  0.1821159E+04  0.7818609E-02  0.8695127E-01
       -1   -1    0    0    0  501  0.00000000000E+00  0.00000000000E+00  0.55230958125E+03  0.55230958127E+03  0.50400001928E-02 0.  1.
        1   -1    0    0  501    0  0.00000000000E+00  0.00000000000E+00 -0.15012509172E+04  0.15012509172E+04  0.50400001928E-02 0. -1.
    10030    2    1    2    0    0  0.00000000000E+00  0.00000000000E+00 -0.94894133596E+03  0.20535604985E+04  0.18211592632E+04 0.  0.
        1    1    3    3  502    0  0.22127317099E+03  0.81309828872E+03 -0.86356145143E+03  0.12065774006E+04  0.50400001928E-02 0.  1.
       -1    1    3    3    0  502 -0.22127317099E+03 -0.81309828872E+03 -0.85379884528E+02  0.84698309784E+03  0.50400001928E-02 0. -1.
</event>
<event>
 5   0  0.1549012E-04  0.1812608E+04  0.7818609E-02  0.8699623E-01
       -2   -1    0    0    0  501  0.00000000000E+00  0.00000000000E+00  0.37639617832E+03  0.37639617833E+03  0.25500000920E-02 0.  1.
        2   -1    0    0  501    0  0.00000000000E+00  0.00000000000E+00 -0.21822399098E+04  0.21822399098E+04  0.25500000920E-02 0. -1.
    10030    2    1    2    0    0  0.00000000000E+00  0.00000000000E+00 -0.18058437315E+04  0.25586360881E+04  0.18126078034E+04 0.  0.
        4    1    3    3  502    0 -0.71661020014E+03 -0.11597545190E+03 -0.13701313638E+03  0.73875212137E+03  0.12699999809E+01 0.  1.
       -4    1    3    3    0  502  0.71661020014E+03  0.11597545190E+03 -0.16688305951E+04  0.18198839667E+04  0.12699999809E+01 0. -1.
</event>
<event>
 5   0  0.1603564E-04  0.1814455E+04  0.7818609E-02  0.8698650E-01
       -2   -1    0    0    0  501  0.00000000000E+00  0.00000000000E+00  0.28371083821E+03  0.28371083822E+03  0.25500000920E-02 0. -1.
        2   -1    0    0  501    0  0.00000000000E+00  0.00000000000E+00 -0.29010583072E+04  0.29010583072E+04  0.25500000920E-02 0.  1.
    10030    2    1    2    0    0  0.00000000000E+00  0.00000000000E+00 -0.26173474690E+04  0.31847691454E+04  0.18144549419E+04 0.  0.
        5    1    3    3  502    0 -0.92963342067E+02 -0.62210271024E+03 -0.16120271305E+03  0.64935534936E+03  0.46999998093E+01 0. -1.
       -5    1    3    3    0  502  0.92963342067E+02  0.62210271024E+03 -0.24561447559E+04  0.25354137960E+04  0.46999998093E+01 0.  1.
</event>
<event>
 5   0  0.8492114E-05  0.1795799E+04  0.7818609E-02  0.8708537E-01
       -1   -1    0    0    0  501  0.00000000000E+00  0.00000000000E+00  0.52492082574E+03  0.52492082576E+03  0.50400001928E-02 0. -1.
        1   -1    0    0  501    0  0.00000000000E+00  0.00000000000E+00 -0.15358950615E+04  0.15358950615E+04  0.50400001928E-02 0.  1.
    10030    2    1    2    0    0  0.00000000000E+00  0.00000000000E+00 -0.10109742358E+04  0.20608158873E+04  0.17957987682E+04 0.  0.
        2    1    3    3  502    0  0.23801885818E+03  0.21080248466E+03  0.45815757389E+03  0.55767286729E+03  0.25500000920E-02 0. -1.
       -2    1    3    3    0  502 -0.23801885818E+03 -0.21080248466E+03 -0.14691318097E+04  0.15031430200E+04  0.25500000920E-02 0.  1.
</event>
<event>
 5   0  0.8206783E-05  0.1799628E+04  0.7818609E-02  0.8706498E-01
        1   -1    0    0  501    0  0.00000000000E+00  0.00000000000E+00  0.90345579718E+03  0.90345579720E+03  0.50400001928E-02 0. -1.
       -1   -1    0    0    0  501  0.00000000000E+00  0.00000000000E+00 -0.89618645218E+03  0.89618645219E+03  0.50400001928E-02 0.  1.
    10030    2    1    2    0    0  0.00000000000E+00  0.00000000000E+00  0.72693450075E+01  0.17996422494E+04  0.17996275677E+04 0.  0.
        1    1    3    3  502    0  0.54108556590E+03 -0.66822293360E+03 -0.26163974230E+03  0.89874959437E+03  0.50400001928E-02 0. -1.
       -1    1    3    3    0  502 -0.54108556590E+03  0.66822293360E+03  0.26890908730E+03  0.90089265502E+03  0.50400001928E-02 0.  1.
</event>
<event>
 5   0  0.1608627E-04  0.1793237E+04  0.7818609E-02  0.8709904E-01
        2   -1    0    0  501    0  0.00000000000E+00  0.00000000000E+00  0.11129411064E+04  0.11129411064E+04  0.25500000920E-02 0.  1.
       -2   -1    0    0    0  501  0.00000000000E+00  0.00000000000E+00 -0.72234289849E+03  0.72234289849E+03  0.25500000920E-02 0. -1.
    10030    2    1    2    0    0  0.00000000000E+00  0.00000000000E+00  0.39059820792E+03  0.18352840049E+04  0.17932374128E+04 0.  0.
        2    1    3    3  502    0 -0.10327477850E+03  0.57853667349E+03 -0.49774533502E+03  0.77014335093E+03  0.25500000920E-02 0. -1.
       -2    1    3    3    0  502  0.10327477850E+03 -0.57853667349E+03  0.88834354293E+03  0.10651406540E+04  0.25500000920E-02 0.  1.
</event>
<event>
 5   0  0.8132598E-05  0.1808455E+04  0.7818609E-02  0.8701816E-01
       -1   -1    0    0    0  501  0.00000000000E+00  0.00000000000E+00  0.83128393889E+03  0.83128393891E+03  0.50400001928E-02 0.  1.
        1   -1    0    0  501    0  0.00000000000E+00  0.00000000000E+00 -0.98357189965E+03  0.98357189966E+03  0.50400001928E-02 0. -1.
    10030    2    1    2    0    0  0.00000000000E+00  0.00000000000E+00 -0.15228796075E+03  0.18148558386E+04  0.18084551672E+04 0.  0.
        3    1    3    3  502    0  0.33277324582E+03  0.63175803927E+03 -0.63287884227E+03  0.95414458680E+03  0.10100000352E+00 0. -1.
       -3    1    3    3    0  502 -0.33277324582E+03 -0.63175803927E+03  0.48059088152E+03  0.86071125177E+03  0.10100000352E+00 0.  1.
</event>
<event>
 5   0  0.8132598E-05  0.1798209E+04  0.7818609E-02  0.8707253E-01
        1   -1    0    0  501    0  0.00000000000E+00  0.00000000000E+00  0.67476705148E+03  0.67476705150E+03  0.50400001928E-02 0. -1.
       -1   -1    0    0    0  501  0.00000000000E+00  0.00000000000E+00 -0.11980260687E+04  0.11980260687E+04  0.50400001928E-02 0.  1.
    10030    2    1    2    0    0  0.00000000000E+00  0.00000000000E+00 -0.52325901721E+03  0.18727931202E+04  0.17982085730E+04 0.  0.
        3    1    3    3  502    0  0.27540125965E+03  0.81904192714E+03 -0.29047532654E+01  0.86410877788E+03  0.10100000352E+00 0.  1.
       -3    1    3    3    0  502 -0.27540125965E+03 -0.81904192714E+03 -0.52035426394E+03  0.10086843423E+04  0.10100000352E+00 0. -1.
</event>
<event>
 5   0  0.1608627E-04  0.1802374E+04  0.7818609E-02  0.8705038E-01
       -2   -1    0    0    0  501  0.00000000000E+00  0.00000000000E+00  0.43911804809E+03  0.43911804810E+03  0.25500000920E-02 0. -1.
        2   -1    0    0  501    0  0.00000000000E+00  0.00000000000E+00 -0.18494762404E+04  0.18494762404E+04  0.25500000920E-02 0.  1.
    10030    2    1    2    0    0  0.00000000000E+00  0.00000000000E+00 -0.14103581923E+04  0.22885942885E+04  0.18023744302E+04 0.  0.
        2    1    3    3  502    0 -0.53849893766E+03  0.10412630434E+03 -0.16131419066E+04  0.17038339719E+04  0.25500000920E-02 0.  1.
       -2    1    3    3    0  502  0.53849893766E+03 -0.10412630434E+03  0.20278371424E+03  0.58476031661E+03  0.25500000920E-02 0. -1.
</event>
<event>
 5   0  0.8430513E-05  0.1798451E+04  0.7818609E-02  0.8707124E-01
        1   -1    0    0  501    0  0.00000000000E+00  0.00000000000E+00  0.24967199706E+04  0.24967199706E+04  0.50400001928E-02 0.  1.
       -1   -1    0    0    0  501  0.00000000000E+00  0.00000000000E+00 -0.32386741266E+03  0.32386741270E+03  0.50400001928E-02 0. -1.
    10030    2    1    2    0    0  0.00000000000E+00  0.00000000000E+00  0.21728525579E+04  0.28205873833E+04  0.17984507078E+04 0.  0.
        5    1    3    3  502    0 -0.25068211146E+03 -0.24833801937E+03  0.23835803511E+04  0.24095623406E+04  0.46999998093E+01 0.  1.
       -5    1    3    3    0  502  0.25068211146E+03  0.24833801937E+03 -0.21072779324E+03  0.41102504268E+03  0.46999998093E+01 0. -1.
</event>
<event>
 5   0  0.1628397E-04  0.1824141E+04  0.7818609E-02  0.8693566E-01
        2   -1    0    0  501    0  0.00000000000E+00  0.00000000000E+00  0.14069374358E+04  0.14069374358E+04  0.25500000920E-02 0. -1.
       -2   -1    0    0    0  501  0.00000000000E+00  0.00000000000E+00 -0.59126471344E+03  0.59126471345E+03  0.25500000920E-02 0.  1.
    10030    2    1    2    0    0  0.00000000000E+00  0.00000000000E+00  0.81567272234E+03  0.19982021492E+04  0.18241408496E+04 0.  0.
        3    1    3    3  502    0 -0.51635816542E+03 -0.52414805368E+03 -0.18258996844E+03  0.75808709522E+03  0.10100000352E+00 0.  1.
       -3    1    3    3    0  502  0.51635816542E+03  0.52414805368E+03  0.99826269078E+03  0.12401150540E+04  0.10100000352E+00 0. -1.
</event>
<event>
 5   0  0.1628397E-04  0.1798447E+04  0.7818609E-02  0.8707126E-01
        2   -1    0    0  501    0  0.00000000000E+00  0.00000000000E+00  0.73770528969E+03  0.73770528969E+03  0.25500000920E-02 0. -1.
       -2   -1    0    0    0  501  0.00000000000E+00  0.00000000000E+00 -0.10961054992E+04  0.10961054992E+04  0.25500000920E-02 0.  1.
    10030    2    1    2    0    0  0.00000000000E+00  0.00000000000E+00 -0.35840020951E+03  0.18338107889E+04  0.17984469131E+04 0.  0.
        3    1    3    3  502    0 -0.74753845131E+03  0.25806998795E+03  0.25722180858E+03  0.83161104122E+03  0.10100000352E+00 0. -1.
       -3    1    3    3    0  502  0.74753845131E+03 -0.25806998795E+03 -0.61562201809E+03  0.10021997477E+04  0.10100000352E+00 0.  1.
</event>
<event>
 5   0  0.1608627E-04  0.1799526E+04  0.7818609E-02  0.8706552E-01
        2   -1    0    0  501    0  0.00000000000E+00  0.00000000000E+00  0.93577551672E+03  0.93577551673E+03  0.25500000920E-02 0.  1.
       -2   -1    0    0    0  501  0.00000000000E+00  0.00000000000E+00 -0.86513597978E+03  0.86513597979E+03  0.25500000920E-02 0. -1.
    10030    2    1    2    0    0  0.00000000000E+00  0.00000000000E+00  0.70639536939E+02  0.18009114965E+04  0.17995255692E+04 0.  0.
        2    1    3    3  502    0  0.37748366980E+02 -0.36415937655E+03  0.85786279090E+03  0.93271944268E+03  0.25500000920E-02 0.  1.
       -2    1    3    3    0  502 -0.37748366980E+02  0.36415937655E+03 -0.78722325396E+03  0.86819205383E+03  0.25500000920E-02 0. -1.
</event>
<event>
 5   0  0.8254914E-05  0.1804914E+04  0.7818609E-02  0.8703691E-01
        1   -1    0    0  501    0  0.00000000000E+00  0.00000000000E+00  0.71803953902E+03  0.71803953904E+03  0.50400001928E-02 0.  1.
       -1   -1    0    0    0  501  0.00000000000E+00  0.00000000000E+00 -0.11342389843E+04  0.11342389843E+04  0.50400001928E-02 0. -1.
    10030    2    1    2    0    0  0.00000000000E+00  0.00000000000E+00 -0.41619944523E+03  0.18522785233E+04  0.18049137790E+04 0.  0.
        4    1    3    3  502    0 -0.32293219813E+03  0.48703063375E+03 -0.91385499542E+03  0.10847195990E+04  0.12699999809E+01 0.  1.
       -4    1    3    3    0  502  0.32293219813E+03 -0.48703063375E+03  0.49765555020E+03  0.76755892434E+03  0.12699999809E+01 0. -1.
</event>
<event>
 5   0  0.1573981E-04  0.1790956E+04  0.7818609E-02  0.8711124E-01
        2   -1    0    0  501    0  0.00000000000E+00  0.00000000000E+00  0.79890453930E+03  0.79890453931E+03  0.25500000920E-02 0.  1.
       -2   -1    0    0    0  501  0.00000000000E+00  0.00000000000E+00 -0.10037249908E+04  0.10037249908E+04  0.25500000920E-02 0. -1.
    10030    2    1    2    0    0  0.00000000000E+00  0.00000000000E+00 -0.20482045153E+03  0.18026295301E+04  0.17909555566E+04 0.  0.
        1    1    3    3  502    0 -0.10948172222E+03  0.45389929893E+03 -0.87150456642E+03  0.98870168928E+03  0.50400001928E-02 0. -1.
       -1    1    3    3    0  502  0.10948172222E+03 -0.45389929893E+03  0.66668411489E+03  0.81392784087E+03  0.50400001928E-02 0.  1.
</event>
<event>
 5   0  0.1608627E-04  0.1872765E+04  0.7818609E-02  0.8668533E-01
       -2   -1    0    0    0  501  0.00000000000E+00  0.00000000000E+00  0.63198552750E+03  0.63198552751E+03  0.25500000920E-02 0.  1.
        2   -1    0    0  501    0  0.00000000000E+00  0.00000000000E+00 -0.13873933037E+04  0.13873933037E+04  0.25500000920E-02 0. -1.
    10030    2    1    2    0    0  0.00000000000E+00  0.00000000000E+00 -0.75540777618E+03  0.20193788312E+04  0.18727653231E+04 0.  0.
        2    1    3    3  502    0  0.88849072970E+03  0.22295587653E+03 -0.16837340937E+03  0.93138322115E+03  0.25500000920E-02 0.  1.
       -2    1    3    3    0  502 -0.88849072970E+03 -0.22295587653E+03 -0.58703436681E+03  0.10879956100E+04  0.25500000920E-02 0. -1.
</event>
<event>
 5   0  0.1573981E-04  0.1799179E+04  0.7818609E-02  0.8706736E-01
        2   -1    0    0  501    0  0.00000000000E+00  0.00000000000E+00  0.74425036360E+03  0.74425036360E+03  0.25500000920E-02 0. -1.
       -2   -1    0    0    0  501  0.00000000000E+00  0.00000000000E+00 -0.10873504770E+04  0.10873504770E+04  0.25500000920E-02 0.  1.
    10030    2    1    2    0    0  0.00000000000E+00  0.00000000000E+00 -0.34310011339E+03  0.18316008406E+04  0.17991786880E+04 0.  0.
        1    1    3    3  502    0 -0.67824332910E+03 -0.36182752113E+03  0.30412576231E+03  0.82669561983E+03  0.50400001928E-02 0. -1.
       -1    1    3    3    0  502  0.67824332910E+03  0.36182752113E+03 -0.64722587571E+03  0.10049052208E+04  0.50400001928E-02 0.  1.
</event>
<event>
 5   0  0.1628397E-04  0.1794633E+04  0.7818609E-02  0.8709159E-01
       -2   -1    0    0    0  501  0.00000000000E+00  0.00000000000E+00  0.80307082407E+03  0.80307082408E+03  0.25500000920E-02 0. -1.
        2   -1    0    0  501    0  0.00000000000E+00  0.00000000000E+00 -0.10026223937E+04  0.10026223937E+04  0.25500000920E-02 0.  1.
    10030    2    1    2    0    0  0.00000000000E+00  0.00000000000E+00 -0.19955156962E+03  0.18056932178E+04  0.17946328783E+04 0.  0.
        3    1    3    3  502    0 -0.51384585869E+03  0.61609862891E+03  0.30464879873E+03  0.85815265997E+03  0.10100000352E+00 0. -1.
       -3    1    3    3    0  502  0.51384585869E+03 -0.61609862891E+03 -0.50420036834E+03  0.94754055780E+03  0.10100000352E+00 0.  1.
</event>
<event>
 5   0  0.8492114E-05  0.1778336E+04  0.7818609E-02  0.8717906E-01
       -1   -1    0    0    0  501  0.00000000000E+00  0.00000000000E+00  0.12256162143E+04  0.12256162144E+04  0.50400001928E-02 0. -1.
        1   -1    0    0  501    0  0.00000000000E+00  0.00000000000E+00 -0.64507910005E+03  0.64507910007E+03  0.50400001928E-02 0.  1.
    10030    2    1    2    0    0  0.00000000000E+00  0.00000000000E+00  0.58053711429E+03  0.18706953144E+04  0.17783356315E+04 0.  0.
        2    1    3    3  502    0  0.55036163053E+03 -0.87039280144E+02 -0.43864465918E+03  0.70914236771E+03  0.25500000920E-02 0.  1.
       -2    1    3    3    0  502 -0.55036163053E+03  0.87039280144E+02  0.10191817735E+04  0.11615529467E+04  0.25500000920E-02 0. -1.
</event>
<event>
 5   0  0.1573981E-04  0.1810873E+04  0.7818609E-02  0.8700539E-01
        2   -1    0    0  501    0  0.00000000000E+00  0.00000000000E+00  0.11411755241E+04  0.11411755241E+04  0.25500000920E-02 0.  1.
       -2   -1    0    0    0  501  0.00000000000E+00  0.00000000000E+00 -0.71839521634E+03  0.71839521635E+03  0.25500000920E-02 0. -1.
    10030    2    1    2    0    0  0.00000000000E+00  0.00000000000E+00  0.42278030777E+03  0.18595707405E+04  0.18108727592E+04 0.  0.
        1    1    3    3  502    0 -0.82441858346E+03 -0.35233644683E+03  0.34131559138E+03  0.95932440053E+03  0.50400001928E-02 0.  1.
       -1    1    3    3    0  502  0.82441858346E+03  0.35233644683E+03  0.81464716396E+02  0.90024633993E+03  0.50400001928E-02 0. -1.
</event>
<event>
 5   0  0.1549012E-04  0.1793757E+04  0.7818609E-02  0.8709627E-01
        2   -1    0    0  501    0  0.00000000000E+00  0.00000000000E+00  0.19311962603E+04  0.19311962603E+04  0.25500000920E-02 0. -1.
       -2   -1    0    0    0  501  0.00000000000E+00  0.00000000000E+00 -0.41652466824E+03  0.41652466824E+03  0.25500000920E-02 0.  1.
    10030    2    1    2    0    0  0.00000000000E+00  0.00000000000E+00  0.15146715920E+04  0.23477209285E+04  0.17937568192E+04 0.  0.
        4    1    3    3  502    0  0.29476558459E+03 -0.17417646614E+03 -0.32762350281E+03  0.47388074840E+03  0.12699999809E+01 0.  1.
       -4    1    3    3    0  502 -0.29476558459E+03  0.17417646614E+03  0.18422950949E+04  0.18738401801E+04  0.12699999809E+01 0. -1.
</event>
<event>
 5   0  0.8206783E-05  0.1806369E+04  0.7818609E-02  0.8702920E-01
       -1   -1    0    0    0  501  0.00000000000E+00  0.00000000000E+00  0.70809123692E+03  0.70809123694E+03  0.50400001928E-02 0. -1.
        1   -1    0    0  501    0  0.00000000000E+00  0.00000000000E+00 -0.11520303519E+04  0.11520303519E+04  0.50400001928E-02 0.  1.
    10030    2    1    2    0    0  0.00000000000E+00  0.00000000000E+00 -0.44393911496E+03  0.18601215888E+04  0.18063693940E+04 0.  0.
        1    1    3    3  502    0 -0.15636665309E+03 -0.29057483421E+03 -0.10877364178E+04  0.11366858753E+04  0.50400001928E-02 0.  1.
       -1    1    3    3    0  502  0.15636665309E+03  0.29057483421E+03  0.64379730283E+03  0.72343571354E+03  0.50400001928E-02 0. -1.
</event>
<event>
 5   0  0.8492114E-05  0.1833983E+04  0.7818609E-02  0.8688434E-01
        1   -1    0    0  501    0  0.00000000000E+00  0.00000000000E+00  0.23207655326E+04  0.23207655326E+04  0.50400001928E-02 0. -1.
       -1   -1    0    0    0  501  0.00000000000E+00  0.00000000000E+00 -0.36232590433E+03  0.36232590437E+03  0.50400001928E-02 0.  1.
    10030    2    1    2    0    0  0.00000000000E+00  0.00000000000E+00  0.19584396283E+04  0.26830914370E+04  0.18339830647E+04 0.  0.
        2    1    3    3  502    0 -0.73370374678E+03 -0.46629971482E+03  0.55239668551E+03  0.10299993739E+04  0.25500000920E-02 0.  1.
       -2    1    3    3    0  502  0.73370374678E+03  0.46629971482E+03  0.14060429427E+04  0.16530920631E+04  0.25500000920E-02 0. -1.
</event>
<event>
 5   0  0.8430513E-05  0.1795137E+04  0.7818609E-02  0.8708890E-01
        1   -1    0    0  501    0  0.00000000000E+00  0.00000000000E+00  0.16637112782E+04  0.16637112782E+04  0.50400001928E-02 0.  1.
       -1   -1    0    0    0  501  0.00000000000E+00  0.00000000000E+00 -0.48423624255E+03  0.48423624257E+03  0.50400001928E-02 0. -1.
    10030    2    1    2    0    0  0.00000000000E+00  0.00000000000E+00  0.11794750356E+04  0.21479475208E+04  0.17951370957E+04 0.  0.
        5    1    3    3  502    0  0.24557337743E+03 -0.58749882237E+03  0.13466319601E+04  0.14895975550E+04  0.46999998093E+01 0.  1.
       -5    1    3    3    0  502 -0.24557337743E+03  0.58749882237E+03 -0.16715692446E+03  0.65834996573E+03  0.46999998093E+01 0. -1.
</event>
<event>
 5   0  0.5820500E-05  0.1789701E+04  0.7818609E-02  0.8711796E-01
        3   -1    0    0  501    0  0.00000000000E+00  0.00000000000E+00  0.10914226916E+04  0.10914226963E+04  0.10100000352E+00 0. -1.
       -3   -1    0    0    0  501  0.00000000000E+00  0.00000000000E+00 -0.73368181622E+03  0.73368182317E+03  0.10100000352E+00 0.  1.
    10030    2    1    2    0    0  0.00000000000E+00  0.00000000000E+00  0.35774087538E+03  0.18251045194E+04  0.17897005261E+04 0.  0.
        5    1    3    3  502    0  0.17729781918E+02 -0.77440133061E+03  0.63575458863E+03  0.10021066575E+04  0.46999998093E+01 0. -1.
       -5    1    3    3    0  502 -0.17729781918E+02  0.77440133061E+03 -0.27801371325E+03  0.82299786195E+03  0.46999998093E+01 0.  1.
</event>
<event>
 5   0  0.8132598E-05  0.1770987E+04  0.7818609E-02  0.8721882E-01
       -1   -1    0    0    0  501  0.00000000000E+00  0.00000000000E+00  0.82212516377E+03  0.82212516378E+03  0.50400001928E-02 0. -1.
        1   -1    0    0  501    0  0.00000000000E+00  0.00000000000E+00 -0.95374572617E+03  0.95374572618E+03  0.50400001928E-02 0.  1.
    10030    2    1    2    0    0  0.00000000000E+00  0.00000000000E+00 -0.13162056240E+03  0.17758708900E+04  0.17709865740E+04 0.  0.
        3    1    3    3  502    0 -0.26568168724E+03  0.76749721684E+03 -0.41957160064E+03  0.91415484195E+03  0.10100000352E+00 0.  1.
       -3    1    3    3    0  502  0.26568168724E+03 -0.76749721684E+03  0.28795103825E+03  0.86171604802E+03  0.10100000352E+00 0. -1.
</event>
<event>
 5   0  0.1549012E-04  0.1828145E+04  0.7818609E-02  0.8691474E-01
       -2   -1    0    0    0  501  0.00000000000E+00  0.00000000000E+00  0.12158536610E+04  0.12158536610E+04  0.25500000920E-02 0.  1.
        2   -1    0    0  501    0  0.00000000000E+00  0.00000000000E+00 -0.68719466242E+03  0.68719466243E+03  0.25500000920E-02 0. -1.
    10030    2    1    2    0    0  0.00000000000E+00  0.00000000000E+00  0.52865899857E+03  0.19030483234E+04  0.18281445743E+04 0.  0.
        4    1    3    3  502    0 -0.26948497773E+03  0.68556061103E+03  0.82771691294E+03  0.11080308685E+04  0.12699999809E+01 0.  1.
       -4    1    3    3    0  502  0.26948497773E+03 -0.68556061103E+03 -0.29905791438E+03  0.79501745495E+03  0.12699999809E+01 0. -1.
</event>
<event>
 5   0  0.8206783E-05  0.1802557E+04  0.7818609E-02  0.8704941E-01
       -1   -1    0    0    0  501  0.00000000000E+00  0.00000000000E+00  0.12105557152E+04  0.12105557152E+04  0.50400001928E-02 0.  1.
        1   -1    0    0  501    0  0.00000000000E+00  0.00000000000E+00 -0.67101665855E+03  0.67101665857E+03  0.50400001928E-02 0. -1.
    10030    2    1    2    0    0  0.00000000000E+00  0.00000000000E+00  0.53953905666E+03  0.18815723738E+04  0.18025571292E+04 0.  0.
        1    1    3    3  502    0  0.37443421579E+03 -0.56890994643E+03  0.88593605263E+03  0.11174713412E+04  0.50400001928E-02 0.  1.
       -1    1    3    3    0  502 -0.37443421579E+03  0.56890994643E+03 -0.34639699597E+03  0.76410103255E+03  0.50400001928E-02 0. -1.
</event>
<event>
 5   0  0.1603564E-04  0.1793367E+04  0.7818609E-02  0.8709835E-01
       -2   -1    0    0    0  501  0.00000000000E+00  0.00000000000E+00  0.73295533612E+03  0.73295533613E+03  0.25500000920E-02 0. -1.
        2   -1    0    0  501    0  0.00000000000E+00  0.00000000000E+00 -0.10969859266E+04  0.10969859266E+04  0.25500000920E-02 0.  1.
    10030    2    1    2    0    0  0.00000000000E+00  0.00000000000E+00 -0.36403059049E+03  0.18299412627E+04  0.17933674343E+04 0.  0.
        5    1    3    3  502    0  0.47426665572E+03  0.40308878110E+03  0.47660150678E+03  0.78395185594E+03  0.46999998093E+01 0. -1.
       -5    1    3    3    0  502 -0.47426665572E+03 -0.40308878110E+03 -0.84063209727E+03  0.10459894068E+04  0.46999998093E+01 0.  1.
</event>
<event>
 5   0  0.1603564E-04  0.1904122E+04  0.7818609E-02  0.8652807E-01
        2   -1    0    0  501    0  0.00000000000E+00  0.00000000000E+00  0.16130952684E+04  0.16130952684E+04  0.25500000920E-02 0. -1.
       -2   -1    0    0    0  501  0.00000000000E+00  0.00000000000E+00 -0.56191361611E+03  0.56191361612E+03  0.25500000920E-02 0.  1.
    10030    2    1    2    0    0  0.00000000000E+00  0.00000000000E+00  0.10511816523E+04  0.21750088845E+04  0.19041220501E+04 0.  0.
        5    1    3    3  502    0  0.57363073130E+03 -0.21968843469E+03 -0.30526966495E+03  0.68594962101E+03  0.46999998093E+01 0.  1.
       -5    1    3    3    0  502 -0.57363073130E+03  0.21968843469E+03  0.13564513172E+04  0.14890592635E+04  0.46999998093E+01 0. -1.
</event>
<event>
 5   0  0.1603564E-04  0.1796851E+04  0.7818609E-02  0.8707976E-01
        2   -1    0    0  501    0  0.00000000000E+00  0.00000000000E+00  0.22638915299E+04  0.22638915299E+04  0.25500000920E-02 0.  1.
       -2   -1    0    0    0  501  0.00000000000E+00  0.00000000000E+00 -0.35654016401E+03  0.35654016402E+03  0.25500000920E-02 0. -1.
    10030    2    1    2    0    0  0.00000000000E+00  0.00000000000E+00  0.19073513659E+04  0.26204316939E+04  0.17968508646E+04 0.  0.
        5    1    3    3  502    0  0.31732040752E+03 -0.84050779858E+03  0.95477371225E+03  0.13110150770E+04  0.46999998093E+01 0.  1.
       -5    1    3    3    0  502 -0.31732040752E+03  0.84050779858E+03  0.95257765366E+03  0.13094166170E+04  0.46999998093E+01 0. -1.
</event>
<event>
 5   0  0.1608627E-04  0.1819648E+04  0.7818609E-02  0.8695920E-01
       -2   -1    0    0    0  501  0.00000000000E+00  0.00000000000E+00  0.95011916034E+03  0.95011916034E+03  0.25500000920E-02 0.  1.
        2   -1    0    0  501    0  0.00000000000E+00  0.00000000000E+00 -0.87123779462E+03  0.87123779462E+03  0.25500000920E-02 0. -1.
    10030    2    1    2    0    0  0.00000000000E+00  0.00000000000E+00  0.78881365718E+02  0.18213569550E+04  0.18196480120E+04 0.  0.
        2    1    3    3  502    0  0.25802231539E+03 -0.87218347810E+03  0.61826551553E+02  0.91164798974E+03  0.25500000920E-02 0. -1.
       -2    1    3    3    0  502 -0.25802231539E+03  0.87218347810E+03  0.17054814165E+02  0.90970896522E+03  0.25500000920E-02 0.  1.
</event>
<event>
 5   0  0.8254914E-05  0.1750808E+04  0.7818609E-02  0.8732906E-01
        1   -1    0    0  501    0  0.00000000000E+00  0.00000000000E+00  0.12581240357E+04  0.12581240357E+04  0.50400001928E-02 0.  1.
       -1   -1    0    0    0  501  0.00000000000E+00  0.00000000000E+00 -0.60910706334E+03  0.60910706336E+03  0.50400001928E-02 0. -1.
    10030    2    1    2    0    0  0.00000000000E+00  0.00000000000E+00  0.64901697238E+03  0.18672310991E+04  0.17508080840E+04 0.  0.
        4    1    3    3  502    0  0.68202306521E+03 -0.37468095160E+03  0.75215817896E+03  0.10822591261E+04  0.12699999809E+01 0.  1.
       -4    1    3    3    0  502 -0.68202306521E+03  0.37468095160E+03 -0.10314120659E+03  0.78497197298E+03  0.12699999809E+01 0. -1.
</event>
<event>
 5   0  0.1573981E-04  0.1788001E+04  0.7818609E-02  0.8712707E-01
       -2   -1    0    0    0  501  0.00000000000E+00  0.00000000000E+00  0.76737867283E+03  0.76737867283E+03  0.25500000920E-02 0. -1.
        2   -1    0    0  501    0  0.00000000000E+00  0.00000000000E+00 -0.10415153933E+04  0.10415153933E+04  0.25500000920E-02 0.  1.
    10030    2    1    2    0    0  0.00000000000E+00  0.00000000000E+00 -0.27413672044E+03  0.18088940661E+04  0.17880007832E+04 0.  0.
        1    1    3    3  502    0  0.25078235926E+03  0.58594662384E+03 -0.77130019592E+03  0.10005644557E+04  0.50400001928E-02 0.  1.
       -1    1    3    3    0  502 -0.25078235926E+03 -0.58594662384E+03  0.49716347548E+03  0.80832961042E+03  0.50400001928E-02 0. -1.
</event>
<event>
 5   0  0.1603564E-04  0.1781840E+04  0.7818609E-02  0.8716017E-01
        2   -1    0    0  501    0  0.00000000000E+00  0.00000000000E+00  0.12883654925E+04  0.12883654925E+04  0.25500000920E-02 0. -1.
       -2   -1    0    0    0  501  0.00000000000E+00  0.00000000000E+00 -0.61608166598E+03  0.61608166598E+03  0.25500000920E-02 0.  1.
    10030    2    1    2    0    0  0.00000000000E+00  0.00000000000E+00  0.67228382655E+03  0.19044471585E+04  0.17818399019E+04 0.  0.
        5    1    3    3  502    0 -0.64908295452E+03  0.22148313306E+03  0.94391094313E+03  0.11667705081E+04  0.46999998093E+01 0. -1.
       -5    1    3    3    0  502  0.64908295452E+03 -0.22148313306E+03 -0.27162711657E+03  0.73767665039E+03  0.46999998093E+01 0.  1.
</event>
<event>
 5   0  0.1549012E-04  0.1804001E+04  0.7818609E-02  0.8704175E-01
        2   -1    0    0  501    0  0.00000000000E+00  0.00000000000E+00  0.15791971121E+04  0.15791971121E+04  0.25500000920E-02 0.  1.
       -2   -1    0    0    0  501  0.00000000000E+00  0.00000000000E+00 -0.51520164562E+03  0.51520164562E+03  0.25500000920E-02 0. -1.
    10030    2    1    2    0    0  0.00000000000E+00  0.00000000000E+00  0.10639954665E+04  0.20943987577E+04  0.18040010542E+04 0.  0.
        4    1    3    3  502    0 -0.25694502614E+03  0.79937274690E+03  0.91456614539E+03  0.12415516027E+04  0.12699999809E+01 0.  1.
       -4    1    3    3    0  502  0.25694502614E+03 -0.79937274690E+03  0.14942932108E+03  0.85284715503E+03  0.12699999809E+01 0. -1.
</event>
<event>
 5   0  0.1628397E-04  0.1801712E+04  0.7818609E-02  0.8705390E-01
        2   -1    0    0  501    0  0.00000000000E+00  0.00000000000E+00  0.19926446144E+04  0.19926446144E+04  0.25500000920E-02 0. -1.
       -2   -1    0    0    0  501  0.00000000000E+00  0.00000000000E+00 -0.40726839960E+03  0.40726839961E+03  0.25500000920E-02 0.  1.
    10030    2    1    2    0    0  0.00000000000E+00  0.00000000000E+00  0.15853762148E+04  0.23999130141E+04  0.18017116119E+04 0.  0.
        3    1    3    3  502    0 -0.19790206367E+03  0.68729331343E+03  0.63106905806E+02  0.71799708722E+03  0.10100000352E+00 0.  1.
       -3    1    3    3    0  502  0.19790206367E+03 -0.68729331343E+03  0.15222693090E+04  0.16819159268E+04  0.10100000352E+00 0. -1.
</event>
<event>
 5   0  0.1603564E-04  0.1710780E+04  0.7818609E-02  0.8755240E-01
       -2   -1    0    0    0  501  0.00000000000E+00  0.00000000000E+00  0.49700141227E+03  0.49700141227E+03  0.25500000920E-02 0. -1.
        2   -1    0    0  501    0  0.00000000000E+00  0.00000000000E+00 -0.14722135025E+04  0.14722135025E+04  0.25500000920E-02 0.  1.
    10030    2    1    2    0    0  0.00000000000E+00  0.00000000000E+00 -0.97521209026E+03  0.19692149148E+04  0.17107801611E+04 0.  0.
        5    1    3    3  502    0  0.27410983918E+03  0.80452955159E+03 -0.59840797462E+03  0.10394797725E+04  0.46999998093E+01 0.  1.
       -5    1    3    3    0  502 -0.27410983918E+03 -0.80452955159E+03 -0.37680411565E+03  0.92973514233E+03  0.46999998093E+01 0. -1.
</event>
<event>
 5   0  0.8254914E-05  0.1800313E+04  0.7818609E-02  0.8706133E-01
        1   -1    0    0  501    0  0.00000000000E+00  0.00000000000E+00  0.15465663736E+04  0.15465663736E+04  0.50400001928E-02 0.  1.
       -1   -1    0    0    0  501  0.00000000000E+00  0.00000000000E+00 -0.52392314290E+03  0.52392314292E+03  0.50400001928E-02 0. -1.
    10030    2    1    2    0    0  0.00000000000E+00  0.00000000000E+00  0.10226432307E+04  0.20704895165E+04  0.18003132118E+04 0.  0.
        4    1    3    3  502    0 -0.79942521838E+03 -0.27350975280E+03  0.15425804136E+03  0.85888615130E+03  0.12699999809E+01 0.  1.
       -4    1    3    3    0  502  0.79942521838E+03  0.27350975280E+03  0.86838518933E+03  0.12116033652E+04  0.12699999809E+01 0. -1.
</event>
<event>
 5   0  0.8132598E-05  0.1789802E+04  0.7818609E-02  0.8711741E-01
       -1   -1    0    0    0  501  0.00000000000E+00  0.00000000000E+00  0.55973882571E+03  0.55973882573E+03  0.50400001928E-02 0. -1.
        1   -1    0    0  501    0  0.00000000000E+00  0.00000000000E+00 -0.14307530464E+04  0.14307530464E+04  0.50400001928E-02 0.  1.
    10030    2    1    2    0    0  0.00000000000E+00  0.00000000000E+00 -0.87101422066E+03  0.19904918721E+04  0.17898022573E+04 0.  0.
        3    1    3    3  502    0  0.49890906028E+03 -0.17455517883E+02 -0.12615079822E+04  0.13566935339E+04  0.10100000352E+00 0.  1.
       -3    1    3    3    0  502 -0.49890906028E+03  0.17455517883E+02  0.39049376154E+03  0.63379833823E+03  0.10100000352E+00 0. -1.
</event>
<event>
 5   0  0.8430513E-05  0.1781167E+04  0.7818609E-02  0.8716379E-01
        1   -1    0    0  501    0  0.00000000000E+00  0.00000000000E+00  0.46531239891E+03  0.46531239893E+03  0.50400001928E-02 0. -1.
       -1   -1    0    0    0  501  0.00000000000E+00  0.00000000000E+00 -0.17045300110E+04  0.17045300110E+04  0.50400001928E-02 0.  1.
    10030    2    1    2    0    0  0.00000000000E+00  0.00000000000E+00 -0.12392176121E+04  0.21698424100E+04  0.17811669753E+04 0.  0.
        5    1    3    3  502    0 -0.17846868601E+03  0.78244462210E+02  0.43900689101E+03  0.48033572437E+03  0.46999998093E+01 0. -1.
       -5    1    3    3    0  502  0.17846868601E+03 -0.78244462210E+02 -0.16782245031E+04  0.16895066856E+04  0.46999998093E+01 0.  1.
</event>
<event>
 5   0  0.1573981E-04  0.1803036E+04  0.7818609E-02  0.8704687E-01
        2   -1    0    0  501    0  0.00000000000E+00  0.00000000000E+00  0.93739644851E+03  0.93739644852E+03  0.25500000920E-02 0.  1.
       -2   -1    0    0    0  501  0.00000000000E+00  0.00000000000E+00 -0.86701247913E+03  0.86701247913E+03  0.25500000920E-02 0. -1.
    10030    2    1    2    0    0  0.00000000000E+00  0.00000000000E+00  0.70383969387E+02  0.18044089276E+04  0.18030356832E+04 0.  0.
        1    1    3    3  502    0  0.75028681509E+03  0.22743900668E+03 -0.41020384742E+03  0.88483105909E+03  0.50400001928E-02 0. -1.
       -1    1    3    3    0  502 -0.75028681509E+03 -0.22743900668E+03  0.48058781681E+03  0.91957786856E+03  0.50400001928E-02 0.  1.
</event>
<event>
 5   0  0.1603564E-04  0.1798188E+04  0.7818609E-02  0.8707263E-01
       -2   -1    0    0    0  501  0.00000000000E+00  0.00000000000E+00  0.60084890811E+03  0.60084890811E+03  0.25500000920E-02 0. -1.
        2   -1    0    0  501    0  0.00000000000E+00  0.00000000000E+00 -0.13453803447E+04  0.13453803447E+04  0.25500000920E-02 0.  1.
    10030    2    1    2    0    0  0.00000000000E+00  0.00000000000E+00 -0.74453143654E+03  0.19462292528E+04  0.17981883228E+04 0.  0.
        5    1    3    3  502    0  0.38928433375E+03 -0.27529544807E+03 -0.11972653321E+04  0.12887188373E+04  0.46999998093E+01 0.  1.
       -5    1    3    3    0  502 -0.38928433375E+03  0.27529544807E+03  0.45273389556E+03  0.65751041544E+03  0.46999998093E+01 0. -1.
</event>
<event>
 5   0  0.8430513E-05  0.1811609E+04  0.7818609E-02  0.8700150E-01
       -1   -1    0    0    0  501  0.00000000000E+00  0.00000000000E+00  0.12170870167E+04  0.12170870167E+04  0.50400001928E-02 0. -1.
        1   -1    0    0  501    0  0.00000000000E+00  0.00000000000E+00 -0.67413586957E+03  0.67413586959E+03  0.50400001928E-02 0.  1.
    10030    2    1    2    0    0  0.00000000000E+00  0.00000000000E+00  0.54295114715E+03  0.18912228863E+04  0.18116092453E+04 0.  0.
        5    1    3    3  502    0 -0.34286115428E+03  0.66656670529E+03 -0.25939448544E+03  0.79320396670E+03  0.46999998093E+01 0.  1.
       -5    1    3    3    0  502  0.34286115428E+03 -0.66656670529E+03  0.80234563259E+03  0.10980189196E+04  0.46999998093E+01 0. -1.
</event>
<event>
 5   0  0.8206783E-05  0.1799736E+04  0.7818609E-02  0.8706440E-01
       -1   -1    0    0    0  501  0.00000000000E+00  0.00000000000E+00  0.68324119806E+03  0.68324119808E+03  0.50400001928E-02 0. -1.
        1   -1    0    0  501    0  0.00000000000E+00  0.00000000000E+00 -0.11851784973E+04  0.11851784973E+04  0.50400001928E-02 0.  1.
    10030    2    1    2    0    0  0.00000000000E+00  0.00000000000E+00 -0.50193729922E+03  0.18684196954E+04  0.17997363989E+04 0.  0.
        1    1    3    3  502    0  0.83168278351E+03 -0.10591827359E+03  0.88381790458E+02  0.84304583148E+03  0.50400001928E-02 0. -1.
       -1    1    3    3    0  502 -0.83168278351E+03  0.10591827359E+03 -0.59031908967E+03  0.10253738639E+04  0.50400001928E-02 0.  1.
</event>
<event>
 5   0  0.1549012E-04  0.1802775E+04  0.7818609E-02  0.8704825E-01
        2   -1    0    0  501    0  0.00000000000E+00  0.00000000000E+00  0.81830117169E+03  0.81830117170E+03  0.25500000920E-02 0.  1.
       -2   -1    0    0    0  501  0.00000000000E+00  0.00000000000E+00 -0.99290949204E+03  0.99290949204E+03  0.25500000920E-02 0. -1.
    10030    2    1    2    0    0  0.00000000000E+00  0.00000000000E+00 -0.17460832034E+03  0.18112106637E+04  0.18027745291E+04 0.  0.
        4    1    3    3  502    0  0.60869335726E+03  0.12711079175E+03  0.56830803307E+03  0.84240156096E+03  0.12699999809E+01 0.  1.
       -4    1    3    3    0  502 -0.60869335726E+03 -0.12711079175E+03 -0.74291635342E+03  0.96880910278E+03  0.12699999809E+01 0. -1.
</event>
<event>
 5   0  0.8206783E-05  0.1801560E+04  0.7818609E-02  0.8705470E-01
       -1   -1    0    0    0  501  0.00000000000E+00  0.00000000000E+00  0.58936187409E+03  0.58936187411E+03  0.50400001928E-02 0.  1.
        1   -1    0    0  501    0  0.00000000000E+00  0.00000000000E+00 -0.13767516558E+04  0.13767516558E+04  0.50400001928E-02 0. -1.
    10030    2    1    2    0    0  0.00000000000E+00  0.00000000000E+00 -0.78738978170E+03  0.19661135299E+04  0.18015603637E+04 0.  0.
        1    1    3    3  502    0 -0.23976206509E+02 -0.95238449523E+02 -0.13708913600E+04  0.13744047226E+04  0.50400001928E-02 0. -1.
       -1    1    3    3    0  502  0.23976206509E+02  0.95238449523E+02  0.58350157826E+03  0.59170880727E+03  0.50400001928E-02 0.  1.
</event>
<event>
 5   0  0.1549012E-04  0.1800356E+04  0.7818609E-02  0.8706110E-01
       -2   -1    0    0    0  501  0.00000000000E+00  0.00000000000E+00  0.11112967066E+04  0.11112967066E+04  0.25500000920E-02 0.  1.
        2   -1    0    0  501    0  0.00000000000E+00  0.00000000000E+00 -0.72916650974E+03  0.72916650975E+03  0.25500000920E-02 0. -1.
    10030    2    1    2    0    0  0.00000000000E+00  0.00000000000E+00  0.38213019682E+03  0.18404632163E+04  0.18003558991E+04 0.  0.
        4    1    3    3  502    0 -0.30976155561E+03 -0.27218902187E+03 -0.62693550306E+03  0.75039244589E+03  0.12699999809E+01 0. -1.
       -4    1    3    3    0  502  0.30976155561E+03  0.27218902187E+03  0.10090656999E+04  0.10900707704E+04  0.12699999809E+01 0.  1.
</event>
<event>
 5   0  0.1573981E-04  0.1721122E+04  0.7818609E-02  0.8749409E-01
        2   -1    0    0  501    0  0.00000000000E+00  0.00000000000E+00  0.98086832627E+03  0.98086832627E+03  0.25500000920E-02 0.  1.
       -2   -1    0    0    0  501  0.00000000000E+00  0.00000000000E+00 -0.75500959783E+03  0.75500959783E+03  0.25500000920E-02 0. -1.
    10030    2    1    2    0    0  0.00000000000E+00  0.00000000000E+00  0.22585872844E+03  0.17358779241E+04  0.17211217279E+04 0.  0.
        1    1    3    3  502    0 -0.72823469974E+03 -0.37783709900E+03 -0.14906371404E+03  0.83385049149E+03  0.50400001928E-02 0. -1.
       -1    1    3    3    0  502  0.72823469974E+03  0.37783709900E+03  0.37492244248E+03  0.90202743261E+03  0.50400001928E-02 0.  1.
</event>
<event>
 5   0  0.5820500E-05  0.1802479E+04  0.7818609E-02  0.8704982E-01
        4   -1    0    0  501    0  0.00000000000E+00  0.00000000000E+00  0.95147303665E+03  0.95147388423E+03  0.12699999809E+01 0. -1.
       -4   -1    0    0    0  501  0.00000000000E+00  0.00000000000E+00 -0.85365635384E+03  0.85365729855E+03  0.12699999809E+01 0.  1.
    10030    2    1    2    0    0  0.00000000000E+00  0.00000000000E+00  0.97816682804E+02  0.18051311828E+04  0.18024789828E+04 0.  0.
        4    1    3    3  502    0  0.78300724675E+03  0.22802894398E+03  0.43305254404E+03  0.92338164729E+03  0.12699999809E+01 0. -1.
       -4    1    3    3    0  502 -0.78300724675E+03 -0.22802894398E+03 -0.33523586124E+03  0.88174953548E+03  0.12699999809E+01 0.  1.
</event>
<event>
 5   0  0.8206783E-05  0.1795409E+04  0.7818609E-02  0.8708745E-01
        1   -1    0    0  501    0  0.00000000000E+00  0.00000000000E+00  0.13064517356E+04  0.13064517356E+04  0.50400001928E-02 0.  1.
       -1   -1    0    0    0  501  0.00000000000E+00  0.00000000000E+00 -0.61684113308E+03  0.61684113310E+03  0.50400001928E-02 0. -1.
    10030    2    1    2    0    0  0.00000000000E+00  0.00000000000E+00  0.68961060255E+03  0.19232928687E+04  0.17954087768E+04 0.  0.
        1    1    3    3  502    0 -0.66704746802E+03  0.40041577561E+03 -0.13496637637E+03  0.78962082086E+03  0.50400001928E-02 0. -1.
       -1    1    3    3    0  502  0.66704746802E+03 -0.40041577561E+03  0.82457697893E+03  0.11336720479E+04  0.50400001928E-02 0.  1.
</event>
<event>
 5   0  0.5820500E-05  0.1659935E+04  0.7818609E-02  0.8784550E-01
        3   -1    0    0  501    0  0.00000000000E+00  0.00000000000E+00  0.20155107921E+04  0.20155107946E+04  0.10100000352E+00 0.  1.
       -3   -1    0    0    0  501  0.00000000000E+00  0.00000000000E+00 -0.34177259619E+03  0.34177261111E+03  0.10100000352E+00 0. -1.
    10030    2    1    2    0    0  0.00000000000E+00  0.00000000000E+00  0.16737381959E+04  0.23572834057E+04  0.16599353923E+04 0.  0.
        3    1    3    3  502    0 -0.61686222577E+03  0.55431957206E+03  0.79069551043E+03  0.11458571438E+04  0.10100000352E+00 0. -1.
       -3    1    3    3    0  502  0.61686222577E+03 -0.55431957206E+03  0.88304268545E+03  0.12114262619E+04  0.10100000352E+00 0.  1.
</event>
<event>
 5   0  0.1549012E-04  0.1815202E+04  0.7818609E-02  0.8698257E-01
       -2   -1    0    0    0  501  0.00000000000E+00  0.00000000000E+00  0.83187699767E+03  0.83187699767E+03  0.25500000920E-02 0.  1.
        2   -1    0    0  501    0  0.00000000000E+00  0.00000000000E+00 -0.99021752120E+03  0.99021752120E+03  0.25500000920E-02 0. -1.
    10030    2    1    2    0    0  0.00000000000E+00  0.00000000000E+00 -0.15834052353E+03  0.18220945189E+04  0.18152015630E+04 0.  0.
        4    1    3    3  502    0 -0.75347383172E+02 -0.85985917783E+02  0.82461910541E+03  0.83250771054E+03  0.12699999809E+01 0.  1.
       -4    1    3    3    0  502  0.75347383172E+02  0.85985917783E+02 -0.98295962893E+03  0.98958680833E+03  0.12699999809E+01 0. -1.
</event>
<event>
 5   0  0.8254914E-05  0.1772758E+04  0.7818609E-02  0.8720922E-01
        1   -1    0    0  501    0  0.00000000000E+00  0.00000000000E+00  0.14881341563E+04  0.14881341563E+04  0.50400001928E-02 0. -1.
       -1   -1    0    0    0  501  0.00000000000E+00  0.00000000000E+00 -0.52795505249E+03  0.52795505251E+03  0.50400001928E-02 0.  1.
    10030    2    1    2    0    0  0.00000000000E+00  0.00000000000E+00  0.96017910381E+03  0.20160892088E+04  0.17727582425E+04 0.  0.
        4    1    3    3  502    0 -0.17837532747E+03 -0.25667792472E+03  0.14233755977E+04  0.14572923590E+04  0.12699999809E+01 0. -1.
       -4    1    3    3    0  502  0.17837532747E+03  0.25667792472E+03 -0.46319649392E+03  0.55879684982E+03  0.12699999809E+01 0.  1.
</event>
<event>
 5   0  0.1549012E-04  0.1814121E+04  0.7818609E-02  0.8698826E-01
       -2   -1    0    0    0  501  0.00000000000E+00  0.00000000000E+00  0.52432667835E+03  0.52432667835E+03  0.25500000920E-02 0.  1.
        2   -1    0    0  501    0  0.00000000000E+00  0.00000000000E+00 -0.15691714923E+04  0.15691714923E+04  0.25500000920E-02 0. -1.
    10030    2    1    2    0    0  0.00000000000E+00  0.00000000000E+00 -0.10448448139E+04  0.20934981706E+04  0.18141206975E+04 0.  0.
        4    1    3    3  502    0  0.34190491944E+03 -0.28966215538E+03 -0.14325147157E+04  0.15009674087E+04  0.12699999809E+01 0. -1.
       -4    1    3    3    0  502 -0.34190491944E+03  0.28966215538E+03  0.38766990181E+03  0.59253076195E+03  0.12699999809E+01 0.  1.
</event>
<event>
 5   0  0.8492114E-05  0.1798211E+04  0.7818609E-02  0.8707251E-01
        1   -1    0    0  501    0  0.00000000000E+00  0.00000000000E+00  0.12959294967E+04  0.12959294968E+04  0.50400001928E-02 0. -1.
       -1   -1    0    0    0  501  0.00000000000E+00  0.00000000000E+00 -0.62379220471E+03  0.62379220473E+03  0.50400001928E-02 0.  1.
    10030    2    1    2    0    0  0.00000000000E+00  0.00000000000E+00  0.67213729203E+03  0.19197217015E+04  0.17982110198E+04 0.  0.
        2    1    3    3  502    0 -0.41341472272E+03 -0.19391835120E+03  0.11629208289E+04  0.12493602020E+04  0.25500000920E-02 0. -1.
       -2    1    3    3    0  502  0.41341472272E+03  0.19391835120E+03 -0.49078353691E+03  0.67036149950E+03  0.25500000920E-02 0.  1.
</event>
<event>
 5   0  0.1573981E-04  0.1804122E+04  0.7818609E-02  0.8704111E-01
       -2   -1    0    0    0  501  0.00000000000E+00  0.00000000000E+00  0.15547766411E+04  0.15547766411E+04  0.25500000920E-02 0. -1.
        2   -1    0    0  501    0  0.00000000000E+00  0.00000000000E+00 -0.52336396027E+03  0.52336396028E+03  0.25500000920E-02 0.  1.
    10030    2    1    2    0    0  0.00000000000E+00  0.00000000000E+00  0.10314126808E+04  0.20781406014E+04  0.18041220139E+04 0.  0.
        1    1    3    3  502    0 -0.62066960645E+03  0.50067830058E+03  0.29992539527E+02  0.79800317888E+03  0.50400001928E-02 0.  1.
       -1    1    3    3    0  502  0.62066960645E+03 -0.50067830058E+03  0.10014201413E+04  0.12801374225E+04  0.50400001928E-02 0. -1.
</event>
<event>
 5   0  0.8132598E-05  0.1804081E+04  0.7818609E-02  0.8704132E-01
        1   -1    0    0  501    0  0.00000000000E+00  0.00000000000E+00  0.21758661819E+04  0.21758661819E+04  0.50400001928E-02 0.  1.
       -1   -1    0    0    0  501  0.00000000000E+00  0.00000000000E+00 -0.37395530710E+03  0.37395530713E+03  0.50400001928E-02 0. -1.
    10030    2    1    2    0    0  0.00000000000E+00  0.00000000000E+00  0.18019108748E+04  0.25498214890E+04  0.18040806039E+04 0.  0.
        3    1    3    3  502    0 -0.25634561314E+03  0.50822026712E+03  0.18899824486E+04  0.19738375261E+04  0.10100000352E+00 0.  1.
       -3    1    3    3    0  502  0.25634561314E+03 -0.50822026712E+03 -0.88071573759E+02  0.57598396296E+03  0.10100000352E+00 0. -1.
</event>
<event>
 5   0  0.8206783E-05  0.1772696E+04  0.7818609E-02  0.8720956E-01
        1   -1    0    0  501    0  0.00000000000E+00  0.00000000000E+00  0.12428528605E+04  0.12428528605E+04  0.50400001928E-02 0. -1.
       -1   -1    0    0    0  501  0.00000000000E+00  0.00000000000E+00 -0.63210441207E+03  0.63210441209E+03  0.50400001928E-02 0.  1.
    10030    2    1    2    0    0  0.00000000000E+00  0.00000000000E+00  0.61074844846E+03  0.18749572726E+04  0.17726959996E+04 0.  0.
        1    1    3    3  502    0 -0.82564667525E+03 -0.15760463348E+03  0.60281022082E+03  0.10343654167E+04  0.50400001928E-02 0. -1.
       -1    1    3    3    0  502  0.82564667525E+03  0.15760463348E+03  0.79382276399E+01  0.84059185597E+03  0.50400001928E-02 0.  1.
</event>
<event>
 5   0  0.8132598E-05  0.1870680E+04  0.7818609E-02  0.8669590E-01
       -1   -1    0    0    0  501  0.00000000000E+00  0.00000000000E+00  0.36795862900E+03  0.36795862904E+03  0.50400001928E-02 0.  1.
        1   -1    0    0  501    0  0.00000000000E+00  0.00000000000E+00 -0.23776064869E+04  0.23776064869E+04  0.50400001928E-02 0. -1.
    10030    2    1    2    0    0  0.00000000000E+00  0.00000000000E+00 -0.20096478578E+04  0.27455651159E+04  0.18706799013E+04 0.  0.
        3    1    3    3  502    0 -0.63754886864E+03 -0.62419851194E+03 -0.59290810555E+03  0.10712760494E+04  0.10100000352E+00 0.  1.
       -3    1    3    3    0  502  0.63754886864E+03  0.62419851194E+03 -0.14167397523E+04  0.16742890665E+04  0.10100000352E+00 0. -1.
</event>
<event>
 5   0  0.1628397E-04  0.1785508E+04  0.7818609E-02  0.8714044E-01
        2   -1    0    0  501    0  0.00000000000E+00  0.00000000000E+00  0.22964270372E+04  0.22964270372E+04  0.25500000920E-02 0.  1.
       -2   -1    0    0    0  501  0.00000000000E+00  0.00000000000E+00 -0.34706507353E+03  0.34706507354E+03  0.25500000920E-02 0. -1.
    10030    2    1    2    0    0  0.00000000000E+00  0.00000000000E+00  0.19493619637E+04  0.26434921108E+04  0.17855079037E+04 0.  0.
        3    1    3    3  502    0 -0.48289843802E+03 -0.56843573276E+03  0.24831774056E+03  0.78611182041E+03  0.10100000352E+00 0. -1.
       -3    1    3    3    0  502  0.48289843802E+03  0.56843573276E+03  0.17010442232E+04  0.18573802904E+04  0.10100000352E+00 0.  1.
</event>
<event>
 5   0  0.1608627E-04  0.1811194E+04  0.7818609E-02  0.8700369E-01
       -2   -1    0    0    0  501  0.00000000000E+00  0.00000000000E+00  0.10323620248E+04  0.10323620248E+04  0.25500000920E-02 0.  1.
        2   -1    0    0  501    0  0.00000000000E+00  0.00000000000E+00 -0.79439766743E+03  0.79439766744E+03  0.25500000920E-02 0. -1.
    10030    2    1    2    0    0  0.00000000000E+00  0.00000000000E+00  0.23796435732E+03  0.18267596922E+04  0.18111940641E+04 0.  0.
        2    1    3    3  502    0  0.21519148402E+03  0.71195636765E+03 -0.40209774421E+03  0.84550094036E+03  0.25500000920E-02 0. -1.
       -2    1    3    3    0  502 -0.21519148402E+03 -0.71195636765E+03  0.64006210153E+03  0.98125875184E+03  0.25500000920E-02 0.  1.
</event>
<event>
 5   0  0.8254914E-05  0.1803727E+04  0.7818609E-02  0.8704320E-01
        1   -1    0    0  501    0  0.00000000000E+00  0.00000000000E+00  0.16802244534E+04  0.16802244535E+04  0.50400001928E-02 0.  1.
       -1   -1    0    0    0  501  0.00000000000E+00  0.00000000000E+00 -0.48407683396E+03  0.48407683399E+03  0.50400001928E-02 0. -1.
    10030    2    1    2    0    0  0.00000000000E+00  0.00000000000E+00  0.11961476195E+04  0.21643012874E+04  0.18037269570E+04 0.  0.
        4    1    3    3  502    0  0.21424248604E+03 -0.38466345360E+03 -0.34634402333E+03  0.56019783180E+03  0.12699999809E+01 0. -1.
       -4    1    3    3    0  502 -0.21424248604E+03  0.38466345360E+03  0.15424916428E+04  0.16041034556E+04  0.12699999809E+01 0.  1.
</event>
<event>
 5   0  0.1573981E-04  0.1800200E+04  0.7818609E-02  0.8706193E-01
       -2   -1    0    0    0  501  0.00000000000E+00  0.00000000000E+00  0.90386703091E+03  0.90386703091E+03  0.25500000920E-02 0.  1.
        2   -1    0    0  501    0  0.00000000000E+00  0.00000000000E+00 -0.89634896564E+03  0.89634896564E+03  0.25500000920E-02 0. -1.
    10030    2    1    2    0    0  0.00000000000E+00  0.00000000000E+00  0.75180652693E+01  0.18002159966E+04  0.18002002980E+04 0.  0.
        1    1    3    3  502    0  0.93086006923E+02  0.43341403960E+03 -0.77961715207E+03  0.89683646125E+03  0.50400001928E-02 0. -1.
       -1    1    3    3    0  502 -0.93086006923E+02 -0.43341403960E+03  0.78713521734E+03  0.90337953530E+03  0.50400001928E-02 0.  1.
</event>
<event>
 5   0  0.1603564E-04  0.1758599E+04  0.7818609E-02  0.8728631E-01
        2   -1    0    0  501    0  0.00000000000E+00  0.00000000000E+00  0.24103570682E+04  0.24103570682E+04  0.25500000920E-02 0. -1.
       -2   -1    0    0    0  501  0.00000000000E+00  0.00000000000E+00 -0.32076884256E+03  0.32076884257E+03  0.25500000920E-02 0.  1.
    10030    2    1    2    0    0  0.00000000000E+00  0.00000000000E+00  0.20895882256E+04  0.27311259108E+04  0.17585988137E+04 0.  0.
        5    1    3    3  502    0 -0.27069150766E+03 -0.62879688935E+03  0.18783802992E+03  0.70990466674E+03  0.46999998093E+01 0.  1.
       -5    1    3    3    0  502  0.27069150766E+03  0.62879688935E+03  0.19017501957E+04  0.20212212440E+04  0.46999998093E+01 0. -1.
</event>
<event>
 5   0  0.8254914E-05  0.1791788E+04  0.7818609E-02  0.8710679E-01
       -1   -1    0    0    0  501  0.00000000000E+00  0.00000000000E+00  0.46478214970E+03  0.46478214972E+03  0.50400001928E-02 0.  1.
        1   -1    0    0  501    0  0.00000000000E+00  0.00000000000E+00 -0.17268864441E+04  0.17268864441E+04  0.50400001928E-02 0. -1.
    10030    2    1    2    0    0  0.00000000000E+00  0.00000000000E+00 -0.12621042944E+04  0.21916685938E+04  0.17917879270E+04 0.  0.
        4    1    3    3  502    0  0.79517091592E+03 -0.23630097309E+03 -0.21717542178E+03  0.85749735401E+03  0.12699999809E+01 0.  1.
       -4    1    3    3    0  502 -0.79517091592E+03  0.23630097309E+03 -0.10449288726E+04  0.13341712398E+04  0.12699999809E+01 0. -1.
</event>
<event>
 5   0  0.1573981E-04  0.1799672E+04  0.7818609E-02  0.8706474E-01
        2   -1    0    0  501    0  0.00000000000E+00  0.00000000000E+00  0.16464574885E+04  0.16464574885E+04  0.25500000920E-02 0.  1.
       -2   -1    0    0    0  501  0.00000000000E+00  0.00000000000E+00 -0.49178584879E+03  0.49178584880E+03  0.25500000920E-02 0. -1.
    10030    2    1    2    0    0  0.00000000000E+00  0.00000000000E+00  0.11546716397E+04  0.21382433373E+04  0.17996716295E+04 0.  0.
        1    1    3    3  502    0  0.12363031311E+03  0.65463987448E+03  0.12959988152E+04  0.14572064880E+04  0.50400001928E-02 0.  1.
       -1    1    3    3    0  502 -0.12363031311E+03 -0.65463987448E+03 -0.14132717549E+03  0.68103684933E+03  0.50400001928E-02 0. -1.
</event>
<event>
 5   0  0.8206783E-05  0.1808352E+04  0.7818609E-02  0.8701871E-01
        1   -1    0    0  501    0  0.00000000000E+00  0.00000000000E+00  0.94162799630E+03  0.94162799632E+03  0.50400001928E-02 0.  1.
       -1   -1    0    0    0  501  0.00000000000E+00  0.00000000000E+00 -0.86821341850E+03  0.86821341852E+03  0.50400001928E-02 0. -1.
    10030    2    1    2    0    0  0.00000000000E+00  0.00000000000E+00  0.73414577798E+02  0.18098414148E+04  0.18083518039E+04 0.  0.
        1    1    3    3  502    0 -0.59184724979E+03 -0.65532973469E+03 -0.15785921278E+03  0.89702829350E+03  0.50400001928E-02 0. -1.
       -1    1    3    3    0  502  0.59184724979E+03  0.65532973469E+03  0.23127379058E+03  0.91281312134E+03  0.50400001928E-02 0.  1.
</event>
<event>
 5   0  0.1573981E-04  0.1764504E+04  0.7818609E-02  0.8725407E-01
       -2   -1    0    0    0  501  0.00000000000E+00  0.00000000000E+00  0.44558555302E+03  0.44558555303E+03  0.25500000920E-02 0.  1.
        2   -1    0    0  501    0  0.00000000000E+00  0.00000000000E+00 -0.17468436082E+04  0.17468436082E+04  0.25500000920E-02 0. -1.
    10030    2    1    2    0    0  0.00000000000E+00  0.00000000000E+00 -0.13012580551E+04  0.21924291612E+04  0.17645036415E+04 0.  0.
        1    1    3    3  502    0 -0.37683465759E+03  0.22057615929E+03  0.30191394749E+03  0.53085801579E+03  0.50400001928E-02 0.  1.
       -1    1    3    3    0  502  0.37683465759E+03 -0.22057615929E+03 -0.16031720026E+04  0.16615711454E+04  0.50400001928E-02 0. -1.
</event>
<event>
 5   0  0.8254914E-05  0.1820940E+04  0.7818609E-02  0.8695242E-01
       -1   -1    0    0    0  501  0.00000000000E+00  0.00000000000E+00  0.10271414332E+04  0.10271414332E+04  0.50400001928E-02 0. -1.
        1   -1    0    0  501    0  0.00000000000E+00  0.00000000000E+00 -0.80705133947E+03  0.80705133949E+03  0.50400001928E-02 0.  1.
    10030    2    1    2    0    0  0.00000000000E+00  0.00000000000E+00  0.22009009376E+03  0.18341927727E+04  0.18209402731E+04 0.  0.
        4    1    3    3  502    0 -0.70313987245E+03 -0.42261183674E+03  0.50782136124E+03  0.96482671636E+03  0.12699999809E+01 0. -1.
       -4    1    3    3    0  502  0.70313987245E+03  0.42261183674E+03 -0.28773126748E+03  0.86936605637E+03  0.12699999809E+01 0.  1.
</event>
<event>
 5   0  0.1608627E-04  0.1790615E+04  0.7818609E-02  0.8711306E-01
       -2   -1    0    0    0  501  0.00000000000E+00  0.00000000000E+00  0.88094118043E+03  0.88094118044E+03  0.25500000920E-02 0.  1.
        2   -1    0    0  501    0  0.00000000000E+00  0.00000000000E+00 -0.90990839886E+03  0.90990839886E+03  0.25500000920E-02 0. -1.
    10030    2    1    2    0    0  0.00000000000E+00  0.00000000000E+00 -0.28967218425E+02  0.17908495793E+04  0.17906152898E+04 0.  0.
        2    1    3    3  502    0  0.33233003682E+03 -0.80221370344E+03 -0.23265361850E+03  0.89895371714E+03  0.25500000920E-02 0.  1.
       -2    1    3    3    0  502 -0.33233003682E+03  0.80221370344E+03  0.20368640007E+03  0.89189586216E+03  0.25500000920E-02 0. -1.
</event>
<event>
 5   0  0.1608627E-04  0.1805239E+04  0.7818609E-02  0.8703518E-01
       -2   -1    0    0    0  501  0.00000000000E+00  0.00000000000E+00  0.58017484345E+03  0.58017484346E+03  0.25500000920E-02 0. -1.
        2   -1    0    0  501    0  0.00000000000E+00  0.00000000000E+00 -0.14042699894E+04  0.14042699894E+04  0.25500000920E-02 0.  1.
    10030    2    1    2    0    0  0.00000000000E+00  0.00000000000E+00 -0.82409514593E+03  0.19844448328E+04  0.18052391767E+04 0.  0.
        2    1    3    3  502    0 -0.27577150677E+03  0.43903140453E+03  0.40016596491E+03  0.65492846754E+03  0.25500000920E-02 0. -1.
       -2    1    3    3    0  502  0.27577150677E+03 -0.43903140453E+03 -0.12242611108E+04  0.13295163653E+04  0.25500000920E-02 0.  1.
</event>
<event>
 5   0  0.8254914E-05  0.1768952E+04  0.7818609E-02  0.8722987E-01
       -1   -1    0    0    0  501  0.00000000000E+00  0.00000000000E+00  0.99249414897E+03  0.99249414899E+03  0.50400001928E-02 0. -1.
        1   -1    0    0  501    0  0.00000000000E+00  0.00000000000E+00 -0.78821428166E+03  0.78821428168E+03  0.50400001928E-02 0.  1.
    10030    2    1    2    0    0  0.00000000000E+00  0.00000000000E+00  0.20427986731E+03  0.17807084307E+04  0.17689523032E+04 0.  0.
        4    1    3    3  502    0  0.12658850756E+03 -0.53360139174E+03 -0.59640361599E+03  0.81021847768E+03  0.12699999809E+01 0.  1.
       -4    1    3    3    0  502 -0.12658850756E+03  0.53360139174E+03  0.80068348330E+03  0.97048995298E+03  0.12699999809E+01 0. -1.
</event>
<event>
 5   0  0.8430513E-05  0.1797384E+04  0.7818609E-02  0.8707692E-01
       -1   -1    0    0    0  501  0.00000000000E+00  0.00000000000E+00  0.19686955210E+04  0.19686955210E+04  0.50400001928E-02 0. -1.
        1   -1    0    0  501    0  0.00000000000E+00  0.00000000000E+00 -0.41024500294E+03  0.41024500297E+03  0.50400001928E-02 0.  1.
    10030    2    1    2    0    0  0.00000000000E+00  0.00000000000E+00  0.15584505180E+04  0.23789405240E+04  0.17973842103E+04 0.  0.
        5    1    3    3  502    0  0.66570105394E+03 -0.20240000193E+03  0.15320276387E+04  0.16826331834E+04  0.46999998093E+01 0. -1.
       -5    1    3    3    0  502 -0.66570105394E+03  0.20240000193E+03  0.26422879323E+02  0.69630734058E+03  0.46999998093E+01 0.  1.
</event>
<event>
 5   0  0.8492114E-05  0.1818202E+04  0.7818609E-02  0.8696679E-01
       -1   -1    0    0    0  501  0.00000000000E+00  0.00000000000E+00  0.68030012360E+03  0.68030012362E+03  0.50400001928E-02 0. -1.
        1   -1    0    0  501    0  0.00000000000E+00  0.00000000000E+00 -0.12148527530E+04  0.12148527530E+04  0.50400001928E-02 0.  1.
    10030    2    1    2    0    0  0.00000000000E+00  0.00000000000E+00 -0.53455262943E+03  0.18951528767E+04  0.18182018349E+04 0.  0.
        2    1    3    3  502    0 -0.64573005497E+03  0.19505332301E+02 -0.93396912205E+03  0.11356258551E+04  0.25500000920E-02 0.  1.
       -2    1    3    3    0  502  0.64573005497E+03 -0.19505332301E+02  0.39941649262E+03  0.75952702155E+03  0.25500000920E-02 0. -1.
</event>
<event>
 5   0  0.1628397E-04  0.1814060E+04  0.7818609E-02  0.8698858E-01
        2   -1    0    0  501    0  0.00000000000E+00  0.00000000000E+00  0.61453449876E+03  0.61453449877E+03  0.25500000920E-02 0. -1.
       -2   -1    0    0    0  501  0.00000000000E+00  0.00000000000E+00 -0.13387418805E+04  0.13387418805E+04  0.25500000920E-02 0.  1.
    10030    2    1    2    0    0  0.00000000000E+00  0.00000000000E+00 -0.72420738177E+03  0.19532763793E+04  0.18140596137E+04 0.  0.
        3    1    3    3  502    0 -0.79052027037E+03 -0.44394294986E+03 -0.33370909769E+03  0.96611045573E+03  0.10100000352E+00 0.  1.
       -3    1    3    3    0  502  0.79052027037E+03  0.44394294986E+03 -0.39049828408E+03  0.98716592357E+03  0.10100000352E+00 0. -1.
</event>
<event>
 5   0  0.8492114E-05  0.1802746E+04  0.7818609E-02  0.8704841E-01
       -1   -1    0    0    0  501  0.00000000000E+00  0.00000000000E+00  0.15259362264E+04  0.15259362264E+04  0.50400001928E-02 0. -1.
        1   -1    0    0  501    0  0.00000000000E+00  0.00000000000E+00 -0.53244240023E+03  0.53244240025E+03  0.50400001928E-02 0.  1.
    10030    2    1    2    0    0  0.00000000000E+00  0.00000000000E+00  0.99349382620E+03  0.20583786267E+04  0.18027458468E+04 0.  0.
        2    1    3    3  502    0 -0.39239258892E+03  0.47385898789E+03  0.12489152391E+04  0.13922297076E+04  0.25500000920E-02 0. -1.
       -2    1    3    3    0  502  0.39239258892E+03 -0.47385898789E+03 -0.25542141289E+03  0.66614891910E+03  0.25500000920E-02 0.  1.
</event>
<event>
 5   0  0.8206783E-05  0.1793704E+04  0.7818609E-02  0.8709655E-01
        1   -1    0    0  501    0  0.00000000000E+00  0.00000000000E+00  0.13397431138E+04  0.13397431138E+04  0.50400001928E-02 0. -1.
       -1   -1    0    0    0  501  0.00000000000E+00  0.00000000000E+00 -0.60037167563E+03  0.60037167565E+03  0.50400001928E-02 0.  1.
    10030    2    1    2    0    0  0.00000000000E+00  0.00000000000E+00  0.73937143817E+03  0.19401147895E+04  0.17937043437E+04 0.  0.
        1    1    3    3  502    0 -0.62371341662E+02 -0.41955155847E+03 -0.48502369897E+03  0.64433041451E+03  0.50400001928E-02 0.  1.
       -1    1    3    3    0  502  0.62371341662E+02  0.41955155847E+03  0.12243951371E+04  0.12957843749E+04  0.50400001928E-02 0. -1.
</event>
<event>
 5   0  0.1573981E-04  0.1796620E+04  0.7818609E-02  0.8708099E-01
       -2   -1    0    0    0  501  0.00000000000E+00  0.00000000000E+00  0.11525705320E+04  0.11525705320E+04  0.25500000920E-02 0. -1.
        2   -1    0    0  501    0  0.00000000000E+00  0.00000000000E+00 -0.70014029339E+03  0.70014029339E+03  0.25500000920E-02 0.  1.
    10030    2    1    2    0    0  0.00000000000E+00  0.00000000000E+00  0.45243023860E+03  0.18527108254E+04  0.17966202386E+04 0.  0.
        1    1    3    3  502    0 -0.59695453737E+03  0.65420565646E+03  0.71115681011E+02  0.88848027594E+03  0.50400001928E-02 0.  1.
       -1    1    3    3    0  502  0.59695453737E+03 -0.65420565646E+03  0.38131455759E+03  0.96423054944E+03  0.50400001928E-02 0. -1.
</event>
<event>
 5   0  0.5820500E-05  0.1752191E+04  0.7818609E-02  0.8732145E-01
        3   -1    0    0  501    0  0.00000000000E+00  0.00000000000E+00  0.42410481509E+03  0.42410482712E+03  0.10100000352E+00 0.  1.
       -3   -1    0    0    0  501  0.00000000000E+00  0.00000000000E+00 -0.18097956577E+04  0.18097956606E+04  0.10100000352E+00 0. -1.
    10030    2    1    2    0    0  0.00000000000E+00  0.00000000000E+00 -0.13856908426E+04  0.22339004877E+04  0.17521907081E+04 0.  0.
        4    1    3    3  502    0  0.59940617236E+03 -0.53107000393E+03 -0.11457885709E+04  0.13979113601E+04  0.12699999809E+01 0. -1.
       -4    1    3    3    0  502 -0.59940617236E+03  0.53107000393E+03 -0.23990227172E+03  0.83598912757E+03  0.12699999809E+01 0.  1.
</event>
<event>
 5   0  0.8430513E-05  0.1768689E+04  0.7818609E-02  0.8723130E-01
        1   -1    0    0  501    0  0.00000000000E+00  0.00000000000E+00  0.14950195498E+04  0.14950195498E+04  0.50400001928E-02 0. -1.
       -1   -1    0    0    0  501  0.00000000000E+00  0.00000000000E+00 -0.52311361746E+03  0.52311361749E+03  0.50400001928E-02 0.  1.
    10030    2    1    2    0    0  0.00000000000E+00  0.00000000000E+00  0.97190593230E+03  0.20181331673E+04  0.17686888758E+04 0.  0.
        5    1    3    3  502    0  0.28319585030E+03 -0.57723842916E+03 -0.20683280137E+03  0.67543022693E+03  0.46999998093E+01 0.  1.
       -5    1    3    3    0  502 -0.28319585030E+03  0.57723842916E+03  0.11787387337E+04  0.13427029403E+04  0.46999998093E+01 0. -1.
</event>
<event>
 5   0  0.1608627E-04  0.1805920E+04  0.7818609E-02  0.8703157E-01
        2   -1    0    0  501    0  0.00000000000E+00  0.00000000000E+00  0.86308161260E+03  0.86308161260E+03  0.25500000920E-02 0.  1.
       -2   -1    0    0    0  501  0.00000000000E+00  0.00000000000E+00 -0.94468120974E+03  0.94468120975E+03  0.25500000920E-02 0. -1.
    10030    2    1    2    0    0  0.00000000000E+00  0.00000000000E+00 -0.81599597146E+02  0.18077628223E+04  0.18059202440E+04 0.  0.
        2    1    3    3  502    0  0.55613993574E+03 -0.71007001377E+03 -0.83807914534E+02  0.90582273052E+03  0.25500000920E-02 0. -1.
       -2    1    3    3    0  502 -0.55613993574E+03  0.71007001377E+03  0.22083173881E+01  0.90194009183E+03  0.25500000920E-02 0.  1.
</event>
<event>
 5   0  0.1608627E-04  0.1797263E+04  0.7818609E-02  0.8707756E-01
       -2   -1    0    0    0  501  0.00000000000E+00  0.00000000000E+00  0.73280050440E+03  0.73280050441E+03  0.25500000920E-02 0.  1.
        2   -1    0    0  501    0  0.00000000000E+00  0.00000000000E+00 -0.11019901582E+04  0.11019901582E+04  0.25500000920E-02 0. -1.
    10030    2    1    2    0    0  0.00000000000E+00  0.00000000000E+00 -0.36918965384E+03  0.18347906626E+04  0.17972634129E+04 0.  0.
        2    1    3    3  502    0  0.39612375824E+03 -0.76183080037E+03 -0.45515455580E+03  0.97183633905E+03  0.25500000920E-02 0. -1.
       -2    1    3    3    0  502 -0.39612375824E+03  0.76183080037E+03  0.85964901966E+02  0.86295432359E+03  0.25500000920E-02 0.  1.
</event>
<event>
 5   0  0.8132598E-05  0.1829325E+04  0.7818609E-02  0.8690858E-01
        1   -1    0    0  501    0  0.00000000000E+00  0.00000000000E+00  0.15859097554E+04  0.15859097554E+04  0.50400001928E-02 0. -1.
       -1   -1    0    0    0  501  0.00000000000E+00  0.00000000000E+00 -0.52752540773E+03  0.52752540775E+03  0.50400001928E-02 0.  1.
    10030    2    1    2    0    0  0.00000000000E+00  0.00000000000E+00  0.10583843476E+04  0.21134351631E+04  0.18293252202E+04 0.  0.
        3    1    3    3  502    0 -0.72008411842E+03  0.40038139483E+03  0.70284049673E+02  0.82690160042E+03  0.10100000352E+00 0. -1.
       -3    1    3    3    0  502  0.72008411842E+03 -0.40038139483E+03  0.98810029795E+03  0.12865335627E+04  0.10100000352E+00 0.  1.
</event>
<event>
 5   0  0.1603564E-04  0.1822130E+04  0.7818609E-02  0.8694619E-01
       -2   -1    0    0    0  501  0.00000000000E+00  0.00000000000E+00  0.35583711630E+03  0.35583711631E+03  0.25500000920E-02 0.  1.
        2   -1    0    0  501    0  0.00000000000E+00  0.00000000000E+00 -0.23326393334E+04  0.23326393334E+04  0.25500000920E-02 0. -1.
    10030    2    1    2    0    0  0.00000000000E+00  0.00000000000E+00 -0.19768022171E+04  0.26884764497E+04  0.18221302410E+04 0.  0.
        5    1    3    3  502    0 -0.19712120740E+03 -0.22190156832E+03 -0.22592839099E+04  0.22787020323E+04  0.46999998093E+01 0. -1.
       -5    1    3    3    0  502  0.19712120740E+03  0.22190156832E+03  0.28248169278E+03  0.40977441743E+03  0.46999998093E+01 0.  1.
</event>
<event>
 5   0  0.8254914E-05  0.1798199E+04  0.7818609E-02  0.8707258E-01
        1   -1    0    0  501    0  0.00000000000E+00  0.00000000000E+00  0.11624544649E+04  0.11624544649E+04  0.50400001928E-02 0. -1.
       -1   -1    0    0    0  501  0.00000000000E+00  0.00000000000E+00 -0.69540781383E+03  0.69540781385E+03  0.50400001928E-02 0.  1.
    10030    2    1    2    0    0  0.00000000000E+00  0.00000000000E+00  0.46704665110E+03  0.18578622788E+04  0.17981990081E+04 0.  0.
        4    1    3    3  502    0 -0.78802755154E+03 -0.41009057783E+03  0.90299901352E+02  0.89292630664E+03  0.12699999809E+01 0.  1.
       -4    1    3    3    0  502  0.78802755154E+03  0.41009057783E+03  0.37674674975E+03  0.96493597215E+03  0.12699999809E+01 0. -1.
</event>
<event>
 5   0  0.1608627E-04  0.1801038E+04  0.7818609E-02  0.8705748E-01
        2   -1    0    0  501    0  0.00000000000E+00  0.00000000000E+00  0.64296286237E+03  0.64296286237E+03  0.25500000920E-02 0.  1.
       -2   -1    0    0    0  501  0.00000000000E+00  0.00000000000E+00 -0.12612464509E+04  0.12612464509E+04  0.25500000920E-02 0. -1.
    10030    2    1    2    0    0  0.00000000000E+00  0.00000000000E+00 -0.61828358855E+03  0.19042093133E+04  0.18010381764E+04 0.  0.
        2    1    3    3  502    0  0.53113987022E+03 -0.51960082441E+03  0.22876558679E+03  0.77744985187E+03  0.25500000920E-02 0.  1.
       -2    1    3    3    0  502 -0.53113987022E+03  0.51960082441E+03 -0.84704917534E+03  0.11267594614E+04  0.25500000920E-02 0. -1.
</event>
<event>
 5   0  0.8430513E-05  0.1780580E+04  0.7818609E-02  0.8716696E-01
       -1   -1    0    0    0  501  0.00000000000E+00  0.00000000000E+00  0.60073595392E+03  0.60073595395E+03  0.50400001928E-02 0. -1.
        1   -1    0    0  501    0  0.00000000000E+00  0.00000000000E+00 -0.13194083263E+04  0.13194083263E+04  0.50400001928E-02 0.  1.
    10030    2    1    2    0    0  0.00000000000E+00  0.00000000000E+00 -0.71867237238E+03  0.19201442803E+04  0.17805797028E+04 0.  0.
        5    1    3    3  502    0 -0.46587253693E+03  0.52236758789E+03 -0.95263110501E+03  0.11821308006E+04  0.46999998093E+01 0.  1.
       -5    1    3    3    0  502  0.46587253693E+03 -0.52236758789E+03  0.23395873263E+03  0.73801347963E+03  0.46999998093E+01 0. -1.
</event>
<event>
 5   0  0.5820500E-05  0.1804982E+04  0.7818609E-02  0.8703655E-01
       -3   -1    0    0    0  501  0.00000000000E+00  0.00000000000E+00  0.11062509060E+04  0.11062509106E+04  0.10100000352E+00 0.  1.
        3   -1    0    0  501    0  0.00000000000E+00  0.00000000000E+00 -0.73626146198E+03  0.73626146891E+03  0.10100000352E+00 0. -1.
    10030    2    1    2    0    0  0.00000000000E+00  0.00000000000E+00  0.36998944404E+03  0.18425123795E+04  0.18049819057E+04 0.  0.
        4    1    3    3  502    0 -0.44329873211E+03 -0.78102526943E+03  0.93840334612E+02  0.90295174770E+03  0.12699999809E+01 0.  1.
       -4    1    3    3    0  502  0.44329873211E+03  0.78102526943E+03  0.27614910943E+03  0.93956063185E+03  0.12699999809E+01 0. -1.
</event>
<event>
 5   0  0.8492114E-05  0.1801737E+04  0.7818609E-02  0.8705376E-01
        1   -1    0    0  501    0  0.00000000000E+00  0.00000000000E+00  0.79144471982E+03  0.79144471984E+03  0.50400001928E-02 0.  1.
       -1   -1    0    0    0  501  0.00000000000E+00  0.00000000000E+00 -0.10254208487E+04  0.10254208487E+04  0.50400001928E-02 0. -1.
    10030    2    1    2    0    0  0.00000000000E+00  0.00000000000E+00 -0.23397612885E+03  0.18168655685E+04  0.18017368468E+04 0.  0.
        2    1    3    3  502    0 -0.17552537974E+03  0.87747670374E+03 -0.22173224792E+03  0.92192175064E+03  0.25500000920E-02 0. -1.
       -2    1    3    3    0  502  0.17552537974E+03 -0.87747670374E+03 -0.12243880934E+02  0.89494381788E+03  0.25500000920E-02 0.  1.
</event>
<event>
 5   0  0.8430513E-05  0.1821308E+04  0.7818609E-02  0.8695049E-01
       -1   -1    0    0    0  501  0.00000000000E+00  0.00000000000E+00  0.76088052959E+03  0.76088052961E+03  0.50400001928E-02 0. -1.
        1   -1    0    0  501    0  0.00000000000E+00  0.00000000000E+00 -0.10899093754E+04  0.10899093754E+04  0.50400001928E-02 0.  1.
    10030    2    1    2    0    0  0.00000000000E+00  0.00000000000E+00 -0.32902884583E+03  0.18507899050E+04  0.18213081264E+04 0.  0.
        5    1    3    3  502    0 -0.53208481580E+03 -0.66656441905E+03 -0.48881404750E+03  0.98304813665E+03  0.46999998093E+01 0.  1.
       -5    1    3    3    0  502  0.53208481580E+03  0.66656441905E+03  0.15978520167E+03  0.86774176839E+03  0.46999998093E+01 0. -1.
</event>
<event>
 5   0  0.1608627E-04  0.1786864E+04  0.7818609E-02  0.8713317E-01
        2   -1    0    0  501    0  0.00000000000E+00  0.00000000000E+00  0.15824885008E+04  0.15824885008E+04  0.25500000920E-02 0.  1.
       -2   -1    0    0    0  501  0.00000000000E+00  0.00000000000E+00 -0.50440836467E+03  0.50440836468E+03  0.25500000920E-02 0. -1.
    10030    2    1    2    0    0  0.00000000000E+00  0.00000000000E+00  0.10780801362E+04  0.20868968655E+04  0.17868636622E+04 0.  0.
        2    1    3    3  502    0  0.11874596167E+03  0.82047971996E+03  0.92803118122E+03  0.12443992316E+04  0.25500000920E-02 0.  1.
       -2    1    3    3    0  502 -0.11874596167E+03 -0.82047971996E+03  0.15004895494E+03  0.84249763392E+03  0.25500000920E-02 0. -1.
</event>
<event>
 5   0  0.1608627E-04  0.1809699E+04  0.7818609E-02  0.8701159E-01
       -2   -1    0    0    0  501  0.00000000000E+00  0.00000000000E+00  0.13572790344E+04  0.13572790344E+04  0.25500000920E-02 0. -1.
        2   -1    0    0  501    0  0.00000000000E+00  0.00000000000E+00 -0.60323094569E+03  0.60323094570E+03  0.25500000920E-02 0.  1.
    10030    2    1    2    0    0  0.00000000000E+00  0.00000000000E+00  0.75404808866E+03  0.19605099801E+04  0.18096991081E+04 0.  0.
        2    1    3    3  502    0  0.11797936328E+03  0.16488735971E+03 -0.57830632696E+03  0.61281741111E+03  0.25500000920E-02 0.  1.
       -2    1    3    3    0  502 -0.11797936328E+03 -0.16488735971E+03  0.13323544156E+04  0.13476925689E+04  0.25500000920E-02 0. -1.
</event>
<event>
 5   0  0.8254914E-05  0.1826736E+04  0.7818609E-02  0.8692209E-01
       -1   -1    0    0    0  501  0.00000000000E+00  0.00000000000E+00  0.13637847619E+04  0.13637847619E+04  0.50400001928E-02 0.  1.
        1   -1    0    0  501    0  0.00000000000E+00  0.00000000000E+00 -0.61171032101E+03  0.61171032103E+03  0.50400001928E-02 0. -1.
    10030    2    1    2    0    0  0.00000000000E+00  0.00000000000E+00  0.75207444091E+03  0.19754950830E+04  0.18267361217E+04 0.  0.
        4    1    3    3  502    0 -0.37459553060E+03  0.25781524579E+03  0.12326595345E+04  0.13138651580E+04  0.12699999809E+01 0.  1.
       -4    1    3    3    0  502  0.37459553060E+03 -0.25781524579E+03 -0.48058509360E+03  0.66162992496E+03  0.12699999809E+01 0. -1.
</event>
<event>
 5   0  0.1549012E-04  0.1758624E+04  0.7818609E-02  0.8728617E-01
        2   -1    0    0  501    0  0.00000000000E+00  0.00000000000E+00  0.13349693644E+04  0.13349693644E+04  0.25500000920E-02 0. -1.
       -2   -1    0    0    0  501  0.00000000000E+00  0.00000000000E+00 -0.57918159242E+03  0.57918159242E+03  0.25500000920E-02 0.  1.
    10030    2    1    2    0    0  0.00000000000E+00  0.00000000000E+00  0.75578777197E+03  0.19141509568E+04  0.17586241012E+04 0.  0.
        4    1    3    3  502    0 -0.85607727341E+03 -0.12908937853E+03  0.21048785491E+03  0.89097649557E+03  0.12699999809E+01 0.  1.
       -4    1    3    3    0  502  0.85607727341E+03  0.12908937853E+03  0.54529991706E+03  0.10231744612E+04  0.12699999809E+01 0. -1.
</event>
<event>
 5   0  0.5820500E-05  0.1821847E+04  0.7818609E-02  0.8694767E-01
       -3   -1    0    0    0  501  0.00000000000E+00  0.00000000000E+00  0.14128206404E+04  0.14128206441E+04  0.10100000352E+00 0.  1.
        3   -1    0    0  501    0  0.00000000000E+00  0.00000000000E+00 -0.58732289421E+03  0.58732290289E+03  0.10100000352E+00 0. -1.
    10030    2    1    2    0    0  0.00000000000E+00  0.00000000000E+00  0.82549774623E+03  0.20001435469E+04  0.18218473260E+04 0.  0.
        5    1    3    3  502    0  0.18369333043E+03 -0.54481861919E+03 -0.36292971509E+03  0.67993428767E+03  0.46999998093E+01 0. -1.
       -5    1    3    3    0  502 -0.18369333043E+03  0.54481861919E+03  0.11884274613E+04  0.13202092593E+04  0.46999998093E+01 0.  1.
</event>
<event>
 5   0  0.5820500E-05  0.1799007E+04  0.7818609E-02  0.8706828E-01
       -3   -1    0    0    0  501  0.00000000000E+00  0.00000000000E+00  0.21966190918E+04  0.21966190941E+04  0.10100000352E+00 0. -1.
        3   -1    0    0  501    0  0.00000000000E+00  0.00000000000E+00 -0.36834190441E+03  0.36834191826E+03  0.10100000352E+00 0.  1.
    10030    2    1    2    0    0  0.00000000000E+00  0.00000000000E+00  0.18282771874E+04  0.25649610124E+04  0.17990073710E+04 0.  0.
        4    1    3    3  502    0  0.81082631176E+03 -0.88466668322E+02  0.37340036884E+03  0.89704799626E+03  0.12699999809E+01 0.  1.
       -4    1    3    3    0  502 -0.81082631176E+03  0.88466668322E+02  0.14548768185E+04  0.16679130161E+04  0.12699999809E+01 0. -1.
</event>
<event>
 5   0  0.8132598E-05  0.1807546E+04  0.7818609E-02  0.8702297E-01
       -1   -1    0    0    0  501  0.00000000000E+00  0.00000000000E+00  0.98636710190E+03  0.98636710191E+03  0.50400001928E-02 0.  1.
        1   -1    0    0  501    0  0.00000000000E+00  0.00000000000E+00 -0.82809533658E+03  0.82809533659E+03  0.50400001928E-02 0. -1.
    10030    2    1    2    0    0  0.00000000000E+00  0.00000000000E+00  0.15827176532E+03  0.18144624385E+04  0.18075464002E+04 0.  0.
        3    1    3    3  502    0  0.33961770385E+02 -0.68409612864E+03  0.67102323307E+03  0.95886031547E+03  0.10100000352E+00 0.  1.
       -3    1    3    3    0  502 -0.33961770385E+02  0.68409612864E+03 -0.51275146775E+03  0.85560212303E+03  0.10100000352E+00 0. -1.
</event>
<event>
 5   0  0.1608627E-04  0.1812909E+04  0.7818609E-02  0.8699465E-01
        2   -1    0    0  501    0  0.00000000000E+00  0.00000000000E+00  0.18798284657E+04  0.18798284657E+04  0.25500000920E-02 0.  1.
       -2   -1    0    0    0  501  0.00000000000E+00  0.00000000000E+00 -0.43709272276E+03  0.43709272277E+03  0.25500000920E-02 0. -1.
    10030    2    1    2    0    0  0.00000000000E+00  0.00000000000E+00  0.14427357430E+04  0.23169211885E+04  0.18129085387E+04 0.  0.
        2    1    3    3  502    0 -0.38429690085E+03  0.91854746438E+02  0.17639776069E+04  0.18076886900E+04  0.25500000920E-02 0.  1.
       -2    1    3    3    0  502  0.38429690085E+03 -0.91854746438E+02 -0.32124186387E+03  0.50923249852E+03  0.25500000920E-02 0. -1.
</event>
<event>
 5   0  0.8206783E-05  0.1807506E+04  0.7818609E-02  0.8702318E-01
       -1   -1    0    0    0  501  0.00000000000E+00  0.00000000000E+00  0.78302418070E+03  0.78302418072E+03  0.50400001928E-02 0. -1.
        1   -1    0    0  501    0  0.00000000000E+00  0.00000000000E+00 -0.10430965657E+04  0.10430965657E+04  0.50400001928E-02 0.  1.
    10030    2    1    2    0    0  0.00000000000E+00  0.00000000000E+00 -0.26007238498E+03  0.18261207464E+04  0.18075063859E+04 0.  0.
        1    1    3    3  502    0 -0.36111442969E+03 -0.62722820591E+03 -0.67685963900E+03  0.99093785101E+03  0.50400001928E-02 0.  1.
       -1    1    3    3    0  502  0.36111442969E+03  0.62722820591E+03  0.41678725402E+03  0.83518289540E+03  0.50400001928E-02 0. -1.
</event>
<event>
 5   0  0.1608627E-04  0.1830448E+04  0.7818609E-02  0.8690273E-01
        2   -1    0    0  501    0  0.00000000000E+00  0.00000000000E+00  0.10030763865E+04  0.10030763865E+04  0.25500000920E-02 0.  1.
       -2   -1    0    0    0  501  0.00000000000E+00  0.00000000000E+00 -0.83506623749E+03  0.83506623749E+03  0.25500000920E-02 0. -1.
    10030    2    1    2    0    0  0.00000000000E+00  0.00000000000E+00  0.16801014902E+03  0.18381426240E+04  0.18304482773E+04 0.  0.
        2    1    3    3  502    0 -0.22819811830E+02 -0.67073222445E+03 -0.54089099336E+03  0.86195448107E+03  0.25500000920E-02 0. -1.
       -2    1    3    3    0  502  0.22819811830E+02  0.67073222445E+03  0.70890114238E+03  0.97618814293E+03  0.25500000920E-02 0.  1.
</event>
<event>
 5   0  0.1608627E-04  0.1795127E+04  0.7818609E-02  0.8708895E-01
        2   -1    0    0  501    0  0.00000000000E+00  0.00000000000E+00  0.20001737158E+04  0.20001737158E+04  0.25500000920E-02 0. -1.
       -2   -1    0    0    0  501  0.00000000000E+00  0.00000000000E+00 -0.40277504791E+03  0.40277504792E+03  0.25500000920E-02 0.  1.
    10030    2    1    2    0    0  0.00000000000E+00  0.00000000000E+00  0.15973986679E+04  0.24029487637E+04  0.17951268080E+04 0.  0.
        2    1    3    3  502    0  0.59958320574E+03 -0.31159023064E+03  0.15895267824E+04  0.17271895914E+04  0.25500000920E-02 0. -1.
       -2    1    3    3    0  502 -0.59958320574E+03  0.31159023064E+03  0.78718854598E+01  0.67575917236E+03  0.25500000920E-02 0.  1.
</event>
<event>
 5   0  0.8132598E-05  0.1797972E+04  0.7818609E-02  0.8707379E-01
        1   -1    0    0  501    0  0.00000000000E+00  0.00000000000E+00  0.16674407797E+04  0.16674407797E+04  0.50400001928E-02 0.  1.
       -1   -1    0    0    0  501  0.00000000000E+00  0.00000000000E+00 -0.48468046694E+03  0.48468046696E+03  0.50400001928E-02 0. -1.
    10030    2    1    2    0    0  0.00000000000E+00  0.00000000000E+00  0.11827603128E+04  0.21521212467E+04  0.17979721641E+04 0.  0.
        3    1    3    3  502    0 -0.18562402552E+03  0.19565205030E+03 -0.43511613248E+03  0.51191997673E+03  0.10100000352E+00 0. -1.
       -3    1    3    3    0  502  0.18562402552E+03 -0.19565205030E+03  0.16178764453E+04  0.16402012699E+04  0.10100000352E+00 0.  1.
</event>
<event>
 5   0  0.8206783E-05  0.1806027E+04  0.7818609E-02  0.8703101E-01
       -1   -1    0    0    0  501  0.00000000000E+00  0.00000000000E+00  0.83926032423E+03  0.83926032424E+03  0.50400001928E-02 0. -1.
        1   -1    0    0  501    0  0.00000000000E+00  0.00000000000E+00 -0.97160953138E+03  0.97160953140E+03  0.50400001928E-02 0.  1.
    10030    2    1    2    0    0  0.00000000000E+00  0.00000000000E+00 -0.13234920716E+03  0.18108698556E+04  0.18060269437E+04 0.  0.
        1    1    3    3  502    0  0.10575455229E+02  0.70708718582E+03 -0.62924005691E+03  0.94658712111E+03  0.50400001928E-02 0.  1.
       -1    1    3    3    0  502 -0.10575455229E+02 -0.70708718582E+03  0.49689084976E+03  0.86428273453E+03  0.50400001928E-02 0. -1.
</event>
<event>
 5   0  0.8132598E-05  0.1797293E+04  0.7818609E-02  0.8707740E-01
        1   -1    0    0  501    0  0.00000000000E+00  0.00000000000E+00  0.19540413651E+04  0.19540413651E+04  0.50400001928E-02 0. -1.
       -1   -1    0    0    0  501  0.00000000000E+00  0.00000000000E+00 -0.41327970998E+03  0.41327971001E+03  0.50400001928E-02 0.  1.
    10030    2    1    2    0    0  0.00000000000E+00  0.00000000000E+00  0.15407616551E+04  0.23673210751E+04  0.17972931299E+04 0.  0.
        3    1    3    3  502    0 -0.50856837819E+03 -0.86774704389E+02  0.17395396798E+04  0.18144337829E+04  0.10100000352E+00 0. -1.
       -3    1    3    3    0  502  0.50856837819E+03  0.86774704389E+02 -0.19877802469E+03  0.55288729223E+03  0.10100000352E+00 0.  1.
</event>
<event>
 5   0  0.5820500E-05  0.1793327E+04  0.7818609E-02  0.8709856E-01
       -3   -1    0    0    0  501  0.00000000000E+00  0.00000000000E+00  0.38240421874E+03  0.38240423208E+03  0.10100000352E+00 0.  1.
        3   -1    0    0  501    0  0.00000000000E+00  0.00000000000E+00 -0.21025022404E+04  0.21025022428E+04  0.10100000352E+00 0. -1.
    10030    2    1    2    0    0  0.00000000000E+00  0.00000000000E+00 -0.17200980216E+04  0.24849064749E+04  0.17933273502E+04 0.  0.
        3    1    3    3  502    0  0.78453250685E+03 -0.31874902710E+03 -0.12685510172E+04  0.15252258488E+04  0.10100000352E+00 0. -1.
       -3    1    3    3    0  502 -0.78453250685E+03  0.31874902710E+03 -0.45154700448E+03  0.95968062607E+03  0.10100000352E+00 0.  1.
</event>
<event>
 5   0  0.8254914E-05  0.1801962E+04  0.7818609E-02  0.8705257E-01
       -1   -1    0    0    0  501  0.00000000000E+00  0.00000000000E+00  0.49584208997E+03  0.49584208999E+03  0.50400001928E-02 0. -1.
        1   -1    0    0  501    0  0.00000000000E+00  0.00000000000E+00 -0.16371482449E+04  0.16371482449E+04  0.50400001928E-02 0.  1.
    10030    2    1    2    0    0  0.00000000000E+00  0.00000000000E+00 -0.11413061549E+04  0.21329903349E+04  0.18019622719E+04 0.  0.
        4    1    3    3  502    0 -0.62947468964E+03 -0.35253827022E+03  0.68156651102E+02  0.72468514463E+03  0.12699999809E+01 0. -1.
       -4    1    3    3    0  502  0.62947468964E+03  0.35253827022E+03 -0.12094628060E+04  0.14083051903E+04  0.12699999809E+01 0.  1.
</event>
<event>
 5   0  0.8254914E-05  0.1799413E+04  0.7818609E-02  0.8706612E-01
        1   -1    0    0  501    0  0.00000000000E+00  0.00000000000E+00  0.18957799506E+04  0.18957799506E+04  0.50400001928E-02 0. -1.
       -1   -1    0    0    0  501  0.00000000000E+00  0.00000000000E+00 -0.42698610845E+03  0.42698610848E+03  0.50400001928E-02 0.  1.
    10030    2    1    2    0    0  0.00000000000E+00  0.00000000000E+00  0.14687938422E+04  0.23227660591E+04  0.17994129083E+04 0.  0.
        4    1    3    3  502    0  0.69457990692E+03 -0.45829164142E+03  0.29286394544E+03  0.88218103535E+03  0.12699999809E+01 0.  1.
       -4    1    3    3    0  502 -0.69457990692E+03  0.45829164142E+03  0.11759298967E+04  0.14405850237E+04  0.12699999809E+01 0. -1.
</event>
<event>
 5   0  0.1573981E-04  0.1793716E+04  0.7818609E-02  0.8709648E-01
        2   -1    0    0  501    0  0.00000000000E+00  0.00000000000E+00  0.16230798618E+04  0.16230798618E+04  0.25500000920E-02 0.  1.
       -2   -1    0    0    0  501  0.00000000000E+00  0.00000000000E+00 -0.49557307344E+03  0.49557307345E+03  0.25500000920E-02 0. -1.
    10030    2    1    2    0    0  0.00000000000E+00  0.00000000000E+00  0.11275067883E+04  0.21186529352E+04  0.17937164498E+04 0.  0.
        1    1    3    3  502    0  0.62209622230E+03  0.68227612889E+02 -0.19503579746E+03  0.65551329451E+03  0.50400001928E-02 0. -1.
       -1    1    3    3    0  502 -0.62209622230E+03 -0.68227612889E+02  0.13225425858E+04  0.14631396407E+04  0.50400001928E-02 0.  1.
</event>
<event>
 5   0  0.1628397E-04  0.1789113E+04  0.7818609E-02  0.8712111E-01
       -2   -1    0    0    0  501  0.00000000000E+00  0.00000000000E+00  0.64866312851E+03  0.64866312851E+03  0.25500000920E-02 0.  1.
        2   -1    0    0  501    0  0.00000000000E+00  0.00000000000E+00 -0.12336619519E+04  0.12336619519E+04  0.25500000920E-02 0. -1.
    10030    2    1    2    0    0  0.00000000000E+00  0.00000000000E+00 -0.58499882337E+03  0.18823250804E+04  0.17891126529E+04 0.  0.
        3    1    3    3  502    0  0.13301865305E+02 -0.53879502498E+03 -0.10436677250E+04  0.11746145533E+04  0.10100000352E+00 0. -1.
       -3    1    3    3    0  502 -0.13301865305E+02  0.53879502498E+03  0.45866890162E+03  0.70771052704E+03  0.10100000352E+00 0.  1.
</event>
<event>
 5   0  0.5820500E-05  0.1787293E+04  0.7818609E-02  0.8713086E-01
       -3   -1    0    0    0  501  0.00000000000E+00  0.00000000000E+00  0.73866164513E+03  0.73866165204E+03  0.10100000352E+00 0. -1.
        3   -1    0    0  501    0  0.00000000000E+00  0.00000000000E+00 -0.10811495964E+04  0.10811496012E+04  0.10100000352E+00 0.  1.
    10030    2    1    2    0    0  0.00000000000E+00  0.00000000000E+00 -0.34248795131E+03  0.18198112532E+04  0.17872926455E+04 0.  0.
        4    1    3    3  502    0  0.52710196426E+03 -0.32681446821E+03 -0.82634578199E+03  0.10331955970E+04  0.12699999809E+01 0.  1.
       -4    1    3    3    0  502 -0.52710196426E+03  0.32681446821E+03  0.48385783068E+03  0.78661565619E+03  0.12699999809E+01 0. -1.
</event>
<event>
 5   0  0.1608627E-04  0.1800515E+04  0.7818609E-02  0.8706026E-01
       -2   -1    0    0    0  501  0.00000000000E+00  0.00000000000E+00  0.38536697058E+03  0.38536697059E+03  0.25500000920E-02 0. -1.
        2   -1    0    0  501    0  0.00000000000E+00  0.00000000000E+00 -0.21030946678E+04  0.21030946678E+04  0.25500000920E-02 0.  1.
    10030    2    1    2    0    0  0.00000000000E+00  0.00000000000E+00 -0.17177276972E+04  0.24884616384E+04  0.18005146164E+04 0.  0.
        2    1    3    3  502    0  0.76120873779E+03 -0.12008677767E+03 -0.15020951622E+04  0.16882385652E+04  0.25500000920E-02 0.  1.
       -2    1    3    3    0  502 -0.76120873779E+03  0.12008677767E+03 -0.21563253495E+03  0.80022307314E+03  0.25500000920E-02 0. -1.
</event>
<event>
 5   0  0.1549012E-04  0.1807043E+04  0.7818609E-02  0.8702563E-01
        2   -1    0    0  501    0  0.00000000000E+00  0.00000000000E+00  0.16902977162E+04  0.16902977162E+04  0.25500000920E-02 0. -1.
       -2   -1    0    0    0  501  0.00000000000E+00  0.00000000000E+00 -0.48296284004E+03  0.48296284005E+03  0.25500000920E-02 0.  1.
    10030    2    1    2    0    0  0.00000000000E+00  0.00000000000E+00  0.12073348761E+04  0.21732605562E+04  0.18070428722E+04 0.  0.
        4    1    3    3  502    0  0.67588831137E+03 -0.65227200734E+02  0.13205078359E+04  0.14848643557E+04  0.12699999809E+01 0. -1.
       -4    1    3    3    0  502 -0.67588831137E+03  0.65227200734E+02 -0.11317295981E+03  0.68839620052E+03  0.12699999809E+01 0.  1.
</event>
<event>
 5   0  0.8254914E-05  0.1805987E+04  0.7818609E-02  0.8703122E-01
       -1   -1    0    0    0  501  0.00000000000E+00  0.00000000000E+00  0.91109913497E+03  0.91109913499E+03  0.50400001928E-02 0. -1.
        1   -1    0    0  501    0  0.00000000000E+00  0.00000000000E+00 -0.89496022152E+03  0.89496022153E+03  0.50400001928E-02 0.  1.
    10030    2    1    2    0    0  0.00000000000E+00  0.00000000000E+00  0.16138913455E+02  0.18060593565E+04  0.18059872466E+04 0.  0.
        4    1    3    3  502    0  0.31813361655E+03  0.79467043512E+03 -0.27949336334E+03  0.90046002215E+03  0.12699999809E+01 0.  1.
       -4    1    3    3    0  502 -0.31813361655E+03 -0.79467043512E+03  0.29563227679E+03  0.90559933437E+03  0.12699999809E+01 0. -1.
</event>
<event>
 5   0  0.1603564E-04  0.1816019E+04  0.7818609E-02  0.8697827E-01
       -2   -1    0    0    0  501  0.00000000000E+00  0.00000000000E+00  0.11744309831E+04  0.11744309832E+04  0.25500000920E-02 0. -1.
        2   -1    0    0  501    0  0.00000000000E+00  0.00000000000E+00 -0.70202603735E+03  0.70202603735E+03  0.25500000920E-02 0.  1.
    10030    2    1    2    0    0  0.00000000000E+00  0.00000000000E+00  0.47240494580E+03  0.18764570205E+04  0.18160188647E+04 0.  0.
        5    1    3    3  502    0  0.47311491252E+03 -0.62394318146E+03  0.71119271503E+03  0.10578090480E+04  0.46999998093E+01 0. -1.
       -5    1    3    3    0  502 -0.47311491252E+03  0.62394318146E+03 -0.23878776923E+03  0.81864797250E+03  0.46999998093E+01 0.  1.
</event>
<event>
 5   0  0.1573981E-04  0.1797972E+04  0.7818609E-02  0.8707379E-01
        2   -1    0    0  501    0  0.00000000000E+00  0.00000000000E+00  0.10963103399E+04  0.10963103399E+04  0.25500000920E-02 0.  1.
       -2   -1    0    0    0  501  0.00000000000E+00  0.00000000000E+00 -0.73717789154E+03  0.73717789155E+03  0.25500000920E-02 0. -1.
    10030    2    1    2    0    0  0.00000000000E+00  0.00000000000E+00  0.35913244831E+03  0.18334882314E+04  0.17979719073E+04 0.  0.
        1    1    3    3  502    0  0.12024944597E+03  0.36735821732E+03 -0.64810922543E+03  0.75462411650E+03  0.50400001928E-02 0. -1.
       -1    1    3    3    0  502 -0.12024944597E+03 -0.36735821732E+03  0.10072416737E+04  0.10788641149E+04  0.50400001928E-02 0.  1.
</event>
<event>
 5   0  0.8254914E-05  0.1809207E+04  0.7818609E-02  0.8701419E-01
        1   -1    0    0  501    0  0.00000000000E+00  0.00000000000E+00  0.22300995321E+04  0.22300995321E+04  0.50400001928E-02 0. -1.
       -1   -1    0    0    0  501  0.00000000000E+00  0.00000000000E+00 -0.36693757330E+03  0.36693757334E+03  0.50400001928E-02 0.  1.
    10030    2    1    2    0    0  0.00000000000E+00  0.00000000000E+00  0.18631619588E+04  0.25970371054E+04  0.18092067992E+04 0.  0.
        4    1    3    3  502    0  0.84179257404E+03  0.29965242661E+03  0.72908810232E+03  0.11532464560E+04  0.12699999809E+01 0.  1.
       -4    1    3    3    0  502 -0.84179257404E+03 -0.29965242661E+03  0.11340738564E+04  0.14437906494E+04  0.12699999809E+01 0. -1.
</event>
<event>
 5   0  0.8132598E-05  0.1789506E+04  0.7818609E-02  0.8711900E-01
       -1   -1    0    0    0  501  0.00000000000E+00  0.00000000000E+00  0.33084766462E+03  0.33084766466E+03  0.50400001928E-02 0.  1.
        1   -1    0    0  501    0  0.00000000000E+00  0.00000000000E+00 -0.24197922270E+04  0.24197922270E+04  0.50400001928E-02 0. -1.
    10030    2    1    2    0    0  0.00000000000E+00  0.00000000000E+00 -0.20889445624E+04  0.27506398917E+04  0.17895056382E+04 0.  0.
        3    1    3    3  502    0 -0.13479640601E+03  0.82196932686E+03 -0.54219504893E+03  0.99387077966E+03  0.10100000352E+00 0.  1.
       -3    1    3    3    0  502  0.13479640601E+03 -0.82196932686E+03 -0.15467495135E+04  0.17567691120E+04  0.10100000352E+00 0. -1.
</event>
<event>
 5   0  0.1549012E-04  0.1816181E+04  0.7818609E-02  0.8697742E-01
        2   -1    0    0  501    0  0.00000000000E+00  0.00000000000E+00  0.20281873097E+04  0.20281873097E+04  0.25500000920E-02 0. -1.
       -2   -1    0    0    0  501  0.00000000000E+00  0.00000000000E+00 -0.40658402621E+03  0.40658402622E+03  0.25500000920E-02 0.  1.
    10030    2    1    2    0    0  0.00000000000E+00  0.00000000000E+00  0.16216032835E+04  0.24347713359E+04  0.18161812270E+04 0.  0.
        4    1    3    3  502    0 -0.33609322771E+02 -0.86706161898E+03  0.45182750975E+03  0.97830217681E+03  0.12699999809E+01 0.  1.
       -4    1    3    3    0  502  0.33609322771E+02  0.86706161898E+03  0.11697757737E+04  0.14564691591E+04  0.12699999809E+01 0. -1.
</event>
<event>
 5   0  0.1628397E-04  0.1801217E+04  0.7818609E-02  0.8705653E-01
        2   -1    0    0  501    0  0.00000000000E+00  0.00000000000E+00  0.82226480364E+03  0.82226480364E+03  0.25500000920E-02 0. -1.
       -2   -1    0    0    0  501  0.00000000000E+00  0.00000000000E+00 -0.98641636316E+03  0.98641636317E+03  0.25500000920E-02 0.  1.
    10030    2    1    2    0    0  0.00000000000E+00  0.00000000000E+00 -0.16415155953E+03  0.18086811668E+04  0.18012167634E+04 0.  0.
        3    1    3    3  502    0 -0.16921923161E+03 -0.52176600006E+03  0.63518156680E+03  0.83924402897E+03  0.10100000352E+00 0. -1.
       -3    1    3    3    0  502  0.16921923161E+03  0.52176600006E+03 -0.79933312633E+03  0.96943713783E+03  0.10100000352E+00 0.  1.
</event>
<event>
 5   0  0.1608627E-04  0.1812889E+04  0.7818609E-02  0.8699475E-01
       -2   -1    0    0    0  501  0.00000000000E+00  0.00000000000E+00  0.40516383579E+03  0.40516383579E+03  0.25500000920E-02 0. -1.
        2   -1    0    0  501    0  0.00000000000E+00  0.00000000000E+00 -0.20279236443E+04  0.20279236443E+04  0.25500000920E-02 0.  1.
    10030    2    1    2    0    0  0.00000000000E+00  0.00000000000E+00 -0.16227598085E+04  0.24330874801E+04  0.18128886589E+04 0.  0.
        2    1    3    3  502    0  0.12980130185E+03 -0.18075718085E+03 -0.19906924881E+04  0.20030921393E+04  0.25500000920E-02 0.  1.
       -2    1    3    3    0  502 -0.12980130185E+03  0.18075718085E+03  0.36793267958E+03  0.42999534079E+03  0.25500000920E-02 0. -1.
</event>
<event>
 5   0  0.1608627E-04  0.1810998E+04  0.7818609E-02  0.8700473E-01
        2   -1    0    0  501    0  0.00000000000E+00  0.00000000000E+00  0.10848803533E+04  0.10848803533E+04  0.25500000920E-02 0.  1.
       -2   -1    0    0    0  501  0.00000000000E+00  0.00000000000E+00 -0.75577770366E+03  0.75577770367E+03  0.25500000920E-02 0. -1.
    10030    2    1    2    0    0  0.00000000000E+00  0.00000000000E+00  0.32910264967E+03  0.18406580570E+04  0.18109979373E+04 0.  0.
        2    1    3    3  502    0 -0.27918930307E+03 -0.37465093045E+03  0.95289522951E+03  0.10612819159E+04  0.25500000920E-02 0.  1.
       -2    1    3    3    0  502  0.27918930307E+03  0.37465093045E+03 -0.62379257983E+03  0.77937614109E+03  0.25500000920E-02 0. -1.
</event>
<event>
 5   0  0.1549012E-04  0.1797487E+04  0.7818609E-02  0.8707637E-01
       -2   -1    0    0    0  501  0.00000000000E+00  0.00000000000E+00  0.12859567945E+04  0.12859567945E+04  0.25500000920E-02 0.  1.
        2   -1    0    0  501    0  0.00000000000E+00  0.00000000000E+00 -0.62812334029E+03  0.62812334029E+03  0.25500000920E-02 0. -1.
    10030    2    1    2    0    0  0.00000000000E+00  0.00000000000E+00  0.65783345419E+03  0.19140801348E+04  0.17974865532E+04 0.  0.
        4    1    3    3  502    0  0.11043511984E+03  0.81104160879E+03  0.72414292074E+03  0.10928718998E+04  0.12699999809E+01 0.  1.
       -4    1    3    3    0  502 -0.11043511984E+03 -0.81104160879E+03 -0.66309466543E+02  0.82120823495E+03  0.12699999809E+01 0. -1.
</event>
<event>
 5   0  0.1603564E-04  0.1798296E+04  0.7818609E-02  0.8707206E-01
       -2   -1    0    0    0  501  0.00000000000E+00  0.00000000000E+00  0.54441427786E+03  0.54441427786E+03  0.25500000920E-02 0. -1.
        2   -1    0    0  501    0  0.00000000000E+00  0.00000000000E+00 -0.14850215384E+04  0.14850215384E+04  0.25500000920E-02 0.  1.
    10030    2    1    2    0    0  0.00000000000E+00  0.00000000000E+00 -0.94060726056E+03  0.20294358163E+04  0.17982957804E+04 0.  0.
        5    1    3    3  502    0 -0.86534906736E+03 -0.11985260017E+03 -0.23023845161E+03  0.90345198475E+03  0.46999998093E+01 0.  1.
       -5    1    3    3    0  502  0.86534906736E+03  0.11985260017E+03 -0.71036880895E+03  0.11259838315E+04  0.46999998093E+01 0. -1.
</event>
<event>
 5   0  0.1603564E-04  0.1800390E+04  0.7818609E-02  0.8706092E-01
       -2   -1    0    0    0  501  0.00000000000E+00  0.00000000000E+00  0.76214338549E+03  0.76214338549E+03  0.25500000920E-02 0. -1.
        2   -1    0    0  501    0  0.00000000000E+00  0.00000000000E+00 -0.10632523342E+04  0.10632523342E+04  0.25500000920E-02 0.  1.
    10030    2    1    2    0    0  0.00000000000E+00  0.00000000000E+00 -0.30110894869E+03  0.18253957197E+04  0.18003896618E+04 0.  0.
        5    1    3    3  502    0 -0.11986906730E+02  0.49320385940E+03 -0.91396319684E+03  0.10386262793E+04  0.46999998093E+01 0.  1.
       -5    1    3    3    0  502  0.11986906730E+02 -0.49320385940E+03  0.61285424815E+03  0.78676944039E+03  0.46999998093E+01 0. -1.
</event>
<event>
 5   0  0.1628397E-04  0.1801612E+04  0.7818609E-02  0.8705443E-01
       -2   -1    0    0    0  501  0.00000000000E+00  0.00000000000E+00  0.30099168608E+03  0.30099168609E+03  0.25500000920E-02 0.  1.
        2   -1    0    0  501    0  0.00000000000E+00  0.00000000000E+00 -0.26959263707E+04  0.26959263707E+04  0.25500000920E-02 0. -1.
    10030    2    1    2    0    0  0.00000000000E+00  0.00000000000E+00 -0.23949346846E+04  0.29969180568E+04  0.18016119714E+04 0.  0.
        3    1    3    3  502    0  0.39541532226E+03  0.62160188896E+03 -0.20597604210E+04  0.21875454710E+04  0.10100000352E+00 0. -1.
       -3    1    3    3    0  502 -0.39541532226E+03 -0.62160188896E+03 -0.33517426357E+03  0.80937258577E+03  0.10100000352E+00 0.  1.
</event>
<event>
 5   0  0.8206783E-05  0.1803757E+04  0.7818609E-02  0.8704304E-01
       -1   -1    0    0    0  501  0.00000000000E+00  0.00000000000E+00  0.35857503396E+03  0.35857503399E+03  0.50400001928E-02 0. -1.
        1   -1    0    0  501    0  0.00000000000E+00  0.00000000000E+00 -0.22683799676E+04  0.22683799676E+04  0.50400001928E-02 0.  1.
    10030    2    1    2    0    0  0.00000000000E+00  0.00000000000E+00 -0.19098049336E+04  0.26269550016E+04  0.18037565512E+04 0.  0.
        1    1    3    3  502    0  0.78263404720E+03  0.24317727754E+03 -0.15031926670E+04  0.17120862812E+04  0.50400001928E-02 0.  1.
       -1    1    3    3    0  502 -0.78263404720E+03 -0.24317727754E+03 -0.40661226665E+03  0.91486872040E+03  0.50400001928E-02 0. -1.
</event>
<event>
 5   0  0.8206783E-05  0.1707336E+04  0.7818609E-02  0.8757192E-01
        1   -1    0    0  501    0  0.00000000000E+00  0.00000000000E+00  0.13393448515E+04  0.13393448515E+04  0.50400001928E-02 0. -1.
       -1   -1    0    0    0  501  0.00000000000E+00  0.00000000000E+00 -0.54410842099E+03  0.54410842101E+03  0.50400001928E-02 0.  1.
    10030    2    1    2    0    0  0.00000000000E+00  0.00000000000E+00  0.79523643055E+03  0.18834532726E+04  0.17073357167E+04 0.  0.
        1    1    3    3  502    0  0.85866060138E+02  0.64234370242E+03  0.10106087303E+04  0.12005450504E+04  0.50400001928E-02 0. -1.
       -1    1    3    3    0  502 -0.85866060138E+02 -0.64234370242E+03 -0.21537229975E+03  0.68290822213E+03  0.50400001928E-02 0.  1.
</event>
<event>
 5   0  0.1608627E-04  0.1761669E+04  0.7818609E-02  0.8726953E-01
        2   -1    0    0  501    0  0.00000000000E+00  0.00000000000E+00  0.14860509778E+04  0.14860509778E+04  0.25500000920E-02 0.  1.
       -2   -1    0    0    0  501  0.00000000000E+00  0.00000000000E+00 -0.52210136713E+03  0.52210136713E+03  0.25500000920E-02 0. -1.
    10030    2    1    2    0    0  0.00000000000E+00  0.00000000000E+00  0.96394961072E+03  0.20081523450E+04  0.17616688079E+04 0.  0.
        2    1    3    3  502    0  0.64930922973E+03 -0.25286727143E+03 -0.13223188852E+03  0.70924580021E+03  0.25500000920E-02 0. -1.
       -2    1    3    3    0  502 -0.64930922973E+03  0.25286727143E+03  0.10961814992E+04  0.12989065448E+04  0.25500000920E-02 0.  1.
</event>
<event>
 5   0  0.1549012E-04  0.1805921E+04  0.7818609E-02  0.8703157E-01
        2   -1    0    0  501    0  0.00000000000E+00  0.00000000000E+00  0.16137344269E+04  0.16137344269E+04  0.25500000920E-02 0.  1.
       -2   -1    0    0    0  501  0.00000000000E+00  0.00000000000E+00 -0.50524913622E+03  0.50524913623E+03  0.25500000920E-02 0. -1.
    10030    2    1    2    0    0  0.00000000000E+00  0.00000000000E+00  0.11084852906E+04  0.21189835631E+04  0.18059212887E+04 0.  0.
        4    1    3    3  502    0 -0.37203034861E+03 -0.15440887587E+03  0.15024744101E+04  0.15555319499E+04  0.12699999809E+01 0.  1.
       -4    1    3    3    0  502  0.37203034861E+03  0.15440887587E+03 -0.39398911948E+03  0.56345161318E+03  0.12699999809E+01 0. -1.
</event>
<event>
 5   0  0.8430513E-05  0.1818328E+04  0.7818609E-02  0.8696613E-01
       -1   -1    0    0    0  501  0.00000000000E+00  0.00000000000E+00  0.12242718061E+04  0.12242718061E+04  0.50400001928E-02 0.  1.
        1   -1    0    0  501    0  0.00000000000E+00  0.00000000000E+00 -0.67516003269E+03  0.67516003271E+03  0.50400001928E-02 0. -1.
    10030    2    1    2    0    0  0.00000000000E+00  0.00000000000E+00  0.54911177341E+03  0.18994318388E+04  0.18183282351E+04 0.  0.
        5    1    3    3  502    0 -0.52464204348E+03  0.71216361274E+03  0.49399973044E+03  0.10131555205E+04  0.46999998093E+01 0.  1.
       -5    1    3    3    0  502  0.52464204348E+03 -0.71216361274E+03  0.55112042975E+02  0.88627631830E+03  0.46999998093E+01 0. -1.
</event>
<event>
 5   0  0.1573981E-04  0.1779012E+04  0.7818609E-02  0.8717541E-01
       -2   -1    0    0    0  501  0.00000000000E+00  0.00000000000E+00  0.50723656083E+03  0.50723656083E+03  0.25500000920E-02 0. -1.
        2   -1    0    0  501    0  0.00000000000E+00  0.00000000000E+00 -0.15598660388E+04  0.15598660388E+04  0.25500000920E-02 0.  1.
    10030    2    1    2    0    0  0.00000000000E+00  0.00000000000E+00 -0.10526294780E+04  0.20671025997E+04  0.17790121808E+04 0.  0.
        1    1    3    3  502    0 -0.79863966811E+03 -0.45856239646E+02 -0.74362557821E+02  0.80340394835E+03  0.50400001928E-02 0. -1.
       -1    1    3    3    0  502  0.79863966811E+03  0.45856239646E+02 -0.97826692017E+03  0.12636986513E+04  0.50400001928E-02 0.  1.
</event>
<event>
 5   0  0.8430513E-05  0.1698152E+04  0.7818609E-02  0.8762419E-01
       -1   -1    0    0    0  501  0.00000000000E+00  0.00000000000E+00  0.51847258309E+03  0.51847258311E+03  0.50400001928E-02 0. -1.
        1   -1    0    0  501    0  0.00000000000E+00  0.00000000000E+00 -0.13904880947E+04  0.13904880947E+04  0.50400001928E-02 0.  1.
    10030    2    1    2    0    0  0.00000000000E+00  0.00000000000E+00 -0.87201551161E+03  0.19089606778E+04  0.16981518828E+04 0.  0.
        5    1    3    3  502    0  0.63769403668E+02 -0.64677439327E+03 -0.10502083491E+04  0.12350479016E+04  0.46999998093E+01 0.  1.
       -5    1    3    3    0  502 -0.63769403668E+02  0.64677439327E+03  0.17819283751E+03  0.67391277623E+03  0.46999998093E+01 0. -1.
</event>
<event>
 5   0  0.8254914E-05  0.1753691E+04  0.7818609E-02  0.8731321E-01
        1   -1    0    0  501    0  0.00000000000E+00  0.00000000000E+00  0.74828583218E+03  0.74828583219E+03  0.50400001928E-02 0.  1.
       -1   -1    0    0    0  501  0.00000000000E+00  0.00000000000E+00 -0.10274927396E+04  0.10274927396E+04  0.50400001928E-02 0. -1.
    10030    2    1    2    0    0  0.00000000000E+00  0.00000000000E+00 -0.27920690742E+03  0.17757785718E+04  0.17536912610E+04 0.  0.
        4    1    3    3  502    0 -0.47242528206E+03  0.16439539847E+03 -0.86884404563E+03  0.10025482944E+04  0.12699999809E+01 0. -1.
       -4    1    3    3    0  502  0.47242528206E+03 -0.16439539847E+03  0.58963713821E+03  0.77323027736E+03  0.12699999809E+01 0.  1.
</event>
<event>
 5   0  0.8206783E-05  0.1798445E+04  0.7818609E-02  0.8707127E-01
        1   -1    0    0  501    0  0.00000000000E+00  0.00000000000E+00  0.59035496139E+03  0.59035496141E+03  0.50400001928E-02 0. -1.
       -1   -1    0    0    0  501  0.00000000000E+00  0.00000000000E+00 -0.13696864171E+04  0.13696864171E+04  0.50400001928E-02 0.  1.
    10030    2    1    2    0    0  0.00000000000E+00  0.00000000000E+00 -0.77933145573E+03  0.19600413785E+04  0.17984450750E+04 0.  0.
        1    1    3    3  502    0  0.16531940709E+03  0.31879639449E+03 -0.12881435771E+04  0.13372641933E+04  0.50400001928E-02 0.  1.
       -1    1    3    3    0  502 -0.16531940709E+03 -0.31879639449E+03  0.50881212139E+03  0.62277718520E+03  0.50400001928E-02 0. -1.
</event>
<event>
 5   0  0.8206783E-05  0.1807522E+04  0.7818609E-02  0.8702309E-01
       -1   -1    0    0    0  501  0.00000000000E+00  0.00000000000E+00  0.55657671217E+03  0.55657671219E+03  0.50400001928E-02 0. -1.
        1   -1    0    0  501    0  0.00000000000E+00  0.00000000000E+00 -0.14675139501E+04  0.14675139501E+04  0.50400001928E-02 0.  1.
    10030    2    1    2    0    0  0.00000000000E+00  0.00000000000E+00 -0.91093723796E+03  0.20240906623E+04  0.18075221597E+04 0.  0.
        1    1    3    3  502    0  0.17316374110E+03 -0.88366519422E+03 -0.36920481253E+03  0.97322250813E+03  0.50400001928E-02 0.  1.
       -1    1    3    3    0  502 -0.17316374110E+03  0.88366519422E+03 -0.54173242543E+03  0.10508681542E+04  0.50400001928E-02 0. -1.
</event>
<event>
 5   0  0.8206783E-05  0.1710487E+04  0.7818609E-02  0.8755406E-01
       -1   -1    0    0    0  501  0.00000000000E+00  0.00000000000E+00  0.60113394317E+03  0.60113394319E+03  0.50400001928E-02 0.  1.
        1   -1    0    0  501    0  0.00000000000E+00  0.00000000000E+00 -0.12167689078E+04  0.12167689078E+04  0.50400001928E-02 0. -1.
    10030    2    1    2    0    0  0.00000000000E+00  0.00000000000E+00 -0.61563496467E+03  0.18179028510E+04  0.17104865875E+04 0.  0.
        1    1    3    3  502    0 -0.43495579079E+03 -0.35063100698E+03  0.38039076943E+03  0.67588888177E+03  0.50400001928E-02 0.  1.
       -1    1    3    3    0  502  0.43495579079E+03  0.35063100698E+03 -0.99602573410E+03  0.11420139693E+04  0.50400001928E-02 0. -1.
</event>
<event>
 5   0  0.8492114E-05  0.1805179E+04  0.7818609E-02  0.8703550E-01
        1   -1    0    0  501    0  0.00000000000E+00  0.00000000000E+00  0.17534229726E+04  0.17534229726E+04  0.50400001928E-02 0. -1.
       -1   -1    0    0    0  501  0.00000000000E+00  0.00000000000E+00 -0.46461588099E+03  0.46461588101E+03  0.50400001928E-02 0.  1.
    10030    2    1    2    0    0  0.00000000000E+00  0.00000000000E+00  0.12888070916E+04  0.22180388537E+04  0.18051793919E+04 0.  0.
        2    1    3    3  502    0  0.23762340859E+03  0.73550636089E+03  0.71723105516E+02  0.77625942513E+03  0.25500000920E-02 0.  1.
       -2    1    3    3    0  502 -0.23762340859E+03 -0.73550636089E+03  0.12170839861E+04  0.14417794285E+04  0.25500000920E-02 0. -1.
</event>
<event>
 5   0  0.8430513E-05  0.1801997E+04  0.7818609E-02  0.8705238E-01
        1   -1    0    0  501    0  0.00000000000E+00  0.00000000000E+00  0.97439682999E+03  0.97439683001E+03  0.50400001928E-02 0. -1.
       -1   -1    0    0    0  501  0.00000000000E+00  0.00000000000E+00 -0.83312920437E+03  0.83312920439E+03  0.50400001928E-02 0.  1.
    10030    2    1    2    0    0  0.00000000000E+00  0.00000000000E+00  0.14126762562E+03  0.18075260344E+04  0.18019971762E+04 0.  0.
        5    1    3    3  502    0  0.36567191722E+03  0.47187585817E+03 -0.60626524793E+03  0.85085981067E+03  0.46999998093E+01 0.  1.
       -5    1    3    3    0  502 -0.36567191722E+03 -0.47187585817E+03  0.74753287356E+03  0.95666622372E+03  0.46999998093E+01 0. -1.
</event>
<event>
 5   0  0.1628397E-04  0.1802247E+04  0.7818609E-02  0.8705106E-01
       -2   -1    0    0    0  501  0.00000000000E+00  0.00000000000E+00  0.73071650288E+03  0.73071650289E+03  0.25500000920E-02 0. -1.
        2   -1    0    0  501    0  0.00000000000E+00  0.00000000000E+00 -0.11112699306E+04  0.11112699306E+04  0.25500000920E-02 0.  1.
    10030    2    1    2    0    0  0.00000000000E+00  0.00000000000E+00 -0.38055342768E+03  0.18419864335E+04  0.18022466839E+04 0.  0.
        3    1    3    3  502    0  0.64537984100E+03 -0.24231227849E+03 -0.78341184509E+03  0.10435346227E+04  0.10100000352E+00 0.  1.
       -3    1    3    3    0  502 -0.64537984100E+03  0.24231227849E+03  0.40285841740E+03  0.79845181079E+03  0.10100000352E+00 0. -1.
</event>
<event>
 5   0  0.8132598E-05  0.1806000E+04  0.7818609E-02  0.8703115E-01
        1   -1    0    0  501    0  0.00000000000E+00  0.00000000000E+00  0.89725200840E+03  0.89725200842E+03  0.50400001928E-02 0.  1.
       -1   -1    0    0    0  501  0.00000000000E+00  0.00000000000E+00 -0.90878528038E+03  0.90878528040E+03  0.50400001928E-02 0. -1.
    10030    2    1    2    0    0  0.00000000000E+00  0.00000000000E+00 -0.11533271977E+02  0.18060372888E+04  0.18060004630E+04 0.  0.
        3    1    3    3  502    0  0.44457988498E+03 -0.12542008322E+03 -0.78168704969E+03  0.90797363688E+03  0.10100000352E+00 0. -1.
       -3    1    3    3    0  502 -0.44457988498E+03  0.12542008322E+03  0.77015377771E+03  0.89806365194E+03  0.10100000352E+00 0.  1.
</event>
<event>
 5   0  0.8492114E-05  0.1797840E+04  0.7818609E-02  0.8707449E-01
       -1   -1    0    0    0  501  0.00000000000E+00  0.00000000000E+00  0.68975361278E+03  0.68975361279E+03  0.50400001928E-02 0. -1.
        1   -1    0    0  501    0  0.00000000000E+00  0.00000000000E+00 -0.11715162641E+04  0.11715162641E+04  0.50400001928E-02 0.  1.
    10030    2    1    2    0    0  0.00000000000E+00  0.00000000000E+00 -0.48176265136E+03  0.18612698769E+04  0.17978404553E+04 0.  0.
        2    1    3    3  502    0  0.63672498525E+03 -0.31818787338E+03  0.32748255505E+03  0.78352220995E+03  0.25500000920E-02 0. -1.
       -2    1    3    3    0  502 -0.63672498525E+03  0.31818787338E+03 -0.80924520641E+03  0.10777476670E+04  0.25500000920E-02 0.  1.
</event>
<event>
 5   0  0.1603564E-04  0.1808799E+04  0.7818609E-02  0.8701634E-01
        2   -1    0    0  501    0  0.00000000000E+00  0.00000000000E+00  0.14561624232E+04  0.14561624232E+04  0.25500000920E-02 0.  1.
       -2   -1    0    0    0  501  0.00000000000E+00  0.00000000000E+00 -0.56170825902E+03  0.56170825903E+03  0.25500000920E-02 0. -1.
    10030    2    1    2    0    0  0.00000000000E+00  0.00000000000E+00  0.89445416416E+03  0.20178706822E+04  0.18087990044E+04 0.  0.
        5    1    3    3  502    0  0.23357662251E+03  0.41056362931E+03 -0.41314632878E+03  0.62756076301E+03  0.46999998093E+01 0. -1.
       -5    1    3    3    0  502 -0.23357662251E+03 -0.41056362931E+03  0.13076004929E+04  0.13903099192E+04  0.46999998093E+01 0.  1.
</event>
<event>
 5   0  0.1628397E-04  0.1907341E+04  0.7818609E-02  0.8651211E-01
       -2   -1    0    0    0  501  0.00000000000E+00  0.00000000000E+00  0.60039100075E+03  0.60039100075E+03  0.25500000920E-02 0. -1.
        2   -1    0    0  501    0  0.00000000000E+00  0.00000000000E+00 -0.15148246598E+04  0.15148246598E+04  0.25500000920E-02 0.  1.
    10030    2    1    2    0    0  0.00000000000E+00  0.00000000000E+00 -0.91443365902E+03  0.21152156605E+04  0.19073406549E+04 0.  0.
        3    1    3    3  502    0 -0.66684381599E+03  0.43099577255E+03  0.12860650079E+03  0.80434922336E+03  0.10100000352E+00 0. -1.
       -3    1    3    3    0  502  0.66684381599E+03 -0.43099577255E+03 -0.10430401598E+04  0.13108664372E+04  0.10100000352E+00 0.  1.
</event>
<event>
 5   0  0.8206783E-05  0.1803135E+04  0.7818609E-02  0.8704634E-01
        1   -1    0    0  501    0  0.00000000000E+00  0.00000000000E+00  0.18136631370E+04  0.18136631370E+04  0.50400001928E-02 0. -1.
       -1   -1    0    0    0  501  0.00000000000E+00  0.00000000000E+00 -0.44816721604E+03  0.44816721607E+03  0.50400001928E-02 0.  1.
    10030    2    1    2    0    0  0.00000000000E+00  0.00000000000E+00  0.13654959210E+04  0.22618303531E+04  0.18031354458E+04 0.  0.
        1    1    3    3  502    0 -0.87305130338E+03  0.13097743115E+03  0.91216952543E+03  0.12694199104E+04  0.50400001928E-02 0. -1.
       -1    1    3    3    0  502  0.87305130338E+03 -0.13097743115E+03  0.45332639555E+03  0.99241044267E+03  0.50400001928E-02 0.  1.
</event>
<event>
 5   0  0.1549012E-04  0.1803056E+04  0.7818609E-02  0.8704676E-01
       -2   -1    0    0    0  501  0.00000000000E+00  0.00000000000E+00  0.58843603383E+03  0.58843603383E+03  0.25500000920E-02 0.  1.
        2   -1    0    0  501    0  0.00000000000E+00  0.00000000000E+00 -0.13812079005E+04  0.13812079005E+04  0.25500000920E-02 0. -1.
    10030    2    1    2    0    0  0.00000000000E+00  0.00000000000E+00 -0.79277186667E+03  0.19696439343E+04  0.18030557383E+04 0.  0.
        4    1    3    3  502    0  0.43685180318E+03  0.21223783112E+03  0.43330477561E+03  0.65087559208E+03  0.12699999809E+01 0.  1.
       -4    1    3    3    0  502 -0.43685180318E+03 -0.21223783112E+03 -0.12260766423E+04  0.13187683423E+04  0.12699999809E+01 0. -1.
</event>
<event>
 5   0  0.1573981E-04  0.1686613E+04  0.7818609E-02  0.8769036E-01
       -2   -1    0    0    0  501  0.00000000000E+00  0.00000000000E+00  0.67386158137E+03  0.67386158137E+03  0.25500000920E-02 0. -1.
        2   -1    0    0  501    0  0.00000000000E+00  0.00000000000E+00 -0.10553595427E+04  0.10553595427E+04  0.25500000920E-02 0.  1.
    10030    2    1    2    0    0  0.00000000000E+00  0.00000000000E+00 -0.38149796135E+03  0.17292211241E+04  0.16866134713E+04 0.  0.
        1    1    3    3  502    0  0.56147254243E+03  0.56100896475E+03  0.10137660144E+03  0.80016228965E+03  0.50400001928E-02 0. -1.
       -1    1    3    3    0  502 -0.56147254243E+03 -0.56100896475E+03 -0.48287456279E+03  0.92905883444E+03  0.50400001928E-02 0.  1.
</event>
<event>
 5   0  0.1628397E-04  0.1731355E+04  0.7818609E-02  0.8743681E-01
       -2   -1    0    0    0  501  0.00000000000E+00  0.00000000000E+00  0.45672429202E+03  0.45672429203E+03  0.25500000920E-02 0.  1.
        2   -1    0    0  501    0  0.00000000000E+00  0.00000000000E+00 -0.16408099515E+04  0.16408099515E+04  0.25500000920E-02 0. -1.
    10030    2    1    2    0    0  0.00000000000E+00  0.00000000000E+00 -0.11840856595E+04  0.20975342435E+04  0.17313552651E+04 0.  0.
        3    1    3    3  502    0  0.13529224188E+03 -0.75294459731E+03 -0.10117182384E+03  0.77166398482E+03  0.10100000352E+00 0.  1.
       -3    1    3    3    0  502 -0.13529224188E+03  0.75294459731E+03 -0.10829138357E+04  0.13258702587E+04  0.10100000352E+00 0. -1.
</event>
<event>
 5   0  0.8430513E-05  0.1804480E+04  0.7818609E-02  0.8703921E-01
        1   -1    0    0  501    0  0.00000000000E+00  0.00000000000E+00  0.93758340487E+03  0.93758340488E+03  0.50400001928E-02 0.  1.
       -1   -1    0    0    0  501  0.00000000000E+00  0.00000000000E+00 -0.86822891700E+03  0.86822891701E+03  0.50400001928E-02 0. -1.
    10030    2    1    2    0    0  0.00000000000E+00  0.00000000000E+00  0.69354487871E+02  0.18058123219E+04  0.18044800074E+04 0.  0.
        5    1    3    3  502    0 -0.62295620092E+03 -0.48774581700E+02 -0.61661933940E+03  0.87789229852E+03  0.46999998093E+01 0. -1.
       -5    1    3    3    0  502  0.62295620092E+03  0.48774581700E+02  0.68597382727E+03  0.92792002338E+03  0.46999998093E+01 0.  1.
</event>
<event>
 5   0  0.8492114E-05  0.1596806E+04  0.7818609E-02  0.8822512E-01
        1   -1    0    0  501    0  0.00000000000E+00  0.00000000000E+00  0.10130791431E+04  0.10130791432E+04  0.50400001928E-02 0. -1.
       -1   -1    0    0    0  501  0.00000000000E+00  0.00000000000E+00 -0.62921785908E+03  0.62921785911E+03  0.50400001928E-02 0.  1.
    10030    2    1    2    0    0  0.00000000000E+00  0.00000000000E+00  0.38386128406E+03  0.16422970023E+04  0.15968061743E+04 0.  0.
        2    1    3    3  502    0  0.21002530792E+02  0.68035970240E+03  0.62109155244E+03  0.92145816370E+03  0.25500000920E-02 0. -1.
       -2    1    3    3    0  502 -0.21002530792E+02 -0.68035970240E+03 -0.23723026837E+03  0.72083883856E+03  0.25500000920E-02 0.  1.
</event>
<event>
 5   0  0.8132598E-05  0.1802280E+04  0.7818609E-02  0.8705088E-01
        1   -1    0    0  501    0  0.00000000000E+00  0.00000000000E+00  0.94388039608E+03  0.94388039609E+03  0.50400001928E-02 0.  1.
       -1   -1    0    0    0  501  0.00000000000E+00  0.00000000000E+00 -0.86033491444E+03  0.86033491445E+03  0.50400001928E-02 0. -1.
    10030    2    1    2    0    0  0.00000000000E+00  0.00000000000E+00  0.83545481641E+02  0.18042153105E+04  0.18022799559E+04 0.  0.
        3    1    3    3  502    0  0.25777953424E+03  0.54047336890E+03 -0.63236817441E+03  0.87089107756E+03  0.10100000352E+00 0. -1.
       -3    1    3    3    0  502 -0.25777953424E+03 -0.54047336890E+03  0.71591365605E+03  0.93332423299E+03  0.10100000352E+00 0.  1.
</event>
<event>
 5   0  0.1608627E-04  0.1797036E+04  0.7818609E-02  0.8707877E-01
        2   -1    0    0  501    0  0.00000000000E+00  0.00000000000E+00  0.13535695760E+04  0.13535695760E+04  0.25500000920E-02 0. -1.
       -2   -1    0    0    0  501  0.00000000000E+00  0.00000000000E+00 -0.59644869782E+03  0.59644869782E+03  0.25500000920E-02 0.  1.
    10030    2    1    2    0    0  0.00000000000E+00  0.00000000000E+00  0.75712087816E+03  0.19500182738E+04  0.17970362389E+04 0.  0.
        2    1    3    3  502    0 -0.48058723046E+03 -0.96043930231E+02 -0.43864150883E+03  0.65771946595E+03  0.25500000920E-02 0.  1.
       -2    1    3    3    0  502  0.48058723046E+03  0.96043930231E+02  0.11957623870E+04  0.12922988078E+04  0.25500000920E-02 0. -1.
</event>
<event>
 5   0  0.1549012E-04  0.1795800E+04  0.7818609E-02  0.8708536E-01
        2   -1    0    0  501    0  0.00000000000E+00  0.00000000000E+00  0.14685901369E+04  0.14685901369E+04  0.25500000920E-02 0.  1.
       -2   -1    0    0    0  501  0.00000000000E+00  0.00000000000E+00 -0.54897865180E+03  0.54897865181E+03  0.25500000920E-02 0. -1.
    10030    2    1    2    0    0  0.00000000000E+00  0.00000000000E+00  0.91961148512E+03  0.20175687887E+04  0.17958002488E+04 0.  0.
        4    1    3    3  502    0  0.29767211752E+03 -0.65946436940E+03 -0.13757252125E+03  0.73649830656E+03  0.12699999809E+01 0. -1.
       -4    1    3    3    0  502 -0.29767211752E+03  0.65946436940E+03  0.10571840064E+04  0.12810704822E+04  0.12699999809E+01 0.  1.
</event>
<event>
 5   0  0.8492114E-05  0.1796207E+04  0.7818609E-02  0.8708319E-01
       -1   -1    0    0    0  501  0.00000000000E+00  0.00000000000E+00  0.67356226217E+03  0.67356226219E+03  0.50400001928E-02 0. -1.
        1   -1    0    0  501    0  0.00000000000E+00  0.00000000000E+00 -0.11974991768E+04  0.11974991768E+04  0.50400001928E-02 0.  1.
    10030    2    1    2    0    0  0.00000000000E+00  0.00000000000E+00 -0.52393691460E+03  0.18710614390E+04  0.17962073984E+04 0.  0.
        2    1    3    3  502    0 -0.12035304663E+03 -0.43379846738E+03  0.54754265666E+03  0.70885042639E+03  0.25500000920E-02 0. -1.
       -2    1    3    3    0  502  0.12035304663E+03  0.43379846738E+03 -0.10714795713E+04  0.11622110126E+04  0.25500000920E-02 0.  1.
</event>
<event>
 5   0  0.8430513E-05  0.1806125E+04  0.7818609E-02  0.8703049E-01
        1   -1    0    0  501    0  0.00000000000E+00  0.00000000000E+00  0.74985786012E+03  0.74985786014E+03  0.50400001928E-02 0. -1.
       -1   -1    0    0    0  501  0.00000000000E+00  0.00000000000E+00 -0.10875691126E+04  0.10875691126E+04  0.50400001928E-02 0.  1.
    10030    2    1    2    0    0  0.00000000000E+00  0.00000000000E+00 -0.33771125248E+03  0.18374269727E+04  0.18061254082E+04 0.  0.
        5    1    3    3  502    0  0.80727441124E+03  0.40227268588E+03 -0.12353164245E+03  0.91038313117E+03  0.46999998093E+01 0. -1.
       -5    1    3    3    0  502 -0.80727441124E+03 -0.40227268588E+03 -0.21417961003E+03  0.92704384157E+03  0.46999998093E+01 0.  1.
</event>
<event>
 5   0  0.8492114E-05  0.1728935E+04  0.7818609E-02  0.8745031E-01
        1   -1    0    0  501    0  0.00000000000E+00  0.00000000000E+00  0.76987369427E+03  0.76987369429E+03  0.50400001928E-02 0. -1.
       -1   -1    0    0    0  501  0.00000000000E+00  0.00000000000E+00 -0.97068449791E+03  0.97068449793E+03  0.50400001928E-02 0.  1.
    10030    2    1    2    0    0  0.00000000000E+00  0.00000000000E+00 -0.20081080364E+03  0.17405581922E+04  0.17289354649E+04 0.  0.
        2    1    3    3  502    0  0.59158078233E+02  0.66534761796E+03  0.45202508752E+03  0.80654436376E+03  0.25500000920E-02 0. -1.
       -2    1    3    3    0  502 -0.59158078233E+02 -0.66534761796E+03 -0.65283589117E+03  0.93401382846E+03  0.25500000920E-02 0.  1.
</event>
<event>
 5   0  0.1608627E-04  0.1848476E+04  0.7818609E-02  0.8680937E-01
       -2   -1    0    0    0  501  0.00000000000E+00  0.00000000000E+00  0.36025694017E+03  0.36025694018E+03  0.25500000920E-02 0.  1.
        2   -1    0    0  501    0  0.00000000000E+00  0.00000000000E+00 -0.23711302559E+04  0.23711302559E+04  0.25500000920E-02 0. -1.
    10030    2    1    2    0    0  0.00000000000E+00  0.00000000000E+00 -0.20108733158E+04  0.27313871961E+04  0.18484762706E+04 0.  0.
        2    1    3    3  502    0 -0.45034896205E+03  0.68804354062E+03 -0.38202203267E+03  0.90672980257E+03  0.25500000920E-02 0.  1.
       -2    1    3    3    0  502  0.45034896205E+03 -0.68804354062E+03 -0.16288512831E+04  0.18246573936E+04  0.25500000920E-02 0. -1.
</event>
<event>
 5   0  0.1628397E-04  0.1798014E+04  0.7818609E-02  0.8707356E-01
        2   -1    0    0  501    0  0.00000000000E+00  0.00000000000E+00  0.15040720653E+04  0.15040720653E+04  0.25500000920E-02 0. -1.
       -2   -1    0    0    0  501  0.00000000000E+00  0.00000000000E+00 -0.53735023281E+03  0.53735023281E+03  0.25500000920E-02 0.  1.
    10030    2    1    2    0    0  0.00000000000E+00  0.00000000000E+00  0.96672183252E+03  0.20414222981E+04  0.17980138759E+04 0.  0.
        3    1    3    3  502    0  0.85281026076E+03 -0.23957548158E+03  0.65752819960E+03  0.11031886039E+04  0.10100000352E+00 0.  1.
       -3    1    3    3    0  502 -0.85281026076E+03  0.23957548158E+03  0.30919363292E+03  0.93823369428E+03  0.10100000352E+00 0. -1.
</event>
<event>
 5   0  0.1608627E-04  0.1799411E+04  0.7818609E-02  0.8706613E-01
       -2   -1    0    0    0  501  0.00000000000E+00  0.00000000000E+00  0.59327447133E+03  0.59327447134E+03  0.25500000920E-02 0. -1.
        2   -1    0    0  501    0  0.00000000000E+00  0.00000000000E+00 -0.13644100490E+04  0.13644100490E+04  0.25500000920E-02 0.  1.
    10030    2    1    2    0    0  0.00000000000E+00  0.00000000000E+00 -0.77113557767E+03  0.19576845203E+04  0.17994106263E+04 0.  0.
        2    1    3    3  502    0 -0.26364170378E+03 -0.24800063705E+03  0.51056843655E+03  0.62585253243E+03  0.25500000920E-02 0. -1.
       -2    1    3    3    0  502  0.26364170378E+03  0.24800063705E+03 -0.12817040142E+04  0.13318319879E+04  0.25500000920E-02 0.  1.
</event>
<event>
 5   0  0.8132598E-05  0.1796328E+04  0.7818609E-02  0.8708255E-01
        1   -1    0    0  501    0  0.00000000000E+00  0.00000000000E+00  0.11231345888E+04  0.11231345888E+04  0.50400001928E-02 0. -1.
       -1   -1    0    0    0  501  0.00000000000E+00  0.00000000000E+00 -0.71825610270E+03  0.71825610271E+03  0.50400001928E-02 0.  1.
    10030    2    1    2    0    0  0.00000000000E+00  0.00000000000E+00  0.40487848606E+03  0.18413906915E+04  0.17963276678E+04 0.  0.
        3    1    3    3  502    0  0.78446741298E+03 -0.28507010568E+03 -0.13761164555E+03  0.84592615657E+03  0.10100000352E+00 0.  1.
       -3    1    3    3    0  502 -0.78446741298E+03  0.28507010568E+03  0.54249013161E+03  0.99546453491E+03  0.10100000352E+00 0. -1.
</event>
<event>
 5   0  0.8430513E-05  0.1793412E+04  0.7818609E-02  0.8709811E-01
       -1   -1    0    0    0  501  0.00000000000E+00  0.00000000000E+00  0.55473936454E+03  0.55473936456E+03  0.50400001928E-02 0. -1.
        1   -1    0    0  501    0  0.00000000000E+00  0.00000000000E+00 -0.14494771566E+04  0.14494771566E+04  0.50400001928E-02 0.  1.
    10030    2    1    2    0    0  0.00000000000E+00  0.00000000000E+00 -0.89473779208E+03  0.20042165212E+04  0.17934124309E+04 0.  0.
        5    1    3    3  502    0  0.77202503929E+03  0.45226745022E+03 -0.51340275696E+03  0.10315876059E+04  0.46999998093E+01 0.  1.
       -5    1    3    3    0  502 -0.77202503929E+03 -0.45226745022E+03 -0.38133503511E+03  0.97262891527E+03  0.46999998093E+01 0. -1.
</event>
<event>
 5   0  0.1603564E-04  0.1797443E+04  0.7818609E-02  0.8707660E-01
       -2   -1    0    0    0  501  0.00000000000E+00  0.00000000000E+00  0.10112238093E+04  0.10112238093E+04  0.25500000920E-02 0. -1.
        2   -1    0    0  501    0  0.00000000000E+00  0.00000000000E+00 -0.79873584532E+03  0.79873584533E+03  0.25500000920E-02 0.  1.
    10030    2    1    2    0    0  0.00000000000E+00  0.00000000000E+00  0.21248796395E+03  0.18099596546E+04  0.17974434112E+04 0.  0.
        5    1    3    3  502    0  0.67486477439E+03  0.81934804758E+02 -0.48566107039E+03  0.83549059912E+03  0.46999998093E+01 0.  1.
       -5    1    3    3    0  502 -0.67486477439E+03 -0.81934804758E+02  0.69814903434E+03  0.97446905548E+03  0.46999998093E+01 0. -1.
</event>
<event>
 5   0  0.8430513E-05  0.1784746E+04  0.7818609E-02  0.8714454E-01
       -1   -1    0    0    0  501  0.00000000000E+00  0.00000000000E+00  0.95294983596E+03  0.95294983598E+03  0.50400001928E-02 0.  1.
        1   -1    0    0  501    0  0.00000000000E+00  0.00000000000E+00 -0.83564689158E+03  0.83564689160E+03  0.50400001928E-02 0. -1.
    10030    2    1    2    0    0  0.00000000000E+00  0.00000000000E+00  0.11730294438E+03  0.17885967276E+04  0.17847459968E+04 0.  0.
        5    1    3    3  502    0 -0.78945094131E+03  0.38181663798E+02  0.47381192657E+03  0.92152615803E+03  0.46999998093E+01 0. -1.
       -5    1    3    3    0  502  0.78945094131E+03 -0.38181663798E+02 -0.35650898219E+03  0.86707056954E+03  0.46999998093E+01 0.  1.
</event>
<event>
 5   0  0.8492114E-05  0.1792053E+04  0.7818609E-02  0.8710537E-01
        1   -1    0    0  501    0  0.00000000000E+00  0.00000000000E+00  0.65035667254E+03  0.65035667256E+03  0.50400001928E-02 0. -1.
       -1   -1    0    0    0  501  0.00000000000E+00  0.00000000000E+00 -0.12344965328E+04  0.12344965328E+04  0.50400001928E-02 0.  1.
    10030    2    1    2    0    0  0.00000000000E+00  0.00000000000E+00 -0.58413986022E+03  0.18848532053E+04  0.17920525186E+04 0.  0.
        2    1    3    3  502    0 -0.12136362556E+03 -0.88394254850E+03 -0.37867146498E+03  0.96926551422E+03  0.25500000920E-02 0. -1.
       -2    1    3    3    0  502  0.12136362556E+03  0.88394254850E+03 -0.20546839523E+03  0.91558769110E+03  0.25500000920E-02 0.  1.
</event>
<event>
 5   0  0.1603564E-04  0.1806929E+04  0.7818609E-02  0.8702623E-01
        2   -1    0    0  501    0  0.00000000000E+00  0.00000000000E+00  0.23318460332E+04  0.23318460332E+04  0.25500000920E-02 0. -1.
       -2   -1    0    0    0  501  0.00000000000E+00  0.00000000000E+00 -0.35004377432E+03  0.35004377433E+03  0.25500000920E-02 0.  1.
    10030    2    1    2    0    0  0.00000000000E+00  0.00000000000E+00  0.19818022589E+04  0.26818898075E+04  0.18069290928E+04 0.  0.
        5    1    3    3  502    0 -0.35756542005E+03  0.43022327100E+03  0.20438446797E+04  0.21190253083E+04  0.46999998093E+01 0. -1.
       -5    1    3    3    0  502  0.35756542005E+03 -0.43022327100E+03 -0.62042420802E+02  0.56286449924E+03  0.46999998093E+01 0.  1.
</event>
<event>
 5   0  0.8206783E-05  0.1804067E+04  0.7818609E-02  0.8704139E-01
       -1   -1    0    0    0  501  0.00000000000E+00  0.00000000000E+00  0.60290063017E+03  0.60290063019E+03  0.50400001928E-02 0. -1.
        1   -1    0    0  501    0  0.00000000000E+00  0.00000000000E+00 -0.13495835760E+04  0.13495835760E+04  0.50400001928E-02 0.  1.
    10030    2    1    2    0    0  0.00000000000E+00  0.00000000000E+00 -0.74668294586E+03  0.19524842062E+04  0.18040673917E+04 0.  0.
        1    1    3    3  502    0 -0.53235480201E+03 -0.66425749987E+03 -0.69625859553E+03  0.10997343739E+04  0.50400001928E-02 0.  1.
       -1    1    3    3    0  502  0.53235480201E+03  0.66425749987E+03 -0.50424350331E+02  0.85274983230E+03  0.50400001928E-02 0. -1.
</event>
<event>
 5   0  0.1628397E-04  0.1797954E+04  0.7818609E-02  0.8707388E-01
       -2   -1    0    0    0  501  0.00000000000E+00  0.00000000000E+00  0.15858787409E+04  0.15858787409E+04  0.25500000920E-02 0.  1.
        2   -1    0    0  501    0  0.00000000000E+00  0.00000000000E+00 -0.50959720804E+03  0.50959720805E+03  0.25500000920E-02 0. -1.
    10030    2    1    2    0    0  0.00000000000E+00  0.00000000000E+00  0.10762815329E+04  0.20954759490E+04  0.17979537021E+04 0.  0.
        3    1    3    3  502    0 -0.69279528227E+03  0.44064065031E+03  0.96482342744E+03  0.12668913695E+04  0.10100000352E+00 0.  1.
       -3    1    3    3    0  502  0.69279528227E+03 -0.44064065031E+03  0.11145810545E+03  0.82858457946E+03  0.10100000352E+00 0. -1.
</event>
<event>
 5   0  0.1573981E-04  0.1807776E+04  0.7818609E-02  0.8702175E-01
        2   -1    0    0  501    0  0.00000000000E+00  0.00000000000E+00  0.22125140286E+04  0.22125140286E+04  0.25500000920E-02 0. -1.
       -2   -1    0    0    0  501  0.00000000000E+00  0.00000000000E+00 -0.36926938179E+03  0.36926938180E+03  0.25500000920E-02 0.  1.
    10030    2    1    2    0    0  0.00000000000E+00  0.00000000000E+00  0.18432446468E+04  0.25817834104E+04  0.18077761892E+04 0.  0.
        1    1    3    3  502    0 -0.71390367978E+03 -0.44057724220E+03  0.44101726415E+03  0.94776737528E+03  0.50400001928E-02 0. -1.
       -1    1    3    3    0  502  0.71390367978E+03  0.44057724220E+03  0.14022273827E+04  0.16340160351E+04  0.50400001928E-02 0.  1.
</event>
<event>
 5   0  0.1628397E-04  0.1786880E+04  0.7818609E-02  0.8713308E-01
        2   -1    0    0  501    0  0.00000000000E+00  0.00000000000E+00  0.84242622035E+03  0.84242622036E+03  0.25500000920E-02 0.  1.
       -2   -1    0    0    0  501  0.00000000000E+00  0.00000000000E+00 -0.94754303918E+03  0.94754303918E+03  0.25500000920E-02 0. -1.
    10030    2    1    2    0    0  0.00000000000E+00  0.00000000000E+00 -0.10511681882E+03  0.17899692595E+04  0.17868800756E+04 0.  0.
        3    1    3    3  502    0 -0.40919514674E+03 -0.79300405990E+03 -0.84483894037E+01  0.89239424731E+03  0.10100000352E+00 0.  1.
       -3    1    3    3    0  502  0.40919514674E+03  0.79300405990E+03 -0.96668429420E+02  0.89757501223E+03  0.10100000352E+00 0. -1.
</event>
<event>
 5   0  0.8492114E-05  0.1797596E+04  0.7818609E-02  0.8707579E-01
       -1   -1    0    0    0  501  0.00000000000E+00  0.00000000000E+00  0.66531719162E+03  0.66531719164E+03  0.50400001928E-02 0.  1.
        1   -1    0    0  501    0  0.00000000000E+00  0.00000000000E+00 -0.12142142267E+04  0.12142142267E+04  0.50400001928E-02 0. -1.
    10030    2    1    2    0    0  0.00000000000E+00  0.00000000000E+00 -0.54889703508E+03  0.18795314183E+04  0.17975957269E+04 0.  0.
        2    1    3    3  502    0  0.56831096872E+03  0.60566007736E+02  0.45084995419E+03  0.72795005300E+03  0.25500000920E-02 0.  1.
       -2    1    3    3    0  502 -0.56831096872E+03 -0.60566007736E+02 -0.99974698927E+03  0.11515813654E+04  0.25500000920E-02 0. -1.
</event>
<event>
 5   0  0.1549012E-04  0.1812459E+04  0.7818609E-02  0.8699702E-01
       -2   -1    0    0    0  501  0.00000000000E+00  0.00000000000E+00  0.16087046433E+04  0.16087046433E+04  0.25500000920E-02 0.  1.
        2   -1    0    0  501    0  0.00000000000E+00  0.00000000000E+00 -0.51050526460E+03  0.51050526460E+03  0.25500000920E-02 0. -1.
    10030    2    1    2    0    0  0.00000000000E+00  0.00000000000E+00  0.10981993787E+04  0.21192099079E+04  0.18124593122E+04 0.  0.
        4    1    3    3  502    0  0.24055897144E+02  0.84047830694E+03  0.15385301496E+03  0.85478350109E+03  0.12699999809E+01 0. -1.
       -4    1    3    3    0  502 -0.24055897144E+02 -0.84047830694E+03  0.94434636374E+03  0.12644264068E+04  0.12699999809E+01 0.  1.
</event>
<event>
 5   0  0.8430513E-05  0.1741689E+04  0.7818609E-02  0.8737939E-01
        1   -1    0    0  501    0  0.00000000000E+00  0.00000000000E+00  0.11453423374E+04  0.11453423374E+04  0.50400001928E-02 0.  1.
       -1   -1    0    0    0  501  0.00000000000E+00  0.00000000000E+00 -0.66213379706E+03  0.66213379708E+03  0.50400001928E-02 0. -1.
    10030    2    1    2    0    0  0.00000000000E+00  0.00000000000E+00  0.48320854031E+03  0.18074761345E+04  0.17416886872E+04 0.  0.
        5    1    3    3  502    0  0.46714051196E+03 -0.50840368902E+02  0.10024709349E+04  0.11071472650E+04  0.46999998093E+01 0.  1.
       -5    1    3    3    0  502 -0.46714051196E+03  0.50840368902E+02 -0.51926239459E+03  0.70032886950E+03  0.46999998093E+01 0. -1.
</event>
<event>
 5   0  0.5820500E-05  0.1795212E+04  0.7818609E-02  0.8708850E-01
        4   -1    0    0  501    0  0.00000000000E+00  0.00000000000E+00  0.91750383756E+03  0.91750471652E+03  0.12699999809E+01 0.  1.
       -4   -1    0    0    0  501  0.00000000000E+00  0.00000000000E+00 -0.87813770893E+03  0.87813862730E+03  0.12699999809E+01 0. -1.
    10030    2    1    2    0    0  0.00000000000E+00  0.00000000000E+00  0.39366128627E+02  0.17956433438E+04  0.17952117775E+04 0.  0.
        1    1    3    3  502    0  0.70758720647E+03  0.25120525001E+03  0.51164741664E+03  0.90860707205E+03  0.50400001928E-02 0.  1.
       -1    1    3    3    0  502 -0.70758720647E+03 -0.25120525001E+03 -0.47228128802E+03  0.88703627177E+03  0.50400001928E-02 0. -1.
</event>
<event>
 5   0  0.8492114E-05  0.1785528E+04  0.7818609E-02  0.8714034E-01
        1   -1    0    0  501    0  0.00000000000E+00  0.00000000000E+00  0.72730658584E+03  0.72730658585E+03  0.50400001928E-02 0.  1.
       -1   -1    0    0    0  501  0.00000000000E+00  0.00000000000E+00 -0.10958620182E+04  0.10958620182E+04  0.50400001928E-02 0. -1.
    10030    2    1    2    0    0  0.00000000000E+00  0.00000000000E+00 -0.36855543235E+03  0.18231686040E+04  0.17855281157E+04 0.  0.
        2    1    3    3  502    0 -0.23153094797E+03 -0.46536790745E+03  0.55687071924E+03  0.76176037381E+03  0.25500000920E-02 0.  1.
       -2    1    3    3    0  502  0.23153094797E+03  0.46536790745E+03 -0.92542615159E+03  0.10614082302E+04  0.25500000920E-02 0. -1.
</event>
<event>
 5   0  0.8132598E-05  0.1799662E+04  0.7818609E-02  0.8706479E-01
       -1   -1    0    0    0  501  0.00000000000E+00  0.00000000000E+00  0.12038204957E+04  0.12038204957E+04  0.50400001928E-02 0.  1.
        1   -1    0    0  501    0  0.00000000000E+00  0.00000000000E+00 -0.67260528408E+03  0.67260528409E+03  0.50400001928E-02 0. -1.
    10030    2    1    2    0    0  0.00000000000E+00  0.00000000000E+00  0.53121521162E+03  0.18764257798E+04  0.17996622200E+04 0.  0.
        3    1    3    3  502    0  0.11309508637E+02  0.72800905103E+02  0.12006705008E+04  0.12029287337E+04  0.10100000352E+00 0.  1.
       -3    1    3    3    0  502 -0.11309508637E+02 -0.72800905103E+02 -0.66945528913E+03  0.67349704611E+03  0.10100000352E+00 0. -1.
</event>
<event>
 5   0  0.8430513E-05  0.1804624E+04  0.7818609E-02  0.8703845E-01
        1   -1    0    0  501    0  0.00000000000E+00  0.00000000000E+00  0.13935483836E+04  0.13935483837E+04  0.50400001928E-02 0. -1.
       -1   -1    0    0    0  501  0.00000000000E+00  0.00000000000E+00 -0.58423985167E+03  0.58423985169E+03  0.50400001928E-02 0.  1.
    10030    2    1    2    0    0  0.00000000000E+00  0.00000000000E+00  0.80930853198E+03  0.19777882353E+04  0.18046235075E+04 0.  0.
        5    1    3    3  502    0  0.63695126001E+03  0.22311535835E+03 -0.25169175843E+03  0.72031812556E+03  0.46999998093E+01 0.  1.
       -5    1    3    3    0  502 -0.63695126001E+03 -0.22311535835E+03  0.10610002904E+04  0.12574701098E+04  0.46999998093E+01 0. -1.
</event>
<event>
 5   0  0.1603564E-04  0.1802606E+04  0.7818609E-02  0.8704915E-01
       -2   -1    0    0    0  501  0.00000000000E+00  0.00000000000E+00  0.13794805798E+04  0.13794805798E+04  0.25500000920E-02 0.  1.
        2   -1    0    0  501    0  0.00000000000E+00  0.00000000000E+00 -0.58887917336E+03  0.58887917337E+03  0.25500000920E-02 0. -1.
    10030    2    1    2    0    0  0.00000000000E+00  0.00000000000E+00  0.79060140643E+03  0.19683597532E+04  0.18026063170E+04 0.  0.
        5    1    3    3  502    0  0.80185517559E+03  0.14449184433E+03  0.81605760264E+03  0.11531789612E+04  0.46999998093E+01 0.  1.
       -5    1    3    3    0  502 -0.80185517559E+03 -0.14449184433E+03 -0.25456196209E+02  0.81518079198E+03  0.46999998093E+01 0. -1.
</event>
<event>
 5   0  0.8206783E-05  0.1788261E+04  0.7818609E-02  0.8712567E-01
        1   -1    0    0  501    0  0.00000000000E+00  0.00000000000E+00  0.12951130917E+04  0.12951130917E+04  0.50400001928E-02 0.  1.
       -1   -1    0    0    0  501  0.00000000000E+00  0.00000000000E+00 -0.61729716865E+03  0.61729716868E+03  0.50400001928E-02 0. -1.
    10030    2    1    2    0    0  0.00000000000E+00  0.00000000000E+00  0.67781592304E+03  0.19124102604E+04  0.17882613284E+04 0.  0.
        1    1    3    3  502    0 -0.71095964873E+02 -0.28459672200E+03  0.12421884584E+04  0.12763550041E+04  0.50400001928E-02 0.  1.
       -1    1    3    3    0  502  0.71095964873E+02  0.28459672200E+03 -0.56437253532E+03  0.63605525628E+03  0.50400001928E-02 0. -1.
</event>
<event>
 5   0  0.8430513E-05  0.1804357E+04  0.7818609E-02  0.8703986E-01
       -1   -1    0    0    0  501  0.00000000000E+00  0.00000000000E+00  0.85443640949E+03  0.85443640950E+03  0.50400001928E-02 0.  1.
        1   -1    0    0  501    0  0.00000000000E+00  0.00000000000E+00 -0.95258775487E+03  0.95258775488E+03  0.50400001928E-02 0. -1.
    10030    2    1    2    0    0  0.00000000000E+00  0.00000000000E+00 -0.98151345383E+02  0.18070241644E+04  0.18043565734E+04 0.  0.
        5    1    3    3  502    0  0.56431834329E+03 -0.54103650989E+01 -0.75397641821E+03  0.94179986932E+03  0.46999998093E+01 0. -1.
       -5    1    3    3    0  502 -0.56431834329E+03  0.54103650989E+01  0.65582507283E+03  0.86522429507E+03  0.46999998093E+01 0.  1.
</event>
<event>
 5   0  0.8254914E-05  0.1810117E+04  0.7818609E-02  0.8700938E-01
        1   -1    0    0  501    0  0.00000000000E+00  0.00000000000E+00  0.76018204748E+03  0.76018204749E+03  0.50400001928E-02 0. -1.
       -1   -1    0    0    0  501  0.00000000000E+00  0.00000000000E+00 -0.10775457274E+04  0.10775457274E+04  0.50400001928E-02 0.  1.
    10030    2    1    2    0    0  0.00000000000E+00  0.00000000000E+00 -0.31736367994E+03  0.18377277749E+04  0.18101170320E+04 0.  0.
        4    1    3    3  502    0 -0.15334941416E+03 -0.70212673291E+03 -0.71719248508E+03  0.10153150572E+04  0.12699999809E+01 0.  1.
       -4    1    3    3    0  502  0.15334941416E+03  0.70212673291E+03  0.39982880515E+03  0.82241271769E+03  0.12699999809E+01 0. -1.
</event>
<event>
 5   0  0.8492114E-05  0.1804610E+04  0.7818609E-02  0.8703852E-01
       -1   -1    0    0    0  501  0.00000000000E+00  0.00000000000E+00  0.74685621904E+03  0.74685621905E+03  0.50400001928E-02 0. -1.
        1   -1    0    0  501    0  0.00000000000E+00  0.00000000000E+00 -0.10901081635E+04  0.10901081635E+04  0.50400001928E-02 0.  1.
    10030    2    1    2    0    0  0.00000000000E+00  0.00000000000E+00 -0.34325194448E+03  0.18369643826E+04  0.18046097211E+04 0.  0.
        2    1    3    3  502    0  0.37871545770E+03  0.76834818019E+03  0.11695235924E+03  0.86455895013E+03  0.25500000920E-02 0.  1.
       -2    1    3    3    0  502 -0.37871545770E+03 -0.76834818019E+03 -0.46020430372E+03  0.97240543246E+03  0.25500000920E-02 0. -1.
</event>
<event>
 5   0  0.1608627E-04  0.1773287E+04  0.7818609E-02  0.8720636E-01
       -2   -1    0    0    0  501  0.00000000000E+00  0.00000000000E+00  0.61731801693E+03  0.61731801693E+03  0.25500000920E-02 0.  1.
        2   -1    0    0  501    0  0.00000000000E+00  0.00000000000E+00 -0.12734711976E+04  0.12734711976E+04  0.25500000920E-02 0. -1.
    10030    2    1    2    0    0  0.00000000000E+00  0.00000000000E+00 -0.65615318071E+03  0.18907892146E+04  0.17732870206E+04 0.  0.
        2    1    3    3  502    0  0.50925855995E+03 -0.72504730597E+03 -0.29273135888E+03  0.93312888995E+03  0.25500000920E-02 0. -1.
       -2    1    3    3    0  502 -0.50925855995E+03  0.72504730597E+03 -0.36342182182E+03  0.95766032462E+03  0.25500000920E-02 0.  1.
</event>
<event>
 5   0  0.1628397E-04  0.1804900E+04  0.7818609E-02  0.8703698E-01
        2   -1    0    0  501    0  0.00000000000E+00  0.00000000000E+00  0.15243674519E+04  0.15243674519E+04  0.25500000920E-02 0.  1.
       -2   -1    0    0    0  501  0.00000000000E+00  0.00000000000E+00 -0.53426505629E+03  0.53426505629E+03  0.25500000920E-02 0. -1.
    10030    2    1    2    0    0  0.00000000000E+00  0.00000000000E+00  0.99010239564E+03  0.20586325082E+04  0.18049002881E+04 0.  0.
        3    1    3    3  502    0  0.65814191428E+03 -0.51802549257E+03  0.87831830695E+03  0.12136491457E+04  0.10100000352E+00 0.  1.
       -3    1    3    3    0  502 -0.65814191428E+03  0.51802549257E+03  0.11178408869E+03  0.84498336254E+03  0.10100000352E+00 0. -1.
</event>
<event>
 5   0  0.1549012E-04  0.1790506E+04  0.7818609E-02  0.8711365E-01
        2   -1    0    0  501    0  0.00000000000E+00  0.00000000000E+00  0.12060090950E+04  0.12060090950E+04  0.25500000920E-02 0.  1.
       -2   -1    0    0    0  501  0.00000000000E+00  0.00000000000E+00 -0.66457034186E+03  0.66457034186E+03  0.25500000920E-02 0. -1.
    10030    2    1    2    0    0  0.00000000000E+00  0.00000000000E+00  0.54143875318E+03  0.18705794369E+04  0.17905059359E+04 0.  0.
        4    1    3    3  502    0  0.59279912507E+03 -0.51581816213E+03  0.71885127830E+03  0.10650013860E+04  0.12699999809E+01 0.  1.
       -4    1    3    3    0  502 -0.59279912507E+03  0.51581816213E+03 -0.17741252512E+03  0.80557805086E+03  0.12699999809E+01 0. -1.
</event>
<event>
 5   0  0.8430513E-05  0.1834406E+04  0.7818609E-02  0.8688214E-01
        1   -1    0    0  501    0  0.00000000000E+00  0.00000000000E+00  0.13852775299E+04  0.13852775299E+04  0.50400001928E-02 0.  1.
       -1   -1    0    0    0  501  0.00000000000E+00  0.00000000000E+00 -0.60728728056E+03  0.60728728058E+03  0.50400001928E-02 0. -1.
    10030    2    1    2    0    0  0.00000000000E+00  0.00000000000E+00  0.77799024929E+03  0.19925648104E+04  0.18344060880E+04 0.  0.
        5    1    3    3  502    0 -0.26054651773E+03 -0.48449923443E+02 -0.56478059133E+03  0.62388387487E+03  0.46999998093E+01 0. -1.
       -5    1    3    3    0  502  0.26054651773E+03  0.48449923443E+02  0.13427708406E+04  0.13686809356E+04  0.46999998093E+01 0.  1.
</event>
<event>
 5   0  0.1573981E-04  0.1790251E+04  0.7818609E-02  0.8711501E-01
        2   -1    0    0  501    0  0.00000000000E+00  0.00000000000E+00  0.57709290892E+03  0.57709290893E+03  0.25500000920E-02 0.  1.
       -2   -1    0    0    0  501  0.00000000000E+00  0.00000000000E+00 -0.13884240304E+04  0.13884240304E+04  0.25500000920E-02 0. -1.
    10030    2    1    2    0    0  0.00000000000E+00  0.00000000000E+00 -0.81133112144E+03  0.19655169393E+04  0.17902510020E+04 0.  0.
        1    1    3    3  502    0 -0.38419010123E+03  0.17513172184E+03  0.46089456390E+03  0.62505755970E+03  0.50400001928E-02 0.  1.
       -1    1    3    3    0  502  0.38419010123E+03 -0.17513172184E+03 -0.12722256853E+04  0.13404593796E+04  0.50400001928E-02 0. -1.
</event>
<event>
 5   0  0.1603564E-04  0.1804270E+04  0.7818609E-02  0.8704032E-01
        2   -1    0    0  501    0  0.00000000000E+00  0.00000000000E+00  0.14512820977E+04  0.14512820977E+04  0.25500000920E-02 0.  1.
       -2   -1    0    0    0  501  0.00000000000E+00  0.00000000000E+00 -0.56077807674E+03  0.56077807675E+03  0.25500000920E-02 0. -1.
    10030    2    1    2    0    0  0.00000000000E+00  0.00000000000E+00  0.89050402093E+03  0.20120601744E+04  0.18042695847E+04 0.  0.
        5    1    3    3  502    0  0.86405370617E+03 -0.20109782143E+03  0.26270524694E+03  0.92523795734E+03  0.46999998093E+01 0. -1.
       -5    1    3    3    0  502 -0.86405370617E+03  0.20109782143E+03  0.62779877399E+03  0.10868222171E+04  0.46999998093E+01 0.  1.
</event>
<event>
 5   0  0.8254914E-05  0.1808978E+04  0.7818609E-02  0.8701540E-01
       -1   -1    0    0    0  501  0.00000000000E+00  0.00000000000E+00  0.10147401174E+04  0.10147401174E+04  0.50400001928E-02 0. -1.
        1   -1    0    0  501    0  0.00000000000E+00  0.00000000000E+00 -0.80621631720E+03  0.80621631721E+03  0.50400001928E-02 0.  1.
    10030    2    1    2    0    0  0.00000000000E+00  0.00000000000E+00  0.20852380019E+03  0.18209564346E+04  0.18089776564E+04 0.  0.
        4    1    3    3  502    0  0.79512908200E+03 -0.10014459879E+03  0.52637053781E+03  0.95881528653E+03  0.12699999809E+01 0. -1.
       -4    1    3    3    0  502 -0.79512908200E+03  0.10014459879E+03 -0.31784673762E+03  0.86214114809E+03  0.12699999809E+01 0.  1.
</event>
<event>
 5   0  0.8492114E-05  0.1806147E+04  0.7818609E-02  0.8703037E-01
        1   -1    0    0  501    0  0.00000000000E+00  0.00000000000E+00  0.54291635961E+03  0.54291635963E+03  0.50400001928E-02 0. -1.
       -1   -1    0    0    0  501  0.00000000000E+00  0.00000000000E+00 -0.15021501986E+04  0.15021501986E+04  0.50400001928E-02 0.  1.
    10030    2    1    2    0    0  0.00000000000E+00  0.00000000000E+00 -0.95923383902E+03  0.20450665583E+04  0.18061471894E+04 0.  0.
        2    1    3    3  502    0  0.80841393704E+03  0.16745226023E+03 -0.89405128365E+03  0.12169227793E+04  0.25500000920E-02 0.  1.
       -2    1    3    3    0  502 -0.80841393704E+03 -0.16745226023E+03 -0.65182555368E+02  0.82814377894E+03  0.25500000920E-02 0. -1.
</event>
<event>
 5   0  0.8492114E-05  0.1799213E+04  0.7818609E-02  0.8706718E-01
        1   -1    0    0  501    0  0.00000000000E+00  0.00000000000E+00  0.10715130339E+04  0.10715130339E+04  0.50400001928E-02 0.  1.
       -1   -1    0    0    0  501  0.00000000000E+00  0.00000000000E+00 -0.75527914265E+03  0.75527914267E+03  0.50400001928E-02 0. -1.
    10030    2    1    2    0    0  0.00000000000E+00  0.00000000000E+00  0.31623389124E+03  0.18267921766E+04  0.17992125451E+04 0.  0.
        2    1    3    3  502    0  0.45166603970E+03 -0.55079656696E+03 -0.39977119630E+03  0.81682071411E+03  0.25500000920E-02 0. -1.
       -2    1    3    3    0  502 -0.45166603970E+03  0.55079656696E+03  0.71600508754E+03  0.10099714625E+04  0.25500000920E-02 0.  1.
</event>
<event>
 5   0  0.8430513E-05  0.1805998E+04  0.7818609E-02  0.8703116E-01
       -1   -1    0    0    0  501  0.00000000000E+00  0.00000000000E+00  0.93135439413E+03  0.93135439415E+03  0.50400001928E-02 0. -1.
        1   -1    0    0  501    0  0.00000000000E+00  0.00000000000E+00 -0.87550707120E+03  0.87550707121E+03  0.50400001928E-02 0.  1.
    10030    2    1    2    0    0  0.00000000000E+00  0.00000000000E+00  0.55847322933E+02  0.18068614654E+04  0.18059981815E+04 0.  0.
        5    1    3    3  502    0  0.61765852612E+01 -0.19112306797E+03  0.91085278321E+03  0.93072072073E+03  0.46999998093E+01 0. -1.
       -5    1    3    3    0  502 -0.61765852612E+01  0.19112306797E+03 -0.85500546027E+03  0.87614074464E+03  0.46999998093E+01 0.  1.
</event>
<event>
 5   0  0.8492114E-05  0.1798365E+04  0.7818609E-02  0.8707169E-01
       -1   -1    0    0    0  501  0.00000000000E+00  0.00000000000E+00  0.10804251297E+04  0.10804251298E+04  0.50400001928E-02 0. -1.
        1   -1    0    0  501    0  0.00000000000E+00  0.00000000000E+00 -0.74834367064E+03  0.74834367066E+03  0.50400001928E-02 0.  1.
    10030    2    1    2    0    0  0.00000000000E+00  0.00000000000E+00  0.33208145910E+03  0.18287688004E+04  0.17983651548E+04 0.  0.
        2    1    3    3  502    0  0.11483537632E+03  0.84846360642E+03 -0.11328780468E+03  0.86366184457E+03  0.25500000920E-02 0.  1.
       -2    1    3    3    0  502 -0.11483537632E+03 -0.84846360642E+03  0.44536926378E+03  0.96510695584E+03  0.25500000920E-02 0. -1.
</event>
<event>
 5   0  0.1608627E-04  0.1818309E+04  0.7818609E-02  0.8696623E-01
       -2   -1    0    0    0  501  0.00000000000E+00  0.00000000000E+00  0.68721807587E+03  0.68721807587E+03  0.25500000920E-02 0.  1.
        2   -1    0    0  501    0  0.00000000000E+00  0.00000000000E+00 -0.12027654982E+04  0.12027654983E+04  0.25500000920E-02 0. -1.
    10030    2    1    2    0    0  0.00000000000E+00  0.00000000000E+00 -0.51554742238E+03  0.18899835741E+04  0.18183093152E+04 0.  0.
        2    1    3    3  502    0 -0.90768045136E+03  0.17099888187E+02 -0.20700174515E+03  0.93114227187E+03  0.25500000920E-02 0. -1.
       -2    1    3    3    0  502  0.90768045136E+03 -0.17099888187E+02 -0.30854567724E+03  0.95884130225E+03  0.25500000920E-02 0.  1.
</event>
<event>
 5   0  0.1608627E-04  0.1799284E+04  0.7818609E-02  0.8706680E-01
        2   -1    0    0  501    0  0.00000000000E+00  0.00000000000E+00  0.10149565466E+04  0.10149565466E+04  0.25500000920E-02 0. -1.
       -2   -1    0    0    0  501  0.00000000000E+00  0.00000000000E+00 -0.79742931664E+03  0.79742931664E+03  0.25500000920E-02 0.  1.
    10030    2    1    2    0    0  0.00000000000E+00  0.00000000000E+00  0.21752722998E+03  0.18123858633E+04  0.17992844193E+04 0.  0.
        2    1    3    3  502    0 -0.56995498962E+03 -0.59992621343E+03 -0.24678813125E+03  0.86351869319E+03  0.25500000920E-02 0.  1.
       -2    1    3    3    0  502  0.56995498962E+03  0.59992621343E+03  0.46431536124E+03  0.94886717007E+03  0.25500000920E-02 0. -1.
</event>
<event>
 5   0  0.1628397E-04  0.1794479E+04  0.7818609E-02  0.8709241E-01
        2   -1    0    0  501    0  0.00000000000E+00  0.00000000000E+00  0.12179837131E+04  0.12179837131E+04  0.25500000920E-02 0.  1.
       -2   -1    0    0    0  501  0.00000000000E+00  0.00000000000E+00 -0.66095980296E+03  0.66095980297E+03  0.25500000920E-02 0. -1.
    10030    2    1    2    0    0  0.00000000000E+00  0.00000000000E+00  0.55702391011E+03  0.18789435160E+04  0.17944785036E+04 0.  0.
        3    1    3    3  502    0 -0.36611382287E+03  0.36004110851E+02 -0.57836106610E+03  0.68544668668E+03  0.10100000352E+00 0. -1.
       -3    1    3    3    0  502  0.36611382287E+03 -0.36004110851E+02  0.11353849762E+04  0.11934968294E+04  0.10100000352E+00 0.  1.
</event>
<event>
 5   0  0.8206783E-05  0.1798480E+04  0.7818609E-02  0.8707108E-01
       -1   -1    0    0    0  501  0.00000000000E+00  0.00000000000E+00  0.24188475005E+04  0.24188475005E+04  0.50400001928E-02 0. -1.
        1   -1    0    0  501    0  0.00000000000E+00  0.00000000000E+00 -0.33430484887E+03  0.33430484891E+03  0.50400001928E-02 0.  1.
    10030    2    1    2    0    0  0.00000000000E+00  0.00000000000E+00  0.20845426516E+04  0.27531523494E+04  0.17984798561E+04 0.  0.
        1    1    3    3  502    0 -0.56026196088E+03 -0.28156482762E+03  0.20289810214E+04  0.21236610375E+04  0.50400001928E-02 0. -1.
       -1    1    3    3    0  502  0.56026196088E+03  0.28156482762E+03  0.55561630199E+02  0.62949131188E+03  0.50400001928E-02 0.  1.
</event>
<event>
 5   0  0.8492114E-05  0.1806965E+04  0.7818609E-02  0.8702604E-01
       -1   -1    0    0    0  501  0.00000000000E+00  0.00000000000E+00  0.53587416825E+03  0.53587416827E+03  0.50400001928E-02 0. -1.
        1   -1    0    0  501    0  0.00000000000E+00  0.00000000000E+00 -0.15232697313E+04  0.15232697313E+04  0.50400001928E-02 0.  1.
    10030    2    1    2    0    0  0.00000000000E+00  0.00000000000E+00 -0.98739556304E+03  0.20591438996E+04  0.18069653016E+04 0.  0.
        2    1    3    3  502    0 -0.69865689689E+03  0.11078222871E+03 -0.11341733700E+04  0.13366912116E+04  0.25500000920E-02 0.  1.
       -2    1    3    3    0  502  0.69865689689E+03 -0.11078222871E+03  0.14677780700E+03  0.72245268800E+03  0.25500000920E-02 0. -1.
</event>
<event>
 5   0  0.8492114E-05  0.1793127E+04  0.7818609E-02  0.8709963E-01
        1   -1    0    0  501    0  0.00000000000E+00  0.00000000000E+00  0.78139291822E+03  0.78139291824E+03  0.50400001928E-02 0. -1.
       -1   -1    0    0    0  501  0.00000000000E+00  0.00000000000E+00 -0.10287089472E+04  0.10287089472E+04  0.50400001928E-02 0.  1.
    10030    2    1    2    0    0  0.00000000000E+00  0.00000000000E+00 -0.24731602901E+03  0.18101018655E+04  0.17931267510E+04 0.  0.
        2    1    3    3  502    0 -0.44097371333E+03 -0.61707656594E+03 -0.60628932533E+03  0.97099333164E+03  0.25500000920E-02 0.  1.
       -2    1    3    3    0  502  0.44097371333E+03  0.61707656594E+03  0.35897329633E+03  0.83910853384E+03  0.25500000920E-02 0. -1.
</event>
<event>
 5   0  0.1628397E-04  0.1803657E+04  0.7818609E-02  0.8704357E-01
        2   -1    0    0  501    0  0.00000000000E+00  0.00000000000E+00  0.19274250747E+04  0.19274250747E+04  0.25500000920E-02 0. -1.
       -2   -1    0    0    0  501  0.00000000000E+00  0.00000000000E+00 -0.42195922072E+03  0.42195922073E+03  0.25500000920E-02 0.  1.
    10030    2    1    2    0    0  0.00000000000E+00  0.00000000000E+00  0.15054658540E+04  0.23493842954E+04  0.18036571543E+04 0.  0.
        3    1    3    3  502    0 -0.18847327953E+03 -0.26487113438E+03  0.18484510808E+04  0.18768191984E+04  0.10100000352E+00 0. -1.
       -3    1    3    3    0  502  0.18847327953E+03  0.26487113438E+03 -0.34298522686E+03  0.47256509707E+03  0.10100000352E+00 0.  1.
</event>
<event>
 5   0  0.1608627E-04  0.1824428E+04  0.7818609E-02  0.8693416E-01
       -2   -1    0    0    0  501  0.00000000000E+00  0.00000000000E+00  0.78027702261E+03  0.78027702262E+03  0.25500000920E-02 0. -1.
        2   -1    0    0  501    0  0.00000000000E+00  0.00000000000E+00 -0.10664597933E+04  0.10664597933E+04  0.25500000920E-02 0.  1.
    10030    2    1    2    0    0  0.00000000000E+00  0.00000000000E+00 -0.28618277069E+03  0.18467368159E+04  0.18244276607E+04 0.  0.
        2    1    3    3  502    0 -0.16516264196E+03 -0.65017968912E+03  0.48262746079E+03  0.82640280273E+03  0.25500000920E-02 0. -1.
       -2    1    3    3    0  502  0.16516264196E+03  0.65017968912E+03 -0.76881023148E+03  0.10203340132E+04  0.25500000920E-02 0.  1.
</event>
<event>
 5   0  0.1608627E-04  0.1802836E+04  0.7818609E-02  0.8704793E-01
        2   -1    0    0  501    0  0.00000000000E+00  0.00000000000E+00  0.17705407467E+04  0.17705407467E+04  0.25500000920E-02 0.  1.
       -2   -1    0    0    0  501  0.00000000000E+00  0.00000000000E+00 -0.45893021205E+03  0.45893021206E+03  0.25500000920E-02 0. -1.
    10030    2    1    2    0    0  0.00000000000E+00  0.00000000000E+00  0.13116105346E+04  0.22294709587E+04  0.18028362547E+04 0.  0.
        2    1    3    3  502    0 -0.51193675942E+03 -0.43585491365E+03 -0.86703725941E+02  0.67791318581E+03  0.25500000920E-02 0. -1.
       -2    1    3    3    0  502  0.51193675942E+03  0.43585491365E+03  0.13983142606E+04  0.15515577729E+04  0.25500000920E-02 0.  1.
</event>
<event>
 5   0  0.8254914E-05  0.1801823E+04  0.7818609E-02  0.8705331E-01
       -1   -1    0    0    0  501  0.00000000000E+00  0.00000000000E+00  0.11224056090E+04  0.11224056090E+04  0.50400001928E-02 0. -1.
        1   -1    0    0  501    0  0.00000000000E+00  0.00000000000E+00 -0.72312671828E+03  0.72312671830E+03  0.50400001928E-02 0.  1.
    10030    2    1    2    0    0  0.00000000000E+00  0.00000000000E+00  0.39927889071E+03  0.18455323273E+04  0.18018229487E+04 0.  0.
        4    1    3    3  502    0  0.32452024042E+03  0.83177824897E+03  0.32285492289E+03  0.94942369679E+03  0.12699999809E+01 0. -1.
       -4    1    3    3    0  502 -0.32452024042E+03 -0.83177824897E+03  0.76423967820E+02  0.89610863050E+03  0.12699999809E+01 0.  1.
</event>
<event>
 5   0  0.5820500E-05  0.1791971E+04  0.7818609E-02  0.8710581E-01
        3   -1    0    0  501    0  0.00000000000E+00  0.00000000000E+00  0.10565507835E+04  0.10565507884E+04  0.10100000352E+00 0.  1.
       -3   -1    0    0    0  501  0.00000000000E+00  0.00000000000E+00 -0.75982183965E+03  0.75982184637E+03  0.10100000352E+00 0. -1.
    10030    2    1    2    0    0  0.00000000000E+00  0.00000000000E+00  0.29672894389E+03  0.18163726347E+04  0.17919713954E+04 0.  0.
        3    1    3    3  502    0 -0.46520984326E+03  0.81743165436E+02  0.92010465499E+03  0.10342604748E+04  0.10100000352E+00 0.  1.
       -3    1    3    3    0  502  0.46520984326E+03 -0.81743165436E+02 -0.62337571110E+03  0.78211215995E+03  0.10100000352E+00 0. -1.
</event>
<event>
 5   0  0.1573981E-04  0.1790401E+04  0.7818609E-02  0.8711421E-01
       -2   -1    0    0    0  501  0.00000000000E+00  0.00000000000E+00  0.34799995596E+03  0.34799995597E+03  0.25500000920E-02 0.  1.
        2   -1    0    0  501    0  0.00000000000E+00  0.00000000000E+00 -0.23028273551E+04  0.23028273551E+04  0.25500000920E-02 0. -1.
    10030    2    1    2    0    0  0.00000000000E+00  0.00000000000E+00 -0.19548273992E+04  0.26508273111E+04  0.17904008693E+04 0.  0.
        1    1    3    3  502    0  0.62583203008E+03  0.29655268868E+03 -0.13755344368E+03  0.70606669439E+03  0.50400001928E-02 0.  1.
       -1    1    3    3    0  502 -0.62583203008E+03 -0.29655268868E+03 -0.18172739555E+04  0.19447606167E+04  0.50400001928E-02 0. -1.
</event>
<event>
 5   0  0.1628397E-04  0.1793651E+04  0.7818609E-02  0.8709683E-01
        2   -1    0    0  501    0  0.00000000000E+00  0.00000000000E+00  0.70240673198E+03  0.70240673199E+03  0.25500000920E-02 0.  1.
       -2   -1    0    0    0  501  0.00000000000E+00  0.00000000000E+00 -0.11450569543E+04  0.11450569543E+04  0.25500000920E-02 0. -1.
    10030    2    1    2    0    0  0.00000000000E+00  0.00000000000E+00 -0.44265022228E+03  0.18474636862E+04  0.17936507053E+04 0.  0.
        3    1    3    3  502    0  0.27045275863E+03 -0.14720250526E+03  0.64625354809E+03  0.71586097172E+03  0.10100000352E+00 0.  1.
       -3    1    3    3    0  502 -0.27045275863E+03  0.14720250526E+03 -0.10889037704E+04  0.11316027145E+04  0.10100000352E+00 0. -1.
</event>
<event>
 5   0  0.8492114E-05  0.1810300E+04  0.7818609E-02  0.8700841E-01
       -1   -1    0    0    0  501  0.00000000000E+00  0.00000000000E+00  0.76672496793E+03  0.76672496795E+03  0.50400001928E-02 0.  1.
        1   -1    0    0  501    0  0.00000000000E+00  0.00000000000E+00 -0.10685664011E+04  0.10685664011E+04  0.50400001928E-02 0. -1.
    10030    2    1    2    0    0  0.00000000000E+00  0.00000000000E+00 -0.30184143316E+03  0.18352913691E+04  0.18103000189E+04 0.  0.
        2    1    3    3  502    0  0.57136827104E+03  0.26816299590E+03  0.50682196554E+03  0.80946994896E+03  0.25500000920E-02 0.  1.
       -2    1    3    3    0  502 -0.57136827104E+03 -0.26816299590E+03 -0.80866339871E+03  0.10258214201E+04  0.25500000920E-02 0. -1.
</event>
<event>
 5   0  0.1628397E-04  0.1799183E+04  0.7818609E-02  0.8706734E-01
        2   -1    0    0  501    0  0.00000000000E+00  0.00000000000E+00  0.14067227438E+04  0.14067227438E+04  0.25500000920E-02 0. -1.
       -2   -1    0    0    0  501  0.00000000000E+00  0.00000000000E+00 -0.57528394673E+03  0.57528394673E+03  0.25500000920E-02 0.  1.
    10030    2    1    2    0    0  0.00000000000E+00  0.00000000000E+00  0.83143879704E+03  0.19820066905E+04  0.17991831613E+04 0.  0.
        3    1    3    3  502    0 -0.53937253985E+03 -0.21731158081E+03  0.11718460749E+04  0.13081935229E+04  0.10100000352E+00 0. -1.
       -3    1    3    3    0  502  0.53937253985E+03  0.21731158081E+03 -0.34040727782E+03  0.67381316764E+03  0.10100000352E+00 0.  1.
</event>
<event>
 5   0  0.1608627E-04  0.1743396E+04  0.7818609E-02  0.8736994E-01
       -2   -1    0    0    0  501  0.00000000000E+00  0.00000000000E+00  0.43578705754E+03  0.43578705755E+03  0.25500000920E-02 0. -1.
        2   -1    0    0  501    0  0.00000000000E+00  0.00000000000E+00 -0.17436429423E+04  0.17436429423E+04  0.25500000920E-02 0.  1.
    10030    2    1    2    0    0  0.00000000000E+00  0.00000000000E+00 -0.13078558848E+04  0.21794299998E+04  0.17433955687E+04 0.  0.
        2    1    3    3  502    0  0.51255730450E+03 -0.54150132887E+02  0.22489758487E+03  0.56233988919E+03  0.25500000920E-02 0. -1.
       -2    1    3    3    0  502 -0.51255730450E+03  0.54150132887E+02 -0.15327534696E+04  0.16170901107E+04  0.25500000920E-02 0.  1.
</event>
<event>
 5   0  0.1628397E-04  0.1803801E+04  0.7818609E-02  0.8704281E-01
        2   -1    0    0  501    0  0.00000000000E+00  0.00000000000E+00  0.18462110987E+04  0.18462110987E+04  0.25500000920E-02 0.  1.
       -2   -1    0    0    0  501  0.00000000000E+00  0.00000000000E+00 -0.44059114933E+03  0.44059114934E+03  0.25500000920E-02 0. -1.
    10030    2    1    2    0    0  0.00000000000E+00  0.00000000000E+00  0.14056199494E+04  0.22868022480E+04  0.18038007317E+04 0.  0.
        3    1    3    3  502    0 -0.91403608664E+02 -0.77928900326E+03  0.13900440752E+03  0.79684892282E+03  0.10100000352E+00 0. -1.
       -3    1    3    3    0  502  0.91403608664E+02  0.77928900326E+03  0.12666155419E+04  0.14899533252E+04  0.10100000352E+00 0.  1.
</event>
<event>
 5   0  0.8430513E-05  0.1793582E+04  0.7818609E-02  0.8709720E-01
        1   -1    0    0  501    0  0.00000000000E+00  0.00000000000E+00  0.12045303463E+04  0.12045303463E+04  0.50400001928E-02 0. -1.
       -1   -1    0    0    0  501  0.00000000000E+00  0.00000000000E+00 -0.66767453707E+03  0.66767453709E+03  0.50400001928E-02 0.  1.
    10030    2    1    2    0    0  0.00000000000E+00  0.00000000000E+00  0.53685580927E+03  0.18722048834E+04  0.17935821603E+04 0.  0.
        5    1    3    3  502    0 -0.16603880470E+03  0.45163227000E+02 -0.65026812515E+03  0.67266583555E+03  0.46999998093E+01 0.  1.
       -5    1    3    3    0  502  0.16603880470E+03 -0.45163227000E+02  0.11871239344E+04  0.11995390479E+04  0.46999998093E+01 0. -1.
</event>
<event>
 5   0  0.8430513E-05  0.1777034E+04  0.7818609E-02  0.8718609E-01
       -1   -1    0    0    0  501  0.00000000000E+00  0.00000000000E+00  0.10207273396E+04  0.10207273396E+04  0.50400001928E-02 0.  1.
        1   -1    0    0  501    0  0.00000000000E+00  0.00000000000E+00 -0.77343135882E+03  0.77343135884E+03  0.50400001928E-02 0. -1.
    10030    2    1    2    0    0  0.00000000000E+00  0.00000000000E+00  0.24729598074E+03  0.17941586984E+04  0.17770340832E+04 0.  0.
        5    1    3    3  502    0  0.74276623106E+03 -0.59218627521E+02 -0.36499102440E+03  0.82972830356E+03  0.46999998093E+01 0. -1.
       -5    1    3    3    0  502 -0.74276623106E+03  0.59218627521E+02  0.61228700514E+03  0.96443039484E+03  0.46999998093E+01 0.  1.
</event>
<event>
 5   0  0.1573981E-04  0.1802151E+04  0.7818609E-02  0.8705156E-01
        2   -1    0    0  501    0  0.00000000000E+00  0.00000000000E+00  0.17000928672E+04  0.17000928672E+04  0.25500000920E-02 0.  1.
       -2   -1    0    0    0  501  0.00000000000E+00  0.00000000000E+00 -0.47758397523E+03  0.47758397524E+03  0.25500000920E-02 0. -1.
    10030    2    1    2    0    0  0.00000000000E+00  0.00000000000E+00  0.12225088919E+04  0.21776768424E+04  0.18021510589E+04 0.  0.
        1    1    3    3  502    0  0.46396078328E+03  0.23854772209E+03  0.14990390577E+04  0.15872248488E+04  0.50400001928E-02 0.  1.
       -1    1    3    3    0  502 -0.46396078328E+03 -0.23854772209E+03 -0.27653016576E+03  0.59045199359E+03  0.50400001928E-02 0. -1.
</event>
<event>
 5   0  0.8254914E-05  0.1790325E+04  0.7818609E-02  0.8711461E-01
       -1   -1    0    0    0  501  0.00000000000E+00  0.00000000000E+00  0.69492361615E+03  0.69492361617E+03  0.50400001928E-02 0.  1.
        1   -1    0    0  501    0  0.00000000000E+00  0.00000000000E+00 -0.11530996051E+04  0.11530996051E+04  0.50400001928E-02 0. -1.
    10030    2    1    2    0    0  0.00000000000E+00  0.00000000000E+00 -0.45817598896E+03  0.18480232213E+04  0.17903252748E+04 0.  0.
        4    1    3    3  502    0 -0.12672627232E+03 -0.82623350935E+03 -0.55971225281E+03  0.10059824943E+04  0.12699999809E+01 0. -1.
       -4    1    3    3    0  502  0.12672627232E+03  0.82623350935E+03  0.10153626386E+03  0.84204072695E+03  0.12699999809E+01 0.  1.
</event>
<event>
 5   0  0.1608627E-04  0.1805062E+04  0.7818609E-02  0.8703612E-01
       -2   -1    0    0    0  501  0.00000000000E+00  0.00000000000E+00  0.93385012335E+03  0.93385012335E+03  0.25500000920E-02 0. -1.
        2   -1    0    0  501    0  0.00000000000E+00  0.00000000000E+00 -0.87226214947E+03  0.87226214947E+03  0.25500000920E-02 0.  1.
    10030    2    1    2    0    0  0.00000000000E+00  0.00000000000E+00  0.61587973881E+02  0.18061122728E+04  0.18050619002E+04 0.  0.
        2    1    3    3  502    0 -0.45515761242E+03  0.62436525181E+02 -0.74650769262E+03  0.87655034480E+03  0.25500000920E-02 0.  1.
       -2    1    3    3    0  502  0.45515761242E+03 -0.62436525181E+02  0.80809566650E+03  0.92956192803E+03  0.25500000920E-02 0. -1.
</event>
<event>
 5   0  0.8206783E-05  0.1808364E+04  0.7818609E-02  0.8701864E-01
       -1   -1    0    0    0  501  0.00000000000E+00  0.00000000000E+00  0.42759963594E+03  0.42759963597E+03  0.50400001928E-02 0.  1.
        1   -1    0    0  501    0  0.00000000000E+00  0.00000000000E+00 -0.19119398632E+04  0.19119398632E+04  0.50400001928E-02 0. -1.
    10030    2    1    2    0    0  0.00000000000E+00  0.00000000000E+00 -0.14843402273E+04  0.23395394992E+04  0.18083636686E+04 0.  0.
        1    1    3    3  502    0  0.23371257577E+03  0.53664907158E+03  0.14940895822E+03  0.60410001732E+03  0.50400001928E-02 0.  1.
       -1    1    3    3    0  502 -0.23371257577E+03 -0.53664907158E+03 -0.16337491855E+04  0.17354394819E+04  0.50400001928E-02 0. -1.
</event>
<event>
 5   0  0.1549012E-04  0.1807193E+04  0.7818609E-02  0.8702483E-01
        2   -1    0    0  501    0  0.00000000000E+00  0.00000000000E+00  0.18430025206E+04  0.18430025206E+04  0.25500000920E-02 0. -1.
       -2   -1    0    0    0  501  0.00000000000E+00  0.00000000000E+00 -0.44302000880E+03  0.44302000881E+03  0.25500000920E-02 0.  1.
    10030    2    1    2    0    0  0.00000000000E+00  0.00000000000E+00  0.13999825118E+04  0.22860225294E+04  0.18071933963E+04 0.  0.
        4    1    3    3  502    0 -0.24595621431E+03 -0.19538631424E+03 -0.37173081073E+03  0.48667820959E+03  0.12699999809E+01 0.  1.
       -4    1    3    3    0  502  0.24595621431E+03  0.19538631424E+03  0.17717133225E+04  0.17993443198E+04  0.12699999809E+01 0. -1.
</event>
<event>
 5   0  0.8254914E-05  0.1800400E+04  0.7818609E-02  0.8706087E-01
       -1   -1    0    0    0  501  0.00000000000E+00  0.00000000000E+00  0.76916955784E+03  0.76916955786E+03  0.50400001928E-02 0.  1.
        1   -1    0    0  501    0  0.00000000000E+00  0.00000000000E+00 -0.10535520503E+04  0.10535520504E+04  0.50400001928E-02 0. -1.
    10030    2    1    2    0    0  0.00000000000E+00  0.00000000000E+00 -0.28438249250E+03  0.18227216082E+04  0.18004001386E+04 0.  0.
        4    1    3    3  502    0  0.13773402654E+03 -0.73638429920E+03 -0.64750472027E+03  0.99020021907E+03  0.12699999809E+01 0. -1.
       -4    1    3    3    0  502 -0.13773402654E+03  0.73638429920E+03  0.36312222777E+03  0.83252138914E+03  0.12699999809E+01 0.  1.
</event>
<event>
 5   0  0.1603564E-04  0.1795286E+04  0.7818609E-02  0.8708810E-01
       -2   -1    0    0    0  501  0.00000000000E+00  0.00000000000E+00  0.80669657730E+03  0.80669657730E+03  0.25500000920E-02 0. -1.
        2   -1    0    0  501    0  0.00000000000E+00  0.00000000000E+00 -0.99884286001E+03  0.99884286001E+03  0.25500000920E-02 0.  1.
    10030    2    1    2    0    0  0.00000000000E+00  0.00000000000E+00 -0.19214628271E+03  0.18055394373E+04  0.17952861793E+04 0.  0.
        5    1    3    3  502    0 -0.72151645253E+03 -0.50091278955E+03  0.90028038567E+02  0.88296475112E+03  0.46999998093E+01 0.  1.
       -5    1    3    3    0  502  0.72151645253E+03  0.50091278955E+03 -0.28217432128E+03  0.92257468618E+03  0.46999998093E+01 0. -1.
</event>
<event>
 5   0  0.8254914E-05  0.1812791E+04  0.7818609E-02  0.8699527E-01
       -1   -1    0    0    0  501  0.00000000000E+00  0.00000000000E+00  0.68440385219E+03  0.68440385220E+03  0.50400001928E-02 0.  1.
        1   -1    0    0  501    0  0.00000000000E+00  0.00000000000E+00 -0.12003921757E+04  0.12003921757E+04  0.50400001928E-02 0. -1.
    10030    2    1    2    0    0  0.00000000000E+00  0.00000000000E+00 -0.51598832351E+03  0.18847960279E+04  0.18127912502E+04 0.  0.
        4    1    3    3  502    0  0.39467641299E+03 -0.51371642419E+03  0.40112409790E+03  0.76195550413E+03  0.12699999809E+01 0.  1.
       -4    1    3    3    0  502 -0.39467641299E+03  0.51371642419E+03 -0.91711242141E+03  0.11228405238E+04  0.12699999809E+01 0. -1.
</event>
<event>
 5   0  0.8430513E-05  0.1821020E+04  0.7818609E-02  0.8695201E-01
       -1   -1    0    0    0  501  0.00000000000E+00  0.00000000000E+00  0.15894209831E+04  0.15894209831E+04  0.50400001928E-02 0. -1.
        1   -1    0    0  501    0  0.00000000000E+00  0.00000000000E+00 -0.52159138346E+03  0.52159138348E+03  0.50400001928E-02 0.  1.
    10030    2    1    2    0    0  0.00000000000E+00  0.00000000000E+00  0.10678295996E+04  0.21110123666E+04  0.18210198126E+04 0.  0.
        5    1    3    3  502    0 -0.70115869059E+02  0.41762927659E+03  0.14682967391E+04  0.15281517764E+04  0.46999998093E+01 0. -1.
       -5    1    3    3    0  502  0.70115869059E+02 -0.41762927659E+03 -0.40046713947E+03  0.58286059015E+03  0.46999998093E+01 0.  1.
</event>
<event>
 5   0  0.1573981E-04  0.1794903E+04  0.7818609E-02  0.8709015E-01
        2   -1    0    0  501    0  0.00000000000E+00  0.00000000000E+00  0.15423202148E+04  0.15423202148E+04  0.25500000920E-02 0. -1.
       -2   -1    0    0    0  501  0.00000000000E+00  0.00000000000E+00 -0.52221274986E+03  0.52221274987E+03  0.25500000920E-02 0.  1.
    10030    2    1    2    0    0  0.00000000000E+00  0.00000000000E+00  0.10201074649E+04  0.20645329647E+04  0.17949030955E+04 0.  0.
        1    1    3    3  502    0  0.53503989626E+03  0.71821475362E+03  0.44378712272E+03  0.99952345307E+03  0.50400001928E-02 0.  1.
       -1    1    3    3    0  502 -0.53503989626E+03 -0.71821475362E+03  0.57632034221E+03  0.10650095116E+04  0.50400001928E-02 0. -1.
</event>
<event>
 5   0  0.8430513E-05  0.1784581E+04  0.7818609E-02  0.8714542E-01
        1   -1    0    0  501    0  0.00000000000E+00  0.00000000000E+00  0.11250417426E+04  0.11250417426E+04  0.50400001928E-02 0.  1.
       -1   -1    0    0    0  501  0.00000000000E+00  0.00000000000E+00 -0.70769126861E+03  0.70769126863E+03  0.50400001928E-02 0. -1.
    10030    2    1    2    0    0  0.00000000000E+00  0.00000000000E+00  0.41735047399E+03  0.18327330112E+04  0.17845808674E+04 0.  0.
        5    1    3    3  502    0  0.31496884542E+03  0.72113222271E+03 -0.22329637344E+03  0.81799780966E+03  0.46999998093E+01 0. -1.
       -5    1    3    3    0  502 -0.31496884542E+03 -0.72113222271E+03  0.64064684743E+03  0.10147352016E+04  0.46999998093E+01 0.  1.
</event>
<event>
 5   0  0.1573981E-04  0.1856020E+04  0.7818609E-02  0.8677063E-01
        2   -1    0    0  501    0  0.00000000000E+00  0.00000000000E+00  0.20571997007E+04  0.20571997007E+04  0.25500000920E-02 0.  1.
       -2   -1    0    0    0  501  0.00000000000E+00  0.00000000000E+00 -0.41862842029E+03  0.41862842029E+03  0.25500000920E-02 0. -1.
    10030    2    1    2    0    0  0.00000000000E+00  0.00000000000E+00  0.16385712804E+04  0.24758281210E+04  0.18560196776E+04 0.  0.
        1    1    3    3  502    0  0.25991794411E+03  0.51855266221E+03  0.17855886580E+04  0.18774400275E+04  0.50400001928E-02 0.  1.
       -1    1    3    3    0  502 -0.25991794411E+03 -0.51855266221E+03 -0.14701737757E+03  0.59838809354E+03  0.50400001928E-02 0. -1.
</event>
<event>
 5   0  0.8132598E-05  0.1781963E+04  0.7818609E-02  0.8715950E-01
       -1   -1    0    0    0  501  0.00000000000E+00  0.00000000000E+00  0.16680406871E+04  0.16680406871E+04  0.50400001928E-02 0.  1.
        1   -1    0    0  501    0  0.00000000000E+00  0.00000000000E+00 -0.47591661177E+03  0.47591661179E+03  0.50400001928E-02 0. -1.
    10030    2    1    2    0    0  0.00000000000E+00  0.00000000000E+00  0.11921240754E+04  0.21439572989E+04  0.17819632680E+04 0.  0.
        3    1    3    3  502    0  0.88395813729E+03 -0.99259993677E+01  0.46226000920E+03  0.99757949069E+03  0.10100000352E+00 0.  1.
       -3    1    3    3    0  502 -0.88395813729E+03  0.99259993677E+01  0.72986406615E+03  0.11463778082E+04  0.10100000352E+00 0. -1.
</event>
<event>
 5   0  0.8430513E-05  0.1802111E+04  0.7818609E-02  0.8705178E-01
        1   -1    0    0  501    0  0.00000000000E+00  0.00000000000E+00  0.92549787073E+03  0.92549787075E+03  0.50400001928E-02 0. -1.
       -1   -1    0    0    0  501  0.00000000000E+00  0.00000000000E+00 -0.87725820269E+03  0.87725820270E+03  0.50400001928E-02 0.  1.
    10030    2    1    2    0    0  0.00000000000E+00  0.00000000000E+00  0.48239668046E+02  0.18027560734E+04  0.18021105390E+04 0.  0.
        5    1    3    3  502    0 -0.68120563933E+03 -0.97240861637E+02  0.60603397494E+03  0.91694938628E+03  0.46999998093E+01 0. -1.
       -5    1    3    3    0  502  0.68120563933E+03  0.97240861637E+02 -0.55779430689E+03  0.88580668717E+03  0.46999998093E+01 0.  1.
</event>
<event>
 5   0  0.1549012E-04  0.1746206E+04  0.7818609E-02  0.8735441E-01
        2   -1    0    0  501    0  0.00000000000E+00  0.00000000000E+00  0.66212494150E+03  0.66212494150E+03  0.25500000920E-02 0. -1.
       -2   -1    0    0    0  501  0.00000000000E+00  0.00000000000E+00 -0.11513069312E+04  0.11513069312E+04  0.25500000920E-02 0.  1.
    10030    2    1    2    0    0  0.00000000000E+00  0.00000000000E+00 -0.48918198972E+03  0.18134318727E+04  0.17462062129E+04 0.  0.
        4    1    3    3  502    0  0.54447729192E+03  0.22123464711E+03 -0.91513205593E+03  0.10875976201E+04  0.12699999809E+01 0.  1.
       -4    1    3    3    0  502 -0.54447729192E+03 -0.22123464711E+03  0.42595006621E+03  0.72583425264E+03  0.12699999809E+01 0. -1.
</event>
<event>
 5   0  0.1608627E-04  0.1954074E+04  0.7818609E-02  0.8628399E-01
       -2   -1    0    0    0  501  0.00000000000E+00  0.00000000000E+00  0.12240926972E+04  0.12240926972E+04  0.25500000920E-02 0. -1.
        2   -1    0    0  501    0  0.00000000000E+00  0.00000000000E+00 -0.77984409082E+03  0.77984409082E+03  0.25500000920E-02 0.  1.
    10030    2    1    2    0    0  0.00000000000E+00  0.00000000000E+00  0.44424860636E+03  0.20039367880E+04  0.19540741608E+04 0.  0.
        2    1    3    3  502    0  0.42576836690E+03 -0.41200883954E+03  0.10188472538E+04  0.11785922589E+04  0.25500000920E-02 0. -1.
       -2    1    3    3    0  502 -0.42576836690E+03  0.41200883954E+03 -0.57459864744E+03  0.82534452912E+03  0.25500000920E-02 0.  1.
</event>
<event>
 5   0  0.8254914E-05  0.1793016E+04  0.7818609E-02  0.8710022E-01
        1   -1    0    0  501    0  0.00000000000E+00  0.00000000000E+00  0.66644614520E+03  0.66644614522E+03  0.50400001928E-02 0.  1.
       -1   -1    0    0    0  501  0.00000000000E+00  0.00000000000E+00 -0.12059894418E+04  0.12059894418E+04  0.50400001928E-02 0. -1.
    10030    2    1    2    0    0  0.00000000000E+00  0.00000000000E+00 -0.53954329655E+03  0.18724355870E+04  0.17930164691E+04 0.  0.
        4    1    3    3  502    0  0.73927951961E+03 -0.41585888785E+03 -0.57289138136E+03  0.10235619036E+04  0.12699999809E+01 0. -1.
       -4    1    3    3    0  502 -0.73927951961E+03  0.41585888785E+03  0.33348084807E+02  0.84887368340E+03  0.12699999809E+01 0.  1.
</event>
<event>
 5   0  0.1603564E-04  0.1801300E+04  0.7818609E-02  0.8705608E-01
        2   -1    0    0  501    0  0.00000000000E+00  0.00000000000E+00  0.87127240324E+03  0.87127240324E+03  0.25500000920E-02 0.  1.
       -2   -1    0    0    0  501  0.00000000000E+00  0.00000000000E+00 -0.93101806737E+03  0.93101806737E+03  0.25500000920E-02 0. -1.
    10030    2    1    2    0    0  0.00000000000E+00  0.00000000000E+00 -0.59745664130E+02  0.18022904706E+04  0.18012999184E+04 0.  0.
        5    1    3    3  502    0  0.40470643266E+03 -0.68525248430E+03 -0.45175621141E+03  0.91513060731E+03  0.46999998093E+01 0.  1.
       -5    1    3    3    0  502 -0.40470643266E+03  0.68525248430E+03  0.39201054728E+03  0.88715986330E+03  0.46999998093E+01 0. -1.
</event>
<event>
 5   0  0.8206783E-05  0.1794529E+04  0.7818609E-02  0.8709214E-01
       -1   -1    0    0    0  501  0.00000000000E+00  0.00000000000E+00  0.86732000946E+03  0.86732000947E+03  0.50400001928E-02 0.  1.
        1   -1    0    0  501    0  0.00000000000E+00  0.00000000000E+00 -0.92824332135E+03  0.92824332136E+03  0.50400001928E-02 0. -1.
    10030    2    1    2    0    0  0.00000000000E+00  0.00000000000E+00 -0.60923311893E+02  0.17955633308E+04  0.17945294718E+04 0.  0.
        1    1    3    3  502    0  0.10968399231E+03 -0.52008282942E+03 -0.75376627499E+03  0.92232332994E+03  0.50400001928E-02 0. -1.
       -1    1    3    3    0  502 -0.10968399231E+03  0.52008282942E+03  0.69284296309E+03  0.87324000089E+03  0.50400001928E-02 0.  1.
</event>
<event>
 5   0  0.1549012E-04  0.1873442E+04  0.7818609E-02  0.8668190E-01
        2   -1    0    0  501    0  0.00000000000E+00  0.00000000000E+00  0.54895258017E+03  0.54895258018E+03  0.25500000920E-02 0.  1.
       -2   -1    0    0    0  501  0.00000000000E+00  0.00000000000E+00 -0.15984012199E+04  0.15984012199E+04  0.25500000920E-02 0. -1.
    10030    2    1    2    0    0  0.00000000000E+00  0.00000000000E+00 -0.10494486397E+04  0.21473538001E+04  0.18734422583E+04 0.  0.
        4    1    3    3  502    0  0.68351149165E+03 -0.47982695769E+03 -0.38398552077E+02  0.83600115445E+03  0.12699999809E+01 0.  1.
       -4    1    3    3    0  502 -0.68351149165E+03  0.47982695769E+03 -0.10110500876E+04  0.13113526456E+04  0.12699999809E+01 0. -1.
</event>
<event>
 5   0  0.8492114E-05  0.1816877E+04  0.7818609E-02  0.8697376E-01
       -1   -1    0    0    0  501  0.00000000000E+00  0.00000000000E+00  0.33722934201E+03  0.33722934205E+03  0.50400001928E-02 0. -1.
        1   -1    0    0  501    0  0.00000000000E+00  0.00000000000E+00 -0.24471786850E+04  0.24471786850E+04  0.50400001928E-02 0.  1.
    10030    2    1    2    0    0  0.00000000000E+00  0.00000000000E+00 -0.21099493430E+04  0.27844080270E+04  0.18168769444E+04 0.  0.
        2    1    3    3  502    0 -0.43246627937E+03 -0.19533443545E+03 -0.22421398659E+04  0.22918057952E+04  0.25500000920E-02 0.  1.
       -2    1    3    3    0  502  0.43246627937E+03  0.19533443545E+03  0.13219052295E+03  0.49260223185E+03  0.25500000920E-02 0. -1.
</event>
<event>
 5   0  0.8492114E-05  0.1766912E+04  0.7818609E-02  0.8724096E-01
        1   -1    0    0  501    0  0.00000000000E+00  0.00000000000E+00  0.19375002617E+04  0.19375002617E+04  0.50400001928E-02 0.  1.
       -1   -1    0    0    0  501  0.00000000000E+00  0.00000000000E+00 -0.40283562779E+03  0.40283562783E+03  0.50400001928E-02 0. -1.
    10030    2    1    2    0    0  0.00000000000E+00  0.00000000000E+00  0.15346646339E+04  0.23403358895E+04  0.17669115816E+04 0.  0.
        2    1    3    3  502    0 -0.36293029449E+03 -0.44823843290E+03  0.16537401071E+04  0.17514258287E+04  0.25500000920E-02 0.  1.
       -2    1    3    3    0  502  0.36293029449E+03  0.44823843290E+03 -0.11907547328E+03  0.58891006081E+03  0.25500000920E-02 0. -1.
</event>
<event>
 5   0  0.1608627E-04  0.1797460E+04  0.7818609E-02  0.8707651E-01
        2   -1    0    0  501    0  0.00000000000E+00  0.00000000000E+00  0.17995598204E+04  0.17995598204E+04  0.25500000920E-02 0.  1.
       -2   -1    0    0    0  501  0.00000000000E+00  0.00000000000E+00 -0.44884085645E+03  0.44884085646E+03  0.25500000920E-02 0. -1.
    10030    2    1    2    0    0  0.00000000000E+00  0.00000000000E+00  0.13507189639E+04  0.22484006768E+04  0.17974603985E+04 0.  0.
        2    1    3    3  502    0 -0.25422467834E+03 -0.80655527416E+03  0.10559104663E+04  0.13528150318E+04  0.25500000920E-02 0.  1.
       -2    1    3    3    0  502  0.25422467834E+03  0.80655527416E+03  0.29480849763E+03  0.89558564506E+03  0.25500000920E-02 0. -1.
</event>
<event>
 5   0  0.8430513E-05  0.1798227E+04  0.7818609E-02  0.8707243E-01
       -1   -1    0    0    0  501  0.00000000000E+00  0.00000000000E+00  0.64310512292E+03  0.64310512294E+03  0.50400001928E-02 0.  1.
        1   -1    0    0  501    0  0.00000000000E+00  0.00000000000E+00 -0.12570345635E+04  0.12570345635E+04  0.50400001928E-02 0. -1.
    10030    2    1    2    0    0  0.00000000000E+00  0.00000000000E+00 -0.61392944057E+03  0.19001396864E+04  0.17982273132E+04 0.  0.
        5    1    3    3  502    0  0.38634469735E+03  0.71264257196E+03  0.10400072600E+03  0.81728813863E+03  0.46999998093E+01 0. -1.
       -5    1    3    3    0  502 -0.38634469735E+03 -0.71264257196E+03 -0.71793016657E+03  0.10828515478E+04  0.46999998093E+01 0.  1.
</event>
<event>
 5   0  0.8206783E-05  0.1797989E+04  0.7818609E-02  0.8707370E-01
        1   -1    0    0  501    0  0.00000000000E+00  0.00000000000E+00  0.10777823065E+04  0.10777823065E+04  0.50400001928E-02 0. -1.
       -1   -1    0    0    0  501  0.00000000000E+00  0.00000000000E+00 -0.74986453073E+03  0.74986453075E+03  0.50400001928E-02 0.  1.
    10030    2    1    2    0    0  0.00000000000E+00  0.00000000000E+00  0.32791777576E+03  0.18276468372E+04  0.17979885689E+04 0.  0.
        1    1    3    3  502    0  0.63124436572E+03 -0.28544883632E+03 -0.41841415112E+03  0.80933360816E+03  0.50400001928E-02 0.  1.
       -1    1    3    3    0  502 -0.63124436572E+03  0.28544883632E+03  0.74633192688E+03  0.10183132291E+04  0.50400001928E-02 0. -1.
</event>
<event>
 5   0  0.8430513E-05  0.1814504E+04  0.7818609E-02  0.8698624E-01
        1   -1    0    0  501    0  0.00000000000E+00  0.00000000000E+00  0.10025948832E+04  0.10025948832E+04  0.50400001928E-02 0. -1.
       -1   -1    0    0    0  501  0.00000000000E+00  0.00000000000E+00 -0.82097565063E+03  0.82097565065E+03  0.50400001928E-02 0.  1.
    10030    2    1    2    0    0  0.00000000000E+00  0.00000000000E+00  0.18161923254E+03  0.18235705338E+04  0.18145037741E+04 0.  0.
        5    1    3    3  502    0 -0.26522371340E+03 -0.19639860890E+03  0.94011688785E+03  0.99637236240E+03  0.46999998093E+01 0. -1.
       -5    1    3    3    0  502  0.26522371340E+03  0.19639860890E+03 -0.75849765531E+03  0.82719817144E+03  0.46999998093E+01 0.  1.
</event>
<event>
 5   0  0.1608627E-04  0.1878088E+04  0.7818609E-02  0.8665841E-01
       -2   -1    0    0    0  501  0.00000000000E+00  0.00000000000E+00  0.62191251774E+03  0.62191251774E+03  0.25500000920E-02 0.  1.
        2   -1    0    0  501    0  0.00000000000E+00  0.00000000000E+00 -0.14178905354E+04  0.14178905354E+04  0.25500000920E-02 0. -1.
    10030    2    1    2    0    0  0.00000000000E+00  0.00000000000E+00 -0.79597801769E+03  0.20398030532E+04  0.18780882543E+04 0.  0.
        2    1    3    3  502    0  0.10108751400E+03 -0.65421031878E+03 -0.11213666734E+04  0.13021801116E+04  0.25500000920E-02 0. -1.
       -2    1    3    3    0  502 -0.10108751400E+03  0.65421031878E+03  0.32538865574E+03  0.73762294160E+03  0.25500000920E-02 0.  1.
</event>
<event>
 5   0  0.1608627E-04  0.1767313E+04  0.7818609E-02  0.8723878E-01
       -2   -1    0    0    0  501  0.00000000000E+00  0.00000000000E+00  0.34921572712E+03  0.34921572713E+03  0.25500000920E-02 0. -1.
        2   -1    0    0  501    0  0.00000000000E+00  0.00000000000E+00 -0.22360070857E+04  0.22360070857E+04  0.25500000920E-02 0.  1.
    10030    2    1    2    0    0  0.00000000000E+00  0.00000000000E+00 -0.18867913586E+04  0.25852228128E+04  0.17673130343E+04 0.  0.
        2    1    3    3  502    0 -0.14546627514E+01 -0.47557317200E+03  0.14604736915E+03  0.49749551959E+03  0.25500000920E-02 0. -1.
       -2    1    3    3    0  502  0.14546627514E+01  0.47557317200E+03 -0.20328387277E+04  0.20877272932E+04  0.25500000920E-02 0.  1.
</event>
<event>
 5   0  0.8206783E-05  0.1798143E+04  0.7818609E-02  0.8707288E-01
        1   -1    0    0  501    0  0.00000000000E+00  0.00000000000E+00  0.14598430474E+04  0.14598430474E+04  0.50400001928E-02 0. -1.
       -1   -1    0    0    0  501  0.00000000000E+00  0.00000000000E+00 -0.55370971123E+03  0.55370971125E+03  0.50400001928E-02 0.  1.
    10030    2    1    2    0    0  0.00000000000E+00  0.00000000000E+00  0.90613333615E+03  0.20135527586E+04  0.17981426776E+04 0.  0.
        1    1    3    3  502    0 -0.72724566024E+03 -0.48096431934E+03  0.20743453404E+03  0.89623769881E+03  0.50400001928E-02 0.  1.
       -1    1    3    3    0  502  0.72724566024E+03  0.48096431934E+03  0.69869880211E+03  0.11173150598E+04  0.50400001928E-02 0. -1.
</event>
<event>
 5   0  0.1628397E-04  0.1777611E+04  0.7818609E-02  0.8718297E-01
        2   -1    0    0  501    0  0.00000000000E+00  0.00000000000E+00  0.20077332057E+04  0.20077332057E+04  0.25500000920E-02 0. -1.
       -2   -1    0    0    0  501  0.00000000000E+00  0.00000000000E+00 -0.39346618727E+03  0.39346618728E+03  0.25500000920E-02 0.  1.
    10030    2    1    2    0    0  0.00000000000E+00  0.00000000000E+00  0.16142670184E+04  0.24011993930E+04  0.17776109018E+04 0.  0.
        3    1    3    3  502    0  0.27108090194E+03 -0.28844984357E+03 -0.26782521758E+03  0.47793150663E+03  0.10100000352E+00 0.  1.
       -3    1    3    3    0  502 -0.27108090194E+03  0.28844984357E+03  0.18820922360E+04  0.19232678864E+04  0.10100000352E+00 0. -1.
</event>
<event>
 5   0  0.1628397E-04  0.1806214E+04  0.7818609E-02  0.8703002E-01
       -2   -1    0    0    0  501  0.00000000000E+00  0.00000000000E+00  0.42944045874E+03  0.42944045875E+03  0.25500000920E-02 0. -1.
        2   -1    0    0  501    0  0.00000000000E+00  0.00000000000E+00 -0.18992211375E+04  0.18992211375E+04  0.25500000920E-02 0.  1.
    10030    2    1    2    0    0  0.00000000000E+00  0.00000000000E+00 -0.14697806787E+04  0.23286615962E+04  0.18062141584E+04 0.  0.
        3    1    3    3  502    0  0.60445915224E+03  0.49415083677E+03 -0.13201111052E+04  0.15337044227E+04  0.10100000352E+00 0. -1.
       -3    1    3    3    0  502 -0.60445915224E+03 -0.49415083677E+03 -0.14966957358E+03  0.79495717348E+03  0.10100000352E+00 0.  1.
</event>
<event>
 5   0  0.1549012E-04  0.1806947E+04  0.7818609E-02  0.8702614E-01
        2   -1    0    0  501    0  0.00000000000E+00  0.00000000000E+00  0.91289405823E+03  0.91289405823E+03  0.25500000920E-02 0.  1.
       -2   -1    0    0    0  501  0.00000000000E+00  0.00000000000E+00 -0.89414995800E+03  0.89414995801E+03  0.25500000920E-02 0. -1.
    10030    2    1    2    0    0  0.00000000000E+00  0.00000000000E+00  0.18744100225E+02  0.18070440162E+04  0.18069467993E+04 0.  0.
        4    1    3    3  502    0 -0.68960780154E+03  0.40613640066E+03 -0.40988418136E+03  0.89917314846E+03  0.12699999809E+01 0. -1.
       -4    1    3    3    0  502  0.68960780154E+03 -0.40613640066E+03  0.42862828158E+03  0.90787086778E+03  0.12699999809E+01 0.  1.
</event>
<event>
 5   0  0.8254914E-05  0.1817526E+04  0.7818609E-02  0.8697035E-01
        1   -1    0    0  501    0  0.00000000000E+00  0.00000000000E+00  0.98181894360E+03  0.98181894361E+03  0.50400001928E-02 0. -1.
       -1   -1    0    0    0  501  0.00000000000E+00  0.00000000000E+00 -0.84114292980E+03  0.84114292981E+03  0.50400001928E-02 0.  1.
    10030    2    1    2    0    0  0.00000000000E+00  0.00000000000E+00  0.14067601380E+03  0.18229618734E+04  0.18175258598E+04 0.  0.
        4    1    3    3  502    0  0.86168459411E+03  0.11965728798E+02 -0.21897737258E+03  0.88915477898E+03  0.12699999809E+01 0. -1.
       -4    1    3    3    0  502 -0.86168459411E+03 -0.11965728798E+02  0.35965338638E+03  0.93380709444E+03  0.12699999809E+01 0.  1.
</event>
<event>
 5   0  0.8254914E-05  0.1799119E+04  0.7818609E-02  0.8706768E-01
        1   -1    0    0  501    0  0.00000000000E+00  0.00000000000E+00  0.24114302751E+04  0.24114302751E+04  0.50400001928E-02 0.  1.
       -1   -1    0    0    0  501  0.00000000000E+00  0.00000000000E+00 -0.33557151546E+03  0.33557151550E+03  0.50400001928E-02 0. -1.
    10030    2    1    2    0    0  0.00000000000E+00  0.00000000000E+00  0.20758587597E+04  0.27470017906E+04  0.17991190199E+04 0.  0.
        4    1    3    3  502    0  0.11639718611E+03  0.87136883369E+03  0.13291305293E+04  0.15935562513E+04  0.12699999809E+01 0. -1.
       -4    1    3    3    0  502 -0.11639718611E+03 -0.87136883369E+03  0.74672823037E+03  0.11534455393E+04  0.12699999809E+01 0.  1.
</event>
<event>
 5   0  0.1603564E-04  0.1813157E+04  0.7818609E-02  0.8699334E-01
       -2   -1    0    0    0  501  0.00000000000E+00  0.00000000000E+00  0.73848763411E+03  0.73848763411E+03  0.25500000920E-02 0. -1.
        2   -1    0    0  501    0  0.00000000000E+00  0.00000000000E+00 -0.11129298828E+04  0.11129298828E+04  0.25500000920E-02 0.  1.
    10030    2    1    2    0    0  0.00000000000E+00  0.00000000000E+00 -0.37444224869E+03  0.18514175169E+04  0.18131574185E+04 0.  0.
        5    1    3    3  502    0 -0.51084646978E+03 -0.58872583351E+03  0.28547342517E+03  0.83010805875E+03  0.46999998093E+01 0. -1.
       -5    1    3    3    0  502  0.51084646978E+03  0.58872583351E+03 -0.65991567386E+03  0.10213094582E+04  0.46999998093E+01 0.  1.
</event>
<event>
 5   0  0.8254914E-05  0.1775191E+04  0.7818609E-02  0.8719605E-01
        1   -1    0    0  501    0  0.00000000000E+00  0.00000000000E+00  0.59135159537E+03  0.59135159539E+03  0.50400001928E-02 0.  1.
       -1   -1    0    0    0  501  0.00000000000E+00  0.00000000000E+00 -0.13322452339E+04  0.13322452339E+04  0.50400001928E-02 0. -1.
    10030    2    1    2    0    0  0.00000000000E+00  0.00000000000E+00 -0.74089363850E+03  0.19235968293E+04  0.17751905188E+04 0.  0.
        4    1    3    3  502    0  0.36389178971E+03  0.71567793395E+03  0.39623341889E+02  0.80385556034E+03  0.12699999809E+01 0.  1.
       -4    1    3    3    0  502 -0.36389178971E+03 -0.71567793395E+03 -0.78051698039E+03  0.11197412689E+04  0.12699999809E+01 0. -1.
</event>
<event>
 5   0  0.1628397E-04  0.1802579E+04  0.7818609E-02  0.8704929E-01
       -2   -1    0    0    0  501  0.00000000000E+00  0.00000000000E+00  0.68138397198E+03  0.68138397199E+03  0.25500000920E-02 0.  1.
        2   -1    0    0  501    0  0.00000000000E+00  0.00000000000E+00 -0.11921653083E+04  0.11921653083E+04  0.25500000920E-02 0. -1.
    10030    2    1    2    0    0  0.00000000000E+00  0.00000000000E+00 -0.51078133634E+03  0.18735492803E+04  0.18025785232E+04 0.  0.
        3    1    3    3  502    0  0.21770027771E+03  0.24453768983E+03  0.61739095937E+03  0.69883023659E+03  0.10100000352E+00 0.  1.
       -3    1    3    3    0  502 -0.21770027771E+03 -0.24453768983E+03 -0.11281722957E+04  0.11747190437E+04  0.10100000352E+00 0. -1.
</event>
<event>
 5   0  0.1628397E-04  0.1797477E+04  0.7818609E-02  0.8707643E-01
       -2   -1    0    0    0  501  0.00000000000E+00  0.00000000000E+00  0.64205527348E+03  0.64205527348E+03  0.25500000920E-02 0. -1.
        2   -1    0    0  501    0  0.00000000000E+00  0.00000000000E+00 -0.12580388411E+04  0.12580388411E+04  0.25500000920E-02 0.  1.
    10030    2    1    2    0    0  0.00000000000E+00  0.00000000000E+00 -0.61598356766E+03  0.19000941146E+04  0.17974765336E+04 0.  0.
        3    1    3    3  502    0  0.17223814012E+03 -0.79213151987E+03 -0.71820820025E+03  0.10830334024E+04  0.10100000352E+00 0. -1.
       -3    1    3    3    0  502 -0.17223814012E+03  0.79213151987E+03  0.10222463259E+03  0.81706071219E+03  0.10100000352E+00 0.  1.
</event>
<event>
 5   0  0.8254914E-05  0.1792622E+04  0.7818609E-02  0.8710233E-01
        1   -1    0    0  501    0  0.00000000000E+00  0.00000000000E+00  0.60317352445E+03  0.60317352447E+03  0.50400001928E-02 0. -1.
       -1   -1    0    0    0  501  0.00000000000E+00  0.00000000000E+00 -0.13319106780E+04  0.13319106780E+04  0.50400001928E-02 0.  1.
    10030    2    1    2    0    0  0.00000000000E+00  0.00000000000E+00 -0.72873715356E+03  0.19350842025E+04  0.17926218318E+04 0.  0.
        4    1    3    3  502    0 -0.15962516866E+03  0.28050339902E+03  0.53827185385E+03  0.62761497184E+03  0.12699999809E+01 0. -1.
       -4    1    3    3    0  502  0.15962516866E+03 -0.28050339902E+03 -0.12670090074E+04  0.13074692307E+04  0.12699999809E+01 0.  1.
</event>
<event>
 5   0  0.8132598E-05  0.1800214E+04  0.7818609E-02  0.8706186E-01
        1   -1    0    0  501    0  0.00000000000E+00  0.00000000000E+00  0.63826482427E+03  0.63826482429E+03  0.50400001928E-02 0.  1.
       -1   -1    0    0    0  501  0.00000000000E+00  0.00000000000E+00 -0.12693669394E+04  0.12693669394E+04  0.50400001928E-02 0. -1.
    10030    2    1    2    0    0  0.00000000000E+00  0.00000000000E+00 -0.63110211512E+03  0.19076317637E+04  0.18002136168E+04 0.  0.
        3    1    3    3  502    0 -0.51207983036E+02 -0.89152547090E+03 -0.19588655650E+03  0.91422725621E+03  0.10100000352E+00 0.  1.
       -3    1    3    3    0  502  0.51207983036E+02  0.89152547090E+03 -0.43521555862E+03  0.99340450747E+03  0.10100000352E+00 0. -1.
</event>
<event>
 5   0  0.8254914E-05  0.1795957E+04  0.7818609E-02  0.8708452E-01
       -1   -1    0    0    0  501  0.00000000000E+00  0.00000000000E+00  0.10253065164E+04  0.10253065164E+04  0.50400001928E-02 0.  1.
        1   -1    0    0  501    0  0.00000000000E+00  0.00000000000E+00 -0.78646268466E+03  0.78646268468E+03  0.50400001928E-02 0. -1.
    10030    2    1    2    0    0  0.00000000000E+00  0.00000000000E+00  0.23884383175E+03  0.18117692011E+04  0.17959569210E+04 0.  0.
        4    1    3    3  502    0 -0.60662901251E+02 -0.89556390675E+03  0.93722063529E+02  0.90249661316E+03  0.12699999809E+01 0. -1.
       -4    1    3    3    0  502  0.60662901251E+02  0.89556390675E+03  0.14512176822E+03  0.90927258794E+03  0.12699999809E+01 0.  1.
</event>
<event>
 5   0  0.1603564E-04  0.1797360E+04  0.7818609E-02  0.8707704E-01
       -2   -1    0    0    0  501  0.00000000000E+00  0.00000000000E+00  0.39756548222E+03  0.39756548223E+03  0.25500000920E-02 0. -1.
        2   -1    0    0  501    0  0.00000000000E+00  0.00000000000E+00 -0.20314293244E+04  0.20314293244E+04  0.25500000920E-02 0.  1.
    10030    2    1    2    0    0  0.00000000000E+00  0.00000000000E+00 -0.16338638421E+04  0.24289948066E+04  0.17973604858E+04 0.  0.
        5    1    3    3  502    0  0.46732051636E+03 -0.61746681168E+03 -0.14332022169E+04  0.16290317410E+04  0.46999998093E+01 0.  1.
       -5    1    3    3    0  502 -0.46732051636E+03  0.61746681168E+03 -0.20066162525E+03  0.79996306564E+03  0.46999998093E+01 0. -1.
</event>
<event>
 5   0  0.8254914E-05  0.1819826E+04  0.7818609E-02  0.8695827E-01
        1   -1    0    0  501    0  0.00000000000E+00  0.00000000000E+00  0.70765207317E+03  0.70765207319E+03  0.50400001928E-02 0. -1.
       -1   -1    0    0    0  501  0.00000000000E+00  0.00000000000E+00 -0.11699845338E+04  0.11699845338E+04  0.50400001928E-02 0.  1.
    10030    2    1    2    0    0  0.00000000000E+00  0.00000000000E+00 -0.46233246061E+03  0.18776366070E+04  0.18198263444E+04 0.  0.
        4    1    3    3  502    0  0.87298580880E+03  0.26692243816E+02  0.32133872589E+02  0.87398563885E+03  0.12699999809E+01 0. -1.
       -4    1    3    3    0  502 -0.87298580880E+03 -0.26692243816E+02 -0.49446633320E+03  0.10036509681E+04  0.12699999809E+01 0.  1.
</event>
<event>
 5   0  0.8492114E-05  0.1815834E+04  0.7818609E-02  0.8697924E-01
       -1   -1    0    0    0  501  0.00000000000E+00  0.00000000000E+00  0.17494413102E+04  0.17494413102E+04  0.50400001928E-02 0. -1.
        1   -1    0    0  501    0  0.00000000000E+00  0.00000000000E+00 -0.47118665878E+03  0.47118665881E+03  0.50400001928E-02 0.  1.
    10030    2    1    2    0    0  0.00000000000E+00  0.00000000000E+00  0.12782546514E+04  0.22206279690E+04  0.18158341397E+04 0.  0.
        2    1    3    3  502    0 -0.18378765314E+02  0.38356329307E+03  0.16452417923E+04  0.16894611963E+04  0.25500000920E-02 0. -1.
       -2    1    3    3    0  502  0.18378765314E+02 -0.38356329307E+03 -0.36698714089E+03  0.53116677267E+03  0.25500000920E-02 0.  1.
</event>
<event>
 5   0  0.8430513E-05  0.1831611E+04  0.7818609E-02  0.8689667E-01
        1   -1    0    0  501    0  0.00000000000E+00  0.00000000000E+00  0.11088098365E+04  0.11088098365E+04  0.50400001928E-02 0. -1.
       -1   -1    0    0    0  501  0.00000000000E+00  0.00000000000E+00 -0.75639648728E+03  0.75639648730E+03  0.50400001928E-02 0.  1.
    10030    2    1    2    0    0  0.00000000000E+00  0.00000000000E+00  0.35241334917E+03  0.18652063238E+04  0.18316111655E+04 0.  0.
        5    1    3    3  502    0 -0.86316316649E+03 -0.14339009480E+03 -0.99059257062E+02  0.88059422987E+03  0.46999998093E+01 0.  1.
       -5    1    3    3    0  502  0.86316316649E+03  0.14339009480E+03  0.45147260623E+03  0.98461209389E+03  0.46999998093E+01 0. -1.
</event>
<event>
 5   0  0.1608627E-04  0.1789399E+04  0.7818609E-02  0.8711957E-01
        2   -1    0    0  501    0  0.00000000000E+00  0.00000000000E+00  0.89052698120E+03  0.89052698121E+03  0.25500000920E-02 0.  1.
       -2   -1    0    0    0  501  0.00000000000E+00  0.00000000000E+00 -0.89889198746E+03  0.89889198746E+03  0.25500000920E-02 0. -1.
    10030    2    1    2    0    0  0.00000000000E+00  0.00000000000E+00 -0.83650062508E+01  0.17894189687E+04  0.17893994166E+04 0.  0.
        2    1    3    3  502    0  0.37259717579E+03 -0.81301537253E+03  0.21603756181E+02  0.89458894117E+03  0.25500000920E-02 0.  1.
       -2    1    3    3    0  502 -0.37259717579E+03  0.81301537253E+03 -0.29968762432E+02  0.89483002750E+03  0.25500000920E-02 0. -1.
</event>
<event>
 5   0  0.1549012E-04  0.1771208E+04  0.7818609E-02  0.8721762E-01
       -2   -1    0    0    0  501  0.00000000000E+00  0.00000000000E+00  0.65382233650E+03  0.65382233650E+03  0.25500000920E-02 0. -1.
        2   -1    0    0  501    0  0.00000000000E+00  0.00000000000E+00 -0.11995526200E+04  0.11995526200E+04  0.25500000920E-02 0.  1.
    10030    2    1    2    0    0  0.00000000000E+00  0.00000000000E+00 -0.54573028350E+03  0.18533749565E+04  0.17712078328E+04 0.  0.
        4    1    3    3  502    0  0.23903346320E+03 -0.47356735827E+03 -0.10149099188E+04  0.11451841754E+04  0.12699999809E+01 0.  1.
       -4    1    3    3    0  502 -0.23903346320E+03  0.47356735827E+03  0.46917963532E+03  0.70819078111E+03  0.12699999809E+01 0. -1.
</event>
<event>
 5   0  0.1628397E-04  0.1894975E+04  0.7818609E-02  0.8657362E-01
       -2   -1    0    0    0  501  0.00000000000E+00  0.00000000000E+00  0.15308938965E+04  0.15308938965E+04  0.25500000920E-02 0. -1.
        2   -1    0    0  501    0  0.00000000000E+00  0.00000000000E+00 -0.58641066815E+03  0.58641066816E+03  0.25500000920E-02 0.  1.
    10030    2    1    2    0    0  0.00000000000E+00  0.00000000000E+00  0.94448322835E+03  0.21173045647E+04  0.18949749473E+04 0.  0.
        3    1    3    3  502    0 -0.72036138360E+01 -0.90915916945E+03  0.77019330697E+03  0.11915620117E+04  0.10100000352E+00 0. -1.
       -3    1    3    3    0  502  0.72036138360E+01  0.90915916945E+03  0.17428992138E+03  0.92574255295E+03  0.10100000352E+00 0.  1.
</event>
<event>
 5   0  0.8206783E-05  0.1804704E+04  0.7818609E-02  0.8703802E-01
        1   -1    0    0  501    0  0.00000000000E+00  0.00000000000E+00  0.12132285283E+04  0.12132285283E+04  0.50400001928E-02 0.  1.
       -1   -1    0    0    0  501  0.00000000000E+00  0.00000000000E+00 -0.67113419564E+03  0.67113419566E+03  0.50400001928E-02 0. -1.
    10030    2    1    2    0    0  0.00000000000E+00  0.00000000000E+00  0.54209433269E+03  0.18843627240E+04  0.18047040229E+04 0.  0.
        1    1    3    3  502    0  0.62802986097E+03  0.39726456524E+03  0.80549821071E+03  0.10959324836E+04  0.50400001928E-02 0. -1.
       -1    1    3    3    0  502 -0.62802986097E+03 -0.39726456524E+03 -0.26340387801E+03  0.78843024044E+03  0.50400001928E-02 0.  1.
</event>
<event>
 5   0  0.8132598E-05  0.1801297E+04  0.7818609E-02  0.8705610E-01
       -1   -1    0    0    0  501  0.00000000000E+00  0.00000000000E+00  0.10628744798E+04  0.10628744798E+04  0.50400001928E-02 0.  1.
        1   -1    0    0  501    0  0.00000000000E+00  0.00000000000E+00 -0.76318268296E+03  0.76318268297E+03  0.50400001928E-02 0. -1.
    10030    2    1    2    0    0  0.00000000000E+00  0.00000000000E+00  0.29969179688E+03  0.18260571628E+04  0.18012966410E+04 0.  0.
        3    1    3    3  502    0 -0.70917770382E+03  0.50395068570E+03  0.38600318427E+03  0.95178662403E+03  0.10100000352E+00 0. -1.
       -3    1    3    3    0  502  0.70917770382E+03 -0.50395068570E+03 -0.86311387390E+02  0.87427053879E+03  0.10100000352E+00 0.  1.
</event>
<event>
 5   0  0.8430513E-05  0.1806077E+04  0.7818609E-02  0.8703074E-01
        1   -1    0    0  501    0  0.00000000000E+00  0.00000000000E+00  0.79492667034E+03  0.79492667035E+03  0.50400001928E-02 0. -1.
       -1   -1    0    0    0  501  0.00000000000E+00  0.00000000000E+00 -0.10258542743E+04  0.10258542743E+04  0.50400001928E-02 0.  1.
    10030    2    1    2    0    0  0.00000000000E+00  0.00000000000E+00 -0.23092760392E+03  0.18207809446E+04  0.18060774319E+04 0.  0.
        5    1    3    3  502    0  0.52888584989E+03  0.95729543543E+02  0.61609695104E+03  0.81760744297E+03  0.46999998093E+01 0. -1.
       -5    1    3    3    0  502 -0.52888584989E+03 -0.95729543543E+02 -0.84702455496E+03  0.10031735017E+04  0.46999998093E+01 0.  1.
</event>
<event>
 5   0  0.8430513E-05  0.1790093E+04  0.7818609E-02  0.8711586E-01
       -1   -1    0    0    0  501  0.00000000000E+00  0.00000000000E+00  0.95447490225E+03  0.95447490226E+03  0.50400001928E-02 0.  1.
        1   -1    0    0  501    0  0.00000000000E+00  0.00000000000E+00 -0.83931795175E+03  0.83931795176E+03  0.50400001928E-02 0. -1.
    10030    2    1    2    0    0  0.00000000000E+00  0.00000000000E+00  0.11515695050E+03  0.17937928540E+04  0.17900926456E+04 0.  0.
        5    1    3    3  502    0 -0.60267139869E+03 -0.63486806263E+03  0.24455344119E+03  0.90889974548E+03  0.46999998093E+01 0. -1.
       -5    1    3    3    0  502  0.60267139869E+03  0.63486806263E+03 -0.12939649069E+03  0.88489310854E+03  0.46999998093E+01 0.  1.
</event>
<event>
 5   0  0.1608627E-04  0.1790835E+04  0.7818609E-02  0.8711189E-01
        2   -1    0    0  501    0  0.00000000000E+00  0.00000000000E+00  0.11459422759E+04  0.11459422759E+04  0.25500000920E-02 0. -1.
       -2   -1    0    0    0  501  0.00000000000E+00  0.00000000000E+00 -0.69966185819E+03  0.69966185820E+03  0.25500000920E-02 0.  1.
    10030    2    1    2    0    0  0.00000000000E+00  0.00000000000E+00  0.44628041770E+03  0.18456041341E+04  0.17908345564E+04 0.  0.
        2    1    3    3  502    0 -0.49192954473E+03 -0.38698852517E+03  0.88304940795E+03  0.10823728805E+04  0.25500000920E-02 0. -1.
       -2    1    3    3    0  502  0.49192954473E+03  0.38698852517E+03 -0.43676899024E+03  0.76323125358E+03  0.25500000920E-02 0.  1.
</event>
<event>
 5   0  0.1608627E-04  0.1725435E+04  0.7818609E-02  0.8746990E-01
        2   -1    0    0  501    0  0.00000000000E+00  0.00000000000E+00  0.61931777959E+03  0.61931777959E+03  0.25500000920E-02 0. -1.
       -2   -1    0    0    0  501  0.00000000000E+00  0.00000000000E+00 -0.12017759537E+04  0.12017759537E+04  0.25500000920E-02 0.  1.
    10030    2    1    2    0    0  0.00000000000E+00  0.00000000000E+00 -0.58245817415E+03  0.18210937333E+04  0.17254346875E+04 0.  0.
        2    1    3    3  502    0 -0.67586431755E+03 -0.46588465184E+02 -0.85499456481E+03  0.10908614791E+04  0.25500000920E-02 0.  1.
       -2    1    3    3    0  502  0.67586431755E+03  0.46588465184E+02  0.27253639066E+03  0.73023225419E+03  0.25500000920E-02 0. -1.
</event>
<event>
 5   0  0.8132598E-05  0.1622121E+04  0.7818609E-02  0.8807072E-01
       -1   -1    0    0    0  501  0.00000000000E+00  0.00000000000E+00  0.54169952551E+03  0.54169952554E+03  0.50400001928E-02 0. -1.
        1   -1    0    0  501    0  0.00000000000E+00  0.00000000000E+00 -0.12143618814E+04  0.12143618814E+04  0.50400001928E-02 0.  1.
    10030    2    1    2    0    0  0.00000000000E+00  0.00000000000E+00 -0.67266235588E+03  0.17560614069E+04  0.16221211484E+04 0.  0.
        3    1    3    3  502    0 -0.53404047013E+03 -0.49170665930E+03 -0.72792360506E+03  0.10280308592E+04  0.10100000352E+00 0.  1.
       -3    1    3    3    0  502  0.53404047013E+03  0.49170665930E+03  0.55261249180E+02  0.72803054771E+03  0.10100000352E+00 0. -1.
</event>
<event>
 5   0  0.8206783E-05  0.1803924E+04  0.7818609E-02  0.8704215E-01
       -1   -1    0    0    0  501  0.00000000000E+00  0.00000000000E+00  0.62942609916E+03  0.62942609918E+03  0.50400001928E-02 0. -1.
        1   -1    0    0  501    0  0.00000000000E+00  0.00000000000E+00 -0.12925040403E+04  0.12925040403E+04  0.50400001928E-02 0.  1.
    10030    2    1    2    0    0  0.00000000000E+00  0.00000000000E+00 -0.66307794116E+03  0.19219301395E+04  0.18039243624E+04 0.  0.
        1    1    3    3  502    0 -0.54246446429E+03 -0.11971104674E+03  0.42553448678E+03  0.69976998306E+03  0.50400001928E-02 0. -1.
       -1    1    3    3    0  502  0.54246446429E+03  0.11971104674E+03 -0.10886124279E+04  0.12221601565E+04  0.50400001928E-02 0.  1.
</event>
<event>
 5   0  0.1573981E-04  0.1795243E+04  0.7818609E-02  0.8708833E-01
        2   -1    0    0  501    0  0.00000000000E+00  0.00000000000E+00  0.12170233862E+04  0.12170233862E+04  0.25500000920E-02 0.  1.
       -2   -1    0    0    0  501  0.00000000000E+00  0.00000000000E+00 -0.66204484983E+03  0.66204484984E+03  0.25500000920E-02 0. -1.
    10030    2    1    2    0    0  0.00000000000E+00  0.00000000000E+00  0.55497853634E+03  0.18790682360E+04  0.17952426744E+04 0.  0.
        1    1    3    3  502    0  0.23593139225E+03  0.11677143953E+02  0.11839062629E+04  0.12072423190E+04  0.50400001928E-02 0.  1.
       -1    1    3    3    0  502 -0.23593139225E+03 -0.11677143953E+02 -0.62892772653E+03  0.67182591700E+03  0.50400001928E-02 0. -1.
</event>
<event>
 5   0  0.1603564E-04  0.1800148E+04  0.7818609E-02  0.8706221E-01
       -2   -1    0    0    0  501  0.00000000000E+00  0.00000000000E+00  0.70080079057E+03  0.70080079058E+03  0.25500000920E-02 0.  1.
        2   -1    0    0  501    0  0.00000000000E+00  0.00000000000E+00 -0.11560102423E+04  0.11560102423E+04  0.25500000920E-02 0. -1.
    10030    2    1    2    0    0  0.00000000000E+00  0.00000000000E+00 -0.45520945174E+03  0.18568110329E+04  0.18001476514E+04 0.  0.
        5    1    3    3  502    0 -0.87251891020E+03 -0.18903770244E+02 -0.52931624831E+00  0.87273648449E+03  0.46999998093E+01 0. -1.
       -5    1    3    3    0  502  0.87251891020E+03  0.18903770244E+02 -0.45468013549E+03  0.98407454839E+03  0.46999998093E+01 0.  1.
</event>
<event>
 5   0  0.8492114E-05  0.1798695E+04  0.7818609E-02  0.8706994E-01
        1   -1    0    0  501    0  0.00000000000E+00  0.00000000000E+00  0.10644868542E+04  0.10644868543E+04  0.50400001928E-02 0.  1.
       -1   -1    0    0    0  501  0.00000000000E+00  0.00000000000E+00 -0.75982709797E+03  0.75982709799E+03  0.50400001928E-02 0. -1.
    10030    2    1    2    0    0  0.00000000000E+00  0.00000000000E+00  0.30465975628E+03  0.18243139522E+04  0.17986950351E+04 0.  0.
        2    1    3    3  502    0 -0.69353471128E+03  0.22619405175E+03  0.68581768927E+03  0.10012492436E+04  0.25500000920E-02 0.  1.
       -2    1    3    3    0  502  0.69353471128E+03 -0.22619405175E+03 -0.38115793300E+03  0.82306470869E+03  0.25500000920E-02 0. -1.
</event>
<event>
 5   0  0.8492114E-05  0.1596491E+04  0.7818609E-02  0.8822706E-01
       -1   -1    0    0    0  501  0.00000000000E+00  0.00000000000E+00  0.54301445704E+03  0.54301445707E+03  0.50400001928E-02 0. -1.
        1   -1    0    0  501    0  0.00000000000E+00  0.00000000000E+00 -0.11734421427E+04  0.11734421427E+04  0.50400001928E-02 0.  1.
    10030    2    1    2    0    0  0.00000000000E+00  0.00000000000E+00 -0.63042768567E+03  0.17164565998E+04  0.15964912127E+04 0.  0.
        2    1    3    3  502    0 -0.52422185252E+03  0.33094592113E+03 -0.85585403869E+03  0.10567969951E+04  0.25500000920E-02 0.  1.
       -2    1    3    3    0  502  0.52422185252E+03 -0.33094592113E+03  0.22542635302E+03  0.65965960466E+03  0.25500000920E-02 0. -1.
</event>
<event>
 5   0  0.8132598E-05  0.1788893E+04  0.7818609E-02  0.8712228E-01
        1   -1    0    0  501    0  0.00000000000E+00  0.00000000000E+00  0.12794585159E+04  0.12794585159E+04  0.50400001928E-02 0.  1.
       -1   -1    0    0    0  501  0.00000000000E+00  0.00000000000E+00 -0.62529184308E+03  0.62529184310E+03  0.50400001928E-02 0. -1.
    10030    2    1    2    0    0  0.00000000000E+00  0.00000000000E+00  0.65416667284E+03  0.19047503590E+04  0.17888934832E+04 0.  0.
        3    1    3    3  502    0  0.26892229921E+03  0.40753559795E+03  0.11250392970E+04  0.12264248435E+04  0.10100000352E+00 0.  1.
       -3    1    3    3    0  502 -0.26892229921E+03 -0.40753559795E+03 -0.47087262421E+03  0.67832551555E+03  0.10100000352E+00 0. -1.
</event>
<event>
 5   0  0.1628397E-04  0.1942757E+04  0.7818609E-02  0.8633861E-01
        2   -1    0    0  501    0  0.00000000000E+00  0.00000000000E+00  0.15309647057E+04  0.15309647057E+04  0.25500000920E-02 0.  1.
       -2   -1    0    0    0  501  0.00000000000E+00  0.00000000000E+00 -0.61632815310E+03  0.61632815311E+03  0.25500000920E-02 0. -1.
    10030    2    1    2    0    0  0.00000000000E+00  0.00000000000E+00  0.91463655260E+03  0.21472928588E+04  0.19427574728E+04 0.  0.
        3    1    3    3  502    0  0.37558108845E+03  0.77895006991E+03 -0.31701136094E+02  0.86534925761E+03  0.10100000352E+00 0. -1.
       -3    1    3    3    0  502 -0.37558108845E+03 -0.77895006991E+03  0.94633768869E+03  0.12819436012E+04  0.10100000352E+00 0.  1.
</event>
<event>
 5   0  0.8430513E-05  0.1805784E+04  0.7818609E-02  0.8703230E-01
       -1   -1    0    0    0  501  0.00000000000E+00  0.00000000000E+00  0.46018229208E+03  0.46018229211E+03  0.50400001928E-02 0.  1.
        1   -1    0    0  501    0  0.00000000000E+00  0.00000000000E+00 -0.17715017170E+04  0.17715017170E+04  0.50400001928E-02 0. -1.
    10030    2    1    2    0    0  0.00000000000E+00  0.00000000000E+00 -0.13113194249E+04  0.22316840091E+04  0.18057837308E+04 0.  0.
        5    1    3    3  502    0 -0.36546554654E+03 -0.82159847904E+03 -0.75607996420E+03  0.11748481301E+04  0.46999998093E+01 0. -1.
       -5    1    3    3    0  502  0.36546554654E+03  0.82159847904E+03 -0.55523946067E+03  0.10568358790E+04  0.46999998093E+01 0.  1.
</event>
<event>
 5   0  0.8492114E-05  0.1758575E+04  0.7818609E-02  0.8728644E-01
       -1   -1    0    0    0  501  0.00000000000E+00  0.00000000000E+00  0.16841650462E+04  0.16841650462E+04  0.50400001928E-02 0.  1.
        1   -1    0    0  501    0  0.00000000000E+00  0.00000000000E+00 -0.45906832224E+03  0.45906832227E+03  0.50400001928E-02 0. -1.
    10030    2    1    2    0    0  0.00000000000E+00  0.00000000000E+00  0.12250967239E+04  0.21432333685E+04  0.17585753577E+04 0.  0.
        2    1    3    3  502    0  0.33049255202E+03  0.68725889771E+03  0.11460091406E+04  0.13765489710E+04  0.25500000920E-02 0.  1.
       -2    1    3    3    0  502 -0.33049255202E+03 -0.68725889771E+03  0.79087583398E+02  0.76668439743E+03  0.25500000920E-02 0. -1.
</event>
<event>
 5   0  0.1628397E-04  0.1803928E+04  0.7818609E-02  0.8704213E-01
        2   -1    0    0  501    0  0.00000000000E+00  0.00000000000E+00  0.10363291895E+04  0.10363291895E+04  0.25500000920E-02 0. -1.
       -2   -1    0    0    0  501  0.00000000000E+00  0.00000000000E+00 -0.78502025549E+03  0.78502025550E+03  0.25500000920E-02 0.  1.
    10030    2    1    2    0    0  0.00000000000E+00  0.00000000000E+00  0.25130893404E+03  0.18213494450E+04  0.18039283857E+04 0.  0.
        3    1    3    3  502    0 -0.15161658403E+03 -0.74148213200E+03  0.62106198617E+03  0.97903081744E+03  0.10100000352E+00 0. -1.
       -3    1    3    3    0  502  0.15161658403E+03  0.74148213200E+03 -0.36975305213E+03  0.84231862760E+03  0.10100000352E+00 0.  1.
</event>
<event>
 5   0  0.1603564E-04  0.1800942E+04  0.7818609E-02  0.8705799E-01
        2   -1    0    0  501    0  0.00000000000E+00  0.00000000000E+00  0.74317945183E+03  0.74317945184E+03  0.25500000920E-02 0.  1.
       -2   -1    0    0    0  501  0.00000000000E+00  0.00000000000E+00 -0.10910523716E+04  0.10910523717E+04  0.25500000920E-02 0. -1.
    10030    2    1    2    0    0  0.00000000000E+00  0.00000000000E+00 -0.34787291982E+03  0.18342318235E+04  0.18009416465E+04 0.  0.
        5    1    3    3  502    0  0.77879938988E+03  0.19737278445E+03  0.24020146629E+03  0.83857220328E+03  0.46999998093E+01 0.  1.
       -5    1    3    3    0  502 -0.77879938988E+03 -0.19737278445E+03 -0.58807438611E+03  0.99565962021E+03  0.46999998093E+01 0. -1.
</event>
<event>
 5   0  0.1603564E-04  0.1797977E+04  0.7818609E-02  0.8707376E-01
       -2   -1    0    0    0  501  0.00000000000E+00  0.00000000000E+00  0.59524900544E+03  0.59524900545E+03  0.25500000920E-02 0.  1.
        2   -1    0    0  501    0  0.00000000000E+00  0.00000000000E+00 -0.13577180807E+04  0.13577180807E+04  0.25500000920E-02 0. -1.
    10030    2    1    2    0    0  0.00000000000E+00  0.00000000000E+00 -0.76246907522E+03  0.19529670861E+04  0.17979770156E+04 0.  0.
        5    1    3    3  502    0  0.12497836448E+03 -0.65496823258E+03 -0.10361662360E+04  0.12321791817E+04  0.46999998093E+01 0. -1.
       -5    1    3    3    0  502 -0.12497836448E+03  0.65496823258E+03  0.27369716078E+03  0.72078790438E+03  0.46999998093E+01 0.  1.
</event>
<event>
 5   0  0.1603564E-04  0.1793214E+04  0.7818609E-02  0.8709916E-01
       -2   -1    0    0    0  501  0.00000000000E+00  0.00000000000E+00  0.90938697177E+03  0.90938697178E+03  0.25500000920E-02 0.  1.
        2   -1    0    0  501    0  0.00000000000E+00  0.00000000000E+00 -0.88400668350E+03  0.88400668350E+03  0.25500000920E-02 0. -1.
    10030    2    1    2    0    0  0.00000000000E+00  0.00000000000E+00  0.25380288277E+02  0.17933936553E+04  0.17932140541E+04 0.  0.
        5    1    3    3  502    0 -0.40350827652E+03 -0.15536867399E+03 -0.77283343941E+03  0.88558001849E+03  0.46999998093E+01 0. -1.
       -5    1    3    3    0  502  0.40350827652E+03  0.15536867399E+03  0.79821372768E+03  0.90781363679E+03  0.46999998093E+01 0.  1.
</event>
<event>
 5   0  0.1608627E-04  0.1811365E+04  0.7818609E-02  0.8700279E-01
        2   -1    0    0  501    0  0.00000000000E+00  0.00000000000E+00  0.20734578883E+04  0.20734578883E+04  0.25500000920E-02 0.  1.
       -2   -1    0    0    0  501  0.00000000000E+00  0.00000000000E+00 -0.39560040729E+03  0.39560040730E+03  0.25500000920E-02 0. -1.
    10030    2    1    2    0    0  0.00000000000E+00  0.00000000000E+00  0.16778574810E+04  0.24690582956E+04  0.18113649937E+04 0.  0.
        2    1    3    3  502    0 -0.17193230571E+03 -0.41256728925E+03 -0.23479405078E+03  0.50487694757E+03  0.25500000920E-02 0. -1.
       -2    1    3    3    0  502  0.17193230571E+03  0.41256728925E+03  0.19126515317E+04  0.19641813480E+04  0.25500000920E-02 0.  1.
</event>
<event>
 5   0  0.1549012E-04  0.1815920E+04  0.7818609E-02  0.8697879E-01
       -2   -1    0    0    0  501  0.00000000000E+00  0.00000000000E+00  0.40046280500E+03  0.40046280501E+03  0.25500000920E-02 0. -1.
        2   -1    0    0  501    0  0.00000000000E+00  0.00000000000E+00 -0.20585956238E+04  0.20585956238E+04  0.25500000920E-02 0.  1.
    10030    2    1    2    0    0  0.00000000000E+00  0.00000000000E+00 -0.16581328188E+04  0.24590584288E+04  0.18159195774E+04 0.  0.
        4    1    3    3  502    0  0.68398164838E+03  0.26165993839E+03 -0.10222736579E+03  0.73942468575E+03  0.12699999809E+01 0. -1.
       -4    1    3    3    0  502 -0.68398164838E+03 -0.26165993839E+03 -0.15559054530E+04  0.17196337430E+04  0.12699999809E+01 0.  1.
</event>
<event>
 5   0  0.1628397E-04  0.1789301E+04  0.7818609E-02  0.8712010E-01
        2   -1    0    0  501    0  0.00000000000E+00  0.00000000000E+00  0.17131486119E+04  0.17131486119E+04  0.25500000920E-02 0.  1.
       -2   -1    0    0    0  501  0.00000000000E+00  0.00000000000E+00 -0.46720951949E+03  0.46720951949E+03  0.25500000920E-02 0. -1.
    10030    2    1    2    0    0  0.00000000000E+00  0.00000000000E+00  0.12459390924E+04  0.21803581314E+04  0.17893008017E+04 0.  0.
        3    1    3    3  502    0  0.66460778151E+03  0.37267188466E+03  0.11942767169E+04  0.14166455885E+04  0.10100000352E+00 0. -1.
       -3    1    3    3    0  502 -0.66460778151E+03 -0.37267188466E+03  0.51662375528E+02  0.76371254285E+03  0.10100000352E+00 0.  1.
</event>
<event>
 5   0  0.1603564E-04  0.1808567E+04  0.7818609E-02  0.8701757E-01
        2   -1    0    0  501    0  0.00000000000E+00  0.00000000000E+00  0.48813831441E+03  0.48813831442E+03  0.25500000920E-02 0.  1.
       -2   -1    0    0    0  501  0.00000000000E+00  0.00000000000E+00 -0.16751991205E+04  0.16751991205E+04  0.25500000920E-02 0. -1.
    10030    2    1    2    0    0  0.00000000000E+00  0.00000000000E+00 -0.11870608061E+04  0.21633374349E+04  0.18085672506E+04 0.  0.
        5    1    3    3  502    0  0.15224213754E+03  0.50693294535E+03  0.28346692635E+03  0.60044505815E+03  0.46999998093E+01 0.  1.
       -5    1    3    3    0  502 -0.15224213754E+03 -0.50693294535E+03 -0.14705277324E+04  0.15628923768E+04  0.46999998093E+01 0. -1.
</event>
<event>
 5   0  0.1549012E-04  0.1801217E+04  0.7818609E-02  0.8705653E-01
       -2   -1    0    0    0  501  0.00000000000E+00  0.00000000000E+00  0.91991273331E+03  0.91991273332E+03  0.25500000920E-02 0.  1.
        2   -1    0    0  501    0  0.00000000000E+00  0.00000000000E+00 -0.88170928265E+03  0.88170928265E+03  0.25500000920E-02 0. -1.
    10030    2    1    2    0    0  0.00000000000E+00  0.00000000000E+00  0.38203450663E+02  0.18016220160E+04  0.18012169177E+04 0.  0.
        4    1    3    3  502    0 -0.74614937480E+03 -0.22936217519E+03  0.46836650682E+03  0.91033768159E+03  0.12699999809E+01 0.  1.
       -4    1    3    3    0  502  0.74614937480E+03  0.22936217519E+03 -0.43016305616E+03  0.89128433438E+03  0.12699999809E+01 0. -1.
</event>
<event>
 5   0  0.1573981E-04  0.1797256E+04  0.7818609E-02  0.8707760E-01
        2   -1    0    0  501    0  0.00000000000E+00  0.00000000000E+00  0.11227424288E+04  0.11227424288E+04  0.25500000920E-02 0. -1.
       -2   -1    0    0    0  501  0.00000000000E+00  0.00000000000E+00 -0.71924991969E+03  0.71924991969E+03  0.25500000920E-02 0.  1.
    10030    2    1    2    0    0  0.00000000000E+00  0.00000000000E+00  0.40349250910E+03  0.18419923485E+04  0.17972561328E+04 0.  0.
        1    1    3    3  502    0  0.46020709729E+03  0.75488341869E+03  0.36828351214E+02  0.88487054176E+03  0.50400001928E-02 0. -1.
       -1    1    3    3    0  502 -0.46020709729E+03 -0.75488341869E+03  0.36666415789E+03  0.95712180672E+03  0.50400001928E-02 0.  1.
</event>
<event>
 5   0  0.8492114E-05  0.1806246E+04  0.7818609E-02  0.8702985E-01
        1   -1    0    0  501    0  0.00000000000E+00  0.00000000000E+00  0.22372091759E+04  0.22372091759E+04  0.50400001928E-02 0.  1.
       -1   -1    0    0    0  501  0.00000000000E+00  0.00000000000E+00 -0.36457533286E+03  0.36457533289E+03  0.50400001928E-02 0. -1.
    10030    2    1    2    0    0  0.00000000000E+00  0.00000000000E+00  0.18726338430E+04  0.26017845088E+04  0.18062461405E+04 0.  0.
        2    1    3    3  502    0  0.84829941344E+03 -0.15322504861E+03  0.54835637147E+03  0.10216577316E+04  0.25500000920E-02 0. -1.
       -2    1    3    3    0  502 -0.84829941344E+03  0.15322504861E+03  0.13242774716E+04  0.15801267772E+04  0.25500000920E-02 0.  1.
</event>
<event>
 5   0  0.1628397E-04  0.1802838E+04  0.7818609E-02  0.8704791E-01
       -2   -1    0    0    0  501  0.00000000000E+00  0.00000000000E+00  0.35633089754E+03  0.35633089755E+03  0.25500000920E-02 0. -1.
        2   -1    0    0  501    0  0.00000000000E+00  0.00000000000E+00 -0.22803429190E+04  0.22803429190E+04  0.25500000920E-02 0.  1.
    10030    2    1    2    0    0  0.00000000000E+00  0.00000000000E+00 -0.19240120215E+04  0.26366738166E+04  0.18028384720E+04 0.  0.
        3    1    3    3  502    0 -0.59510649942E+03  0.28204186086E+03 -0.18622026828E+04  0.19752210507E+04  0.10100000352E+00 0.  1.
       -3    1    3    3    0  502  0.59510649942E+03 -0.28204186086E+03 -0.61809338629E+02  0.66145276587E+03  0.10100000352E+00 0. -1.
</event>
<event>
 5   0  0.8254914E-05  0.1808776E+04  0.7818609E-02  0.8701646E-01
        1   -1    0    0  501    0  0.00000000000E+00  0.00000000000E+00  0.18158206657E+04  0.18158206657E+04  0.50400001928E-02 0. -1.
       -1   -1    0    0    0  501  0.00000000000E+00  0.00000000000E+00 -0.45043980019E+03  0.45043980022E+03  0.50400001928E-02 0.  1.
    10030    2    1    2    0    0  0.00000000000E+00  0.00000000000E+00  0.13653808655E+04  0.22662604659E+04  0.18087762691E+04 0.  0.
        4    1    3    3  502    0  0.51515608530E+03 -0.66660562222E+03  0.27061830391E+03  0.88486424219E+03  0.12699999809E+01 0.  1.
       -4    1    3    3    0  502 -0.51515608530E+03  0.66660562222E+03  0.10947625616E+04  0.13813962238E+04  0.12699999809E+01 0. -1.
</event>
<event>
 5   0  0.8206783E-05  0.1781816E+04  0.7818609E-02  0.8716030E-01
       -1   -1    0    0    0  501  0.00000000000E+00  0.00000000000E+00  0.55211311469E+03  0.55211311471E+03  0.50400001928E-02 0. -1.
        1   -1    0    0  501    0  0.00000000000E+00  0.00000000000E+00 -0.14375987196E+04  0.14375987196E+04  0.50400001928E-02 0.  1.
    10030    2    1    2    0    0  0.00000000000E+00  0.00000000000E+00 -0.88548560490E+03  0.19897118343E+04  0.17818160475E+04 0.  0.
        1    1    3    3  502    0 -0.35467561797E+02  0.69262617353E+02 -0.14337965823E+04  0.14359066465E+04  0.50400001928E-02 0.  1.
       -1    1    3    3    0  502  0.35467561797E+02 -0.69262617353E+02  0.54831097738E+03  0.55380518781E+03  0.50400001928E-02 0. -1.
</event>
<event>
 5   0  0.8430513E-05  0.1799303E+04  0.7818609E-02  0.8706670E-01
        1   -1    0    0  501    0  0.00000000000E+00  0.00000000000E+00  0.12631580605E+04  0.12631580606E+04  0.50400001928E-02 0.  1.
       -1   -1    0    0    0  501  0.00000000000E+00  0.00000000000E+00 -0.64075348809E+03  0.64075348811E+03  0.50400001928E-02 0. -1.
    10030    2    1    2    0    0  0.00000000000E+00  0.00000000000E+00  0.62240457246E+03  0.19039115487E+04  0.17993031244E+04 0.  0.
        5    1    3    3  502    0 -0.49123827806E+03 -0.10495309944E+03  0.11009312746E+04  0.12101247705E+04  0.46999998093E+01 0.  1.
       -5    1    3    3    0  502  0.49123827806E+03  0.10495309944E+03 -0.47852670210E+03  0.69378677815E+03  0.46999998093E+01 0. -1.
</event>
<event>
 5   0  0.1549012E-04  0.1586836E+04  0.7818609E-02  0.8828676E-01
        2   -1    0    0  501    0  0.00000000000E+00  0.00000000000E+00  0.18470094707E+04  0.18470094707E+04  0.25500000920E-02 0. -1.
       -2   -1    0    0    0  501  0.00000000000E+00  0.00000000000E+00 -0.34082782625E+03  0.34082782626E+03  0.25500000920E-02 0.  1.
    10030    2    1    2    0    0  0.00000000000E+00  0.00000000000E+00  0.15061816445E+04  0.21878372970E+04  0.15868361264E+04 0.  0.
        4    1    3    3  502    0 -0.70306745274E+03 -0.25579396401E+03  0.38889358573E+03  0.84319287773E+03  0.12699999809E+01 0.  1.
       -4    1    3    3    0  502  0.70306745274E+03  0.25579396401E+03  0.11172880587E+04  0.13446444193E+04  0.12699999809E+01 0. -1.
</event>
<event>
 5   0  0.8492114E-05  0.1804198E+04  0.7818609E-02  0.8704070E-01
        1   -1    0    0  501    0  0.00000000000E+00  0.00000000000E+00  0.12000197689E+04  0.12000197689E+04  0.50400001928E-02 0. -1.
       -1   -1    0    0    0  501  0.00000000000E+00  0.00000000000E+00 -0.67814066203E+03  0.67814066205E+03  0.50400001928E-02 0.  1.
    10030    2    1    2    0    0  0.00000000000E+00  0.00000000000E+00  0.52187910686E+03  0.18781604309E+04  0.18041975508E+04 0.  0.
        2    1    3    3  502    0 -0.60830798958E+03 -0.37498899661E+03  0.83407965424E+03  0.10983370281E+04  0.25500000920E-02 0. -1.
       -2    1    3    3    0  502  0.60830798958E+03  0.37498899661E+03 -0.31220054738E+03  0.77982340280E+03  0.25500000920E-02 0.  1.
</event>
<event>
 5   0  0.1608627E-04  0.1849827E+04  0.7818609E-02  0.8680242E-01
       -2   -1    0    0    0  501  0.00000000000E+00  0.00000000000E+00  0.93523992526E+03  0.93523992527E+03  0.25500000920E-02 0. -1.
        2   -1    0    0  501    0  0.00000000000E+00  0.00000000000E+00 -0.91470117727E+03  0.91470117728E+03  0.25500000920E-02 0.  1.
    10030    2    1    2    0    0  0.00000000000E+00  0.00000000000E+00  0.20538747993E+02  0.18499411025E+04  0.18498270845E+04 0.  0.
        2    1    3    3  502    0 -0.88786652363E+03  0.17258010039E+03 -0.18306663730E+03  0.92282406152E+03  0.25500000920E-02 0.  1.
       -2    1    3    3    0  502  0.88786652363E+03 -0.17258010039E+03  0.20360538530E+03  0.92711704102E+03  0.25500000920E-02 0. -1.
</event>
<event>
 5   0  0.1573981E-04  0.1796900E+04  0.7818609E-02  0.8707950E-01
       -2   -1    0    0    0  501  0.00000000000E+00  0.00000000000E+00  0.88117125589E+03  0.88117125589E+03  0.25500000920E-02 0.  1.
        2   -1    0    0  501    0  0.00000000000E+00  0.00000000000E+00 -0.91606745030E+03  0.91606745030E+03  0.25500000920E-02 0. -1.
    10030    2    1    2    0    0  0.00000000000E+00  0.00000000000E+00 -0.34896194410E+02  0.17972387062E+04  0.17968998922E+04 0.  0.
        1    1    3    3  502    0  0.19942988449E+03 -0.50937828606E+03  0.69540908925E+03  0.88477811827E+03  0.50400001928E-02 0.  1.
       -1    1    3    3    0  502 -0.19942988449E+03  0.50937828606E+03 -0.73030528366E+03  0.91246058792E+03  0.50400001928E-02 0. -1.
</event>
<event>
 5   0  0.1603564E-04  0.1831560E+04  0.7818609E-02  0.8689694E-01
       -2   -1    0    0    0  501  0.00000000000E+00  0.00000000000E+00  0.14753033330E+04  0.14753033330E+04  0.25500000920E-02 0.  1.
        2   -1    0    0  501    0  0.00000000000E+00  0.00000000000E+00 -0.56846162674E+03  0.56846162674E+03  0.25500000920E-02 0. -1.
    10030    2    1    2    0    0  0.00000000000E+00  0.00000000000E+00  0.90684170628E+03  0.20437649598E+04  0.18315603540E+04 0.  0.
        5    1    3    3  502    0  0.26153441798E+03  0.57847615472E+03  0.11898853584E+04  0.13486601386E+04  0.46999998093E+01 0.  1.
       -5    1    3    3    0  502 -0.26153441798E+03 -0.57847615472E+03 -0.28304365212E+03  0.69510482114E+03  0.46999998093E+01 0. -1.
</event>
<event>
 5   0  0.8492114E-05  0.1753129E+04  0.7818609E-02  0.8731630E-01
        1   -1    0    0  501    0  0.00000000000E+00  0.00000000000E+00  0.17539471957E+04  0.17539471957E+04  0.50400001928E-02 0.  1.
       -1   -1    0    0    0  501  0.00000000000E+00  0.00000000000E+00 -0.43807791825E+03  0.43807791828E+03  0.50400001928E-02 0. -1.
    10030    2    1    2    0    0  0.00000000000E+00  0.00000000000E+00  0.13158692774E+04  0.21920251140E+04  0.17531292437E+04 0.  0.
        2    1    3    3  502    0  0.56185062273E+01 -0.69191182055E+03 -0.14925610928E+02  0.69209559231E+03  0.25500000920E-02 0. -1.
       -2    1    3    3    0  502 -0.56185062273E+01  0.69191182055E+03  0.13307948884E+04  0.14999295217E+04  0.25500000920E-02 0.  1.
</event>
<event>
 5   0  0.8254914E-05  0.1783662E+04  0.7818609E-02  0.8715036E-01
       -1   -1    0    0    0  501  0.00000000000E+00  0.00000000000E+00  0.68130973564E+03  0.68130973566E+03  0.50400001928E-02 0.  1.
        1   -1    0    0  501    0  0.00000000000E+00  0.00000000000E+00 -0.11674026525E+04  0.11674026525E+04  0.50400001928E-02 0. -1.
    10030    2    1    2    0    0  0.00000000000E+00  0.00000000000E+00 -0.48609291682E+03  0.18487123881E+04  0.17836622915E+04 0.  0.
        4    1    3    3  502    0 -0.75223482893E+03  0.42227224493E+03 -0.85427690868E+01  0.86269674770E+03  0.12699999809E+01 0.  1.
       -4    1    3    3    0  502  0.75223482893E+03 -0.42227224493E+03 -0.47755014773E+03  0.98601564044E+03  0.12699999809E+01 0. -1.
</event>
<event>
 5   0  0.1549012E-04  0.1805281E+04  0.7818609E-02  0.8703496E-01
       -2   -1    0    0    0  501  0.00000000000E+00  0.00000000000E+00  0.91531785724E+03  0.91531785724E+03  0.25500000920E-02 0.  1.
        2   -1    0    0  501    0  0.00000000000E+00  0.00000000000E+00 -0.89013881298E+03  0.89013881298E+03  0.25500000920E-02 0. -1.
    10030    2    1    2    0    0  0.00000000000E+00  0.00000000000E+00  0.25179044258E+02  0.18054566702E+04  0.18052810872E+04 0.  0.
        4    1    3    3  502    0  0.30919813391E+03 -0.75801888324E+03 -0.36766085134E+03  0.89742533275E+03  0.12699999809E+01 0. -1.
       -4    1    3    3    0  502 -0.30919813391E+03  0.75801888324E+03  0.39283989560E+03  0.90803133747E+03  0.12699999809E+01 0.  1.
</event>
<event>
 5   0  0.1628397E-04  0.1803330E+04  0.7818609E-02  0.8704530E-01
       -2   -1    0    0    0  501  0.00000000000E+00  0.00000000000E+00  0.42542324778E+03  0.42542324779E+03  0.25500000920E-02 0.  1.
        2   -1    0    0  501    0  0.00000000000E+00  0.00000000000E+00 -0.19110384722E+04  0.19110384722E+04  0.25500000920E-02 0. -1.
    10030    2    1    2    0    0  0.00000000000E+00  0.00000000000E+00 -0.14856152244E+04  0.23364617199E+04  0.18033304672E+04 0.  0.
        3    1    3    3  502    0 -0.13209429697E+03  0.27754070817E+02  0.41225914690E+03  0.43379350634E+03  0.10100000352E+00 0.  1.
       -3    1    3    3    0  502  0.13209429697E+03 -0.27754070817E+02 -0.18978743713E+04  0.19026682136E+04  0.10100000352E+00 0. -1.
</event>
<event>
 5   0  0.8206783E-05  0.1796837E+04  0.7818609E-02  0.8707983E-01
        1   -1    0    0  501    0  0.00000000000E+00  0.00000000000E+00  0.81008925098E+03  0.81008925100E+03  0.50400001928E-02 0. -1.
       -1   -1    0    0    0  501  0.00000000000E+00  0.00000000000E+00 -0.99637916211E+03  0.99637916212E+03  0.50400001928E-02 0.  1.
    10030    2    1    2    0    0  0.00000000000E+00  0.00000000000E+00 -0.18628991113E+03  0.18064684131E+04  0.17968372760E+04 0.  0.
        1    1    3    3  502    0  0.43406341421E+03 -0.27946330397E+03 -0.83237196200E+03  0.97946611426E+03  0.50400001928E-02 0.  1.
       -1    1    3    3    0  502 -0.43406341421E+03  0.27946330397E+03  0.64608205088E+03  0.82700229886E+03  0.50400001928E-02 0. -1.
</event>
<event>
 5   0  0.8132598E-05  0.1776091E+04  0.7818609E-02  0.8719119E-01
       -1   -1    0    0    0  501  0.00000000000E+00  0.00000000000E+00  0.50742991103E+03  0.50742991105E+03  0.50400001928E-02 0. -1.
        1   -1    0    0  501    0  0.00000000000E+00  0.00000000000E+00 -0.15541543317E+04  0.15541543317E+04  0.50400001928E-02 0.  1.
    10030    2    1    2    0    0  0.00000000000E+00  0.00000000000E+00 -0.10467244206E+04  0.20615842427E+04  0.17760905318E+04 0.  0.
        3    1    3    3  502    0  0.86171261328E+03  0.13225844746E+03 -0.71960485165E+03  0.11304300410E+04  0.10100000352E+00 0. -1.
       -3    1    3    3    0  502 -0.86171261328E+03 -0.13225844746E+03 -0.32711956898E+03  0.93115420175E+03  0.10100000352E+00 0.  1.
</event>
<event>
 5   0  0.8492114E-05  0.1833211E+04  0.7818609E-02  0.8688835E-01
        1   -1    0    0  501    0  0.00000000000E+00  0.00000000000E+00  0.12608901885E+04  0.12608901885E+04  0.50400001928E-02 0.  1.
       -1   -1    0    0    0  501  0.00000000000E+00  0.00000000000E+00 -0.66632766294E+03  0.66632766296E+03  0.50400001928E-02 0. -1.
    10030    2    1    2    0    0  0.00000000000E+00  0.00000000000E+00  0.59456252557E+03  0.19272178515E+04  0.18332114036E+04 0.  0.
        2    1    3    3  502    0  0.81495090684E+02  0.80073567197E+03  0.75834493789E+03  0.11058508539E+04  0.25500000920E-02 0.  1.
       -2    1    3    3    0  502 -0.81495090684E+02 -0.80073567197E+03 -0.16378241231E+03  0.82136699761E+03  0.25500000920E-02 0. -1.
</event>
<event>
 5   0  0.8492114E-05  0.1819646E+04  0.7818609E-02  0.8695921E-01
       -1   -1    0    0    0  501  0.00000000000E+00  0.00000000000E+00  0.63986051296E+03  0.63986051298E+03  0.50400001928E-02 0.  1.
        1   -1    0    0  501    0  0.00000000000E+00  0.00000000000E+00 -0.12936847385E+04  0.12936847385E+04  0.50400001928E-02 0. -1.
    10030    2    1    2    0    0  0.00000000000E+00  0.00000000000E+00 -0.65382422550E+03  0.19335452515E+04  0.18196458781E+04 0.  0.
        2    1    3    3  502    0 -0.57863899667E+03 -0.39964166887E+03 -0.94031642652E+03  0.11741939933E+04  0.25500000920E-02 0. -1.
       -2    1    3    3    0  502  0.57863899667E+03  0.39964166887E+03  0.28649220102E+03  0.75935125813E+03  0.25500000920E-02 0.  1.
</event>
<event>
 5   0  0.1603564E-04  0.1814345E+04  0.7818609E-02  0.8698708E-01
       -2   -1    0    0    0  501  0.00000000000E+00  0.00000000000E+00  0.13996552941E+04  0.13996552941E+04  0.25500000920E-02 0. -1.
        2   -1    0    0  501    0  0.00000000000E+00  0.00000000000E+00 -0.58797448621E+03  0.58797448621E+03  0.25500000920E-02 0.  1.
    10030    2    1    2    0    0  0.00000000000E+00  0.00000000000E+00  0.81168080785E+03  0.19876297803E+04  0.18143446226E+04 0.  0.
        5    1    3    3  502    0  0.80464182126E+03  0.36175667483E+03  0.63725773178E+03  0.10883179035E+04  0.46999998093E+01 0. -1.
       -5    1    3    3    0  502 -0.80464182126E+03 -0.36175667483E+03  0.17442307607E+03  0.89931187680E+03  0.46999998093E+01 0.  1.
</event>
<event>
 5   0  0.8430513E-05  0.1808239E+04  0.7818609E-02  0.8701930E-01
        1   -1    0    0  501    0  0.00000000000E+00  0.00000000000E+00  0.79588521209E+03  0.79588521211E+03  0.50400001928E-02 0.  1.
       -1   -1    0    0    0  501  0.00000000000E+00  0.00000000000E+00 -0.10270731466E+04  0.10270731467E+04  0.50400001928E-02 0. -1.
    10030    2    1    2    0    0  0.00000000000E+00  0.00000000000E+00 -0.23118793455E+03  0.18229583588E+04  0.18082392863E+04 0.  0.
        5    1    3    3  502    0 -0.78174696304E+03  0.42988654674E+03 -0.26334575637E+03  0.93021709009E+03  0.46999998093E+01 0. -1.
       -5    1    3    3    0  502  0.78174696304E+03 -0.42988654674E+03  0.32157821822E+02  0.89274126867E+03  0.46999998093E+01 0.  1.
</event>
<event>
 5   0  0.8132598E-05  0.1811324E+04  0.7818609E-02  0.8700300E-01
       -1   -1    0    0    0  501  0.00000000000E+00  0.00000000000E+00  0.72061991825E+03  0.72061991827E+03  0.50400001928E-02 0. -1.
        1   -1    0    0  501    0  0.00000000000E+00  0.00000000000E+00 -0.11382201151E+04  0.11382201151E+04  0.50400001928E-02 0.  1.
    10030    2    1    2    0    0  0.00000000000E+00  0.00000000000E+00 -0.41760019686E+03  0.18588400334E+04  0.18113244727E+04 0.  0.
        3    1    3    3  502    0 -0.88619189824E+03 -0.23477967047E+02 -0.18637304484E+02  0.88669873958E+03  0.10100000352E+00 0.  1.
       -3    1    3    3    0  502  0.88619189824E+03  0.23477967047E+02 -0.39896289237E+03  0.97214129381E+03  0.10100000352E+00 0. -1.
</event>
<event>
 5   0  0.8430513E-05  0.1832721E+04  0.7818609E-02  0.8689090E-01
        1   -1    0    0  501    0  0.00000000000E+00  0.00000000000E+00  0.12744949298E+04  0.12744949298E+04  0.50400001928E-02 0.  1.
       -1   -1    0    0    0  501  0.00000000000E+00  0.00000000000E+00 -0.65886227338E+03  0.65886227340E+03  0.50400001928E-02 0. -1.
    10030    2    1    2    0    0  0.00000000000E+00  0.00000000000E+00  0.61563265644E+03  0.19333572032E+04  0.18327210665E+04 0.  0.
        5    1    3    3  502    0 -0.43102326278E+03  0.55722310735E+02 -0.54320871394E+03  0.69568946080E+03  0.46999998093E+01 0. -1.
       -5    1    3    3    0  502  0.43102326278E+03 -0.55722310735E+02  0.11588413704E+04  0.12376677424E+04  0.46999998093E+01 0.  1.
</event>
<event>
 5   0  0.8206783E-05  0.1721344E+04  0.7818609E-02  0.8749284E-01
       -1   -1    0    0    0  501  0.00000000000E+00  0.00000000000E+00  0.76893322351E+03  0.76893322353E+03  0.50400001928E-02 0. -1.
        1   -1    0    0  501    0  0.00000000000E+00  0.00000000000E+00 -0.96335525968E+03  0.96335525970E+03  0.50400001928E-02 0.  1.
    10030    2    1    2    0    0  0.00000000000E+00  0.00000000000E+00 -0.19442203617E+03  0.17322884832E+04  0.17213435046E+04 0.  0.
        1    1    3    3  502    0 -0.66459973350E+03  0.60536556173E+02  0.44975044820E+03  0.80475645141E+03  0.50400001928E-02 0. -1.
       -1    1    3    3    0  502  0.66459973350E+03 -0.60536556173E+02 -0.64417248437E+03  0.92753203182E+03  0.50400001928E-02 0.  1.
</event>
<event>
 5   0  0.1608627E-04  0.1826029E+04  0.7818609E-02  0.8692578E-01
        2   -1    0    0  501    0  0.00000000000E+00  0.00000000000E+00  0.18006586821E+04  0.18006586821E+04  0.25500000920E-02 0.  1.
       -2   -1    0    0    0  501  0.00000000000E+00  0.00000000000E+00 -0.46293942527E+03  0.46293942527E+03  0.25500000920E-02 0. -1.
    10030    2    1    2    0    0  0.00000000000E+00  0.00000000000E+00  0.13377192569E+04  0.22635981074E+04  0.18260294581E+04 0.  0.
        2    1    3    3  502    0 -0.57881180058E+03  0.36600485054E+03  0.14173871324E+04  0.15741565787E+04  0.25500000920E-02 0.  1.
       -2    1    3    3    0  502  0.57881180058E+03 -0.36600485054E+03 -0.79667875549E+02  0.68944152871E+03  0.25500000920E-02 0. -1.
</event>
<event>
 5   0  0.1573981E-04  0.1808068E+04  0.7818609E-02  0.8702020E-01
        2   -1    0    0  501    0  0.00000000000E+00  0.00000000000E+00  0.10578539095E+04  0.10578539095E+04  0.25500000920E-02 0. -1.
       -2   -1    0    0    0  501  0.00000000000E+00  0.00000000000E+00 -0.77258106676E+03  0.77258106676E+03  0.25500000920E-02 0.  1.
    10030    2    1    2    0    0  0.00000000000E+00  0.00000000000E+00  0.28527284275E+03  0.18304349763E+04  0.18080684742E+04 0.  0.
        1    1    3    3  502    0  0.67275417480E+03  0.29679782231E+03 -0.38978837981E+03  0.83223921327E+03  0.50400001928E-02 0.  1.
       -1    1    3    3    0  502 -0.67275417480E+03 -0.29679782231E+03  0.67506122256E+03  0.99819576300E+03  0.50400001928E-02 0. -1.
</event>
<event>
 5   0  0.5820500E-05  0.1801015E+04  0.7818609E-02  0.8705760E-01
        3   -1    0    0  501    0  0.00000000000E+00  0.00000000000E+00  0.17694003890E+04  0.17694003919E+04  0.10100000352E+00 0.  1.
       -3   -1    0    0    0  501  0.00000000000E+00  0.00000000000E+00 -0.45829850809E+03  0.45829851922E+03  0.10100000352E+00 0. -1.
    10030    2    1    2    0    0  0.00000000000E+00  0.00000000000E+00  0.13111018809E+04  0.22276989111E+04  0.18010147963E+04 0.  0.
        4    1    3    3  502    0 -0.40532053441E+03 -0.66603377486E+03  0.98217253830E+02  0.78583329449E+03  0.12699999809E+01 0. -1.
       -4    1    3    3    0  502  0.40532053441E+03  0.66603377486E+03  0.12128846271E+04  0.14418656166E+04  0.12699999809E+01 0.  1.
</event>
<event>
 5   0  0.8492114E-05  0.1815740E+04  0.7818609E-02  0.8697973E-01
        1   -1    0    0  501    0  0.00000000000E+00  0.00000000000E+00  0.92118337071E+03  0.92118337073E+03  0.50400001928E-02 0.  1.
       -1   -1    0    0    0  501  0.00000000000E+00  0.00000000000E+00 -0.89474948460E+03  0.89474948461E+03  0.50400001928E-02 0. -1.
    10030    2    1    2    0    0  0.00000000000E+00  0.00000000000E+00  0.26433886113E+02  0.18159328553E+04  0.18157404508E+04 0.  0.
        2    1    3    3  502    0  0.57750290327E+03  0.43132372073E+03  0.56525241714E+03  0.91600221094E+03  0.25500000920E-02 0.  1.
       -2    1    3    3    0  502 -0.57750290327E+03 -0.43132372073E+03 -0.53881853103E+03  0.89993064440E+03  0.25500000920E-02 0. -1.
</event>
<event>
 5   0  0.8132598E-05  0.1801813E+04  0.7818609E-02  0.8705336E-01
        1   -1    0    0  501    0  0.00000000000E+00  0.00000000000E+00  0.15474579987E+04  0.15474579987E+04  0.50400001928E-02 0.  1.
       -1   -1    0    0    0  501  0.00000000000E+00  0.00000000000E+00 -0.52449396498E+03  0.52449396500E+03  0.50400001928E-02 0. -1.
    10030    2    1    2    0    0  0.00000000000E+00  0.00000000000E+00  0.10229640337E+04  0.20719519637E+04  0.18018128442E+04 0.  0.
        3    1    3    3  502    0 -0.59039081234E+03 -0.55839208076E+03  0.64237045897E+02  0.81516221417E+03  0.10100000352E+00 0. -1.
       -3    1    3    3    0  502  0.59039081234E+03  0.55839208076E+03  0.95872698781E+03  0.12567897495E+04  0.10100000352E+00 0.  1.
</event>
<event>
 5   0  0.1608627E-04  0.1783752E+04  0.7818609E-02  0.8714988E-01
       -2   -1    0    0    0  501  0.00000000000E+00  0.00000000000E+00  0.51076036472E+03  0.51076036472E+03  0.25500000920E-02 0.  1.
        2   -1    0    0  501    0  0.00000000000E+00  0.00000000000E+00 -0.15573694680E+04  0.15573694680E+04  0.25500000920E-02 0. -1.
    10030    2    1    2    0    0  0.00000000000E+00  0.00000000000E+00 -0.10466091033E+04  0.20681298328E+04  0.17837517737E+04 0.  0.
        2    1    3    3  502    0  0.78276467040E+01  0.14976192788E+03 -0.15426463619E+04  0.15499186123E+04  0.25500000920E-02 0. -1.
       -2    1    3    3    0  502 -0.78276467040E+01 -0.14976192788E+03  0.49603725855E+03  0.51821122042E+03  0.25500000920E-02 0.  1.
</event>
<event>
 5   0  0.1573981E-04  0.1797345E+04  0.7818609E-02  0.8707713E-01
        2   -1    0    0  501    0  0.00000000000E+00  0.00000000000E+00  0.93398726620E+03  0.93398726621E+03  0.25500000920E-02 0.  1.
       -2   -1    0    0    0  501  0.00000000000E+00  0.00000000000E+00 -0.86469264397E+03  0.86469264398E+03  0.25500000920E-02 0. -1.
    10030    2    1    2    0    0  0.00000000000E+00  0.00000000000E+00  0.69294622232E+02  0.17986799102E+04  0.17973446177E+04 0.  0.
        1    1    3    3  502    0  0.83721199861E+03 -0.22624543993E+03  0.27040881288E+03  0.90842272969E+03  0.50400001928E-02 0.  1.
       -1    1    3    3    0  502 -0.83721199861E+03  0.22624543993E+03 -0.20111419065E+03  0.89025718049E+03  0.50400001928E-02 0. -1.
</event>
<event>
 5   0  0.8206783E-05  0.1782588E+04  0.7818609E-02  0.8715614E-01
       -1   -1    0    0    0  501  0.00000000000E+00  0.00000000000E+00  0.41802966794E+03  0.41802966797E+03  0.50400001928E-02 0.  1.
        1   -1    0    0  501    0  0.00000000000E+00  0.00000000000E+00 -0.19003549140E+04  0.19003549140E+04  0.50400001928E-02 0. -1.
    10030    2    1    2    0    0  0.00000000000E+00  0.00000000000E+00 -0.14823252461E+04  0.23183845820E+04  0.17825877075E+04 0.  0.
        1    1    3    3  502    0 -0.40807179562E+03  0.75868700955E+03 -0.44379996373E+03  0.96906500126E+03  0.50400001928E-02 0.  1.
       -1    1    3    3    0  502  0.40807179562E+03 -0.75868700955E+03 -0.10385252823E+04  0.13493195807E+04  0.50400001928E-02 0. -1.
</event>
<event>
 5   0  0.1608627E-04  0.1797155E+04  0.7818609E-02  0.8707814E-01
        2   -1    0    0  501    0  0.00000000000E+00  0.00000000000E+00  0.13754438073E+04  0.13754438073E+04  0.25500000920E-02 0.  1.
       -2   -1    0    0    0  501  0.00000000000E+00  0.00000000000E+00 -0.58704063869E+03  0.58704063869E+03  0.25500000920E-02 0. -1.
    10030    2    1    2    0    0  0.00000000000E+00  0.00000000000E+00  0.78840316861E+03  0.19624844460E+04  0.17971548749E+04 0.  0.
        2    1    3    3  502    0  0.89668156339E+02  0.87217468383E+03  0.17934656350E+03  0.89492695077E+03  0.25500000920E-02 0.  1.
       -2    1    3    3    0  502 -0.89668156339E+02 -0.87217468383E+03  0.60905660511E+03  0.10675574952E+04  0.25500000920E-02 0. -1.
</event>
<event>
 5   0  0.8254914E-05  0.1806864E+04  0.7818609E-02  0.8702658E-01
       -1   -1    0    0    0  501  0.00000000000E+00  0.00000000000E+00  0.74704124856E+03  0.74704124858E+03  0.50400001928E-02 0. -1.
        1   -1    0    0  501    0  0.00000000000E+00  0.00000000000E+00 -0.10925627366E+04  0.10925627366E+04  0.50400001928E-02 0.  1.
    10030    2    1    2    0    0  0.00000000000E+00  0.00000000000E+00 -0.34552148805E+03  0.18396039852E+04  0.18068640579E+04 0.  0.
        4    1    3    3  502    0 -0.49065530508E+03  0.24769466392E+03 -0.90275512121E+03  0.10569123411E+04  0.12699999809E+01 0.  1.
       -4    1    3    3    0  502  0.49065530508E+03 -0.24769466392E+03  0.55723363317E+03  0.78269164412E+03  0.12699999809E+01 0. -1.
</event>
<event>
 5   0  0.8132598E-05  0.1810020E+04  0.7818609E-02  0.8700989E-01
        1   -1    0    0  501    0  0.00000000000E+00  0.00000000000E+00  0.87438274084E+03  0.87438274085E+03  0.50400001928E-02 0.  1.
       -1   -1    0    0    0  501  0.00000000000E+00  0.00000000000E+00 -0.93670990969E+03  0.93670990970E+03  0.50400001928E-02 0. -1.
    10030    2    1    2    0    0  0.00000000000E+00  0.00000000000E+00 -0.62327168850E+02  0.18110926506E+04  0.18100198653E+04 0.  0.
        3    1    3    3  502    0 -0.84027913768E+03 -0.21230772063E+03  0.22956593311E+03  0.89657354707E+03  0.10100000352E+00 0.  1.
       -3    1    3    3    0  502  0.84027913768E+03  0.21230772063E+03 -0.29189310196E+03  0.91451910348E+03  0.10100000352E+00 0. -1.
</event>
<event>
 5   0  0.1603564E-04  0.1804913E+04  0.7818609E-02  0.8703691E-01
        2   -1    0    0  501    0  0.00000000000E+00  0.00000000000E+00  0.18515001274E+04  0.18515001274E+04  0.25500000920E-02 0. -1.
       -2   -1    0    0    0  501  0.00000000000E+00  0.00000000000E+00 -0.43987472768E+03  0.43987472769E+03  0.25500000920E-02 0.  1.
    10030    2    1    2    0    0  0.00000000000E+00  0.00000000000E+00  0.14116253997E+04  0.22913748551E+04  0.18049134210E+04 0.  0.
        5    1    3    3  502    0 -0.55102829187E+03 -0.70764391890E+03  0.57877224399E+03  0.10674228285E+04  0.46999998093E+01 0. -1.
       -5    1    3    3    0  502  0.55102829187E+03  0.70764391890E+03  0.83285315574E+03  0.12239520266E+04  0.46999998093E+01 0.  1.
</event>
<event>
 5   0  0.1608627E-04  0.1796531E+04  0.7818609E-02  0.8708146E-01
        2   -1    0    0  501    0  0.00000000000E+00  0.00000000000E+00  0.14663273759E+04  0.14663273759E+04  0.25500000920E-02 0.  1.
       -2   -1    0    0    0  501  0.00000000000E+00  0.00000000000E+00 -0.55027340303E+03  0.55027340304E+03  0.25500000920E-02 0. -1.
    10030    2    1    2    0    0  0.00000000000E+00  0.00000000000E+00  0.91605397287E+03  0.20166007789E+04  0.17965310519E+04 0.  0.
        2    1    3    3  502    0 -0.43199750007E+03 -0.19497423785E+03 -0.39849353692E+03  0.61922039087E+03  0.25500000920E-02 0. -1.
       -2    1    3    3    0  502  0.43199750007E+03  0.19497423785E+03  0.13145475098E+04  0.13973803881E+04  0.25500000920E-02 0.  1.
</event>
<event>
 5   0  0.5820500E-05  0.1801026E+04  0.7818609E-02  0.8705754E-01
       -3   -1    0    0    0  501  0.00000000000E+00  0.00000000000E+00  0.88312595542E+03  0.88312596119E+03  0.10100000352E+00 0.  1.
        3   -1    0    0  501    0  0.00000000000E+00  0.00000000000E+00 -0.91824233046E+03  0.91824233602E+03  0.10100000352E+00 0. -1.
    10030    2    1    2    0    0  0.00000000000E+00  0.00000000000E+00 -0.35116375046E+02  0.18013682972E+04  0.18010259805E+04 0.  0.
        3    1    3    3  502    0 -0.52171268635E+03  0.11232048221E+03 -0.74303984456E+03  0.91482688998E+03  0.10100000352E+00 0. -1.
       -3    1    3    3    0  502  0.52171268635E+03 -0.11232048221E+03  0.70792346952E+03  0.88654140722E+03  0.10100000352E+00 0.  1.
</event>
<event>
 5   0  0.5820500E-05  0.1785917E+04  0.7818609E-02  0.8713825E-01
       -3   -1    0    0    0  501  0.00000000000E+00  0.00000000000E+00  0.10541922082E+04  0.10541922130E+04  0.10100000352E+00 0.  1.
        3   -1    0    0  501    0  0.00000000000E+00  0.00000000000E+00 -0.75638475240E+03  0.75638475914E+03  0.10100000352E+00 0. -1.
    10030    2    1    2    0    0  0.00000000000E+00  0.00000000000E+00  0.29780745579E+03  0.18105769722E+04  0.17859170449E+04 0.  0.
        2    1    3    3  502    0  0.88227009391E+03  0.33180229160E+02  0.28444146445E+03  0.92758201412E+03  0.25500000920E-02 0.  1.
       -2    1    3    3    0  502 -0.88227009391E+03 -0.33180229160E+02  0.13365991340E+02  0.88299495805E+03  0.25500000920E-02 0. -1.
</event>
<event>
 5   0  0.8492114E-05  0.1803484E+04  0.7818609E-02  0.8704449E-01
        1   -1    0    0  501    0  0.00000000000E+00  0.00000000000E+00  0.13650056608E+04  0.13650056608E+04  0.50400001928E-02 0. -1.
       -1   -1    0    0    0  501  0.00000000000E+00  0.00000000000E+00 -0.59570367876E+03  0.59570367878E+03  0.50400001928E-02 0.  1.
    10030    2    1    2    0    0  0.00000000000E+00  0.00000000000E+00  0.76930198207E+03  0.19607093396E+04  0.18034842874E+04 0.  0.
        2    1    3    3  502    0 -0.73424773392E+03 -0.38888054277E+03  0.36867011952E+01  0.83087989691E+03  0.25500000920E-02 0.  1.
       -2    1    3    3    0  502  0.73424773392E+03  0.38888054277E+03  0.76561528088E+03  0.11298294427E+04  0.25500000920E-02 0. -1.
</event>
<event>
 5   0  0.8206783E-05  0.1793619E+04  0.7818609E-02  0.8709700E-01
       -1   -1    0    0    0  501  0.00000000000E+00  0.00000000000E+00  0.53115983114E+03  0.53115983117E+03  0.50400001928E-02 0.  1.
        1   -1    0    0  501    0  0.00000000000E+00  0.00000000000E+00 -0.15141717069E+04  0.15141717069E+04  0.50400001928E-02 0. -1.
    10030    2    1    2    0    0  0.00000000000E+00  0.00000000000E+00 -0.98301187572E+03  0.20453315380E+04  0.17936188984E+04 0.  0.
        1    1    3    3  502    0  0.57052119568E+03 -0.38411382378E+03 -0.11477991807E+04  0.13380884962E+04  0.50400001928E-02 0. -1.
       -1    1    3    3    0  502 -0.57052119568E+03  0.38411382378E+03  0.16478730499E+03  0.70724304186E+03  0.50400001928E-02 0.  1.
</event>
<event>
 5   0  0.1608627E-04  0.1800280E+04  0.7818609E-02  0.8706150E-01
        2   -1    0    0  501    0  0.00000000000E+00  0.00000000000E+00  0.20509827705E+04  0.20509827705E+04  0.25500000920E-02 0. -1.
       -2   -1    0    0    0  501  0.00000000000E+00  0.00000000000E+00 -0.39505559917E+03  0.39505559917E+03  0.25500000920E-02 0.  1.
    10030    2    1    2    0    0  0.00000000000E+00  0.00000000000E+00  0.16559271714E+04  0.24460383697E+04  0.18002802307E+04 0.  0.
        2    1    3    3  502    0  0.87797026930E+03 -0.19816071564E+03  0.81117036180E+03  0.12116504524E+04  0.25500000920E-02 0. -1.
       -2    1    3    3    0  502 -0.87797026930E+03  0.19816071564E+03  0.84475680958E+03  0.12343879173E+04  0.25500000920E-02 0.  1.
</event>
<event>
 5   0  0.8206783E-05  0.1812328E+04  0.7818609E-02  0.8699771E-01
        1   -1    0    0  501    0  0.00000000000E+00  0.00000000000E+00  0.16424119201E+04  0.16424119201E+04  0.50400001928E-02 0.  1.
       -1   -1    0    0    0  501  0.00000000000E+00  0.00000000000E+00 -0.49995544835E+03  0.49995544837E+03  0.50400001928E-02 0. -1.
    10030    2    1    2    0    0  0.00000000000E+00  0.00000000000E+00  0.11424564717E+04  0.21423673685E+04  0.18123275509E+04 0.  0.
        1    1    3    3  502    0 -0.55162930526E+03  0.53459067982E+01  0.14210393763E+04  0.15243609737E+04  0.50400001928E-02 0.  1.
       -1    1    3    3    0  502  0.55162930526E+03 -0.53459067982E+01 -0.27858290461E+03  0.61800639471E+03  0.50400001928E-02 0. -1.
</event>
<event>
 5   0  0.1603564E-04  0.1800109E+04  0.7818609E-02  0.8706242E-01
        2   -1    0    0  501    0  0.00000000000E+00  0.00000000000E+00  0.78565000674E+03  0.78565000675E+03  0.25500000920E-02 0.  1.
       -2   -1    0    0    0  501  0.00000000000E+00  0.00000000000E+00 -0.10311178401E+04  0.10311178401E+04  0.25500000920E-02 0. -1.
    10030    2    1    2    0    0  0.00000000000E+00  0.00000000000E+00 -0.24546783332E+03  0.18167678468E+04  0.18001085945E+04 0.  0.
        5    1    3    3  502    0 -0.66722748336E+03  0.41421218727E+02 -0.73094477282E+03  0.99056074161E+03  0.46999998093E+01 0. -1.
       -5    1    3    3    0  502  0.66722748336E+03 -0.41421218727E+02  0.48547693949E+03  0.82620710521E+03  0.46999998093E+01 0.  1.
</event>
<event>
 5   0  0.8132598E-05  0.1803481E+04  0.7818609E-02  0.8704451E-01
        1   -1    0    0  501    0  0.00000000000E+00  0.00000000000E+00  0.10934926577E+04  0.10934926577E+04  0.50400001928E-02 0. -1.
       -1   -1    0    0    0  501  0.00000000000E+00  0.00000000000E+00 -0.74361320000E+03  0.74361320001E+03  0.50400001928E-02 0.  1.
    10030    2    1    2    0    0  0.00000000000E+00  0.00000000000E+00  0.34987945769E+03  0.18371058577E+04  0.18034806064E+04 0.  0.
        3    1    3    3  502    0 -0.67723065939E+03 -0.56488826869E+03 -0.16704778137E+02  0.88205395636E+03  0.10100000352E+00 0.  1.
       -3    1    3    3    0  502  0.67723065939E+03  0.56488826869E+03  0.36658423583E+03  0.95505190135E+03  0.10100000352E+00 0. -1.
</event>
<event>
 5   0  0.5820500E-05  0.1779508E+04  0.7818609E-02  0.8717273E-01
       -3   -1    0    0    0  501  0.00000000000E+00  0.00000000000E+00  0.50792680919E+03  0.50792681923E+03  0.10100000352E+00 0. -1.
        3   -1    0    0  501    0  0.00000000000E+00  0.00000000000E+00 -0.15586144258E+04  0.15586144291E+04  0.10100000352E+00 0.  1.
    10030    2    1    2    0    0  0.00000000000E+00  0.00000000000E+00 -0.10506876166E+04  0.20665412483E+04  0.17795078711E+04 0.  0.
        3    1    3    3  502    0 -0.22763456979E+03 -0.39917502235E+03  0.35945946537E+03  0.58341178705E+03  0.10100000352E+00 0. -1.
       -3    1    3    3    0  502  0.22763456979E+03  0.39917502235E+03 -0.14101470820E+04  0.14831294612E+04  0.10100000352E+00 0.  1.
</event>
<event>
 5   0  0.8430513E-05  0.1796857E+04  0.7818609E-02  0.8707973E-01
       -1   -1    0    0    0  501  0.00000000000E+00  0.00000000000E+00  0.58753087568E+03  0.58753087571E+03  0.50400001928E-02 0. -1.
        1   -1    0    0  501    0  0.00000000000E+00  0.00000000000E+00 -0.13738399007E+04  0.13738399007E+04  0.50400001928E-02 0.  1.
    10030    2    1    2    0    0  0.00000000000E+00  0.00000000000E+00 -0.78630902502E+03  0.19613707764E+04  0.17968565440E+04 0.  0.
        5    1    3    3  502    0 -0.68575667328E+03  0.56772372352E+03 -0.26135687923E+03  0.92784802070E+03  0.46999998093E+01 0.  1.
       -5    1    3    3    0  502  0.68575667328E+03 -0.56772372352E+03 -0.52495214579E+03  0.10335227557E+04  0.46999998093E+01 0. -1.
</event>
<event>
 5   0  0.1608627E-04  0.1831583E+04  0.7818609E-02  0.8689682E-01
       -2   -1    0    0    0  501  0.00000000000E+00  0.00000000000E+00  0.39264637230E+03  0.39264637231E+03  0.25500000920E-02 0. -1.
        2   -1    0    0  501    0  0.00000000000E+00  0.00000000000E+00 -0.21359537522E+04  0.21359537522E+04  0.25500000920E-02 0.  1.
    10030    2    1    2    0    0  0.00000000000E+00  0.00000000000E+00 -0.17433073799E+04  0.25286001246E+04  0.18315834594E+04 0.  0.
        2    1    3    3  502    0  0.87700080319E+03  0.89849148570E+02 -0.12139398482E+04  0.15002843841E+04  0.25500000920E-02 0.  1.
       -2    1    3    3    0  502 -0.87700080319E+03 -0.89849148570E+02 -0.52936753178E+03  0.10283157404E+04  0.25500000920E-02 0. -1.
</event>
<event>
 5   0  0.5820500E-05  0.1801675E+04  0.7818609E-02  0.8705409E-01
        3   -1    0    0  501    0  0.00000000000E+00  0.00000000000E+00  0.26968550719E+04  0.26968550738E+04  0.10100000352E+00 0.  1.
       -3   -1    0    0    0  501  0.00000000000E+00  0.00000000000E+00 -0.30090919058E+03  0.30090920753E+03  0.10100000352E+00 0. -1.
    10030    2    1    2    0    0  0.00000000000E+00  0.00000000000E+00  0.23959458814E+04  0.29977642814E+04  0.18016753371E+04 0.  0.
        3    1    3    3  502    0  0.40323119731E+03 -0.16121650114E+02  0.25380421414E+04  0.25699247514E+04  0.10100000352E+00 0.  1.
       -3    1    3    3    0  502 -0.40323119731E+03  0.16121650114E+02 -0.14209626003E+03  0.42783952997E+03  0.10100000352E+00 0. -1.
</event>
<event>
 5   0  0.8206783E-05  0.1799779E+04  0.7818609E-02  0.8706417E-01
        1   -1    0    0  501    0  0.00000000000E+00  0.00000000000E+00  0.54047535991E+03  0.54047535993E+03  0.50400001928E-02 0.  1.
       -1   -1    0    0    0  501  0.00000000000E+00  0.00000000000E+00 -0.14983135430E+04  0.14983135430E+04  0.50400001928E-02 0. -1.
    10030    2    1    2    0    0  0.00000000000E+00  0.00000000000E+00 -0.95783818305E+03  0.20387889029E+04  0.17997794881E+04 0.  0.
        1    1    3    3  502    0  0.79081446292E+03  0.36740191933E+03 -0.22706577102E+03  0.90107188919E+03  0.50400001928E-02 0. -1.
       -1    1    3    3    0  502 -0.79081446292E+03 -0.36740191933E+03 -0.73077241203E+03  0.11377170137E+04  0.50400001928E-02 0.  1.
</event>
<event>
 5   0  0.1608627E-04  0.1808161E+04  0.7818609E-02  0.8701972E-01
       -2   -1    0    0    0  501  0.00000000000E+00  0.00000000000E+00  0.80829998750E+03  0.80829998751E+03  0.25500000920E-02 0. -1.
        2   -1    0    0  501    0  0.00000000000E+00  0.00000000000E+00 -0.10112104923E+04  0.10112104923E+04  0.25500000920E-02 0.  1.
    10030    2    1    2    0    0  0.00000000000E+00  0.00000000000E+00 -0.20291050475E+03  0.18195104798E+04  0.18081608648E+04 0.  0.
        2    1    3    3  502    0 -0.23351429393E+03  0.45873545951E+03 -0.84935275465E+03  0.99316023335E+03  0.25500000920E-02 0.  1.
       -2    1    3    3    0  502  0.23351429393E+03 -0.45873545951E+03  0.64644224990E+03  0.82635024641E+03  0.25500000920E-02 0. -1.
</event>
<event>
 5   0  0.8492114E-05  0.1780070E+04  0.7818609E-02  0.8716970E-01
        1   -1    0    0  501    0  0.00000000000E+00  0.00000000000E+00  0.11572894518E+04  0.11572894518E+04  0.50400001928E-02 0.  1.
       -1   -1    0    0    0  501  0.00000000000E+00  0.00000000000E+00 -0.68449811425E+03  0.68449811427E+03  0.50400001928E-02 0. -1.
    10030    2    1    2    0    0  0.00000000000E+00  0.00000000000E+00  0.47279133758E+03  0.18417875661E+04  0.17800701643E+04 0.  0.
        2    1    3    3  502    0 -0.13202437391E+03  0.17889774825E+02  0.11469134758E+04  0.11546259136E+04  0.25500000920E-02 0.  1.
       -2    1    3    3    0  502  0.13202437391E+03 -0.17889774825E+02 -0.67412213826E+03  0.68716165249E+03  0.25500000920E-02 0. -1.
</event>
<event>
 5   0  0.8492114E-05  0.1788899E+04  0.7818609E-02  0.8712225E-01
        1   -1    0    0  501    0  0.00000000000E+00  0.00000000000E+00  0.92598637720E+03  0.92598637721E+03  0.50400001928E-02 0.  1.
       -1   -1    0    0    0  501  0.00000000000E+00  0.00000000000E+00 -0.86398670643E+03  0.86398670645E+03  0.50400001928E-02 0. -1.
    10030    2    1    2    0    0  0.00000000000E+00  0.00000000000E+00  0.61999670764E+02  0.17899730837E+04  0.17888990137E+04 0.  0.
        2    1    3    3  502    0 -0.53070760874E+03 -0.71770516735E+03 -0.26381322602E+02  0.89299901870E+03  0.25500000920E-02 0. -1.
       -2    1    3    3    0  502  0.53070760874E+03  0.71770516735E+03  0.88380993366E+02  0.89697406496E+03  0.25500000920E-02 0.  1.
</event>
<event>
 5   0  0.8254914E-05  0.1763932E+04  0.7818609E-02  0.8725719E-01
       -1   -1    0    0    0  501  0.00000000000E+00  0.00000000000E+00  0.79624165659E+03  0.79624165660E+03  0.50400001928E-02 0.  1.
        1   -1    0    0  501    0  0.00000000000E+00  0.00000000000E+00 -0.97691926593E+03  0.97691926595E+03  0.50400001928E-02 0. -1.
    10030    2    1    2    0    0  0.00000000000E+00  0.00000000000E+00 -0.18067760934E+03  0.17731609225E+04  0.17639317614E+04 0.  0.
        4    1    3    3  502    0  0.19564667710E+03  0.52839953576E+03  0.59172325626E+03  0.81708121785E+03  0.12699999809E+01 0.  1.
       -4    1    3    3    0  502 -0.19564667710E+03 -0.52839953576E+03 -0.77240086561E+03  0.95607970470E+03  0.12699999809E+01 0. -1.
</event>
<event>
 5   0  0.8254914E-05  0.1827239E+04  0.7818609E-02  0.8691947E-01
       -1   -1    0    0    0  501  0.00000000000E+00  0.00000000000E+00  0.66018840880E+03  0.66018840882E+03  0.50400001928E-02 0.  1.
        1   -1    0    0  501    0  0.00000000000E+00  0.00000000000E+00 -0.12643367100E+04  0.12643367100E+04  0.50400001928E-02 0. -1.
    10030    2    1    2    0    0  0.00000000000E+00  0.00000000000E+00 -0.60414830124E+03  0.19245251189E+04  0.18272388359E+04 0.  0.
        4    1    3    3  502    0 -0.55820104689E+02 -0.13924977556E+03  0.64712587038E+03  0.66428901022E+03  0.12699999809E+01 0.  1.
       -4    1    3    3    0  502  0.55820104689E+02  0.13924977556E+03 -0.12512741716E+04  0.12602361086E+04  0.12699999809E+01 0. -1.
</event>
<event>
 5   0  0.8430513E-05  0.1803671E+04  0.7818609E-02  0.8704350E-01
       -1   -1    0    0    0  501  0.00000000000E+00  0.00000000000E+00  0.47028500833E+03  0.47028500835E+03  0.50400001928E-02 0. -1.
        1   -1    0    0  501    0  0.00000000000E+00  0.00000000000E+00 -0.17293922671E+04  0.17293922671E+04  0.50400001928E-02 0.  1.
    10030    2    1    2    0    0  0.00000000000E+00  0.00000000000E+00 -0.12591072588E+04  0.21996772754E+04  0.18036709864E+04 0.  0.
        5    1    3    3  502    0  0.64998818685E+03 -0.17054193712E+03 -0.13630289261E+04  0.15196838944E+04  0.46999998093E+01 0.  1.
       -5    1    3    3    0  502 -0.64998818685E+03  0.17054193712E+03  0.10392166736E+03  0.67999338108E+03  0.46999998093E+01 0. -1.
</event>
<event>
 5   0  0.8132598E-05  0.1796103E+04  0.7818609E-02  0.8708374E-01
       -1   -1    0    0    0  501  0.00000000000E+00  0.00000000000E+00  0.45402509224E+03  0.45402509226E+03  0.50400001928E-02 0. -1.
        1   -1    0    0  501    0  0.00000000000E+00  0.00000000000E+00 -0.17763263447E+04  0.17763263447E+04  0.50400001928E-02 0.  1.
    10030    2    1    2    0    0  0.00000000000E+00  0.00000000000E+00 -0.13223012525E+04  0.22303514370E+04  0.17961032627E+04 0.  0.
        3    1    3    3  502    0  0.40540444296E+02 -0.51138409018E+03 -0.15764805084E+04  0.16578443893E+04  0.10100000352E+00 0.  1.
       -3    1    3    3    0  502 -0.40540444296E+02  0.51138409018E+03  0.25417925598E+03  0.57250704771E+03  0.10100000352E+00 0. -1.
</event>
<event>
 5   0  0.1603564E-04  0.1800780E+04  0.7818609E-02  0.8705885E-01
        2   -1    0    0  501    0  0.00000000000E+00  0.00000000000E+00  0.20781551730E+04  0.20781551730E+04  0.25500000920E-02 0.  1.
       -2   -1    0    0    0  501  0.00000000000E+00  0.00000000000E+00 -0.39010653287E+03  0.39010653288E+03  0.25500000920E-02 0. -1.
    10030    2    1    2    0    0  0.00000000000E+00  0.00000000000E+00  0.16880486402E+04  0.24682617059E+04  0.18007797304E+04 0.  0.
        5    1    3    3  502    0 -0.83580508910E+03  0.29794412618E+03  0.63462683801E+03  0.10909235366E+04  0.46999998093E+01 0. -1.
       -5    1    3    3    0  502  0.83580508910E+03 -0.29794412618E+03  0.10534218022E+04  0.13773381693E+04  0.46999998093E+01 0.  1.
</event>
<event>
 5   0  0.8430513E-05  0.1824453E+04  0.7818609E-02  0.8693403E-01
       -1   -1    0    0    0  501  0.00000000000E+00  0.00000000000E+00  0.10551889232E+04  0.10551889233E+04  0.50400001928E-02 0.  1.
        1   -1    0    0  501    0  0.00000000000E+00  0.00000000000E+00 -0.78863345893E+03  0.78863345895E+03  0.50400001928E-02 0. -1.
    10030    2    1    2    0    0  0.00000000000E+00  0.00000000000E+00  0.26655546431E+03  0.18438223822E+04  0.18244531130E+04 0.  0.
        5    1    3    3  502    0 -0.20681338040E+03 -0.58460096764E+03 -0.54285802763E+03  0.82416442161E+03  0.46999998093E+01 0. -1.
       -5    1    3    3    0  502  0.20681338040E+03  0.58460096764E+03  0.80941349194E+03  0.10196579606E+04  0.46999998093E+01 0.  1.
</event>
<event>
 5   0  0.1573981E-04  0.1795063E+04  0.7818609E-02  0.8708929E-01
       -2   -1    0    0    0  501  0.00000000000E+00  0.00000000000E+00  0.49088656481E+03  0.49088656482E+03  0.25500000920E-02 0. -1.
        2   -1    0    0  501    0  0.00000000000E+00  0.00000000000E+00 -0.16410365445E+04  0.16410365445E+04  0.25500000920E-02 0.  1.
    10030    2    1    2    0    0  0.00000000000E+00  0.00000000000E+00 -0.11501499797E+04  0.21319231093E+04  0.17950629984E+04 0.  0.
        1    1    3    3  502    0  0.52883544011E+03 -0.18868369042E+03 -0.14066860940E+04  0.15146069539E+04  0.50400001928E-02 0.  1.
       -1    1    3    3    0  502 -0.52883544011E+03  0.18868369042E+03  0.25653611432E+03  0.61731615541E+03  0.50400001928E-02 0. -1.
</event>
<event>
 5   0  0.8132598E-05  0.1792593E+04  0.7818609E-02  0.8710248E-01
       -1   -1    0    0    0  501  0.00000000000E+00  0.00000000000E+00  0.10323543349E+04  0.10323543349E+04  0.50400001928E-02 0.  1.
        1   -1    0    0  501    0  0.00000000000E+00  0.00000000000E+00 -0.77817053218E+03  0.77817053219E+03  0.50400001928E-02 0. -1.
    10030    2    1    2    0    0  0.00000000000E+00  0.00000000000E+00  0.25418380275E+03  0.18105248671E+04  0.17925933418E+04 0.  0.
        3    1    3    3  502    0  0.78596121915E+03 -0.42576196464E+03  0.60558652205E+02  0.89592167576E+03  0.10100000352E+00 0. -1.
       -3    1    3    3    0  502 -0.78596121915E+03  0.42576196464E+03  0.19362515054E+03  0.91460319137E+03  0.10100000352E+00 0.  1.
</event>
<event>
 5   0  0.8254914E-05  0.1804506E+04  0.7818609E-02  0.8703907E-01
        1   -1    0    0  501    0  0.00000000000E+00  0.00000000000E+00  0.15256791885E+04  0.15256791885E+04  0.50400001928E-02 0. -1.
       -1   -1    0    0    0  501  0.00000000000E+00  0.00000000000E+00 -0.53357231547E+03  0.53357231549E+03  0.50400001928E-02 0.  1.
    10030    2    1    2    0    0  0.00000000000E+00  0.00000000000E+00  0.99210687304E+03  0.20592515040E+04  0.18045056689E+04 0.  0.
        4    1    3    3  502    0 -0.25043998212E+03 -0.55124959320E+03 -0.26730647661E+03  0.66185395971E+03  0.12699999809E+01 0.  1.
       -4    1    3    3    0  502  0.25043998212E+03  0.55124959320E+03  0.12594133497E+04  0.13973975443E+04  0.12699999809E+01 0. -1.
</event>
<event>
 5   0  0.1573981E-04  0.1788387E+04  0.7818609E-02  0.8712500E-01
       -2   -1    0    0    0  501  0.00000000000E+00  0.00000000000E+00  0.89329261964E+03  0.89329261965E+03  0.25500000920E-02 0.  1.
        2   -1    0    0  501    0  0.00000000000E+00  0.00000000000E+00 -0.89509534550E+03  0.89509534550E+03  0.25500000920E-02 0. -1.
    10030    2    1    2    0    0  0.00000000000E+00  0.00000000000E+00 -0.18027258535E+01  0.17883879652E+04  0.17883870566E+04 0.  0.
        1    1    3    3  502    0 -0.39186940717E+03 -0.56713738576E+03  0.56863875769E+03  0.89361987633E+03  0.50400001928E-02 0.  1.
       -1    1    3    3    0  502  0.39186940717E+03  0.56713738576E+03 -0.57044148355E+03  0.89476808882E+03  0.50400001928E-02 0. -1.
</event>
<event>
 5   0  0.1628397E-04  0.1798837E+04  0.7818609E-02  0.8706918E-01
        2   -1    0    0  501    0  0.00000000000E+00  0.00000000000E+00  0.19448507154E+04  0.19448507154E+04  0.25500000920E-02 0.  1.
       -2   -1    0    0    0  501  0.00000000000E+00  0.00000000000E+00 -0.41594659836E+03  0.41594659837E+03  0.25500000920E-02 0. -1.
    10030    2    1    2    0    0  0.00000000000E+00  0.00000000000E+00  0.15289041171E+04  0.23607973138E+04  0.17988374461E+04 0.  0.
        3    1    3    3  502    0  0.40682947353E+03 -0.79692859899E+03  0.64453691101E+03  0.11027389774E+04  0.10100000352E+00 0. -1.
       -3    1    3    3    0  502 -0.40682947353E+03  0.79692859899E+03  0.88436720604E+03  0.12580583364E+04  0.10100000352E+00 0.  1.
</event>
<event>
 5   0  0.1573981E-04  0.1780483E+04  0.7818609E-02  0.8716748E-01
        2   -1    0    0  501    0  0.00000000000E+00  0.00000000000E+00  0.10571047569E+04  0.10571047569E+04  0.25500000920E-02 0.  1.
       -2   -1    0    0    0  501  0.00000000000E+00  0.00000000000E+00 -0.74971776931E+03  0.74971776931E+03  0.25500000920E-02 0. -1.
    10030    2    1    2    0    0  0.00000000000E+00  0.00000000000E+00  0.30738698758E+03  0.18068225262E+04  0.17804833279E+04 0.  0.
        1    1    3    3  502    0 -0.79450211186E+03 -0.11663854980E+03 -0.23629892415E+03  0.83706352126E+03  0.50400001928E-02 0. -1.
       -1    1    3    3    0  502  0.79450211186E+03  0.11663854980E+03  0.54368591173E+03  0.96975900495E+03  0.50400001928E-02 0.  1.
</event>
<event>
 5   0  0.1628397E-04  0.1796025E+04  0.7818609E-02  0.8708416E-01
       -2   -1    0    0    0  501  0.00000000000E+00  0.00000000000E+00  0.85954699064E+03  0.85954699064E+03  0.25500000920E-02 0. -1.
        2   -1    0    0  501    0  0.00000000000E+00  0.00000000000E+00 -0.93819957717E+03  0.93819957717E+03  0.25500000920E-02 0.  1.
    10030    2    1    2    0    0  0.00000000000E+00  0.00000000000E+00 -0.78652586530E+02  0.17977465678E+04  0.17960251927E+04 0.  0.
        3    1    3    3  502    0 -0.82687046646E+03  0.34925183613E+03 -0.66463154029E+02  0.90006053929E+03  0.10100000352E+00 0.  1.
       -3    1    3    3    0  502  0.82687046646E+03 -0.34925183613E+03 -0.12189432501E+02  0.89768602852E+03  0.10100000352E+00 0. -1.
</event>
<event>
 5   0  0.1608627E-04  0.1800466E+04  0.7818609E-02  0.8706052E-01
        2   -1    0    0  501    0  0.00000000000E+00  0.00000000000E+00  0.17996143163E+04  0.17996143163E+04  0.25500000920E-02 0. -1.
       -2   -1    0    0    0  501  0.00000000000E+00  0.00000000000E+00 -0.45032956146E+03  0.45032956147E+03  0.25500000920E-02 0.  1.
    10030    2    1    2    0    0  0.00000000000E+00  0.00000000000E+00  0.13492847549E+04  0.22499438778E+04  0.18004660795E+04 0.  0.
        2    1    3    3  502    0 -0.24426877764E+03  0.29676686624E+01 -0.40811842932E+03  0.47564345380E+03  0.25500000920E-02 0.  1.
       -2    1    3    3    0  502  0.24426877764E+03 -0.29676686624E+01  0.17574031842E+04  0.17743004240E+04  0.25500000920E-02 0. -1.
</event>
<event>
 5   0  0.1573981E-04  0.1684675E+04  0.7818609E-02  0.8770153E-01
       -2   -1    0    0    0  501  0.00000000000E+00  0.00000000000E+00  0.23821096120E+03  0.23821096122E+03  0.25500000920E-02 0. -1.
        2   -1    0    0  501    0  0.00000000000E+00  0.00000000000E+00 -0.29785896829E+04  0.29785896829E+04  0.25500000920E-02 0.  1.
    10030    2    1    2    0    0  0.00000000000E+00  0.00000000000E+00 -0.27403787217E+04  0.32168006441E+04  0.16846752938E+04 0.  0.
        1    1    3    3  502    0 -0.21589700346E+03 -0.41836972936E+03 -0.36459137470E+02  0.47220124447E+03  0.50400001928E-02 0. -1.
       -1    1    3    3    0  502  0.21589700346E+03  0.41836972936E+03 -0.27039195842E+04  0.27445993996E+04  0.50400001928E-02 0.  1.
</event>
<event>
 5   0  0.8430513E-05  0.1791732E+04  0.7818609E-02  0.8710709E-01
        1   -1    0    0  501    0  0.00000000000E+00  0.00000000000E+00  0.11723446596E+04  0.11723446596E+04  0.50400001928E-02 0.  1.
       -1   -1    0    0    0  501  0.00000000000E+00  0.00000000000E+00 -0.68459003654E+03  0.68459003656E+03  0.50400001928E-02 0. -1.
    10030    2    1    2    0    0  0.00000000000E+00  0.00000000000E+00  0.48775462302E+03  0.18569346961E+04  0.17917315350E+04 0.  0.
        5    1    3    3  502    0 -0.36638033995E+03  0.80334679456E+03  0.86862317174E+02  0.88722476181E+03  0.46999998093E+01 0. -1.
       -5    1    3    3    0  502  0.36638033995E+03 -0.80334679456E+03  0.40089230584E+03  0.96970993432E+03  0.46999998093E+01 0.  1.
</event>
<event>
 5   0  0.8430513E-05  0.1804218E+04  0.7818609E-02  0.8704060E-01
        1   -1    0    0  501    0  0.00000000000E+00  0.00000000000E+00  0.12660230478E+04  0.12660230478E+04  0.50400001928E-02 0. -1.
       -1   -1    0    0    0  501  0.00000000000E+00  0.00000000000E+00 -0.64280051904E+03  0.64280051906E+03  0.50400001928E-02 0.  1.
    10030    2    1    2    0    0  0.00000000000E+00  0.00000000000E+00  0.62322252874E+03  0.19088235669E+04  0.18042175836E+04 0.  0.
        5    1    3    3  502    0  0.61411252991E+03  0.52014920687E+03 -0.11955724246E+03  0.81363715563E+03  0.46999998093E+01 0.  1.
       -5    1    3    3    0  502 -0.61411252991E+03 -0.52014920687E+03  0.74277977121E+03  0.10951864112E+04  0.46999998093E+01 0. -1.
</event>
<event>
 5   0  0.1608627E-04  0.1794113E+04  0.7818609E-02  0.8709436E-01
        2   -1    0    0  501    0  0.00000000000E+00  0.00000000000E+00  0.17895517802E+04  0.17895517802E+04  0.25500000920E-02 0.  1.
       -2   -1    0    0    0  501  0.00000000000E+00  0.00000000000E+00 -0.44967155795E+03  0.44967155796E+03  0.25500000920E-02 0. -1.
    10030    2    1    2    0    0  0.00000000000E+00  0.00000000000E+00  0.13398802223E+04  0.22392233382E+04  0.17941131927E+04 0.  0.
        2    1    3    3  502    0  0.50974474382E+02  0.13041469366E+03  0.17758282703E+04  0.17813400671E+04  0.25500000920E-02 0.  1.
       -2    1    3    3    0  502 -0.50974474382E+02 -0.13041469366E+03 -0.43594804798E+03  0.45788327104E+03  0.25500000920E-02 0. -1.
</event>
<event>
 5   0  0.8132598E-05  0.1870370E+04  0.7818609E-02  0.8669747E-01
       -1   -1    0    0    0  501  0.00000000000E+00  0.00000000000E+00  0.64586314069E+03  0.64586314071E+03  0.50400001928E-02 0. -1.
        1   -1    0    0  501    0  0.00000000000E+00  0.00000000000E+00 -0.13541120000E+04  0.13541120000E+04  0.50400001928E-02 0.  1.
    10030    2    1    2    0    0  0.00000000000E+00  0.00000000000E+00 -0.70824885932E+03  0.19999751407E+04  0.18703700481E+04 0.  0.
        3    1    3    3  502    0 -0.22957787987E+03 -0.89630253467E+03 -0.20865808771E+03  0.94847374469E+03  0.10100000352E+00 0. -1.
       -3    1    3    3    0  502  0.22957787987E+03  0.89630253467E+03 -0.49959077161E+03  0.10515013960E+04  0.10100000352E+00 0.  1.
</event>
<event>
 5   0  0.8430513E-05  0.1806463E+04  0.7818609E-02  0.8702870E-01
        1   -1    0    0  501    0  0.00000000000E+00  0.00000000000E+00  0.60569439826E+03  0.60569439828E+03  0.50400001928E-02 0.  1.
       -1   -1    0    0    0  501  0.00000000000E+00  0.00000000000E+00 -0.13469286741E+04  0.13469286741E+04  0.50400001928E-02 0. -1.
    10030    2    1    2    0    0  0.00000000000E+00  0.00000000000E+00 -0.74123427582E+03  0.19526230724E+04  0.18064630113E+04 0.  0.
        5    1    3    3  502    0 -0.60460697040E+03 -0.66682959054E+03 -0.45146000300E+03  0.10070002561E+04  0.46999998093E+01 0. -1.
       -5    1    3    3    0  502  0.60460697040E+03  0.66682959054E+03 -0.28977427283E+03  0.94562281628E+03  0.46999998093E+01 0.  1.
</event>
<event>
 5   0  0.1603564E-04  0.1781258E+04  0.7818609E-02  0.8716330E-01
       -2   -1    0    0    0  501  0.00000000000E+00  0.00000000000E+00  0.77781058060E+03  0.77781058061E+03  0.25500000920E-02 0. -1.
        2   -1    0    0  501    0  0.00000000000E+00  0.00000000000E+00 -0.10198110429E+04  0.10198110429E+04  0.25500000920E-02 0.  1.
    10030    2    1    2    0    0  0.00000000000E+00  0.00000000000E+00 -0.24200046229E+03  0.17976216235E+04  0.17812577796E+04 0.  0.
        5    1    3    3  502    0 -0.80831279674E+03 -0.21833171240E+03  0.18536633222E+03  0.85756695432E+03  0.46999998093E+01 0. -1.
       -5    1    3    3    0  502  0.80831279674E+03  0.21833171240E+03 -0.42736679451E+03  0.94005466919E+03  0.46999998093E+01 0.  1.
</event>
<event>
 5   0  0.1628397E-04  0.1760869E+04  0.7818609E-02  0.8727390E-01
       -2   -1    0    0    0  501  0.00000000000E+00  0.00000000000E+00  0.91360798044E+03  0.91360798044E+03  0.25500000920E-02 0.  1.
        2   -1    0    0  501    0  0.00000000000E+00  0.00000000000E+00 -0.84846579384E+03  0.84846579384E+03  0.25500000920E-02 0. -1.
    10030    2    1    2    0    0  0.00000000000E+00  0.00000000000E+00  0.65142186598E+02  0.17620737743E+04  0.17608692403E+04 0.  0.
        3    1    3    3  502    0 -0.84655813890E+02 -0.50443089684E+03 -0.68454173296E+03  0.85452591001E+03  0.10100000352E+00 0. -1.
       -3    1    3    3    0  502  0.84655813890E+02  0.50443089684E+03  0.74968391956E+03  0.90754786428E+03  0.10100000352E+00 0.  1.
</event>
<event>
 5   0  0.5820500E-05  0.1796195E+04  0.7818609E-02  0.8708325E-01
        3   -1    0    0  501    0  0.00000000000E+00  0.00000000000E+00  0.46616953922E+03  0.46616955017E+03  0.10100000352E+00 0.  1.
       -3   -1    0    0    0  501  0.00000000000E+00  0.00000000000E+00 -0.17302278771E+04  0.17302278801E+04  0.10100000352E+00 0. -1.
    10030    2    1    2    0    0  0.00000000000E+00  0.00000000000E+00 -0.12640583379E+04  0.21963974302E+04  0.17961954765E+04 0.  0.
        2    1    3    3  502    0  0.70569401027E+03 -0.22678642882E+03 -0.12521053403E+04  0.14550614777E+04  0.25500000920E-02 0. -1.
       -2    1    3    3    0  502 -0.70569401027E+03  0.22678642882E+03 -0.11952997554E+02  0.74133595258E+03  0.25500000920E-02 0.  1.
</event>
<event>
 5   0  0.1608627E-04  0.1672460E+04  0.7818609E-02  0.8777229E-01
        2   -1    0    0  501    0  0.00000000000E+00  0.00000000000E+00  0.16141796394E+04  0.16141796394E+04  0.25500000920E-02 0. -1.
       -2   -1    0    0    0  501  0.00000000000E+00  0.00000000000E+00 -0.43321111509E+03  0.43321111509E+03  0.25500000920E-02 0.  1.
    10030    2    1    2    0    0  0.00000000000E+00  0.00000000000E+00  0.11809685243E+04  0.20473907545E+04  0.16724599386E+04 0.  0.
        2    1    3    3  502    0  0.14514966238E+03  0.70237123106E+03  0.11168625369E+04  0.13273189884E+04  0.25500000920E-02 0. -1.
       -2    1    3    3    0  502 -0.14514966238E+03 -0.70237123106E+03  0.64105987460E+02  0.72007176610E+03  0.25500000920E-02 0.  1.
</event>
<event>
 5   0  0.8206783E-05  0.1788115E+04  0.7818609E-02  0.8712646E-01
        1   -1    0    0  501    0  0.00000000000E+00  0.00000000000E+00  0.63146257143E+03  0.63146257145E+03  0.50400001928E-02 0.  1.
       -1   -1    0    0    0  501  0.00000000000E+00  0.00000000000E+00 -0.12658524207E+04  0.12658524207E+04  0.50400001928E-02 0. -1.
    10030    2    1    2    0    0  0.00000000000E+00  0.00000000000E+00 -0.63438984926E+03  0.18973149922E+04  0.17881145653E+04 0.  0.
        1    1    3    3  502    0  0.21210158561E+03  0.86851376086E+03 -0.31090060408E+03  0.94655291509E+03  0.50400001928E-02 0. -1.
       -1    1    3    3    0  502 -0.21210158561E+03 -0.86851376086E+03 -0.32348924518E+03  0.95076207707E+03  0.50400001928E-02 0.  1.
</event>
<event>
 5   0  0.1573981E-04  0.1801536E+04  0.7818609E-02  0.8705483E-01
       -2   -1    0    0    0  501  0.00000000000E+00  0.00000000000E+00  0.77780130552E+03  0.77780130552E+03  0.25500000920E-02 0. -1.
        2   -1    0    0  501    0  0.00000000000E+00  0.00000000000E+00 -0.10431756154E+04  0.10431756154E+04  0.25500000920E-02 0.  1.
    10030    2    1    2    0    0  0.00000000000E+00  0.00000000000E+00 -0.26537430990E+03  0.18209769209E+04  0.18015364060E+04 0.  0.
        1    1    3    3  502    0  0.26322192359E+03  0.78808563164E+03 -0.48431841901E+03  0.96173233016E+03  0.50400001928E-02 0.  1.
       -1    1    3    3    0  502 -0.26322192359E+03 -0.78808563164E+03  0.21894410911E+03  0.85924459078E+03  0.50400001928E-02 0. -1.
</event>
<event>
 5   0  0.8492114E-05  0.1724327E+04  0.7818609E-02  0.8747610E-01
        1   -1    0    0  501    0  0.00000000000E+00  0.00000000000E+00  0.16005372895E+04  0.16005372895E+04  0.50400001928E-02 0. -1.
       -1   -1    0    0    0  501  0.00000000000E+00  0.00000000000E+00 -0.46442259988E+03  0.46442259991E+03  0.50400001928E-02 0.  1.
    10030    2    1    2    0    0  0.00000000000E+00  0.00000000000E+00  0.11361146896E+04  0.20649598894E+04  0.17243267547E+04 0.  0.
        2    1    3    3  502    0  0.74093613540E+03  0.44271394197E+02  0.42800997256E+02  0.74349057725E+03  0.25500000920E-02 0.  1.
       -2    1    3    3    0  502 -0.74093613540E+03 -0.44271394197E+02  0.10933136924E+04  0.13214693122E+04  0.25500000920E-02 0. -1.
</event>
<event>
 5   0  0.8132598E-05  0.1803517E+04  0.7818609E-02  0.8704431E-01
       -1   -1    0    0    0  501  0.00000000000E+00  0.00000000000E+00  0.49205338866E+03  0.49205338869E+03  0.50400001928E-02 0.  1.
        1   -1    0    0  501    0  0.00000000000E+00  0.00000000000E+00 -0.16526018630E+04  0.16526018631E+04  0.50400001928E-02 0. -1.
    10030    2    1    2    0    0  0.00000000000E+00  0.00000000000E+00 -0.11605484744E+04  0.21446552517E+04  0.18035169496E+04 0.  0.
        3    1    3    3  502    0  0.66961376858E+03 -0.55317070247E+03 -0.86859855825E+03  0.12283500685E+04  0.10100000352E+00 0. -1.
       -3    1    3    3    0  502 -0.66961376858E+03  0.55317070247E+03 -0.29194991613E+03  0.91630518326E+03  0.10100000352E+00 0.  1.
</event>
<event>
 5   0  0.8430513E-05  0.1818989E+04  0.7818609E-02  0.8696266E-01
        1   -1    0    0  501    0  0.00000000000E+00  0.00000000000E+00  0.29290506901E+04  0.29290506901E+04  0.50400001928E-02 0.  1.
       -1   -1    0    0    0  501  0.00000000000E+00  0.00000000000E+00 -0.28240571701E+03  0.28240571705E+03  0.50400001928E-02 0. -1.
    10030    2    1    2    0    0  0.00000000000E+00  0.00000000000E+00  0.26466449731E+04  0.32114564072E+04  0.18189894561E+04 0.  0.
        5    1    3    3  502    0  0.72678977544E+03  0.53929998087E+03  0.14821279810E+04  0.17366039529E+04  0.46999998093E+01 0. -1.
       -5    1    3    3    0  502 -0.72678977544E+03 -0.53929998087E+03  0.11645169921E+04  0.14748524543E+04  0.46999998093E+01 0.  1.
</event>
<event>
 5   0  0.8492114E-05  0.1741987E+04  0.7818609E-02  0.8737773E-01
        1   -1    0    0  501    0  0.00000000000E+00  0.00000000000E+00  0.82427702086E+03  0.82427702088E+03  0.50400001928E-02 0.  1.
       -1   -1    0    0    0  501  0.00000000000E+00  0.00000000000E+00 -0.92035778609E+03  0.92035778610E+03  0.50400001928E-02 0. -1.
    10030    2    1    2    0    0  0.00000000000E+00  0.00000000000E+00 -0.96080765228E+02  0.17446348070E+04  0.17419871114E+04 0.  0.
        2    1    3    3  502    0  0.22837450466E+03  0.36616798357E+03 -0.80575879419E+03  0.91404657485E+03  0.25500000920E-02 0. -1.
       -2    1    3    3    0  502 -0.22837450466E+03 -0.36616798357E+03  0.70967802896E+03  0.83058823214E+03  0.25500000920E-02 0.  1.
</event>
<event>
 5   0  0.1549012E-04  0.1797569E+04  0.7818609E-02  0.8707593E-01
        2   -1    0    0  501    0  0.00000000000E+00  0.00000000000E+00  0.81637079411E+03  0.81637079411E+03  0.25500000920E-02 0. -1.
       -2   -1    0    0    0  501  0.00000000000E+00  0.00000000000E+00 -0.98951829523E+03  0.98951829524E+03  0.25500000920E-02 0.  1.
    10030    2    1    2    0    0  0.00000000000E+00  0.00000000000E+00 -0.17314750112E+03  0.18058890893E+04  0.17975692882E+04 0.  0.
        4    1    3    3  502    0  0.78703891303E+03  0.18517725029E+03 -0.48093531178E+03  0.94075568118E+03  0.12699999809E+01 0.  1.
       -4    1    3    3    0  502 -0.78703891303E+03 -0.18517725029E+03  0.30778781066E+03  0.86513340817E+03  0.12699999809E+01 0. -1.
</event>
<event>
 5   0  0.8254914E-05  0.1791064E+04  0.7818609E-02  0.8711066E-01
       -1   -1    0    0    0  501  0.00000000000E+00  0.00000000000E+00  0.48808086879E+03  0.48808086881E+03  0.50400001928E-02 0.  1.
        1   -1    0    0  501    0  0.00000000000E+00  0.00000000000E+00 -0.16431246830E+04  0.16431246830E+04  0.50400001928E-02 0. -1.
    10030    2    1    2    0    0  0.00000000000E+00  0.00000000000E+00 -0.11550438142E+04  0.21312055518E+04  0.17910641785E+04 0.  0.
        4    1    3    3  502    0  0.20260617425E+03  0.53414891810E+03  0.24309506113E+03  0.62085517651E+03  0.12699999809E+01 0.  1.
       -4    1    3    3    0  502 -0.20260617425E+03 -0.53414891810E+03 -0.13981388754E+04  0.15103503753E+04  0.12699999809E+01 0. -1.
</event>
<event>
 5   0  0.8430513E-05  0.1804155E+04  0.7818609E-02  0.8704093E-01
       -1   -1    0    0    0  501  0.00000000000E+00  0.00000000000E+00  0.81917461672E+03  0.81917461674E+03  0.50400001928E-02 0.  1.
        1   -1    0    0  501    0  0.00000000000E+00  0.00000000000E+00 -0.99337092766E+03  0.99337092768E+03  0.50400001928E-02 0. -1.
    10030    2    1    2    0    0  0.00000000000E+00  0.00000000000E+00 -0.17419631094E+03  0.18125455444E+04  0.18041554799E+04 0.  0.
        5    1    3    3  502    0 -0.18846117705E+03  0.73011147754E+03  0.41032228598E+03  0.85846773572E+03  0.46999998093E+01 0.  1.
       -5    1    3    3    0  502  0.18846117705E+03 -0.73011147754E+03 -0.58451859693E+03  0.95407780870E+03  0.46999998093E+01 0. -1.
</event>
<event>
 5   0  0.5820500E-05  0.1788441E+04  0.7818609E-02  0.8712471E-01
       -4   -1    0    0    0  501  0.00000000000E+00  0.00000000000E+00  0.10671419415E+04  0.10671426972E+04  0.12699999809E+01 0.  1.
        4   -1    0    0  501    0  0.00000000000E+00  0.00000000000E+00 -0.74931815542E+03  0.74931923166E+03  0.12699999809E+01 0. -1.
    10030    2    1    2    0    0  0.00000000000E+00  0.00000000000E+00  0.31782378604E+03  0.18164619288E+04  0.17884412151E+04 0.  0.
        1    1    3    3  502    0 -0.38276778239E+03 -0.39997015273E+03 -0.55433215009E+03  0.78343565847E+03  0.50400001928E-02 0. -1.
       -1    1    3    3    0  502  0.38276778239E+03  0.39997015273E+03  0.87215593613E+03  0.10330262704E+04  0.50400001928E-02 0.  1.
</event>
<event>
 5   0  0.1573981E-04  0.1784084E+04  0.7818609E-02  0.8714809E-01
        2   -1    0    0  501    0  0.00000000000E+00  0.00000000000E+00  0.90847902022E+03  0.90847902023E+03  0.25500000920E-02 0.  1.
       -2   -1    0    0    0  501  0.00000000000E+00  0.00000000000E+00 -0.87590241668E+03  0.87590241669E+03  0.25500000920E-02 0. -1.
    10030    2    1    2    0    0  0.00000000000E+00  0.00000000000E+00  0.32576603538E+02  0.17843814369E+04  0.17840840443E+04 0.  0.
        1    1    3    3  502    0 -0.22761156836E+02  0.17312034879E+03  0.89121994901E+03  0.90816392957E+03  0.50400001928E-02 0.  1.
       -1    1    3    3    0  502  0.22761156836E+02 -0.17312034879E+03 -0.85864334547E+03  0.87621750734E+03  0.50400001928E-02 0. -1.
</event>
<event>
 5   0  0.1628397E-04  0.1795623E+04  0.7818609E-02  0.8708631E-01
        2   -1    0    0  501    0  0.00000000000E+00  0.00000000000E+00  0.11328686908E+04  0.11328686908E+04  0.25500000920E-02 0. -1.
       -2   -1    0    0    0  501  0.00000000000E+00  0.00000000000E+00 -0.71152593195E+03  0.71152593195E+03  0.25500000920E-02 0.  1.
    10030    2    1    2    0    0  0.00000000000E+00  0.00000000000E+00  0.42134275881E+03  0.18443946227E+04  0.17956229570E+04 0.  0.
        3    1    3    3  502    0  0.78526611706E+03  0.73054196775E+02 -0.23003431936E+03  0.82152029102E+03  0.10100000352E+00 0.  1.
       -3    1    3    3    0  502 -0.78526611706E+03 -0.73054196775E+02  0.65137707817E+03  0.10228743317E+04  0.10100000352E+00 0. -1.
</event>
<event>
 5   0  0.1628397E-04  0.1803060E+04  0.7818609E-02  0.8704674E-01
       -2   -1    0    0    0  501  0.00000000000E+00  0.00000000000E+00  0.10190187506E+04  0.10190187506E+04  0.25500000920E-02 0.  1.
        2   -1    0    0  501    0  0.00000000000E+00  0.00000000000E+00 -0.79758756131E+03  0.79758756131E+03  0.25500000920E-02 0. -1.
    10030    2    1    2    0    0  0.00000000000E+00  0.00000000000E+00  0.22143118930E+03  0.18166063119E+04  0.18030603764E+04 0.  0.
        3    1    3    3  502    0 -0.65211349847E+03 -0.48229805520E+03 -0.28580594422E+03  0.85997004418E+03  0.10100000352E+00 0. -1.
       -3    1    3    3    0  502  0.65211349847E+03  0.48229805520E+03  0.50723713352E+03  0.95663626774E+03  0.10100000352E+00 0.  1.
</event>
<event>
 5   0  0.8254914E-05  0.1802745E+04  0.7818609E-02  0.8704841E-01
        1   -1    0    0  501    0  0.00000000000E+00  0.00000000000E+00  0.23724457824E+04  0.23724457824E+04  0.50400001928E-02 0.  1.
       -1   -1    0    0    0  501  0.00000000000E+00  0.00000000000E+00 -0.34246211334E+03  0.34246211337E+03  0.50400001928E-02 0. -1.
    10030    2    1    2    0    0  0.00000000000E+00  0.00000000000E+00  0.20299836691E+04  0.27149078958E+04  0.18027454579E+04 0.  0.
        4    1    3    3  502    0  0.16219632956E+03  0.16965142882E+03  0.23256159640E+04  0.23374303159E+04  0.12699999809E+01 0.  1.
       -4    1    3    3    0  502 -0.16219632956E+03 -0.16965142882E+03 -0.29563229494E+03  0.37747757991E+03  0.12699999809E+01 0. -1.
</event>
<event>
 5   0  0.1573981E-04  0.1781675E+04  0.7818609E-02  0.8716105E-01
       -2   -1    0    0    0  501  0.00000000000E+00  0.00000000000E+00  0.55572921399E+03  0.55572921399E+03  0.25500000920E-02 0.  1.
        2   -1    0    0  501    0  0.00000000000E+00  0.00000000000E+00 -0.14280190235E+04  0.14280190235E+04  0.25500000920E-02 0. -1.
    10030    2    1    2    0    0  0.00000000000E+00  0.00000000000E+00 -0.87228980952E+03  0.19837482375E+04  0.17816754918E+04 0.  0.
        1    1    3    3  502    0 -0.31913890620E+03 -0.64034344599E+03 -0.10270984104E+04  0.12517270129E+04  0.50400001928E-02 0.  1.
       -1    1    3    3    0  502  0.31913890620E+03  0.64034344599E+03  0.15480860087E+03  0.73202122456E+03  0.50400001928E-02 0. -1.
</event>
<event>
 5   0  0.8492114E-05  0.1792050E+04  0.7818609E-02  0.8710539E-01
        1   -1    0    0  501    0  0.00000000000E+00  0.00000000000E+00  0.76310816253E+03  0.76310816255E+03  0.50400001928E-02 0.  1.
       -1   -1    0    0    0  501  0.00000000000E+00  0.00000000000E+00 -0.10520930889E+04  0.10520930889E+04  0.50400001928E-02 0. -1.
    10030    2    1    2    0    0  0.00000000000E+00  0.00000000000E+00 -0.28898492636E+03  0.18152012514E+04  0.17920500260E+04 0.  0.
        2    1    3    3  502    0 -0.66324712710E+02  0.59965113919E+03 -0.81553141480E+03  0.10144318335E+04  0.25500000920E-02 0. -1.
       -2    1    3    3    0  502  0.66324712710E+02 -0.59965113919E+03  0.52654648844E+03  0.80076941796E+03  0.25500000920E-02 0.  1.
</event>
<event>
 5   0  0.8132598E-05  0.1771899E+04  0.7818609E-02  0.8721387E-01
       -1   -1    0    0    0  501  0.00000000000E+00  0.00000000000E+00  0.93270239440E+03  0.93270239441E+03  0.50400001928E-02 0.  1.
        1   -1    0    0  501    0  0.00000000000E+00  0.00000000000E+00 -0.84154059320E+03  0.84154059322E+03  0.50400001928E-02 0. -1.
    10030    2    1    2    0    0  0.00000000000E+00  0.00000000000E+00  0.91161801193E+02  0.17742429876E+04  0.17718994625E+04 0.  0.
        3    1    3    3  502    0 -0.26929434583E+03 -0.48996158729E+03  0.73374900565E+03  0.92248003513E+03  0.10100000352E+00 0.  1.
       -3    1    3    3    0  502  0.26929434583E+03  0.48996158729E+03 -0.64258720446E+03  0.85176295250E+03  0.10100000352E+00 0. -1.
</event>
<event>
 5   0  0.8430513E-05  0.1794270E+04  0.7818609E-02  0.8709353E-01
       -1   -1    0    0    0  501  0.00000000000E+00  0.00000000000E+00  0.11062600674E+04  0.11062600675E+04  0.50400001928E-02 0. -1.
        1   -1    0    0  501    0  0.00000000000E+00  0.00000000000E+00 -0.72754232069E+03  0.72754232071E+03  0.50400001928E-02 0.  1.
    10030    2    1    2    0    0  0.00000000000E+00  0.00000000000E+00  0.37871774675E+03  0.18338023882E+04  0.17942697866E+04 0.  0.
        5    1    3    3  502    0 -0.39434201573E+03  0.65095611225E+03 -0.29605764187E+03  0.81665274306E+03  0.46999998093E+01 0. -1.
       -5    1    3    3    0  502  0.39434201573E+03 -0.65095611225E+03  0.67477538862E+03  0.10171496451E+04  0.46999998093E+01 0.  1.
</event>
<event>
 5   0  0.1608627E-04  0.1785708E+04  0.7818609E-02  0.8713937E-01
       -2   -1    0    0    0  501  0.00000000000E+00  0.00000000000E+00  0.27800687289E+03  0.27800687290E+03  0.25500000920E-02 0. -1.
        2   -1    0    0  501    0  0.00000000000E+00  0.00000000000E+00 -0.28675139017E+04  0.28675139017E+04  0.25500000920E-02 0.  1.
    10030    2    1    2    0    0  0.00000000000E+00  0.00000000000E+00 -0.25895070288E+04  0.31455207746E+04  0.17857083444E+04 0.  0.
        2    1    3    3  502    0  0.32203114972E+03  0.25048874807E+03  0.10421255668E+03  0.42108067074E+03  0.25500000920E-02 0. -1.
       -2    1    3    3    0  502 -0.32203114972E+03 -0.25048874807E+03 -0.26937195855E+04  0.27244401039E+04  0.25500000920E-02 0.  1.
</event>
<event>
 5   0  0.1573981E-04  0.1782297E+04  0.7818609E-02  0.8715771E-01
       -2   -1    0    0    0  501  0.00000000000E+00  0.00000000000E+00  0.64043904072E+03  0.64043904073E+03  0.25500000920E-02 0.  1.
        2   -1    0    0  501    0  0.00000000000E+00  0.00000000000E+00 -0.12400020924E+04  0.12400020924E+04  0.25500000920E-02 0. -1.
    10030    2    1    2    0    0  0.00000000000E+00  0.00000000000E+00 -0.59956305166E+03  0.18804411331E+04  0.17822971139E+04 0.  0.
        1    1    3    3  502    0 -0.51879752533E+03 -0.64083095566E+03 -0.65652892245E+03  0.10539665137E+04  0.50400001928E-02 0. -1.
       -1    1    3    3    0  502  0.51879752533E+03  0.64083095566E+03  0.56965870790E+02  0.82647461938E+03  0.50400001928E-02 0.  1.
</event>
<event>
 5   0  0.1628397E-04  0.1812289E+04  0.7818609E-02  0.8699791E-01
       -2   -1    0    0    0  501  0.00000000000E+00  0.00000000000E+00  0.83208208659E+03  0.83208208660E+03  0.25500000920E-02 0.  1.
        2   -1    0    0  501    0  0.00000000000E+00  0.00000000000E+00 -0.98679947109E+03  0.98679947109E+03  0.25500000920E-02 0. -1.
    10030    2    1    2    0    0  0.00000000000E+00  0.00000000000E+00 -0.15471738449E+03  0.18188815577E+04  0.18122893400E+04 0.  0.
        3    1    3    3  502    0 -0.40347188261E+03 -0.74486280846E+03 -0.40022435383E+03  0.93690432120E+03  0.10100000352E+00 0. -1.
       -3    1    3    3    0  502  0.40347188261E+03  0.74486280846E+03  0.24550696933E+03  0.88197723649E+03  0.10100000352E+00 0.  1.
</event>
<event>
 5   0  0.5820500E-05  0.1785526E+04  0.7818609E-02  0.8714035E-01
        4   -1    0    0  501    0  0.00000000000E+00  0.00000000000E+00  0.73557297476E+03  0.73557407112E+03  0.12699999809E+01 0.  1.
       -4   -1    0    0    0  501  0.00000000000E+00  0.00000000000E+00 -0.10835415245E+04  0.10835422688E+04  0.12699999809E+01 0. -1.
    10030    2    1    2    0    0  0.00000000000E+00  0.00000000000E+00 -0.34796854975E+03  0.18191163399E+04  0.17855257339E+04 0.  0.
        1    1    3    3  502    0  0.75735500270E+03 -0.44706850313E+03 -0.17575151110E+02  0.87963954695E+03  0.50400001928E-02 0.  1.
       -1    1    3    3    0  502 -0.75735500270E+03  0.44706850313E+03 -0.33039339864E+03  0.93947679295E+03  0.50400001928E-02 0. -1.
</event>
<event>
 5   0  0.1549012E-04  0.1789280E+04  0.7818609E-02  0.8712021E-01
       -2   -1    0    0    0  501  0.00000000000E+00  0.00000000000E+00  0.42419797218E+03  0.42419797219E+03  0.25500000920E-02 0. -1.
        2   -1    0    0  501    0  0.00000000000E+00  0.00000000000E+00 -0.18868095575E+04  0.18868095575E+04  0.25500000920E-02 0.  1.
    10030    2    1    2    0    0  0.00000000000E+00  0.00000000000E+00 -0.14626115854E+04  0.23110075297E+04  0.17892800655E+04 0.  0.
        4    1    3    3  502    0 -0.28897103984E+03 -0.50080666167E+03 -0.16130599053E+04  0.17135563735E+04  0.12699999809E+01 0.  1.
       -4    1    3    3    0  502  0.28897103984E+03  0.50080666167E+03  0.15044831990E+03  0.59745115625E+03  0.12699999809E+01 0. -1.
</event>
<event>
 5   0  0.1573981E-04  0.1791246E+04  0.7818609E-02  0.8710969E-01
       -2   -1    0    0    0  501  0.00000000000E+00  0.00000000000E+00  0.37619399680E+03  0.37619399681E+03  0.25500000920E-02 0. -1.
        2   -1    0    0  501    0  0.00000000000E+00  0.00000000000E+00 -0.21322520561E+04  0.21322520562E+04  0.25500000920E-02 0.  1.
    10030    2    1    2    0    0  0.00000000000E+00  0.00000000000E+00 -0.17560580594E+04  0.25084460530E+04  0.17912458493E+04 0.  0.
        1    1    3    3  502    0  0.28050805088E+03 -0.35599443712E+03  0.20374408024E+03  0.49691896334E+03  0.50400001928E-02 0. -1.
       -1    1    3    3    0  502 -0.28050805088E+03  0.35599443712E+03 -0.19598021396E+04  0.20115270896E+04  0.50400001928E-02 0.  1.
</event>
<event>
 5   0  0.8206783E-05  0.1795804E+04  0.7818609E-02  0.8708534E-01
        1   -1    0    0  501    0  0.00000000000E+00  0.00000000000E+00  0.19506046998E+04  0.19506046998E+04  0.50400001928E-02 0. -1.
       -1   -1    0    0    0  501  0.00000000000E+00  0.00000000000E+00 -0.41332204966E+03  0.41332204969E+03  0.50400001928E-02 0.  1.
    10030    2    1    2    0    0  0.00000000000E+00  0.00000000000E+00  0.15372826501E+04  0.23639267495E+04  0.17958039232E+04 0.  0.
        1    1    3    3  502    0  0.77672456156E+03  0.23066220703E+03  0.25928973217E+03  0.85072749075E+03  0.50400001928E-02 0.  1.
       -1    1    3    3    0  502 -0.77672456156E+03 -0.23066220703E+03  0.12779929180E+04  0.15131992587E+04  0.50400001928E-02 0. -1.
</event>
<event>
 5   0  0.8430513E-05  0.1818681E+04  0.7818609E-02  0.8696428E-01
       -1   -1    0    0    0  501  0.00000000000E+00  0.00000000000E+00  0.13312282508E+04  0.13312282508E+04  0.50400001928E-02 0. -1.
        1   -1    0    0  501    0  0.00000000000E+00  0.00000000000E+00 -0.62115591925E+03  0.62115591928E+03  0.50400001928E-02 0.  1.
    10030    2    1    2    0    0  0.00000000000E+00  0.00000000000E+00  0.71007233150E+03  0.19523841700E+04  0.18186811792E+04 0.  0.
        5    1    3    3  502    0 -0.72676712440E+03 -0.27686817360E+03 -0.15080745194E+03  0.79221929806E+03  0.46999998093E+01 0.  1.
       -5    1    3    3    0  502  0.72676712440E+03  0.27686817360E+03  0.86087978343E+03  0.11601648720E+04  0.46999998093E+01 0. -1.
</event>
<event>
 5   0  0.1603564E-04  0.1821323E+04  0.7818609E-02  0.8695042E-01
        2   -1    0    0  501    0  0.00000000000E+00  0.00000000000E+00  0.37707485188E+03  0.37707485189E+03  0.25500000920E-02 0.  1.
       -2   -1    0    0    0  501  0.00000000000E+00  0.00000000000E+00 -0.21993092477E+04  0.21993092477E+04  0.25500000920E-02 0. -1.
    10030    2    1    2    0    0  0.00000000000E+00  0.00000000000E+00 -0.18222343958E+04  0.25763840996E+04  0.18213228257E+04 0.  0.
        5    1    3    3  502    0  0.73355627249E+03 -0.25903928581E+03 -0.15807262483E+04  0.17617955950E+04  0.46999998093E+01 0. -1.
       -5    1    3    3    0  502 -0.73355627249E+03  0.25903928581E+03 -0.24150814753E+03  0.81458850460E+03  0.46999998093E+01 0.  1.
</event>
<event>
 5   0  0.1603564E-04  0.1756445E+04  0.7818609E-02  0.8729810E-01
       -2   -1    0    0    0  501  0.00000000000E+00  0.00000000000E+00  0.62759710916E+03  0.62759710916E+03  0.25500000920E-02 0. -1.
        2   -1    0    0  501    0  0.00000000000E+00  0.00000000000E+00 -0.12289334200E+04  0.12289334200E+04  0.25500000920E-02 0.  1.
    10030    2    1    2    0    0  0.00000000000E+00  0.00000000000E+00 -0.60133631080E+03  0.18565305291E+04  0.17564453441E+04 0.  0.
        5    1    3    3  502    0  0.83415054819E+03 -0.80462421166E+02 -0.23078862404E+02  0.83835318461E+03  0.46999998093E+01 0. -1.
       -5    1    3    3    0  502 -0.83415054819E+03  0.80462421166E+02 -0.57825744839E+03  0.10181773445E+04  0.46999998093E+01 0.  1.
</event>
<event>
 5   0  0.1603564E-04  0.1802671E+04  0.7818609E-02  0.8704880E-01
       -2   -1    0    0    0  501  0.00000000000E+00  0.00000000000E+00  0.64492015079E+03  0.64492015080E+03  0.25500000920E-02 0. -1.
        2   -1    0    0  501    0  0.00000000000E+00  0.00000000000E+00 -0.12597001602E+04  0.12597001602E+04  0.25500000920E-02 0.  1.
    10030    2    1    2    0    0  0.00000000000E+00  0.00000000000E+00 -0.61478000943E+03  0.19046203110E+04  0.18026713703E+04 0.  0.
        5    1    3    3  502    0 -0.67228429676E+03 -0.22266075679E+03  0.28167097790E+03  0.76217099005E+03  0.46999998093E+01 0. -1.
       -5    1    3    3    0  502  0.67228429676E+03  0.22266075679E+03 -0.89645098733E+03  0.11424493210E+04  0.46999998093E+01 0.  1.
</event>
<event>
 5   0  0.1549012E-04  0.1804004E+04  0.7818609E-02  0.8704173E-01
       -2   -1    0    0    0  501  0.00000000000E+00  0.00000000000E+00  0.54692978807E+03  0.54692978808E+03  0.25500000920E-02 0.  1.
        2   -1    0    0  501    0  0.00000000000E+00  0.00000000000E+00 -0.14875901125E+04  0.14875901125E+04  0.25500000920E-02 0. -1.
    10030    2    1    2    0    0  0.00000000000E+00  0.00000000000E+00 -0.94066032444E+03  0.20345199006E+04  0.18040037084E+04 0.  0.
        4    1    3    3  502    0  0.60324086779E+03  0.42820907215E+02  0.28441744110E+03  0.66830237795E+03  0.12699999809E+01 0.  1.
       -4    1    3    3    0  502 -0.60324086779E+03 -0.42820907215E+02 -0.12250777655E+04  0.13662175226E+04  0.12699999809E+01 0. -1.
</event>
<event>
 5   0  0.1549012E-04  0.1787952E+04  0.7818609E-02  0.8712733E-01
        2   -1    0    0  501    0  0.00000000000E+00  0.00000000000E+00  0.83256716962E+03  0.83256716963E+03  0.25500000920E-02 0.  1.
       -2   -1    0    0    0  501  0.00000000000E+00  0.00000000000E+00 -0.95991469274E+03  0.95991469274E+03  0.25500000920E-02 0. -1.
    10030    2    1    2    0    0  0.00000000000E+00  0.00000000000E+00 -0.12734752312E+03  0.17924818624E+04  0.17879524142E+04 0.  0.
        4    1    3    3  502    0 -0.19993483241E+03  0.60286823824E+03  0.56702073312E+03  0.85143301239E+03  0.12699999809E+01 0.  1.
       -4    1    3    3    0  502  0.19993483241E+03 -0.60286823824E+03 -0.69436825624E+03  0.94104884999E+03  0.12699999809E+01 0. -1.
</event>
<event>
 5   0  0.8430513E-05  0.1742220E+04  0.7818609E-02  0.8737645E-01
        1   -1    0    0  501    0  0.00000000000E+00  0.00000000000E+00  0.16317138263E+04  0.16317138263E+04  0.50400001928E-02 0.  1.
       -1   -1    0    0    0  501  0.00000000000E+00  0.00000000000E+00 -0.46505242929E+03  0.46505242932E+03  0.50400001928E-02 0. -1.
    10030    2    1    2    0    0  0.00000000000E+00  0.00000000000E+00  0.11666613970E+04  0.20967662556E+04  0.17422198241E+04 0.  0.
        5    1    3    3  502    0  0.33235908034E+03 -0.77411658240E+03  0.84998558333E+03  0.11967525322E+04  0.46999998093E+01 0.  1.
       -5    1    3    3    0  502 -0.33235908034E+03  0.77411658240E+03  0.31667581370E+03  0.90001372346E+03  0.46999998093E+01 0. -1.
</event>
<event>
 5   0  0.1628397E-04  0.1789844E+04  0.7818609E-02  0.8711719E-01
       -2   -1    0    0    0  501  0.00000000000E+00  0.00000000000E+00  0.39560635708E+03  0.39560635709E+03  0.25500000920E-02 0.  1.
        2   -1    0    0  501    0  0.00000000000E+00  0.00000000000E+00 -0.20244510399E+04  0.20244510399E+04  0.25500000920E-02 0. -1.
    10030    2    1    2    0    0  0.00000000000E+00  0.00000000000E+00 -0.16288446828E+04  0.24200573969E+04  0.17898443519E+04 0.  0.
        3    1    3    3  502    0 -0.20748387337E+03  0.25573936754E+03 -0.19395438811E+04  0.19673033977E+04  0.10100000352E+00 0. -1.
       -3    1    3    3    0  502  0.20748387337E+03 -0.25573936754E+03  0.31069919828E+03  0.45275399925E+03  0.10100000352E+00 0.  1.
</event>
<event>
 5   0  0.1608627E-04  0.1801437E+04  0.7818609E-02  0.8705536E-01
       -2   -1    0    0    0  501  0.00000000000E+00  0.00000000000E+00  0.76543554758E+03  0.76543554759E+03  0.25500000920E-02 0. -1.
        2   -1    0    0  501    0  0.00000000000E+00  0.00000000000E+00 -0.10599109887E+04  0.10599109887E+04  0.25500000920E-02 0.  1.
    10030    2    1    2    0    0  0.00000000000E+00  0.00000000000E+00 -0.29447544112E+03  0.18253465363E+04  0.18014367022E+04 0.  0.
        2    1    3    3  502    0 -0.17986124647E+03 -0.58356722045E+03  0.52366262483E+03  0.80443975126E+03  0.25500000920E-02 0. -1.
       -2    1    3    3    0  502  0.17986124647E+03  0.58356722045E+03 -0.81813806595E+03  0.10209067850E+04  0.25500000920E-02 0.  1.
</event>
<event>
 5   0  0.8132598E-05  0.1863310E+04  0.7818609E-02  0.8673338E-01
        1   -1    0    0  501    0  0.00000000000E+00  0.00000000000E+00  0.75149321478E+03  0.75149321480E+03  0.50400001928E-02 0. -1.
       -1   -1    0    0    0  501  0.00000000000E+00  0.00000000000E+00 -0.11550086442E+04  0.11550086442E+04  0.50400001928E-02 0.  1.
    10030    2    1    2    0    0  0.00000000000E+00  0.00000000000E+00 -0.40351542939E+03  0.19065018590E+04  0.18633101289E+04 0.  0.
        3    1    3    3  502    0 -0.23298692733E+03 -0.61360280334E+03  0.47477237740E+03  0.81006180574E+03  0.10100000352E+00 0. -1.
       -3    1    3    3    0  502  0.23298692733E+03  0.61360280334E+03 -0.87828780679E+03  0.10964400532E+04  0.10100000352E+00 0.  1.
</event>
<event>
 5   0  0.1603564E-04  0.1785752E+04  0.7818609E-02  0.8713913E-01
        2   -1    0    0  501    0  0.00000000000E+00  0.00000000000E+00  0.13185224418E+04  0.13185224418E+04  0.25500000920E-02 0. -1.
       -2   -1    0    0    0  501  0.00000000000E+00  0.00000000000E+00 -0.60463704189E+03  0.60463704190E+03  0.25500000920E-02 0.  1.
    10030    2    1    2    0    0  0.00000000000E+00  0.00000000000E+00  0.71388539994E+03  0.19231594837E+04  0.17857519524E+04 0.  0.
        5    1    3    3  502    0 -0.77040967251E+03 -0.24149234103E+03  0.76753458062E+03  0.11139932840E+04  0.46999998093E+01 0. -1.
       -5    1    3    3    0  502  0.77040967251E+03  0.24149234103E+03 -0.53649180681E+02  0.80916619977E+03  0.46999998093E+01 0.  1.
</event>
<event>
 5   0  0.1608627E-04  0.1797229E+04  0.7818609E-02  0.8707774E-01
       -2   -1    0    0    0  501  0.00000000000E+00  0.00000000000E+00  0.17686985122E+04  0.17686985122E+04  0.25500000920E-02 0.  1.
        2   -1    0    0  501    0  0.00000000000E+00  0.00000000000E+00 -0.45655503907E+03  0.45655503908E+03  0.25500000920E-02 0. -1.
    10030    2    1    2    0    0  0.00000000000E+00  0.00000000000E+00  0.13121434731E+04  0.22252535512E+04  0.17972292211E+04 0.  0.
        2    1    3    3  502    0  0.11896539045E+03  0.80978116902E+03  0.11153764381E+04  0.13834604817E+04  0.25500000920E-02 0.  1.
       -2    1    3    3    0  502 -0.11896539045E+03 -0.80978116902E+03  0.19676703502E+03  0.84179306953E+03  0.25500000920E-02 0. -1.
</event>
<event>
 5   0  0.8206783E-05  0.1792661E+04  0.7818609E-02  0.8710212E-01
        1   -1    0    0  501    0  0.00000000000E+00  0.00000000000E+00  0.94106218351E+03  0.94106218353E+03  0.50400001928E-02 0.  1.
       -1   -1    0    0    0  501  0.00000000000E+00  0.00000000000E+00 -0.85372527297E+03  0.85372527298E+03  0.50400001928E-02 0. -1.
    10030    2    1    2    0    0  0.00000000000E+00  0.00000000000E+00  0.87336910546E+02  0.17947874565E+04  0.17926612279E+04 0.  0.
        1    1    3    3  502    0  0.52142596097E+03  0.54758851445E+03 -0.43822389554E+03  0.87394416102E+03  0.50400001928E-02 0. -1.
       -1    1    3    3    0  502 -0.52142596097E+03 -0.54758851445E+03  0.52556080609E+03  0.92084329549E+03  0.50400001928E-02 0.  1.
</event>
<event>
 5   0  0.1603564E-04  0.1793164E+04  0.7818609E-02  0.8709943E-01
       -2   -1    0    0    0  501  0.00000000000E+00  0.00000000000E+00  0.81845556513E+03  0.81845556513E+03  0.25500000920E-02 0. -1.
        2   -1    0    0  501    0  0.00000000000E+00  0.00000000000E+00 -0.98216640786E+03  0.98216640786E+03  0.25500000920E-02 0.  1.
    10030    2    1    2    0    0  0.00000000000E+00  0.00000000000E+00 -0.16371084273E+03  0.18006219730E+04  0.17931643119E+04 0.  0.
        5    1    3    3  502    0 -0.60735179295E+03  0.60833761458E+03 -0.33764334135E+03  0.92356698169E+03  0.46999998093E+01 0.  1.
       -5    1    3    3    0  502  0.60735179295E+03 -0.60833761458E+03  0.17393249861E+03  0.87705499131E+03  0.46999998093E+01 0. -1.
</event>
<event>
 5   0  0.1603564E-04  0.1844057E+04  0.7818609E-02  0.8683215E-01
        2   -1    0    0  501    0  0.00000000000E+00  0.00000000000E+00  0.11209924215E+04  0.11209924215E+04  0.25500000920E-02 0.  1.
       -2   -1    0    0    0  501  0.00000000000E+00  0.00000000000E+00 -0.75837838747E+03  0.75837838748E+03  0.25500000920E-02 0. -1.
    10030    2    1    2    0    0  0.00000000000E+00  0.00000000000E+00  0.36261403400E+03  0.18793708090E+04  0.18440568592E+04 0.  0.
        5    1    3    3  502    0 -0.41288446098E+03 -0.48956586221E+03  0.85730864010E+03  0.10701161180E+04  0.46999998093E+01 0.  1.
       -5    1    3    3    0  502  0.41288446098E+03  0.48956586221E+03 -0.49469460610E+03  0.80925469098E+03  0.46999998093E+01 0. -1.
</event>
<event>
 5   0  0.1628397E-04  0.1797547E+04  0.7818609E-02  0.8707605E-01
        2   -1    0    0  501    0  0.00000000000E+00  0.00000000000E+00  0.30497053699E+04  0.30497053699E+04  0.25500000920E-02 0. -1.
       -2   -1    0    0    0  501  0.00000000000E+00  0.00000000000E+00 -0.26487604370E+03  0.26487604371E+03  0.25500000920E-02 0.  1.
    10030    2    1    2    0    0  0.00000000000E+00  0.00000000000E+00  0.27848293262E+04  0.33145814136E+04  0.17975470985E+04 0.  0.
        3    1    3    3  502    0  0.81120797790E+03  0.36026591336E+03  0.11320067192E+04  0.14385023928E+04  0.10100000352E+00 0. -1.
       -3    1    3    3    0  502 -0.81120797790E+03 -0.36026591336E+03  0.16528226070E+04  0.18760790208E+04  0.10100000352E+00 0.  1.
</event>
<event>
 5   0  0.8492114E-05  0.1813012E+04  0.7818609E-02  0.8699410E-01
       -1   -1    0    0    0  501  0.00000000000E+00  0.00000000000E+00  0.91246110274E+03  0.91246110275E+03  0.50400001928E-02 0.  1.
        1   -1    0    0  501    0  0.00000000000E+00  0.00000000000E+00 -0.90059000723E+03  0.90059000724E+03  0.50400001928E-02 0. -1.
    10030    2    1    2    0    0  0.00000000000E+00  0.00000000000E+00  0.11871095511E+02  0.18130511100E+04  0.18130122461E+04 0.  0.
        2    1    3    3  502    0 -0.49657223799E+03 -0.10846514486E+03  0.75655451273E+03  0.91144029203E+03  0.25500000920E-02 0.  1.
       -2    1    3    3    0  502  0.49657223799E+03  0.10846514486E+03 -0.74468341722E+03  0.90161081797E+03  0.25500000920E-02 0. -1.
</event>
<event>
 5   0  0.8430513E-05  0.1779847E+04  0.7818609E-02  0.8717091E-01
        1   -1    0    0  501    0  0.00000000000E+00  0.00000000000E+00  0.65658604950E+03  0.65658604952E+03  0.50400001928E-02 0. -1.
       -1   -1    0    0    0  501  0.00000000000E+00  0.00000000000E+00 -0.12061837986E+04  0.12061837987E+04  0.50400001928E-02 0.  1.
    10030    2    1    2    0    0  0.00000000000E+00  0.00000000000E+00 -0.54959774915E+03  0.18627698482E+04  0.17798465724E+04 0.  0.
        5    1    3    3  502    0 -0.61456008631E+03  0.59370711063E+03 -0.53491206976E+03  0.10081295776E+04  0.46999998093E+01 0.  1.
       -5    1    3    3    0  502  0.61456008631E+03 -0.59370711063E+03 -0.14685679392E+02  0.85464027056E+03  0.46999998093E+01 0. -1.
</event>
<event>
 5   0  0.1608627E-04  0.1808520E+04  0.7818609E-02  0.8701782E-01
        2   -1    0    0  501    0  0.00000000000E+00  0.00000000000E+00  0.21239232666E+04  0.21239232666E+04  0.25500000920E-02 0. -1.
       -2   -1    0    0    0  501  0.00000000000E+00  0.00000000000E+00 -0.38498836541E+03  0.38498836542E+03  0.25500000920E-02 0.  1.
    10030    2    1    2    0    0  0.00000000000E+00  0.00000000000E+00  0.17389349012E+04  0.25089116320E+04  0.18085195566E+04 0.  0.
        2    1    3    3  502    0 -0.42737258855E+03  0.72930487464E+03  0.42391103444E+03  0.94563919903E+03  0.25500000920E-02 0.  1.
       -2    1    3    3    0  502  0.42737258855E+03 -0.72930487464E+03  0.13150238668E+04  0.15632724330E+04  0.25500000920E-02 0. -1.
</event>
<event>
 5   0  0.1573981E-04  0.1784072E+04  0.7818609E-02  0.8714816E-01
        2   -1    0    0  501    0  0.00000000000E+00  0.00000000000E+00  0.14278765144E+04  0.14278765144E+04  0.25500000920E-02 0.  1.
       -2   -1    0    0    0  501  0.00000000000E+00  0.00000000000E+00 -0.55728071409E+03  0.55728071409E+03  0.25500000920E-02 0. -1.
    10030    2    1    2    0    0  0.00000000000E+00  0.00000000000E+00  0.87059580029E+03  0.19851572285E+04  0.17840717963E+04 0.  0.
        1    1    3    3  502    0  0.14404874828E+03  0.23884337909E+03 -0.50751212023E+03  0.57910685873E+03  0.50400001928E-02 0. -1.
       -1    1    3    3    0  502 -0.14404874828E+03 -0.23884337909E+03  0.13781079205E+04  0.14060503697E+04  0.50400001928E-02 0.  1.
</event>
<event>
 5   0  0.8492114E-05  0.1810005E+04  0.7818609E-02  0.8700997E-01
        1   -1    0    0  501    0  0.00000000000E+00  0.00000000000E+00  0.10524869413E+04  0.10524869413E+04  0.50400001928E-02 0. -1.
       -1   -1    0    0    0  501  0.00000000000E+00  0.00000000000E+00 -0.77818473908E+03  0.77818473909E+03  0.50400001928E-02 0.  1.
    10030    2    1    2    0    0  0.00000000000E+00  0.00000000000E+00  0.27430220219E+03  0.18306716804E+04  0.18100047246E+04 0.  0.
        2    1    3    3  502    0 -0.78641577386E+03 -0.43289119485E+03  0.25328692563E+03  0.93273727419E+03  0.25500000920E-02 0. -1.
       -2    1    3    3    0  502  0.78641577386E+03  0.43289119485E+03  0.21015276566E+02  0.89793440619E+03  0.25500000920E-02 0.  1.
</event>
<event>
 5   0  0.8132598E-05  0.1804936E+04  0.7818609E-02  0.8703679E-01
       -1   -1    0    0    0  501  0.00000000000E+00  0.00000000000E+00  0.64333635523E+03  0.64333635525E+03  0.50400001928E-02 0. -1.
        1   -1    0    0  501    0  0.00000000000E+00  0.00000000000E+00 -0.12659755729E+04  0.12659755729E+04  0.50400001928E-02 0.  1.
    10030    2    1    2    0    0  0.00000000000E+00  0.00000000000E+00 -0.62263921765E+03  0.19093119281E+04  0.18049355788E+04 0.  0.
        3    1    3    3  502    0 -0.55518660216E+03  0.48673514818E+03  0.23763603403E+03  0.77563790686E+03  0.10100000352E+00 0. -1.
       -3    1    3    3    0  502  0.55518660216E+03 -0.48673514818E+03 -0.86027525167E+03  0.11336740213E+04  0.10100000352E+00 0.  1.
</event>
<event>
 5   0  0.1608627E-04  0.1802909E+04  0.7818609E-02  0.8704754E-01
       -2   -1    0    0    0  501  0.00000000000E+00  0.00000000000E+00  0.47460945276E+03  0.47460945277E+03  0.25500000920E-02 0. -1.
        2   -1    0    0  501    0  0.00000000000E+00  0.00000000000E+00 -0.17121880231E+04  0.17121880231E+04  0.25500000920E-02 0.  1.
    10030    2    1    2    0    0  0.00000000000E+00  0.00000000000E+00 -0.12375785704E+04  0.21867974759E+04  0.18029094494E+04 0.  0.
        2    1    3    3  502    0 -0.27352444075E+03 -0.10875230997E+03 -0.16522556815E+04  0.16782703959E+04  0.25500000920E-02 0.  1.
       -2    1    3    3    0  502  0.27352444075E+03  0.10875230997E+03  0.41467711113E+03  0.50852708002E+03  0.25500000920E-02 0. -1.
</event>
<event>
 5   0  0.8132598E-05  0.1806703E+04  0.7818609E-02  0.8702743E-01
       -1   -1    0    0    0  501  0.00000000000E+00  0.00000000000E+00  0.72083437088E+03  0.72083437090E+03  0.50400001928E-02 0. -1.
        1   -1    0    0  501    0  0.00000000000E+00  0.00000000000E+00 -0.11320822637E+04  0.11320822637E+04  0.50400001928E-02 0.  1.
    10030    2    1    2    0    0  0.00000000000E+00  0.00000000000E+00 -0.41124789281E+03  0.18529166346E+04  0.18067028603E+04 0.  0.
        3    1    3    3  502    0 -0.49779849700E+03 -0.46426791948E+03  0.40344893360E+03  0.79127687752E+03  0.10100000352E+00 0. -1.
       -3    1    3    3    0  502  0.49779849700E+03  0.46426791948E+03 -0.81469682641E+03  0.10616397571E+04  0.10100000352E+00 0.  1.
</event>
<event>
 5   0  0.8206783E-05  0.1797257E+04  0.7818609E-02  0.8707759E-01
       -1   -1    0    0    0  501  0.00000000000E+00  0.00000000000E+00  0.10058570054E+04  0.10058570054E+04  0.50400001928E-02 0. -1.
        1   -1    0    0  501    0  0.00000000000E+00  0.00000000000E+00 -0.80283127533E+03  0.80283127534E+03  0.50400001928E-02 0.  1.
    10030    2    1    2    0    0  0.00000000000E+00  0.00000000000E+00  0.20302573007E+03  0.18086882808E+04  0.17972573132E+04 0.  0.
        1    1    3    3  502    0  0.81372736520E+03  0.21070949809E+03  0.42131182798E+03  0.94024165717E+03  0.50400001928E-02 0. -1.
       -1    1    3    3    0  502 -0.81372736520E+03 -0.21070949809E+03 -0.21828609790E+03  0.86844662359E+03  0.50400001928E-02 0.  1.
</event>
<event>
 5   0  0.8492114E-05  0.1818226E+04  0.7818609E-02  0.8696667E-01
        1   -1    0    0  501    0  0.00000000000E+00  0.00000000000E+00  0.81561403351E+03  0.81561403353E+03  0.50400001928E-02 0. -1.
       -1   -1    0    0    0  501  0.00000000000E+00  0.00000000000E+00 -0.10133299069E+04  0.10133299069E+04  0.50400001928E-02 0.  1.
    10030    2    1    2    0    0  0.00000000000E+00  0.00000000000E+00 -0.19771587334E+03  0.18289439404E+04  0.18182256105E+04 0.  0.
        2    1    3    3  502    0 -0.87793963652E+03  0.22985794728E+03 -0.44937733240E+02  0.90864298885E+03  0.25500000920E-02 0.  1.
       -2    1    3    3    0  502  0.87793963652E+03 -0.22985794728E+03 -0.15277814010E+03  0.92030095154E+03  0.25500000920E-02 0. -1.
</event>
<event>
 5   0  0.1549012E-04  0.1742877E+04  0.7818609E-02  0.8737281E-01
        2   -1    0    0  501    0  0.00000000000E+00  0.00000000000E+00  0.91893628575E+03  0.91893628575E+03  0.25500000920E-02 0.  1.
       -2   -1    0    0    0  501  0.00000000000E+00  0.00000000000E+00 -0.82639608094E+03  0.82639608094E+03  0.25500000920E-02 0. -1.
    10030    2    1    2    0    0  0.00000000000E+00  0.00000000000E+00  0.92540204808E+02  0.17453323667E+04  0.17428773281E+04 0.  0.
        4    1    3    3  502    0 -0.64163150199E+03  0.66733830201E+01  0.63673463414E+03  0.90397352041E+03  0.12699999809E+01 0.  1.
       -4    1    3    3    0  502  0.64163150199E+03 -0.66733830201E+01 -0.54419442934E+03  0.84135884628E+03  0.12699999809E+01 0. -1.
</event>
<event>
 5   0  0.1603564E-04  0.1794929E+04  0.7818609E-02  0.8709001E-01
       -2   -1    0    0    0  501  0.00000000000E+00  0.00000000000E+00  0.53384803828E+03  0.53384803829E+03  0.25500000920E-02 0. -1.
        2   -1    0    0  501    0  0.00000000000E+00  0.00000000000E+00 -0.15087481431E+04  0.15087481431E+04  0.25500000920E-02 0.  1.
    10030    2    1    2    0    0  0.00000000000E+00  0.00000000000E+00 -0.97490010479E+03  0.20425961814E+04  0.17949286743E+04 0.  0.
        5    1    3    3  502    0 -0.33405814920E+03  0.15556958031E+03 -0.14186664882E+04  0.14657535387E+04  0.46999998093E+01 0.  1.
       -5    1    3    3    0  502  0.33405814920E+03 -0.15556958031E+03  0.44376638343E+03  0.57684264269E+03  0.46999998093E+01 0. -1.
</event>
<event>
 5   0  0.1549012E-04  0.1810300E+04  0.7818609E-02  0.8700841E-01
       -2   -1    0    0    0  501  0.00000000000E+00  0.00000000000E+00  0.37887027655E+03  0.37887027656E+03  0.25500000920E-02 0. -1.
        2   -1    0    0  501    0  0.00000000000E+00  0.00000000000E+00 -0.21624719945E+04  0.21624719945E+04  0.25500000920E-02 0.  1.
    10030    2    1    2    0    0  0.00000000000E+00  0.00000000000E+00 -0.17836017179E+04  0.25413422710E+04  0.18102998233E+04 0.  0.
        4    1    3    3  502    0  0.69212941488E+03  0.52634836020E+03 -0.12447419322E+04  0.15183773621E+04  0.12699999809E+01 0.  1.
       -4    1    3    3    0  502 -0.69212941488E+03 -0.52634836020E+03 -0.53885978573E+03  0.10229649089E+04  0.12699999809E+01 0. -1.
</event>
<event>
 5   0  0.1573981E-04  0.1803739E+04  0.7818609E-02  0.8704314E-01
        2   -1    0    0  501    0  0.00000000000E+00  0.00000000000E+00  0.72530352561E+03  0.72530352562E+03  0.25500000920E-02 0. -1.
       -2   -1    0    0    0  501  0.00000000000E+00  0.00000000000E+00 -0.11214183641E+04  0.11214183641E+04  0.25500000920E-02 0.  1.
    10030    2    1    2    0    0  0.00000000000E+00  0.00000000000E+00 -0.39611483847E+03  0.18467218897E+04  0.18037391088E+04 0.  0.
        1    1    3    3  502    0  0.24706112297E+03  0.27266893881E+03 -0.10410749056E+04  0.11041849971E+04  0.50400001928E-02 0.  1.
       -1    1    3    3    0  502 -0.24706112297E+03 -0.27266893881E+03  0.64496006714E+03  0.74253689262E+03  0.50400001928E-02 0. -1.
</event>
<event>
 5   0  0.1603564E-04  0.1787865E+04  0.7818609E-02  0.8712779E-01
       -2   -1    0    0    0  501  0.00000000000E+00  0.00000000000E+00  0.93388383367E+03  0.93388383367E+03  0.25500000920E-02 0. -1.
        2   -1    0    0  501    0  0.00000000000E+00  0.00000000000E+00 -0.85569037455E+03  0.85569037455E+03  0.25500000920E-02 0.  1.
    10030    2    1    2    0    0  0.00000000000E+00  0.00000000000E+00  0.78193459121E+02  0.17895742082E+04  0.17878651039E+04 0.  0.
        5    1    3    3  502    0 -0.13237601684E+03  0.25044981187E+02  0.92365110877E+03  0.93343672611E+03  0.46999998093E+01 0. -1.
       -5    1    3    3    0  502  0.13237601684E+03 -0.25044981187E+02 -0.84545764965E+03  0.85613748211E+03  0.46999998093E+01 0.  1.
</event>
<event>
 5   0  0.1628397E-04  0.1798268E+04  0.7818609E-02  0.8707221E-01
        2   -1    0    0  501    0  0.00000000000E+00  0.00000000000E+00  0.20375377346E+04  0.20375377346E+04  0.25500000920E-02 0. -1.
       -2   -1    0    0    0  501  0.00000000000E+00  0.00000000000E+00 -0.39677380030E+03  0.39677380030E+03  0.25500000920E-02 0.  1.
    10030    2    1    2    0    0  0.00000000000E+00  0.00000000000E+00  0.16407639343E+04  0.24343115349E+04  0.17982675999E+04 0.  0.
        3    1    3    3  502    0 -0.48704036440E+03 -0.66855988202E+03  0.34319434701E+03  0.89552387039E+03  0.10100000352E+00 0.  1.
       -3    1    3    3    0  502  0.48704036440E+03  0.66855988202E+03  0.12975695873E+04  0.15387876645E+04  0.10100000352E+00 0. -1.
</event>
<event>
 5   0  0.1549012E-04  0.1730614E+04  0.7818609E-02  0.8744094E-01
       -2   -1    0    0    0  501  0.00000000000E+00  0.00000000000E+00  0.36938077209E+03  0.36938077210E+03  0.25500000920E-02 0. -1.
        2   -1    0    0  501    0  0.00000000000E+00  0.00000000000E+00 -0.20270585690E+04  0.20270585690E+04  0.25500000920E-02 0.  1.
    10030    2    1    2    0    0  0.00000000000E+00  0.00000000000E+00 -0.16576777969E+04  0.23964393411E+04  0.17306142948E+04 0.  0.
        4    1    3    3  502    0 -0.69655453648E+03  0.21496198258E+03 -0.14744246531E+04  0.16447876905E+04  0.12699999809E+01 0.  1.
       -4    1    3    3    0  502  0.69655453648E+03 -0.21496198258E+03 -0.18325314381E+03  0.75165165061E+03  0.12699999809E+01 0. -1.
</event>
<event>
 5   0  0.8132598E-05  0.1752036E+04  0.7818609E-02  0.8732231E-01
        1   -1    0    0  501    0  0.00000000000E+00  0.00000000000E+00  0.12462182992E+04  0.12462182992E+04  0.50400001928E-02 0.  1.
       -1   -1    0    0    0  501  0.00000000000E+00  0.00000000000E+00 -0.61578879730E+03  0.61578879732E+03  0.50400001928E-02 0. -1.
    10030    2    1    2    0    0  0.00000000000E+00  0.00000000000E+00  0.63042950187E+03  0.18620070965E+04  0.17520356933E+04 0.  0.
        3    1    3    3  502    0  0.59489454315E+02  0.83542372944E+03  0.58811119991E+03  0.10233995293E+04  0.10100000352E+00 0.  1.
       -3    1    3    3    0  502 -0.59489454315E+02 -0.83542372944E+03  0.42318301955E+02  0.83860756720E+03  0.10100000352E+00 0. -1.
</event>
<event>
 5   0  0.8492114E-05  0.1809167E+04  0.7818609E-02  0.8701440E-01
       -1   -1    0    0    0  501  0.00000000000E+00  0.00000000000E+00  0.13586339516E+04  0.13586339516E+04  0.50400001928E-02 0. -1.
        1   -1    0    0  501    0  0.00000000000E+00  0.00000000000E+00 -0.60227496576E+03  0.60227496578E+03  0.50400001928E-02 0.  1.
    10030    2    1    2    0    0  0.00000000000E+00  0.00000000000E+00  0.75635898586E+03  0.19609089174E+04  0.18091668986E+04 0.  0.
        2    1    3    3  502    0  0.27606744991E+03  0.61484569702E+02  0.13094774331E+04  0.13396733696E+04  0.25500000920E-02 0. -1.
       -2    1    3    3    0  502 -0.27606744991E+03 -0.61484569702E+02 -0.55311844727E+03  0.62123554786E+03  0.25500000920E-02 0.  1.
</event>
<event>
 5   0  0.8430513E-05  0.1819157E+04  0.7818609E-02  0.8696178E-01
        1   -1    0    0  501    0  0.00000000000E+00  0.00000000000E+00  0.50787844009E+03  0.50787844011E+03  0.50400001928E-02 0. -1.
       -1   -1    0    0    0  501  0.00000000000E+00  0.00000000000E+00 -0.16289979794E+04  0.16289979794E+04  0.50400001928E-02 0.  1.
    10030    2    1    2    0    0  0.00000000000E+00  0.00000000000E+00 -0.11211195393E+04  0.21368764195E+04  0.18191568956E+04 0.  0.
        5    1    3    3  502    0  0.22296760006E+03 -0.62893156868E+03  0.16548677042E+03  0.68751540342E+03  0.46999998093E+01 0. -1.
       -5    1    3    3    0  502 -0.22296760006E+03  0.62893156868E+03 -0.12866063097E+04  0.14493610161E+04  0.46999998093E+01 0.  1.
</event>
<event>
 5   0  0.1549012E-04  0.1780687E+04  0.7818609E-02  0.8716638E-01
       -2   -1    0    0    0  501  0.00000000000E+00  0.00000000000E+00  0.81121127696E+03  0.81121127697E+03  0.25500000920E-02 0. -1.
        2   -1    0    0  501    0  0.00000000000E+00  0.00000000000E+00 -0.97719515764E+03  0.97719515765E+03  0.25500000920E-02 0.  1.
    10030    2    1    2    0    0  0.00000000000E+00  0.00000000000E+00 -0.16598388068E+03  0.17884064346E+04  0.17806872063E+04 0.  0.
        4    1    3    3  502    0  0.38673263995E+03  0.55697292672E+03  0.49650946257E+03  0.84041908309E+03  0.12699999809E+01 0. -1.
       -4    1    3    3    0  502 -0.38673263995E+03 -0.55697292672E+03 -0.66249334325E+03  0.94798735152E+03  0.12699999809E+01 0.  1.
</event>
<event>
 5   0  0.8206783E-05  0.1798809E+04  0.7818609E-02  0.8706933E-01
        1   -1    0    0  501    0  0.00000000000E+00  0.00000000000E+00  0.11465326868E+04  0.11465326868E+04  0.50400001928E-02 0.  1.
       -1   -1    0    0    0  501  0.00000000000E+00  0.00000000000E+00 -0.70554317715E+03  0.70554317717E+03  0.50400001928E-02 0. -1.
    10030    2    1    2    0    0  0.00000000000E+00  0.00000000000E+00  0.44098950968E+03  0.18520758640E+04  0.17988088443E+04 0.  0.
        1    1    3    3  502    0  0.38957139446E+03  0.36475746977E+03 -0.52490083164E+03  0.74855511902E+03  0.50400001928E-02 0. -1.
       -1    1    3    3    0  502 -0.38957139446E+03 -0.36475746977E+03  0.96589034132E+03  0.11035207450E+04  0.50400001928E-02 0.  1.
</event>
<event>
 5   0  0.8430513E-05  0.1770720E+04  0.7818609E-02  0.8722027E-01
        1   -1    0    0  501    0  0.00000000000E+00  0.00000000000E+00  0.71325469481E+03  0.71325469483E+03  0.50400001928E-02 0.  1.
       -1   -1    0    0    0  501  0.00000000000E+00  0.00000000000E+00 -0.10989932150E+04  0.10989932150E+04  0.50400001928E-02 0. -1.
    10030    2    1    2    0    0  0.00000000000E+00  0.00000000000E+00 -0.38573852020E+03  0.18122479099E+04  0.17707197070E+04 0.  0.
        5    1    3    3  502    0  0.86456362508E+03  0.93972924186E+02 -0.23029113824E+02  0.86997333429E+03  0.46999998093E+01 0.  1.
       -5    1    3    3    0  502 -0.86456362508E+03 -0.93972924186E+02 -0.36270940638E+03  0.94227457557E+03  0.46999998093E+01 0. -1.
</event>
<event>
 5   0  0.8206783E-05  0.1802086E+04  0.7818609E-02  0.8705191E-01
        1   -1    0    0  501    0  0.00000000000E+00  0.00000000000E+00  0.10030201265E+04  0.10030201265E+04  0.50400001928E-02 0. -1.
       -1   -1    0    0    0  501  0.00000000000E+00  0.00000000000E+00 -0.80943375152E+03  0.80943375153E+03  0.50400001928E-02 0.  1.
    10030    2    1    2    0    0  0.00000000000E+00  0.00000000000E+00  0.19358637496E+03  0.18124538780E+04  0.18020858402E+04 0.  0.
        1    1    3    3  502    0 -0.81923787445E+03 -0.20987639537E+03 -0.21592907121E+03  0.87282538923E+03  0.50400001928E-02 0.  1.
       -1    1    3    3    0  502  0.81923787445E+03  0.20987639537E+03  0.40951544617E+03  0.93962848879E+03  0.50400001928E-02 0. -1.
</event>
<event>
 5   0  0.8492114E-05  0.1918776E+04  0.7818609E-02  0.8645566E-01
       -1   -1    0    0    0  501  0.00000000000E+00  0.00000000000E+00  0.83527390623E+03  0.83527390625E+03  0.50400001928E-02 0.  1.
        1   -1    0    0  501    0  0.00000000000E+00  0.00000000000E+00 -0.11019443647E+04  0.11019443648E+04  0.50400001928E-02 0. -1.
    10030    2    1    2    0    0  0.00000000000E+00  0.00000000000E+00 -0.26667045852E+03  0.19372182710E+04  0.19187760411E+04 0.  0.
        2    1    3    3  502    0 -0.72975409705E+03  0.35261418498E+03  0.38496783480E+03  0.89726141088E+03  0.25500000920E-02 0.  1.
       -2    1    3    3    0  502  0.72975409705E+03 -0.35261418498E+03 -0.65163829332E+03  0.10399568601E+04  0.25500000920E-02 0. -1.
</event>
<event>
 5   0  0.1603564E-04  0.1802957E+04  0.7818609E-02  0.8704728E-01
        2   -1    0    0  501    0  0.00000000000E+00  0.00000000000E+00  0.16111724864E+04  0.16111724864E+04  0.25500000920E-02 0. -1.
       -2   -1    0    0    0  501  0.00000000000E+00  0.00000000000E+00 -0.50439273000E+03  0.50439273001E+03  0.25500000920E-02 0.  1.
    10030    2    1    2    0    0  0.00000000000E+00  0.00000000000E+00  0.11067797564E+04  0.21155652164E+04  0.18029572251E+04 0.  0.
        5    1    3    3  502    0 -0.61013601744E+03  0.58356678066E+03  0.18265654447E+03  0.86382964206E+03  0.46999998093E+01 0.  1.
       -5    1    3    3    0  502  0.61013601744E+03 -0.58356678066E+03  0.92412321194E+03  0.12517355744E+04  0.46999998093E+01 0. -1.
</event>
<event>
 5   0  0.1549012E-04  0.1807845E+04  0.7818609E-02  0.8702139E-01
        2   -1    0    0  501    0  0.00000000000E+00  0.00000000000E+00  0.14706057925E+04  0.14706057925E+04  0.25500000920E-02 0.  1.
       -2   -1    0    0    0  501  0.00000000000E+00  0.00000000000E+00 -0.55560481714E+03  0.55560481715E+03  0.25500000920E-02 0. -1.
    10030    2    1    2    0    0  0.00000000000E+00  0.00000000000E+00  0.91500097532E+03  0.20262106096E+04  0.18078447526E+04 0.  0.
        4    1    3    3  502    0  0.82828874075E+03  0.15046246399E+03  0.88536723601E+02  0.84648777632E+03  0.12699999809E+01 0. -1.
       -4    1    3    3    0  502 -0.82828874075E+03 -0.15046246399E+03  0.82646425172E+03  0.11797228333E+04  0.12699999809E+01 0.  1.
</event>
<event>
 5   0  0.8132598E-05  0.1800853E+04  0.7818609E-02  0.8705846E-01
       -1   -1    0    0    0  501  0.00000000000E+00  0.00000000000E+00  0.10107627695E+04  0.10107627695E+04  0.50400001928E-02 0. -1.
        1   -1    0    0  501    0  0.00000000000E+00  0.00000000000E+00 -0.80213480386E+03  0.80213480387E+03  0.50400001928E-02 0.  1.
    10030    2    1    2    0    0  0.00000000000E+00  0.00000000000E+00  0.20862796567E+03  0.18128975734E+04  0.18008531266E+04 0.  0.
        3    1    3    3  502    0  0.47846755502E+03 -0.32149281936E+03 -0.59203425853E+03  0.82631314136E+03  0.10100000352E+00 0.  1.
       -3    1    3    3    0  502 -0.47846755502E+03  0.32149281936E+03  0.80066222420E+03  0.98658443206E+03  0.10100000352E+00 0. -1.
</event>
<event>
 5   0  0.8492114E-05  0.1777924E+04  0.7818609E-02  0.8718128E-01
       -1   -1    0    0    0  501  0.00000000000E+00  0.00000000000E+00  0.85694924049E+03  0.85694924050E+03  0.50400001928E-02 0. -1.
        1   -1    0    0  501    0  0.00000000000E+00  0.00000000000E+00 -0.92217018022E+03  0.92217018024E+03  0.50400001928E-02 0.  1.
    10030    2    1    2    0    0  0.00000000000E+00  0.00000000000E+00 -0.65220939734E+02  0.17791194207E+04  0.17779235479E+04 0.  0.
        2    1    3    3  502    0 -0.25223474473E+03 -0.22144769921E+02  0.82010134813E+03  0.85830005155E+03  0.25500000920E-02 0. -1.
       -2    1    3    3    0  502  0.25223474473E+03  0.22144769921E+02 -0.88532228786E+03  0.92081936919E+03  0.25500000920E-02 0.  1.
</event>
<event>
 5   0  0.1549012E-04  0.1811224E+04  0.7818609E-02  0.8700353E-01
       -2   -1    0    0    0  501  0.00000000000E+00  0.00000000000E+00  0.71411751413E+03  0.71411751414E+03  0.25500000920E-02 0. -1.
        2   -1    0    0  501    0  0.00000000000E+00  0.00000000000E+00 -0.11484572021E+04  0.11484572021E+04  0.25500000920E-02 0.  1.
    10030    2    1    2    0    0  0.00000000000E+00  0.00000000000E+00 -0.43433968797E+03  0.18625747162E+04  0.18112243398E+04 0.  0.
        4    1    3    3  502    0  0.61117023064E+03 -0.18718867882E+03  0.44255021934E+03  0.77744515037E+03  0.12699999809E+01 0.  1.
       -4    1    3    3    0  502 -0.61117023064E+03  0.18718867882E+03 -0.87688990731E+03  0.10851295659E+04  0.12699999809E+01 0. -1.
</event>
<event>
 5   0  0.8206783E-05  0.1800008E+04  0.7818609E-02  0.8706295E-01
       -1   -1    0    0    0  501  0.00000000000E+00  0.00000000000E+00  0.69837438893E+03  0.69837438895E+03  0.50400001928E-02 0.  1.
        1   -1    0    0  501    0  0.00000000000E+00  0.00000000000E+00 -0.11598467578E+04  0.11598467578E+04  0.50400001928E-02 0. -1.
    10030    2    1    2    0    0  0.00000000000E+00  0.00000000000E+00 -0.46147236889E+03  0.18582211468E+04  0.18000080786E+04 0.  0.
        1    1    3    3  502    0 -0.65181610240E+03 -0.70244977638E+02 -0.86728828993E+03  0.10871925157E+04  0.50400001928E-02 0. -1.
       -1    1    3    3    0  502  0.65181610240E+03  0.70244977638E+02  0.40581592103E+03  0.77102863113E+03  0.50400001928E-02 0.  1.
</event>
<event>
 5   0  0.1573981E-04  0.1799058E+04  0.7818609E-02  0.8706801E-01
       -2   -1    0    0    0  501  0.00000000000E+00  0.00000000000E+00  0.12607603675E+04  0.12607603675E+04  0.25500000920E-02 0.  1.
        2   -1    0    0  501    0  0.00000000000E+00  0.00000000000E+00 -0.64179705808E+03  0.64179705808E+03  0.25500000920E-02 0. -1.
    10030    2    1    2    0    0  0.00000000000E+00  0.00000000000E+00  0.61896330944E+03  0.19025574256E+04  0.17990578588E+04 0.  0.
        1    1    3    3  502    0  0.99769047866E+02  0.50285598615E+03 -0.47218551650E+03  0.69697716444E+03  0.50400001928E-02 0. -1.
       -1    1    3    3    0  502 -0.99769047866E+02 -0.50285598615E+03  0.10911488259E+04  0.12055802612E+04  0.50400001928E-02 0.  1.
</event>
<event>
 5   0  0.8206783E-05  0.1800139E+04  0.7818609E-02  0.8706225E-01
        1   -1    0    0  501    0  0.00000000000E+00  0.00000000000E+00  0.83116560486E+03  0.83116560488E+03  0.50400001928E-02 0.  1.
       -1   -1    0    0    0  501  0.00000000000E+00  0.00000000000E+00 -0.97468591369E+03  0.97468591371E+03  0.50400001928E-02 0. -1.
    10030    2    1    2    0    0  0.00000000000E+00  0.00000000000E+00 -0.14352030883E+03  0.18058515186E+04  0.18001393358E+04 0.  0.
        1    1    3    3  502    0 -0.23023322221E+03  0.86977858290E+03 -0.47120310788E+02  0.90096750418E+03  0.50400001928E-02 0.  1.
       -1    1    3    3    0  502  0.23023322221E+03 -0.86977858290E+03 -0.96399998046E+02  0.90488401440E+03  0.50400001928E-02 0. -1.
</event>
<event>
 5   0  0.8206783E-05  0.1836580E+04  0.7818609E-02  0.8687085E-01
        1   -1    0    0  501    0  0.00000000000E+00  0.00000000000E+00  0.21128986078E+04  0.21128986078E+04  0.50400001928E-02 0.  1.
       -1   -1    0    0    0  501  0.00000000000E+00  0.00000000000E+00 -0.39909941039E+03  0.39909941042E+03  0.50400001928E-02 0. -1.
    10030    2    1    2    0    0  0.00000000000E+00  0.00000000000E+00  0.17137991975E+04  0.25119980183E+04  0.18365800703E+04 0.  0.
        1    1    3    3  502    0  0.75542826789E+03  0.14463268413E+03  0.15430539015E+04  0.17241246545E+04  0.50400001928E-02 0.  1.
       -1    1    3    3    0  502 -0.75542826789E+03 -0.14463268413E+03  0.17074529596E+03  0.78787336379E+03  0.50400001928E-02 0. -1.
</event>
<event>
 5   0  0.1628397E-04  0.1864779E+04  0.7818609E-02  0.8672590E-01
        2   -1    0    0  501    0  0.00000000000E+00  0.00000000000E+00  0.12519258622E+04  0.12519258622E+04  0.25500000920E-02 0. -1.
       -2   -1    0    0    0  501  0.00000000000E+00  0.00000000000E+00 -0.69441024578E+03  0.69441024579E+03  0.25500000920E-02 0.  1.
    10030    2    1    2    0    0  0.00000000000E+00  0.00000000000E+00  0.55751561643E+03  0.19463361080E+04  0.18647789635E+04 0.  0.
        3    1    3    3  502    0  0.56059006699E+02  0.27848432125E+03  0.12056596289E+04  0.12386731935E+04  0.10100000352E+00 0. -1.
       -3    1    3    3    0  502 -0.56059006699E+02 -0.27848432125E+03 -0.64814401247E+03  0.70766291447E+03  0.10100000352E+00 0.  1.
</event>
<event>
 5   0  0.5820500E-05  0.1801019E+04  0.7818609E-02  0.8705758E-01
        3   -1    0    0  501    0  0.00000000000E+00  0.00000000000E+00  0.10868245828E+04  0.10868245875E+04  0.10100000352E+00 0. -1.
       -3   -1    0    0    0  501  0.00000000000E+00  0.00000000000E+00 -0.74613461471E+03  0.74613462155E+03  0.10100000352E+00 0.  1.
    10030    2    1    2    0    0  0.00000000000E+00  0.00000000000E+00  0.34068996810E+03  0.18329592091E+04  0.18010191025E+04 0.  0.
        2    1    3    3  502    0  0.41950898805E+03  0.53623191126E+03 -0.42950135246E+03  0.80498687286E+03  0.25500000920E-02 0.  1.
       -2    1    3    3    0  502 -0.41950898805E+03 -0.53623191126E+03  0.77019132057E+03  0.10279723362E+04  0.25500000920E-02 0. -1.
</event>
<event>
 5   0  0.1628397E-04  0.1811546E+04  0.7818609E-02  0.8700183E-01
       -2   -1    0    0    0  501  0.00000000000E+00  0.00000000000E+00  0.46041500947E+03  0.46041500948E+03  0.25500000920E-02 0. -1.
        2   -1    0    0  501    0  0.00000000000E+00  0.00000000000E+00 -0.17819245835E+04  0.17819245835E+04  0.25500000920E-02 0.  1.
    10030    2    1    2    0    0  0.00000000000E+00  0.00000000000E+00 -0.13215095740E+04  0.22423395930E+04  0.18115461065E+04 0.  0.
        3    1    3    3  502    0  0.78329536886E+03  0.36679781340E+03 -0.32785090436E+03  0.92497486262E+03  0.10100000352E+00 0. -1.
       -3    1    3    3    0  502 -0.78329536886E+03 -0.36679781340E+03 -0.99365866965E+03  0.13173647303E+04  0.10100000352E+00 0.  1.
</event>
<event>
 5   0  0.1549012E-04  0.1812198E+04  0.7818609E-02  0.8699840E-01
        2   -1    0    0  501    0  0.00000000000E+00  0.00000000000E+00  0.15576175960E+04  0.15576175960E+04  0.25500000920E-02 0.  1.
       -2   -1    0    0    0  501  0.00000000000E+00  0.00000000000E+00 -0.52709680996E+03  0.52709680996E+03  0.25500000920E-02 0. -1.
    10030    2    1    2    0    0  0.00000000000E+00  0.00000000000E+00  0.10305207861E+04  0.20847144060E+04  0.18121978545E+04 0.  0.
        4    1    3    3  502    0  0.14475612782E+03 -0.37783832730E+03 -0.41739659975E+03  0.58132406840E+03  0.12699999809E+01 0. -1.
       -4    1    3    3    0  502 -0.14475612782E+03  0.37783832730E+03  0.14479173858E+04  0.15033903376E+04  0.12699999809E+01 0.  1.
</event>
<event>
 5   0  0.1628397E-04  0.1822263E+04  0.7818609E-02  0.8694549E-01
        2   -1    0    0  501    0  0.00000000000E+00  0.00000000000E+00  0.11607241604E+04  0.11607241604E+04  0.25500000920E-02 0. -1.
       -2   -1    0    0    0  501  0.00000000000E+00  0.00000000000E+00 -0.71520916927E+03  0.71520916927E+03  0.25500000920E-02 0.  1.
    10030    2    1    2    0    0  0.00000000000E+00  0.00000000000E+00  0.44551499109E+03  0.18759333296E+04  0.18222629475E+04 0.  0.
        3    1    3    3  502    0 -0.40945180031E+03 -0.16534862897E+03 -0.59769078489E+03  0.74311858436E+03  0.10100000352E+00 0.  1.
       -3    1    3    3    0  502  0.40945180031E+03  0.16534862897E+03  0.10432057760E+04  0.11328147453E+04  0.10100000352E+00 0. -1.
</event>
<event>
 5   0  0.1573981E-04  0.1791753E+04  0.7818609E-02  0.8710697E-01
        2   -1    0    0  501    0  0.00000000000E+00  0.00000000000E+00  0.10571052368E+04  0.10571052368E+04  0.25500000920E-02 0. -1.
       -2   -1    0    0    0  501  0.00000000000E+00  0.00000000000E+00 -0.75923853291E+03  0.75923853291E+03  0.25500000920E-02 0.  1.
    10030    2    1    2    0    0  0.00000000000E+00  0.00000000000E+00  0.29786670388E+03  0.18163437697E+04  0.17917533637E+04 0.  0.
        1    1    3    3  502    0 -0.78396829527E+02 -0.44153263054E+03 -0.63727359816E+03  0.77923986400E+03  0.50400001928E-02 0.  1.
       -1    1    3    3    0  502  0.78396829527E+02  0.44153263054E+03  0.93514030204E+03  0.10371039057E+04  0.50400001928E-02 0. -1.
</event>
<event>
 5   0  0.8492114E-05  0.1833348E+04  0.7818609E-02  0.8688764E-01
        1   -1    0    0  501    0  0.00000000000E+00  0.00000000000E+00  0.14599541338E+04  0.14599541338E+04  0.50400001928E-02 0. -1.
       -1   -1    0    0    0  501  0.00000000000E+00  0.00000000000E+00 -0.57555973946E+03  0.57555973948E+03  0.50400001928E-02 0.  1.
    10030    2    1    2    0    0  0.00000000000E+00  0.00000000000E+00  0.88439439434E+03  0.20355138733E+04  0.18333475621E+04 0.  0.
        2    1    3    3  502    0  0.55088880094E+03 -0.47116051837E+03  0.10651576803E+04  0.12884221315E+04  0.25500000920E-02 0. -1.
       -2    1    3    3    0  502 -0.55088880094E+03  0.47116051837E+03 -0.18076328596E+03  0.74709174178E+03  0.25500000920E-02 0.  1.
</event>
<event>
 5   0  0.8254914E-05  0.1800313E+04  0.7818609E-02  0.8706133E-01
        1   -1    0    0  501    0  0.00000000000E+00  0.00000000000E+00  0.10128791908E+04  0.10128791908E+04  0.50400001928E-02 0.  1.
       -1   -1    0    0    0  501  0.00000000000E+00  0.00000000000E+00 -0.79997824138E+03  0.79997824139E+03  0.50400001928E-02 0. -1.
    10030    2    1    2    0    0  0.00000000000E+00  0.00000000000E+00  0.21290094938E+03  0.18128574322E+04  0.18003125437E+04 0.  0.
        4    1    3    3  502    0 -0.28221757050E+03 -0.55315958787E+03 -0.54974009669E+03  0.82936606728E+03  0.12699999809E+01 0. -1.
       -4    1    3    3    0  502  0.28221757050E+03  0.55315958787E+03  0.76264104607E+03  0.98349136489E+03  0.12699999809E+01 0.  1.
</event>
<event>
 5   0  0.1603564E-04  0.1763738E+04  0.7818609E-02  0.8725824E-01
        2   -1    0    0  501    0  0.00000000000E+00  0.00000000000E+00  0.11535839274E+04  0.11535839274E+04  0.25500000920E-02 0. -1.
       -2   -1    0    0    0  501  0.00000000000E+00  0.00000000000E+00 -0.67415374973E+03  0.67415374974E+03  0.25500000920E-02 0.  1.
    10030    2    1    2    0    0  0.00000000000E+00  0.00000000000E+00  0.47943017770E+03  0.18277376772E+04  0.17637379968E+04 0.  0.
        5    1    3    3  502    0  0.48446965531E+03 -0.48444566798E+03 -0.33565476931E+03  0.76294473345E+03  0.46999998093E+01 0.  1.
       -5    1    3    3    0  502 -0.48446965531E+03  0.48444566798E+03  0.81508494702E+03  0.10647929437E+04  0.46999998093E+01 0. -1.
</event>
<event>
 5   0  0.8206783E-05  0.1775159E+04  0.7818609E-02  0.8719622E-01
        1   -1    0    0  501    0  0.00000000000E+00  0.00000000000E+00  0.11657697493E+04  0.11657697493E+04  0.50400001928E-02 0. -1.
       -1   -1    0    0    0  501  0.00000000000E+00  0.00000000000E+00 -0.67577458506E+03  0.67577458508E+03  0.50400001928E-02 0.  1.
    10030    2    1    2    0    0  0.00000000000E+00  0.00000000000E+00  0.48999516426E+03  0.18415443344E+04  0.17751592251E+04 0.  0.
        1    1    3    3  502    0 -0.33249613191E+03 -0.13218621327E+03 -0.59764106934E+03  0.69656422568E+03  0.50400001928E-02 0.  1.
       -1    1    3    3    0  502  0.33249613191E+03  0.13218621327E+03  0.10876362336E+04  0.11449801087E+04  0.50400001928E-02 0. -1.
</event>
<event>
 5   0  0.8254914E-05  0.1803082E+04  0.7818609E-02  0.8704662E-01
       -1   -1    0    0    0  501  0.00000000000E+00  0.00000000000E+00  0.10286293771E+04  0.10286293771E+04  0.50400001928E-02 0. -1.
        1   -1    0    0  501    0  0.00000000000E+00  0.00000000000E+00 -0.79015436255E+03  0.79015436257E+03  0.50400001928E-02 0.  1.
    10030    2    1    2    0    0  0.00000000000E+00  0.00000000000E+00  0.23847501454E+03  0.18187837397E+04  0.18030817949E+04 0.  0.
        4    1    3    3  502    0  0.51692003947E+03 -0.37581609380E+03  0.76064464057E+03  0.99349179447E+03  0.12699999809E+01 0. -1.
       -4    1    3    3    0  502 -0.51692003947E+03  0.37581609380E+03 -0.52216962603E+03  0.82529194520E+03  0.12699999809E+01 0.  1.
</event>
<event>
 5   0  0.8430513E-05  0.1830136E+04  0.7818609E-02  0.8690436E-01
       -1   -1    0    0    0  501  0.00000000000E+00  0.00000000000E+00  0.99163036186E+03  0.99163036187E+03  0.50400001928E-02 0. -1.
        1   -1    0    0  501    0  0.00000000000E+00  0.00000000000E+00 -0.84441709514E+03  0.84441709515E+03  0.50400001928E-02 0.  1.
    10030    2    1    2    0    0  0.00000000000E+00  0.00000000000E+00  0.14721326672E+03  0.18360474570E+04  0.18301362022E+04 0.  0.
        5    1    3    3  502    0  0.45353605564E+03  0.10434034235E+03  0.86402558188E+03  0.98139908139E+03  0.46999998093E+01 0. -1.
       -5    1    3    3    0  502 -0.45353605564E+03 -0.10434034235E+03 -0.71681231516E+03  0.85464837563E+03  0.46999998093E+01 0.  1.
</event>
<event>
 5   0  0.1549012E-04  0.1775219E+04  0.7818609E-02  0.8719590E-01
       -2   -1    0    0    0  501  0.00000000000E+00  0.00000000000E+00  0.94585205481E+03  0.94585205482E+03  0.25500000920E-02 0. -1.
        2   -1    0    0  501    0  0.00000000000E+00  0.00000000000E+00 -0.83295358923E+03  0.83295358924E+03  0.25500000920E-02 0.  1.
    10030    2    1    2    0    0  0.00000000000E+00  0.00000000000E+00  0.11289846558E+03  0.17788056441E+04  0.17752192698E+04 0.  0.
        4    1    3    3  502    0 -0.24514120673E+03  0.94860616655E+02  0.90595706813E+03  0.94331997224E+03  0.12699999809E+01 0. -1.
       -4    1    3    3    0  502  0.24514120673E+03 -0.94860616655E+02 -0.79305860255E+03  0.83548567182E+03  0.12699999809E+01 0.  1.
</event>
<event>
 5   0  0.8206783E-05  0.1807355E+04  0.7818609E-02  0.8702398E-01
        1   -1    0    0  501    0  0.00000000000E+00  0.00000000000E+00  0.85750187716E+03  0.85750187718E+03  0.50400001928E-02 0.  1.
       -1   -1    0    0    0  501  0.00000000000E+00  0.00000000000E+00 -0.95233999759E+03  0.95233999760E+03  0.50400001928E-02 0. -1.
    10030    2    1    2    0    0  0.00000000000E+00  0.00000000000E+00 -0.94838120424E+02  0.18098418748E+04  0.18073553449E+04 0.  0.
        1    1    3    3  502    0 -0.49111615659E+02 -0.89808972871E+03  0.40201172239E+02  0.90032952072E+03  0.50400001928E-02 0. -1.
       -1    1    3    3    0  502  0.49111615659E+02  0.89808972871E+03 -0.13503929266E+03  0.90951235406E+03  0.50400001928E-02 0.  1.
</event>
<event>
 5   0  0.1608627E-04  0.1783295E+04  0.7818609E-02  0.8715234E-01
       -2   -1    0    0    0  501  0.00000000000E+00  0.00000000000E+00  0.65928027197E+03  0.65928027198E+03  0.25500000920E-02 0.  1.
        2   -1    0    0  501    0  0.00000000000E+00  0.00000000000E+00 -0.12059138517E+04  0.12059138517E+04  0.25500000920E-02 0. -1.
    10030    2    1    2    0    0  0.00000000000E+00  0.00000000000E+00 -0.54663357976E+03  0.18651941237E+04  0.17832949416E+04 0.  0.
        2    1    3    3  502    0 -0.40237366694E+03 -0.38051196954E+03 -0.10042245651E+04  0.11468046495E+04  0.25500000920E-02 0. -1.
       -2    1    3    3    0  502  0.40237366694E+03  0.38051196954E+03  0.45759098537E+03  0.71838947425E+03  0.25500000920E-02 0.  1.
</event>
<event>
 5   0  0.1603564E-04  0.1913714E+04  0.7818609E-02  0.8648060E-01
       -2   -1    0    0    0  501  0.00000000000E+00  0.00000000000E+00  0.95248413301E+03  0.95248413301E+03  0.25500000920E-02 0. -1.
        2   -1    0    0  501    0  0.00000000000E+00  0.00000000000E+00 -0.96124981401E+03  0.96124981401E+03  0.25500000920E-02 0.  1.
    10030    2    1    2    0    0  0.00000000000E+00  0.00000000000E+00 -0.87656809956E+01  0.19137339470E+04  0.19137138717E+04 0.  0.
        5    1    3    3  502    0  0.24737681685E+03  0.89353429227E+03  0.23216622138E+03  0.95578348245E+03  0.46999998093E+01 0. -1.
       -5    1    3    3    0  502 -0.24737681685E+03 -0.89353429227E+03 -0.24093190238E+03  0.95795046457E+03  0.46999998093E+01 0.  1.
</event>
<event>
 5   0  0.8132598E-05  0.1807535E+04  0.7818609E-02  0.8702303E-01
       -1   -1    0    0    0  501  0.00000000000E+00  0.00000000000E+00  0.30613537628E+04  0.30613537628E+04  0.50400001928E-02 0. -1.
        1   -1    0    0  501    0  0.00000000000E+00  0.00000000000E+00 -0.26680872207E+03  0.26680872212E+03  0.50400001928E-02 0.  1.
    10030    2    1    2    0    0  0.00000000000E+00  0.00000000000E+00  0.27945450407E+04  0.33281624849E+04  0.18075352116E+04 0.  0.
        3    1    3    3  502    0 -0.23332488861E+03 -0.52557942876E+02 -0.20748064608E+03  0.31662449322E+03  0.10100000352E+00 0.  1.
       -3    1    3    3    0  502  0.23332488861E+03  0.52557942876E+02  0.30020256868E+04  0.30115379917E+04  0.10100000352E+00 0. -1.
</event>
<event>
 5   0  0.8430513E-05  0.1808473E+04  0.7818609E-02  0.8701807E-01
        1   -1    0    0  501    0  0.00000000000E+00  0.00000000000E+00  0.11901303329E+04  0.11901303329E+04  0.50400001928E-02 0.  1.
       -1   -1    0    0    0  501  0.00000000000E+00  0.00000000000E+00 -0.68702028396E+03  0.68702028398E+03  0.50400001928E-02 0. -1.
    10030    2    1    2    0    0  0.00000000000E+00  0.00000000000E+00  0.50311004897E+03  0.18771506169E+04  0.18084730347E+04 0.  0.
        5    1    3    3  502    0 -0.37019634772E+03  0.81607616150E+03  0.37695668796E+03  0.97218520449E+03  0.46999998093E+01 0. -1.
       -5    1    3    3    0  502  0.37019634772E+03 -0.81607616150E+03  0.12615336102E+03  0.90496541244E+03  0.46999998093E+01 0.  1.
</event>
<event>
 5   0  0.1608627E-04  0.1815326E+04  0.7818609E-02  0.8698192E-01
        2   -1    0    0  501    0  0.00000000000E+00  0.00000000000E+00  0.11023447434E+04  0.11023447434E+04  0.25500000920E-02 0. -1.
       -2   -1    0    0    0  501  0.00000000000E+00  0.00000000000E+00 -0.74736312758E+03  0.74736312759E+03  0.25500000920E-02 0.  1.
    10030    2    1    2    0    0  0.00000000000E+00  0.00000000000E+00  0.35498161579E+03  0.18497078710E+04  0.18153256623E+04 0.  0.
        2    1    3    3  502    0  0.80582244365E+03 -0.15798253619E+02 -0.24785093478E+03  0.84322564085E+03  0.25500000920E-02 0.  1.
       -2    1    3    3    0  502 -0.80582244365E+03  0.15798253619E+02  0.60283255057E+03  0.10064822301E+04  0.25500000920E-02 0. -1.
</event>
<event>
 5   0  0.8254914E-05  0.1778695E+04  0.7818609E-02  0.8717712E-01
       -1   -1    0    0    0  501  0.00000000000E+00  0.00000000000E+00  0.99305825383E+03  0.99305825384E+03  0.50400001928E-02 0.  1.
        1   -1    0    0  501    0  0.00000000000E+00  0.00000000000E+00 -0.79646790901E+03  0.79646790902E+03  0.50400001928E-02 0. -1.
    10030    2    1    2    0    0  0.00000000000E+00  0.00000000000E+00  0.19659034482E+03  0.17895261629E+04  0.17786950621E+04 0.  0.
        4    1    3    3  502    0  0.46768040197E+03 -0.71024275624E+03 -0.16361229670E+03  0.86599095128E+03  0.12699999809E+01 0. -1.
       -4    1    3    3    0  502 -0.46768040197E+03  0.71024275624E+03  0.36020264152E+03  0.92353521158E+03  0.12699999809E+01 0.  1.
</event>
<event>
 5   0  0.1628397E-04  0.1800830E+04  0.7818609E-02  0.8705858E-01
        2   -1    0    0  501    0  0.00000000000E+00  0.00000000000E+00  0.23422819492E+04  0.23422819492E+04  0.25500000920E-02 0.  1.
       -2   -1    0    0    0  501  0.00000000000E+00  0.00000000000E+00 -0.34613578207E+03  0.34613578208E+03  0.25500000920E-02 0. -1.
    10030    2    1    2    0    0  0.00000000000E+00  0.00000000000E+00  0.19961461671E+04  0.26884177313E+04  0.18008304688E+04 0.  0.
        3    1    3    3  502    0  0.10444908276E+03 -0.22786143086E+02 -0.33662773068E+03  0.35319549610E+03  0.10100000352E+00 0. -1.
       -3    1    3    3    0  502 -0.10444908276E+03  0.22786143086E+02  0.23327738978E+04  0.23352222352E+04  0.10100000352E+00 0.  1.
</event>
<event>
 5   0  0.1603564E-04  0.1806958E+04  0.7818609E-02  0.8702608E-01
       -2   -1    0    0    0  501  0.00000000000E+00  0.00000000000E+00  0.13518532546E+04  0.13518532546E+04  0.25500000920E-02 0.  1.
        2   -1    0    0  501    0  0.00000000000E+00  0.00000000000E+00 -0.60381860039E+03  0.60381860039E+03  0.25500000920E-02 0. -1.
    10030    2    1    2    0    0  0.00000000000E+00  0.00000000000E+00  0.74803465426E+03  0.19556718550E+04  0.18069578193E+04 0.  0.
        5    1    3    3  502    0 -0.49603576616E+02  0.57660510950E+03 -0.37685147490E+03  0.69063238503E+03  0.46999998093E+01 0. -1.
       -5    1    3    3    0  502  0.49603576616E+02 -0.57660510950E+03  0.11248861292E+04  0.12650394700E+04  0.46999998093E+01 0.  1.
</event>
<event>
 5   0  0.1549012E-04  0.1812119E+04  0.7818609E-02  0.8699881E-01
        2   -1    0    0  501    0  0.00000000000E+00  0.00000000000E+00  0.14087569298E+04  0.14087569298E+04  0.25500000920E-02 0. -1.
       -2   -1    0    0    0  501  0.00000000000E+00  0.00000000000E+00 -0.58274360628E+03  0.58274360629E+03  0.25500000920E-02 0.  1.
    10030    2    1    2    0    0  0.00000000000E+00  0.00000000000E+00  0.82601332352E+03  0.19915005361E+04  0.18121193047E+04 0.  0.
        4    1    3    3  502    0  0.22519272664E+03 -0.16479202883E+03  0.13603551411E+04  0.13886813528E+04  0.12699999809E+01 0. -1.
       -4    1    3    3    0  502 -0.22519272664E+03  0.16479202883E+03 -0.53434181753E+03  0.60281918330E+03  0.12699999809E+01 0.  1.
</event>
<event>
 5   0  0.8254914E-05  0.1802000E+04  0.7818609E-02  0.8705237E-01
       -1   -1    0    0    0  501  0.00000000000E+00  0.00000000000E+00  0.85363356958E+03  0.85363356960E+03  0.50400001928E-02 0. -1.
        1   -1    0    0  501    0  0.00000000000E+00  0.00000000000E+00 -0.95099491262E+03  0.95099491263E+03  0.50400001928E-02 0.  1.
    10030    2    1    2    0    0  0.00000000000E+00  0.00000000000E+00 -0.97361343038E+02  0.18046284822E+04  0.18020002019E+04 0.  0.
        4    1    3    3  502    0 -0.78993636470E+02 -0.89713654156E+03 -0.75282551542E+02  0.90374943666E+03  0.12699999809E+01 0.  1.
       -4    1    3    3    0  502  0.78993636470E+02  0.89713654156E+03 -0.22078791496E+02  0.90087904557E+03  0.12699999809E+01 0. -1.
</event>
<event>
 5   0  0.1573981E-04  0.1820208E+04  0.7818609E-02  0.8695626E-01
        2   -1    0    0  501    0  0.00000000000E+00  0.00000000000E+00  0.18426065078E+04  0.18426065078E+04  0.25500000920E-02 0. -1.
       -2   -1    0    0    0  501  0.00000000000E+00  0.00000000000E+00 -0.44952046768E+03  0.44952046769E+03  0.25500000920E-02 0.  1.
    10030    2    1    2    0    0  0.00000000000E+00  0.00000000000E+00  0.13930860401E+04  0.22921269755E+04  0.18202080531E+04 0.  0.
        1    1    3    3  502    0 -0.40899616210E+03  0.81143784676E+03  0.76050705547E+03  0.11849389103E+04  0.50400001928E-02 0.  1.
       -1    1    3    3    0  502  0.40899616210E+03 -0.81143784676E+03  0.63257898464E+03  0.11071880651E+04  0.50400001928E-02 0. -1.
</event>
<event>
 5   0  0.8206783E-05  0.1786695E+04  0.7818609E-02  0.8713407E-01
       -1   -1    0    0    0  501  0.00000000000E+00  0.00000000000E+00  0.10481928242E+04  0.10481928242E+04  0.50400001928E-02 0.  1.
        1   -1    0    0  501    0  0.00000000000E+00  0.00000000000E+00 -0.76137724640E+03  0.76137724641E+03  0.50400001928E-02 0. -1.
    10030    2    1    2    0    0  0.00000000000E+00  0.00000000000E+00  0.28681557784E+03  0.18095700707E+04  0.17866954595E+04 0.  0.
        1    1    3    3  502    0  0.29629919248E+03  0.18549980847E+02  0.99677019768E+03  0.10400423743E+04  0.50400001928E-02 0.  1.
       -1    1    3    3    0  502 -0.29629919248E+03 -0.18549980847E+02 -0.70995461984E+03  0.76952769639E+03  0.50400001928E-02 0. -1.
</event>
<event>
 5   0  0.1549012E-04  0.1799898E+04  0.7818609E-02  0.8706354E-01
       -2   -1    0    0    0  501  0.00000000000E+00  0.00000000000E+00  0.78487614707E+03  0.78487614708E+03  0.25500000920E-02 0.  1.
        2   -1    0    0  501    0  0.00000000000E+00  0.00000000000E+00 -0.10318927915E+04  0.10318927915E+04  0.25500000920E-02 0. -1.
    10030    2    1    2    0    0  0.00000000000E+00  0.00000000000E+00 -0.24701664440E+03  0.18167689386E+04  0.17998978175E+04 0.  0.
        4    1    3    3  502    0 -0.26729951705E+03  0.13183633640E+03 -0.98063011829E+03  0.10249228718E+04  0.12699999809E+01 0. -1.
       -4    1    3    3    0  502  0.26729951705E+03 -0.13183633640E+03  0.73361347389E+03  0.79184606672E+03  0.12699999809E+01 0.  1.
</event>
<event>
 5   0  0.8206783E-05  0.1790718E+04  0.7818609E-02  0.8711251E-01
       -1   -1    0    0    0  501  0.00000000000E+00  0.00000000000E+00  0.14096694631E+04  0.14096694631E+04  0.50400001928E-02 0.  1.
        1   -1    0    0  501    0  0.00000000000E+00  0.00000000000E+00 -0.56869220608E+03  0.56869220610E+03  0.50400001928E-02 0. -1.
    10030    2    1    2    0    0  0.00000000000E+00  0.00000000000E+00  0.84097725700E+03  0.19783616692E+04  0.17907183328E+04 0.  0.
        1    1    3    3  502    0  0.14016982960E+02  0.64761036572E+03  0.11033793757E+04  0.12794693073E+04  0.50400001928E-02 0.  1.
       -1    1    3    3    0  502 -0.14016982960E+02 -0.64761036572E+03 -0.26240211869E+03  0.69889236189E+03  0.50400001928E-02 0. -1.
</event>
<event>
 5   0  0.1603564E-04  0.1813398E+04  0.7818609E-02  0.8699207E-01
        2   -1    0    0  501    0  0.00000000000E+00  0.00000000000E+00  0.23800059759E+04  0.23800059759E+04  0.25500000920E-02 0. -1.
       -2   -1    0    0    0  501  0.00000000000E+00  0.00000000000E+00 -0.34542059365E+03  0.34542059366E+03  0.25500000920E-02 0.  1.
    10030    2    1    2    0    0  0.00000000000E+00  0.00000000000E+00  0.20345853823E+04  0.27254265696E+04  0.18133980006E+04 0.  0.
        5    1    3    3  502    0  0.40171902796E+03  0.32280222633E+03  0.21384706080E+04  0.21996949985E+04  0.46999998093E+01 0. -1.
       -5    1    3    3    0  502 -0.40171902796E+03 -0.32280222633E+03 -0.10388522577E+03  0.52573157113E+03  0.46999998093E+01 0.  1.
</event>
<event>
 5   0  0.1603564E-04  0.1803536E+04  0.7818609E-02  0.8704421E-01
       -2   -1    0    0    0  501  0.00000000000E+00  0.00000000000E+00  0.69575677026E+03  0.69575677026E+03  0.25500000920E-02 0. -1.
        2   -1    0    0  501    0  0.00000000000E+00  0.00000000000E+00 -0.11687789577E+04  0.11687789577E+04  0.25500000920E-02 0.  1.
    10030    2    1    2    0    0  0.00000000000E+00  0.00000000000E+00 -0.47302218748E+03  0.18645357280E+04  0.18035363848E+04 0.  0.
        5    1    3    3  502    0  0.84886746703E+03  0.23601730409E+03 -0.43505779647E+03  0.98263804154E+03  0.46999998093E+01 0.  1.
       -5    1    3    3    0  502 -0.84886746703E+03 -0.23601730409E+03 -0.37964391010E+02  0.88189768646E+03  0.46999998093E+01 0. -1.
</event>
<event>
 5   0  0.1608627E-04  0.1803036E+04  0.7818609E-02  0.8704687E-01
        2   -1    0    0  501    0  0.00000000000E+00  0.00000000000E+00  0.10462876610E+04  0.10462876610E+04  0.25500000920E-02 0. -1.
       -2   -1    0    0    0  501  0.00000000000E+00  0.00000000000E+00 -0.77677929274E+03  0.77677929275E+03  0.25500000920E-02 0.  1.
    10030    2    1    2    0    0  0.00000000000E+00  0.00000000000E+00  0.26950836823E+03  0.18230669537E+04  0.18030358724E+04 0.  0.
        2    1    3    3  502    0 -0.31641069011E+03  0.72139220335E+03  0.57804493871E+03  0.97706621425E+03  0.25500000920E-02 0. -1.
       -2    1    3    3    0  502  0.31641069011E+03 -0.72139220335E+03 -0.30853657047E+03  0.84600073947E+03  0.25500000920E-02 0.  1.
</event>
<event>
 5   0  0.1608627E-04  0.1812030E+04  0.7818609E-02  0.8699928E-01
       -2   -1    0    0    0  501  0.00000000000E+00  0.00000000000E+00  0.68012508997E+03  0.68012508998E+03  0.25500000920E-02 0.  1.
        2   -1    0    0  501    0  0.00000000000E+00  0.00000000000E+00 -0.12069291575E+04  0.12069291575E+04  0.25500000920E-02 0. -1.
    10030    2    1    2    0    0  0.00000000000E+00  0.00000000000E+00 -0.52680406749E+03  0.18870542474E+04  0.18120295823E+04 0.  0.
        2    1    3    3  502    0  0.30876403864E+02 -0.74282931230E+03 -0.80263805798E+03  0.10940642539E+04  0.25500000920E-02 0. -1.
       -2    1    3    3    0  502 -0.30876403864E+02  0.74282931230E+03  0.27583399050E+03  0.79298999354E+03  0.25500000920E-02 0.  1.
</event>
<event>
 5   0  0.1573981E-04  0.1802186E+04  0.7818609E-02  0.8705138E-01
        2   -1    0    0  501    0  0.00000000000E+00  0.00000000000E+00  0.98454069728E+03  0.98454069728E+03  0.25500000920E-02 0.  1.
       -2   -1    0    0    0  501  0.00000000000E+00  0.00000000000E+00 -0.82471796564E+03  0.82471796565E+03  0.25500000920E-02 0. -1.
    10030    2    1    2    0    0  0.00000000000E+00  0.00000000000E+00  0.15982273164E+03  0.18092586629E+04  0.18021857850E+04 0.  0.
        1    1    3    3  502    0  0.11969175117E+03  0.25889691820E+01 -0.81669818523E+03  0.82542640123E+03  0.50400001928E-02 0. -1.
       -1    1    3    3    0  502 -0.11969175117E+03 -0.25889691820E+01  0.97652091687E+03  0.98383226170E+03  0.50400001928E-02 0.  1.
</event>
<event>
 5   0  0.8430513E-05  0.1824409E+04  0.7818609E-02  0.8693426E-01
       -1   -1    0    0    0  501  0.00000000000E+00  0.00000000000E+00  0.50142046746E+03  0.50142046748E+03  0.50400001928E-02 0.  1.
        1   -1    0    0  501    0  0.00000000000E+00  0.00000000000E+00 -0.16595199071E+04  0.16595199071E+04  0.50400001928E-02 0. -1.
    10030    2    1    2    0    0  0.00000000000E+00  0.00000000000E+00 -0.11580994396E+04  0.21609403746E+04  0.18244092168E+04 0.  0.
        5    1    3    3  502    0 -0.42740851222E+03 -0.22387273789E+03  0.33789252840E+03  0.58905898672E+03  0.46999998093E+01 0.  1.
       -5    1    3    3    0  502  0.42740851222E+03  0.22387273789E+03 -0.14959919680E+04  0.15718813878E+04  0.46999998093E+01 0. -1.
</event>
<event>
 5   0  0.8132598E-05  0.1809365E+04  0.7818609E-02  0.8701335E-01
        1   -1    0    0  501    0  0.00000000000E+00  0.00000000000E+00  0.81862891013E+03  0.81862891015E+03  0.50400001928E-02 0. -1.
       -1   -1    0    0    0  501  0.00000000000E+00  0.00000000000E+00 -0.99978191819E+03  0.99978191820E+03  0.50400001928E-02 0.  1.
    10030    2    1    2    0    0  0.00000000000E+00  0.00000000000E+00 -0.18115300806E+03  0.18184108283E+04  0.18093649517E+04 0.  0.
        3    1    3    3  502    0  0.29469270419E+03  0.85532776602E+03 -0.85971604149E+02  0.90874666665E+03  0.10100000352E+00 0.  1.
       -3    1    3    3    0  502 -0.29469270419E+03 -0.85532776602E+03 -0.95181403909E+02  0.90966416170E+03  0.10100000352E+00 0. -1.
</event>
<event>
 5   0  0.1628397E-04  0.1788458E+04  0.7818609E-02  0.8712461E-01
       -2   -1    0    0    0  501  0.00000000000E+00  0.00000000000E+00  0.41465041154E+03  0.41465041155E+03  0.25500000920E-02 0.  1.
        2   -1    0    0  501    0  0.00000000000E+00  0.00000000000E+00 -0.19284819760E+04  0.19284819760E+04  0.25500000920E-02 0. -1.
    10030    2    1    2    0    0  0.00000000000E+00  0.00000000000E+00 -0.15138315645E+04  0.23431323876E+04  0.17884583809E+04 0.  0.
        3    1    3    3  502    0 -0.32160339740E+03  0.54666633515E+03  0.68964638962E+02  0.63798821214E+03  0.10100000352E+00 0.  1.
       -3    1    3    3    0  502  0.32160339740E+03 -0.54666633515E+03 -0.15827962034E+04  0.17051441754E+04  0.10100000352E+00 0. -1.
</event>
<event>
 5   0  0.8206783E-05  0.1723987E+04  0.7818609E-02  0.8747801E-01
       -1   -1    0    0    0  501  0.00000000000E+00  0.00000000000E+00  0.10845593068E+04  0.10845593069E+04  0.50400001928E-02 0.  1.
        1   -1    0    0  501    0  0.00000000000E+00  0.00000000000E+00 -0.68510123946E+03  0.68510123948E+03  0.50400001928E-02 0. -1.
    10030    2    1    2    0    0  0.00000000000E+00  0.00000000000E+00  0.39945806738E+03  0.17696605463E+04  0.17239871524E+04 0.  0.
        1    1    3    3  502    0  0.36673381665E+03 -0.39987364387E+02 -0.59997430838E+03  0.70431658530E+03  0.50400001928E-02 0. -1.
       -1    1    3    3    0  502 -0.36673381665E+03  0.39987364387E+02  0.99943237576E+03  0.10653439610E+04  0.50400001928E-02 0.  1.
</event>
<event>
 5   0  0.1608627E-04  0.1692436E+04  0.7818609E-02  0.8765690E-01
        2   -1    0    0  501    0  0.00000000000E+00  0.00000000000E+00  0.14840742230E+04  0.14840742230E+04  0.25500000920E-02 0.  1.
       -2   -1    0    0    0  501  0.00000000000E+00  0.00000000000E+00 -0.48251312134E+03  0.48251312135E+03  0.25500000920E-02 0. -1.
    10030    2    1    2    0    0  0.00000000000E+00  0.00000000000E+00  0.10015611016E+04  0.19665873443E+04  0.16924364515E+04 0.  0.
        2    1    3    3  502    0  0.61494622475E+03  0.46131304749E+03  0.91179634171E+03  0.11926194514E+04  0.25500000920E-02 0.  1.
       -2    1    3    3    0  502 -0.61494622475E+03 -0.46131304749E+03  0.89764759917E+02  0.77396789290E+03  0.25500000920E-02 0. -1.
</event>
<event>
 5   0  0.8254914E-05  0.1783793E+04  0.7818609E-02  0.8714966E-01
       -1   -1    0    0    0  501  0.00000000000E+00  0.00000000000E+00  0.60737186426E+03  0.60737186428E+03  0.50400001928E-02 0.  1.
        1   -1    0    0  501    0  0.00000000000E+00  0.00000000000E+00 -0.13097069081E+04  0.13097069081E+04  0.50400001928E-02 0. -1.
    10030    2    1    2    0    0  0.00000000000E+00  0.00000000000E+00 -0.70233504385E+03  0.19170787724E+04  0.17837927306E+04 0.  0.
        4    1    3    3  502    0 -0.31312009803E+03 -0.80945569836E+03 -0.13035287062E+03  0.87764241419E+03  0.12699999809E+01 0. -1.
       -4    1    3    3    0  502  0.31312009803E+03  0.80945569836E+03 -0.57198217324E+03  0.10394363582E+04  0.12699999809E+01 0.  1.
</event>
<event>
 5   0  0.8206783E-05  0.1744310E+04  0.7818609E-02  0.8736488E-01
       -1   -1    0    0    0  501  0.00000000000E+00  0.00000000000E+00  0.66994062641E+03  0.66994062643E+03  0.50400001928E-02 0.  1.
        1   -1    0    0  501    0  0.00000000000E+00  0.00000000000E+00 -0.11354058257E+04  0.11354058257E+04  0.50400001928E-02 0. -1.
    10030    2    1    2    0    0  0.00000000000E+00  0.00000000000E+00 -0.46546519932E+03  0.18053464522E+04  0.17443101675E+04 0.  0.
        1    1    3    3  502    0 -0.82214687294E+03  0.26244508950E+03 -0.36304123109E+03  0.93627017532E+03  0.50400001928E-02 0. -1.
       -1    1    3    3    0  502  0.82214687294E+03 -0.26244508950E+03 -0.10242396824E+03  0.86907627685E+03  0.50400001928E-02 0.  1.
</event>
<event>
 5   0  0.8492114E-05  0.1801711E+04  0.7818609E-02  0.8705390E-01
        1   -1    0    0  501    0  0.00000000000E+00  0.00000000000E+00  0.74324748984E+03  0.74324748986E+03  0.50400001928E-02 0.  1.
       -1   -1    0    0    0  501  0.00000000000E+00  0.00000000000E+00 -0.10918847454E+04  0.10918847455E+04  0.50400001928E-02 0. -1.
    10030    2    1    2    0    0  0.00000000000E+00  0.00000000000E+00 -0.34863725561E+03  0.18351322353E+04  0.18017109605E+04 0.  0.
        2    1    3    3  502    0 -0.86258349294E+03  0.19914667830E+03 -0.43980477381E+01  0.88528471386E+03  0.25500000920E-02 0.  1.
       -2    1    3    3    0  502  0.86258349294E+03 -0.19914667830E+03 -0.34423920787E+03  0.94984752145E+03  0.25500000920E-02 0. -1.
</event>
<event>
 5   0  0.8430513E-05  0.1787345E+04  0.7818609E-02  0.8713058E-01
       -1   -1    0    0    0  501  0.00000000000E+00  0.00000000000E+00  0.73486815620E+03  0.73486815621E+03  0.50400001928E-02 0.  1.
        1   -1    0    0  501    0  0.00000000000E+00  0.00000000000E+00 -0.10867948334E+04  0.10867948334E+04  0.50400001928E-02 0. -1.
    10030    2    1    2    0    0  0.00000000000E+00  0.00000000000E+00 -0.35192667719E+03  0.18216629896E+04  0.17873454231E+04 0.  0.
        5    1    3    3  502    0  0.82122140405E+02  0.58651608949E+03  0.50612739540E+03  0.77905853410E+03  0.46999998093E+01 0.  1.
       -5    1    3    3    0  502 -0.82122140405E+02 -0.58651608949E+03 -0.85805407258E+03  0.10426044555E+04  0.46999998093E+01 0. -1.
</event>
<event>
 5   0  0.1549012E-04  0.1796793E+04  0.7818609E-02  0.8708007E-01
       -2   -1    0    0    0  501  0.00000000000E+00  0.00000000000E+00  0.14204455243E+04  0.14204455244E+04  0.25500000920E-02 0.  1.
        2   -1    0    0  501    0  0.00000000000E+00  0.00000000000E+00 -0.56821374482E+03  0.56821374482E+03  0.25500000920E-02 0. -1.
    10030    2    1    2    0    0  0.00000000000E+00  0.00000000000E+00  0.85223177953E+03  0.19886592692E+04  0.17967934447E+04 0.  0.
        4    1    3    3  502    0 -0.11262858467E+03 -0.87654201239E+03  0.24729616427E+03  0.91769717409E+03  0.12699999809E+01 0. -1.
       -4    1    3    3    0  502  0.11262858467E+03  0.87654201239E+03  0.60493561527E+03  0.10709620951E+04  0.12699999809E+01 0.  1.
</event>
<event>
 5   0  0.1549012E-04  0.1803584E+04  0.7818609E-02  0.8704396E-01
        2   -1    0    0  501    0  0.00000000000E+00  0.00000000000E+00  0.25764315375E+04  0.25764315375E+04  0.25500000920E-02 0.  1.
       -2   -1    0    0    0  501  0.00000000000E+00  0.00000000000E+00 -0.31564153938E+03  0.31564153939E+03  0.25500000920E-02 0. -1.
    10030    2    1    2    0    0  0.00000000000E+00  0.00000000000E+00  0.22607899982E+04  0.28920730769E+04  0.18035840059E+04 0.  0.
        4    1    3    3  502    0 -0.68779431936E+03  0.23005693761E+03  0.27099503012E+03  0.77422680110E+03  0.12699999809E+01 0. -1.
       -4    1    3    3    0  502  0.68779431936E+03 -0.23005693761E+03  0.19897949680E+04  0.21178462758E+04  0.12699999809E+01 0.  1.
</event>
<event>
 5   0  0.8492114E-05  0.1813618E+04  0.7818609E-02  0.8699091E-01
        1   -1    0    0  501    0  0.00000000000E+00  0.00000000000E+00  0.18537858087E+04  0.18537858087E+04  0.50400001928E-02 0.  1.
       -1   -1    0    0    0  501  0.00000000000E+00  0.00000000000E+00 -0.44358010448E+03  0.44358010451E+03  0.50400001928E-02 0. -1.
    10030    2    1    2    0    0  0.00000000000E+00  0.00000000000E+00  0.14102057042E+04  0.22973659132E+04  0.18136179341E+04 0.  0.
        2    1    3    3  502    0  0.25558533359E+03 -0.61346252749E+03 -0.76422254180E+02  0.66895477898E+03  0.25500000920E-02 0. -1.
       -2    1    3    3    0  502 -0.25558533359E+03  0.61346252749E+03  0.14866279584E+04  0.16284111342E+04  0.25500000920E-02 0.  1.
</event>
<event>
 5   0  0.1549012E-04  0.1834728E+04  0.7818609E-02  0.8688047E-01
       -2   -1    0    0    0  501  0.00000000000E+00  0.00000000000E+00  0.86445114243E+03  0.86445114244E+03  0.25500000920E-02 0.  1.
        2   -1    0    0  501    0  0.00000000000E+00  0.00000000000E+00 -0.97351544725E+03  0.97351544725E+03  0.25500000920E-02 0. -1.
    10030    2    1    2    0    0  0.00000000000E+00  0.00000000000E+00 -0.10906430482E+03  0.18379665897E+04  0.18347278169E+04 0.  0.
        4    1    3    3  502    0 -0.80863232368E+03  0.17584817299E+03  0.34207848378E+03  0.89544855620E+03  0.12699999809E+01 0.  1.
       -4    1    3    3    0  502  0.80863232368E+03 -0.17584817299E+03 -0.45114278860E+03  0.94251803349E+03  0.12699999809E+01 0. -1.
</event>
<event>
 5   0  0.1573981E-04  0.1797994E+04  0.7818609E-02  0.8707367E-01
        2   -1    0    0  501    0  0.00000000000E+00  0.00000000000E+00  0.11910630750E+04  0.11910630750E+04  0.25500000920E-02 0. -1.
       -2   -1    0    0    0  501  0.00000000000E+00  0.00000000000E+00 -0.67855000507E+03  0.67855000508E+03  0.25500000920E-02 0.  1.
    10030    2    1    2    0    0  0.00000000000E+00  0.00000000000E+00  0.51251306992E+03  0.18696130801E+04  0.17979942776E+04 0.  0.
        1    1    3    3  502    0  0.49659661114E+03 -0.50449490001E+03  0.83247070681E+03  0.10927629093E+04  0.50400001928E-02 0. -1.
       -1    1    3    3    0  502 -0.49659661114E+03  0.50449490001E+03 -0.31995763689E+03  0.77685017073E+03  0.50400001928E-02 0.  1.
</event>
<event>
 5   0  0.1549012E-04  0.1846232E+04  0.7818609E-02  0.8682093E-01
        2   -1    0    0  501    0  0.00000000000E+00  0.00000000000E+00  0.72830793596E+03  0.72830793596E+03  0.25500000920E-02 0. -1.
       -2   -1    0    0    0  501  0.00000000000E+00  0.00000000000E+00 -0.11700307868E+04  0.11700307868E+04  0.25500000920E-02 0.  1.
    10030    2    1    2    0    0  0.00000000000E+00  0.00000000000E+00 -0.44172285083E+03  0.18983387228E+04  0.18462315211E+04 0.  0.
        4    1    3    3  502    0 -0.81996828304E+02  0.50998215198E+03  0.56580405948E+03  0.76612082717E+03  0.12699999809E+01 0. -1.
       -4    1    3    3    0  502  0.81996828304E+02 -0.50998215198E+03 -0.10075269103E+04  0.11322178956E+04  0.12699999809E+01 0.  1.
</event>
<event>
 5   0  0.8430513E-05  0.1817315E+04  0.7818609E-02  0.8697145E-01
       -1   -1    0    0    0  501  0.00000000000E+00  0.00000000000E+00  0.52762926901E+03  0.52762926903E+03  0.50400001928E-02 0. -1.
        1   -1    0    0  501    0  0.00000000000E+00  0.00000000000E+00 -0.15648463523E+04  0.15648463523E+04  0.50400001928E-02 0.  1.
    10030    2    1    2    0    0  0.00000000000E+00  0.00000000000E+00 -0.10372170833E+04  0.20924756213E+04  0.18173153133E+04 0.  0.
        5    1    3    3  502    0 -0.90265040147E+03  0.44056657125E+02 -0.40987546416E+03  0.99234002360E+03  0.46999998093E+01 0. -1.
       -5    1    3    3    0  502  0.90265040147E+03 -0.44056657125E+02 -0.62734161912E+03  0.11001355977E+04  0.46999998093E+01 0.  1.
</event>
<event>
 5   0  0.1603564E-04  0.1802958E+04  0.7818609E-02  0.8704728E-01
        2   -1    0    0  501    0  0.00000000000E+00  0.00000000000E+00  0.14905831573E+04  0.14905831573E+04  0.25500000920E-02 0. -1.
       -2   -1    0    0    0  501  0.00000000000E+00  0.00000000000E+00 -0.54519902074E+03  0.54519902075E+03  0.25500000920E-02 0.  1.
    10030    2    1    2    0    0  0.00000000000E+00  0.00000000000E+00  0.94538413657E+03  0.20357821781E+04  0.18029581001E+04 0.  0.
        5    1    3    3  502    0 -0.30545863315E+03 -0.80000843076E+03  0.79070718395E+03  0.11655721370E+04  0.46999998093E+01 0. -1.
       -5    1    3    3    0  502  0.30545863315E+03  0.80000843076E+03  0.15467695262E+03  0.87021004104E+03  0.46999998093E+01 0.  1.
</event>
<event>
 5   0  0.8430513E-05  0.1800275E+04  0.7818609E-02  0.8706153E-01
        1   -1    0    0  501    0  0.00000000000E+00  0.00000000000E+00  0.88252611499E+03  0.88252611500E+03  0.50400001928E-02 0. -1.
       -1   -1    0    0    0  501  0.00000000000E+00  0.00000000000E+00 -0.91810026398E+03  0.91810026399E+03  0.50400001928E-02 0.  1.
    10030    2    1    2    0    0  0.00000000000E+00  0.00000000000E+00 -0.35574148990E+02  0.18006263790E+04  0.18002749336E+04 0.  0.
        5    1    3    3  502    0 -0.72661770740E+03 -0.37689560949E+02  0.51225182096E+03  0.88984145430E+03  0.46999998093E+01 0. -1.
       -5    1    3    3    0  502  0.72661770740E+03  0.37689560949E+02 -0.54782596995E+03  0.91078492470E+03  0.46999998093E+01 0.  1.
</event>
<event>
 5   0  0.8132598E-05  0.1833726E+04  0.7818609E-02  0.8688567E-01
       -1   -1    0    0    0  501  0.00000000000E+00  0.00000000000E+00  0.12393569041E+04  0.12393569041E+04  0.50400001928E-02 0.  1.
        1   -1    0    0  501    0  0.00000000000E+00  0.00000000000E+00 -0.67828557372E+03  0.67828557374E+03  0.50400001928E-02 0. -1.
    10030    2    1    2    0    0  0.00000000000E+00  0.00000000000E+00  0.56107133033E+03  0.19176424778E+04  0.18337261614E+04 0.  0.
        3    1    3    3  502    0 -0.18889463295E+03 -0.58515491493E+03 -0.43069866341E+03  0.75072551954E+03  0.10100000352E+00 0. -1.
       -3    1    3    3    0  502  0.18889463295E+03  0.58515491493E+03  0.99176999374E+03  0.11669169583E+04  0.10100000352E+00 0.  1.
</event>
<event>
 5   0  0.1628397E-04  0.1811572E+04  0.7818609E-02  0.8700170E-01
        2   -1    0    0  501    0  0.00000000000E+00  0.00000000000E+00  0.12176182832E+04  0.12176182832E+04  0.25500000920E-02 0.  1.
       -2   -1    0    0    0  501  0.00000000000E+00  0.00000000000E+00 -0.67381370003E+03  0.67381370003E+03  0.25500000920E-02 0. -1.
    10030    2    1    2    0    0  0.00000000000E+00  0.00000000000E+00  0.54380458319E+03  0.18914319833E+04  0.18115715615E+04 0.  0.
        3    1    3    3  502    0 -0.28442357685E+03 -0.85996229188E+03  0.27607286889E+03  0.94691507204E+03  0.10100000352E+00 0. -1.
       -3    1    3    3    0  502  0.28442357685E+03  0.85996229188E+03  0.26773171430E+03  0.94451691121E+03  0.10100000352E+00 0.  1.
</event>
<event>
 5   0  0.8206783E-05  0.1780532E+04  0.7818609E-02  0.8716721E-01
       -1   -1    0    0    0  501  0.00000000000E+00  0.00000000000E+00  0.61499122699E+03  0.61499122701E+03  0.50400001928E-02 0.  1.
        1   -1    0    0  501    0  0.00000000000E+00  0.00000000000E+00 -0.12887556482E+04  0.12887556482E+04  0.50400001928E-02 0. -1.
    10030    2    1    2    0    0  0.00000000000E+00  0.00000000000E+00 -0.67376442122E+03  0.19037468752E+04  0.17805318502E+04 0.  0.
        1    1    3    3  502    0 -0.71346102495E+02 -0.85992788671E+03 -0.10261443292E+03  0.86896257603E+03  0.50400001928E-02 0.  1.
       -1    1    3    3    0  502  0.71346102495E+02  0.85992788671E+03 -0.57114998830E+03  0.10347842992E+04  0.50400001928E-02 0. -1.
</event>
<event>
 5   0  0.8254914E-05  0.1795822E+04  0.7818609E-02  0.8708525E-01
        1   -1    0    0  501    0  0.00000000000E+00  0.00000000000E+00  0.94467439756E+03  0.94467439757E+03  0.50400001928E-02 0.  1.
       -1   -1    0    0    0  501  0.00000000000E+00  0.00000000000E+00 -0.85346228713E+03  0.85346228715E+03  0.50400001928E-02 0. -1.
    10030    2    1    2    0    0  0.00000000000E+00  0.00000000000E+00  0.91212110422E+02  0.17981366847E+04  0.17958217862E+04 0.  0.
        4    1    3    3  502    0 -0.37399631380E+03 -0.30786372598E+03  0.80261570012E+03  0.93746834160E+03  0.12699999809E+01 0.  1.
       -4    1    3    3    0  502  0.37399631380E+03  0.30786372598E+03 -0.71140358970E+03  0.86066834312E+03  0.12699999809E+01 0. -1.
</event>
<event>
 5   0  0.8430513E-05  0.1784940E+04  0.7818609E-02  0.8714349E-01
        1   -1    0    0  501    0  0.00000000000E+00  0.00000000000E+00  0.14923255627E+04  0.14923255627E+04  0.50400001928E-02 0. -1.
       -1   -1    0    0    0  501  0.00000000000E+00  0.00000000000E+00 -0.53373249840E+03  0.53373249842E+03  0.50400001928E-02 0.  1.
    10030    2    1    2    0    0  0.00000000000E+00  0.00000000000E+00  0.95859306427E+03  0.20260580611E+04  0.17849399441E+04 0.  0.
        5    1    3    3  502    0 -0.11626429492E+03 -0.43508711264E+03  0.13538735132E+04  0.14268194566E+04  0.46999998093E+01 0. -1.
       -5    1    3    3    0  502  0.11626429492E+03  0.43508711264E+03 -0.39528044894E+03  0.59923860454E+03  0.46999998093E+01 0.  1.
</event>
<event>
 5   0  0.8206783E-05  0.1800916E+04  0.7818609E-02  0.8705813E-01
       -1   -1    0    0    0  501  0.00000000000E+00  0.00000000000E+00  0.52856650951E+03  0.52856650954E+03  0.50400001928E-02 0. -1.
        1   -1    0    0  501    0  0.00000000000E+00  0.00000000000E+00 -0.15340061068E+04  0.15340061068E+04  0.50400001928E-02 0.  1.
    10030    2    1    2    0    0  0.00000000000E+00  0.00000000000E+00 -0.10054395972E+04  0.20625726163E+04  0.18009156043E+04 0.  0.
        1    1    3    3  502    0  0.70641301118E+03  0.55429373930E+03 -0.58008725698E+03  0.10690005227E+04  0.50400001928E-02 0. -1.
       -1    1    3    3    0  502 -0.70641301118E+03 -0.55429373930E+03 -0.42535234026E+03  0.99357209360E+03  0.50400001928E-02 0.  1.
</event>
<event>
 5   0  0.8206783E-05  0.1781977E+04  0.7818609E-02  0.8715943E-01
        1   -1    0    0  501    0  0.00000000000E+00  0.00000000000E+00  0.91832241721E+03  0.91832241722E+03  0.50400001928E-02 0. -1.
       -1   -1    0    0    0  501  0.00000000000E+00  0.00000000000E+00 -0.86446862913E+03  0.86446862915E+03  0.50400001928E-02 0.  1.
    10030    2    1    2    0    0  0.00000000000E+00  0.00000000000E+00  0.53853788073E+02  0.17827910464E+04  0.17819774646E+04 0.  0.
        1    1    3    3  502    0  0.32595373638E+03  0.70955032404E+03 -0.40240003674E+03  0.87842659921E+03  0.50400001928E-02 0.  1.
       -1    1    3    3    0  502 -0.32595373638E+03 -0.70955032404E+03  0.45625382481E+03  0.90436444716E+03  0.50400001928E-02 0. -1.
</event>
<event>
 5   0  0.1549012E-04  0.1808568E+04  0.7818609E-02  0.8701757E-01
       -2   -1    0    0    0  501  0.00000000000E+00  0.00000000000E+00  0.44046133891E+03  0.44046133891E+03  0.25500000920E-02 0. -1.
        2   -1    0    0  501    0  0.00000000000E+00  0.00000000000E+00 -0.18565288119E+04  0.18565288119E+04  0.25500000920E-02 0.  1.
    10030    2    1    2    0    0  0.00000000000E+00  0.00000000000E+00 -0.14160674729E+04  0.22969901508E+04  0.18085675726E+04 0.  0.
        4    1    3    3  502    0 -0.72489733588E+02 -0.80341258406E+03 -0.18901391472E+03  0.82852544593E+03  0.12699999809E+01 0. -1.
       -4    1    3    3    0  502  0.72489733588E+02  0.80341258406E+03 -0.12270535582E+04  0.14684647048E+04  0.12699999809E+01 0.  1.
</event>
<event>
 5   0  0.8254914E-05  0.1810930E+04  0.7818609E-02  0.8700509E-01
        1   -1    0    0  501    0  0.00000000000E+00  0.00000000000E+00  0.10610729306E+04  0.10610729306E+04  0.50400001928E-02 0. -1.
       -1   -1    0    0    0  501  0.00000000000E+00  0.00000000000E+00 -0.77267724396E+03  0.77267724398E+03  0.50400001928E-02 0.  1.
    10030    2    1    2    0    0  0.00000000000E+00  0.00000000000E+00  0.28839568667E+03  0.18337501746E+04  0.18109300458E+04 0.  0.
        4    1    3    3  502    0 -0.76165319373E+03  0.40664027517E+03 -0.13199071298E+03  0.87343864245E+03  0.12699999809E+01 0. -1.
       -4    1    3    3    0  502  0.76165319373E+03 -0.40664027517E+03  0.42038639965E+03  0.96031153217E+03  0.12699999809E+01 0.  1.
</event>
<event>
 5   0  0.8206783E-05  0.1812967E+04  0.7818609E-02  0.8699434E-01
       -1   -1    0    0    0  501  0.00000000000E+00  0.00000000000E+00  0.69237167560E+03  0.69237167561E+03  0.50400001928E-02 0. -1.
        1   -1    0    0  501    0  0.00000000000E+00  0.00000000000E+00 -0.11868082893E+04  0.11868082894E+04  0.50400001928E-02 0.  1.
    10030    2    1    2    0    0  0.00000000000E+00  0.00000000000E+00 -0.49443661374E+03  0.18791799650E+04  0.18129671193E+04 0.  0.
        1    1    3    3  502    0  0.23146490174E+03 -0.59149907092E+03 -0.91757254591E+03  0.11159688744E+04  0.50400001928E-02 0.  1.
       -1    1    3    3    0  502 -0.23146490174E+03  0.59149907092E+03  0.42313593216E+03  0.76321109055E+03  0.50400001928E-02 0. -1.
</event>
<event>
 5   0  0.8132598E-05  0.1800578E+04  0.7818609E-02  0.8705992E-01
        1   -1    0    0  501    0  0.00000000000E+00  0.00000000000E+00  0.25509272746E+04  0.25509272746E+04  0.50400001928E-02 0. -1.
       -1   -1    0    0    0  501  0.00000000000E+00  0.00000000000E+00 -0.31773570233E+03  0.31773570237E+03  0.50400001928E-02 0.  1.
    10030    2    1    2    0    0  0.00000000000E+00  0.00000000000E+00  0.22331915722E+04  0.28686629770E+04  0.18005784285E+04 0.  0.
        3    1    3    3  502    0 -0.47083611631E+03 -0.21866173160E+03 -0.55261083220E+02  0.52206646972E+03  0.10100000352E+00 0.  1.
       -3    1    3    3    0  502  0.47083611631E+03  0.21866173160E+03  0.22884526555E+04  0.23465965072E+04  0.10100000352E+00 0. -1.
</event>
<event>
 5   0  0.8132598E-05  0.1807184E+04  0.7818609E-02  0.8702488E-01
       -1   -1    0    0    0  501  0.00000000000E+00  0.00000000000E+00  0.77918086657E+03  0.77918086659E+03  0.50400001928E-02 0. -1.
        1   -1    0    0  501    0  0.00000000000E+00  0.00000000000E+00 -0.10478679748E+04  0.10478679748E+04  0.50400001928E-02 0.  1.
    10030    2    1    2    0    0  0.00000000000E+00  0.00000000000E+00 -0.26868710819E+03  0.18270488414E+04  0.18071841928E+04 0.  0.
        3    1    3    3  502    0 -0.27943714925E+02 -0.55196816095E+02 -0.10457242153E+04  0.10475527120E+04  0.10100000352E+00 0.  1.
       -3    1    3    3    0  502  0.27943714925E+02  0.55196816095E+02  0.77703710710E+03  0.77949612939E+03  0.10100000352E+00 0. -1.
</event>
<event>
 5   0  0.1549012E-04  0.1775258E+04  0.7818609E-02  0.8719569E-01
        2   -1    0    0  501    0  0.00000000000E+00  0.00000000000E+00  0.21834247844E+04  0.21834247844E+04  0.25500000920E-02 0. -1.
       -2   -1    0    0    0  501  0.00000000000E+00  0.00000000000E+00 -0.36084826463E+03  0.36084826463E+03  0.25500000920E-02 0.  1.
    10030    2    1    2    0    0  0.00000000000E+00  0.00000000000E+00  0.18225765198E+04  0.25442730490E+04  0.17752577778E+04 0.  0.
        4    1    3    3  502    0 -0.34396231639E+03  0.60172246099E+02  0.20808522050E+04  0.21099474606E+04  0.12699999809E+01 0. -1.
       -4    1    3    3    0  502  0.34396231639E+03 -0.60172246099E+02 -0.25827568526E+03  0.43432558846E+03  0.12699999809E+01 0.  1.
</event>
<event>
 5   0  0.8492114E-05  0.1745174E+04  0.7818609E-02  0.8736011E-01
       -1   -1    0    0    0  501  0.00000000000E+00  0.00000000000E+00  0.53619297119E+03  0.53619297121E+03  0.50400001928E-02 0.  1.
        1   -1    0    0  501    0  0.00000000000E+00  0.00000000000E+00 -0.14200266830E+04  0.14200266830E+04  0.50400001928E-02 0. -1.
    10030    2    1    2    0    0  0.00000000000E+00  0.00000000000E+00 -0.88383371179E+03  0.19562196542E+04  0.17451742908E+04 0.  0.
        2    1    3    3  502    0 -0.42883044723E+03 -0.28812294856E+03  0.34632783623E+03  0.62197536616E+03  0.25500000920E-02 0.  1.
       -2    1    3    3    0  502  0.42883044723E+03  0.28812294856E+03 -0.12301615480E+04  0.13342442880E+04  0.25500000920E-02 0. -1.
</event>
<event>
 5   0  0.8254914E-05  0.1758677E+04  0.7818609E-02  0.8728588E-01
        1   -1    0    0  501    0  0.00000000000E+00  0.00000000000E+00  0.17557049894E+04  0.17557049894E+04  0.50400001928E-02 0. -1.
       -1   -1    0    0    0  501  0.00000000000E+00  0.00000000000E+00 -0.44041368229E+03  0.44041368232E+03  0.50400001928E-02 0.  1.
    10030    2    1    2    0    0  0.00000000000E+00  0.00000000000E+00  0.13152913071E+04  0.21961186717E+04  0.17586773433E+04 0.  0.
        4    1    3    3  502    0 -0.30388142037E+03 -0.45338610291E+03  0.15185762984E+04  0.16136847471E+04  0.12699999809E+01 0. -1.
       -4    1    3    3    0  502  0.30388142037E+03  0.45338610291E+03 -0.20328499133E+03  0.58243392462E+03  0.12699999809E+01 0.  1.
</event>
<event>
 5   0  0.1549012E-04  0.1802461E+04  0.7818609E-02  0.8704992E-01
       -2   -1    0    0    0  501  0.00000000000E+00  0.00000000000E+00  0.11303695965E+04  0.11303695965E+04  0.25500000920E-02 0.  1.
        2   -1    0    0  501    0  0.00000000000E+00  0.00000000000E+00 -0.71854053940E+03  0.71854053940E+03  0.25500000920E-02 0. -1.
    10030    2    1    2    0    0  0.00000000000E+00  0.00000000000E+00  0.41182905708E+03  0.18489101359E+04  0.18024609617E+04 0.  0.
        4    1    3    3  502    0 -0.35871466516E+03  0.11174738431E+03  0.10462016840E+04  0.11116219076E+04  0.12699999809E+01 0.  1.
       -4    1    3    3    0  502  0.35871466516E+03 -0.11174738431E+03 -0.63437262693E+03  0.73728822830E+03  0.12699999809E+01 0. -1.
</event>
<event>
 5   0  0.1603564E-04  0.1796781E+04  0.7818609E-02  0.8708013E-01
       -2   -1    0    0    0  501  0.00000000000E+00  0.00000000000E+00  0.88350887393E+03  0.88350887393E+03  0.25500000920E-02 0.  1.
        2   -1    0    0  501    0  0.00000000000E+00  0.00000000000E+00 -0.91352306956E+03  0.91352306956E+03  0.25500000920E-02 0. -1.
    10030    2    1    2    0    0  0.00000000000E+00  0.00000000000E+00 -0.30014195630E+02  0.17970319435E+04  0.17967812761E+04 0.  0.
        5    1    3    3  502    0  0.27105339648E+03  0.60429062352E+03  0.59207556343E+03  0.88837642035E+03  0.46999998093E+01 0.  1.
       -5    1    3    3    0  502 -0.27105339648E+03 -0.60429062352E+03 -0.62208975906E+03  0.90865552315E+03  0.46999998093E+01 0. -1.
</event>
<event>
 5   0  0.8254914E-05  0.1810101E+04  0.7818609E-02  0.8700946E-01
       -1   -1    0    0    0  501  0.00000000000E+00  0.00000000000E+00  0.12509318210E+04  0.12509318210E+04  0.50400001928E-02 0. -1.
        1   -1    0    0  501    0  0.00000000000E+00  0.00000000000E+00 -0.65480468741E+03  0.65480468743E+03  0.50400001928E-02 0.  1.
    10030    2    1    2    0    0  0.00000000000E+00  0.00000000000E+00  0.59612713362E+03  0.19057365085E+04  0.18101005719E+04 0.  0.
        4    1    3    3  502    0 -0.82114319390E+03  0.12778072520E+03  0.67548729395E+03  0.10709289219E+04  0.12699999809E+01 0.  1.
       -4    1    3    3    0  502  0.82114319390E+03 -0.12778072520E+03 -0.79360160332E+02  0.83480758655E+03  0.12699999809E+01 0. -1.
</event>
<event>
 5   0  0.1549012E-04  0.1804030E+04  0.7818609E-02  0.8704159E-01
       -2   -1    0    0    0  501  0.00000000000E+00  0.00000000000E+00  0.47701393411E+03  0.47701393412E+03  0.25500000920E-02 0.  1.
        2   -1    0    0  501    0  0.00000000000E+00  0.00000000000E+00 -0.17056750804E+04  0.17056750804E+04  0.25500000920E-02 0. -1.
    10030    2    1    2    0    0  0.00000000000E+00  0.00000000000E+00 -0.12286611462E+04  0.21826890145E+04  0.18040296898E+04 0.  0.
        4    1    3    3  502    0 -0.45464379417E+03  0.46568419958E+03 -0.13699749605E+04  0.15167055610E+04  0.12699999809E+01 0. -1.
       -4    1    3    3    0  502  0.45464379417E+03 -0.46568419958E+03  0.14131381429E+03  0.66598345349E+03  0.12699999809E+01 0.  1.
</event>
<event>
 5   0  0.1628397E-04  0.1804687E+04  0.7818609E-02  0.8703811E-01
       -2   -1    0    0    0  501  0.00000000000E+00  0.00000000000E+00  0.78423475248E+03  0.78423475248E+03  0.25500000920E-02 0. -1.
        2   -1    0    0  501    0  0.00000000000E+00  0.00000000000E+00 -0.10382403175E+04  0.10382403175E+04  0.25500000920E-02 0.  1.
    10030    2    1    2    0    0  0.00000000000E+00  0.00000000000E+00 -0.25400556498E+03  0.18224750699E+04  0.18046873839E+04 0.  0.
        3    1    3    3  502    0  0.84541794944E+03 -0.23973811020E+03 -0.33400673260E+03  0.94008849495E+03  0.10100000352E+00 0.  1.
       -3    1    3    3    0  502 -0.84541794944E+03  0.23973811020E+03  0.80001167616E+02  0.88238657499E+03  0.10100000352E+00 0. -1.
</event>
<event>
 5   0  0.8430513E-05  0.1789311E+04  0.7818609E-02  0.8712004E-01
        1   -1    0    0  501    0  0.00000000000E+00  0.00000000000E+00  0.90761360206E+03  0.90761360207E+03  0.50400001928E-02 0. -1.
       -1   -1    0    0    0  501  0.00000000000E+00  0.00000000000E+00 -0.88188277095E+03  0.88188277096E+03  0.50400001928E-02 0.  1.
    10030    2    1    2    0    0  0.00000000000E+00  0.00000000000E+00  0.25730831108E+02  0.17894963730E+04  0.17893113741E+04 0.  0.
        5    1    3    3  502    0 -0.43909237304E+03 -0.64253573412E+03 -0.42846518160E+03  0.88840237703E+03  0.46999998093E+01 0.  1.
       -5    1    3    3    0  502  0.43909237304E+03  0.64253573412E+03  0.45419601270E+03  0.90109399600E+03  0.46999998093E+01 0. -1.
</event>
<event>
 5   0  0.1608627E-04  0.1788731E+04  0.7818609E-02  0.8712315E-01
        2   -1    0    0  501    0  0.00000000000E+00  0.00000000000E+00  0.15141359820E+04  0.15141359820E+04  0.25500000920E-02 0. -1.
       -2   -1    0    0    0  501  0.00000000000E+00  0.00000000000E+00 -0.52828153259E+03  0.52828153260E+03  0.25500000920E-02 0.  1.
    10030    2    1    2    0    0  0.00000000000E+00  0.00000000000E+00  0.98585444944E+03  0.20424175146E+04  0.17887314803E+04 0.  0.
        2    1    3    3  502    0  0.49085279112E+03  0.52253217991E+03  0.11034711094E+04  0.13159121669E+04  0.25500000920E-02 0. -1.
       -2    1    3    3    0  502 -0.49085279112E+03 -0.52253217991E+03 -0.11761666000E+03  0.72650534775E+03  0.25500000920E-02 0.  1.
</event>
<event>
 5   0  0.5820500E-05  0.1793858E+04  0.7818609E-02  0.8709572E-01
       -3   -1    0    0    0  501  0.00000000000E+00  0.00000000000E+00  0.11649300795E+04  0.11649300839E+04  0.10100000352E+00 0.  1.
        3   -1    0    0  501    0  0.00000000000E+00  0.00000000000E+00 -0.69058369996E+03  0.69058370735E+03  0.10100000352E+00 0. -1.
    10030    2    1    2    0    0  0.00000000000E+00  0.00000000000E+00  0.47434637958E+03  0.18555137913E+04  0.17938581164E+04 0.  0.
        1    1    3    3  502    0 -0.27614208951E+03 -0.52926678655E+03  0.92958662009E+03  0.11047665225E+04  0.50400001928E-02 0.  1.
       -1    1    3    3    0  502  0.27614208951E+03  0.52926678655E+03 -0.45524024052E+03  0.75074726877E+03  0.50400001928E-02 0. -1.
</event>
<event>
 5   0  0.1608627E-04  0.1793616E+04  0.7818609E-02  0.8709702E-01
       -2   -1    0    0    0  501  0.00000000000E+00  0.00000000000E+00  0.92708623025E+03  0.92708623025E+03  0.25500000920E-02 0. -1.
        2   -1    0    0  501    0  0.00000000000E+00  0.00000000000E+00 -0.86751899965E+03  0.86751899966E+03  0.25500000920E-02 0.  1.
    10030    2    1    2    0    0  0.00000000000E+00  0.00000000000E+00  0.59567230594E+02  0.17946052299E+04  0.17936163682E+04 0.  0.
        2    1    3    3  502    0  0.56014925906E+03  0.29378337865E+03 -0.60632553670E+03  0.87618863406E+03  0.25500000920E-02 0.  1.
       -2    1    3    3    0  502 -0.56014925906E+03 -0.29378337865E+03  0.66589276729E+03  0.91841659585E+03  0.25500000920E-02 0. -1.
</event>
<event>
 5   0  0.8132598E-05  0.1805074E+04  0.7818609E-02  0.8703606E-01
        1   -1    0    0  501    0  0.00000000000E+00  0.00000000000E+00  0.21791423874E+04  0.21791423874E+04  0.50400001928E-02 0.  1.
       -1   -1    0    0    0  501  0.00000000000E+00  0.00000000000E+00 -0.37380446009E+03  0.37380446013E+03  0.50400001928E-02 0. -1.
    10030    2    1    2    0    0  0.00000000000E+00  0.00000000000E+00  0.18053379273E+04  0.25529468475E+04  0.18050741189E+04 0.  0.
        3    1    3    3  502    0 -0.67895336510E+03 -0.10257067352E+02  0.61786189669E+02  0.68183606743E+03  0.10100000352E+00 0. -1.
       -3    1    3    3    0  502  0.67895336510E+03  0.10257067352E+02  0.17435517376E+04  0.18711107801E+04  0.10100000352E+00 0.  1.
</event>
<event>
 5   0  0.1628397E-04  0.1791203E+04  0.7818609E-02  0.8710991E-01
       -2   -1    0    0    0  501  0.00000000000E+00  0.00000000000E+00  0.12098384842E+04  0.12098384842E+04  0.25500000920E-02 0. -1.
        2   -1    0    0  501    0  0.00000000000E+00  0.00000000000E+00 -0.66298296885E+03  0.66298296885E+03  0.25500000920E-02 0.  1.
    10030    2    1    2    0    0  0.00000000000E+00  0.00000000000E+00  0.54685551536E+03  0.18728214531E+04  0.17912032940E+04 0.  0.
        3    1    3    3  502    0 -0.20551078002E+03 -0.63104266282E+03  0.90220584508E+03  0.11200111250E+04  0.10100000352E+00 0. -1.
       -3    1    3    3    0  502  0.20551078002E+03  0.63104266282E+03 -0.35535032973E+03  0.75281032806E+03  0.10100000352E+00 0.  1.
</event>
<event>
 5   0  0.8254914E-05  0.1789527E+04  0.7818609E-02  0.8711889E-01
        1   -1    0    0  501    0  0.00000000000E+00  0.00000000000E+00  0.71581229632E+03  0.71581229634E+03  0.50400001928E-02 0.  1.
       -1   -1    0    0    0  501  0.00000000000E+00  0.00000000000E+00 -0.11184519957E+04  0.11184519957E+04  0.50400001928E-02 0. -1.
    10030    2    1    2    0    0  0.00000000000E+00  0.00000000000E+00 -0.40263969937E+03  0.18342642920E+04  0.17895269670E+04 0.  0.
        4    1    3    3  502    0  0.42367455556E+03  0.41628106607E+03  0.48459557538E+03  0.76656672219E+03  0.12699999809E+01 0.  1.
       -4    1    3    3    0  502 -0.42367455556E+03 -0.41628106607E+03 -0.88723527475E+03  0.10676975698E+04  0.12699999809E+01 0. -1.
</event>
<event>
 5   0  0.8206783E-05  0.1787729E+04  0.7818609E-02  0.8712852E-01
       -1   -1    0    0    0  501  0.00000000000E+00  0.00000000000E+00  0.11320232800E+04  0.11320232800E+04  0.50400001928E-02 0.  1.
        1   -1    0    0  501    0  0.00000000000E+00  0.00000000000E+00 -0.70581045075E+03  0.70581045077E+03  0.50400001928E-02 0. -1.
    10030    2    1    2    0    0  0.00000000000E+00  0.00000000000E+00  0.42621282920E+03  0.18378337307E+04  0.17877291311E+04 0.  0.
        1    1    3    3  502    0 -0.78589487144E+03  0.18555983609E+03 -0.18095209953E+03  0.82753058196E+03  0.50400001928E-02 0. -1.
       -1    1    3    3    0  502  0.78589487144E+03 -0.18555983609E+03  0.60716492872E+03  0.10103031488E+04  0.50400001928E-02 0.  1.
</event>
<event>
 5   0  0.1608627E-04  0.1800386E+04  0.7818609E-02  0.8706094E-01
       -2   -1    0    0    0  501  0.00000000000E+00  0.00000000000E+00  0.96121808357E+03  0.96121808357E+03  0.25500000920E-02 0. -1.
        2   -1    0    0  501    0  0.00000000000E+00  0.00000000000E+00 -0.84304183158E+03  0.84304183158E+03  0.25500000920E-02 0.  1.
    10030    2    1    2    0    0  0.00000000000E+00  0.00000000000E+00  0.11817625199E+03  0.18042599152E+04  0.18003855740E+04 0.  0.
        2    1    3    3  502    0 -0.20537143870E+03  0.32616147251E+03 -0.75616622464E+03  0.84873205034E+03  0.25500000920E-02 0.  1.
       -2    1    3    3    0  502  0.20537143870E+03 -0.32616147251E+03  0.87434247663E+03  0.95552786481E+03  0.25500000920E-02 0. -1.
</event>
<event>
 5   0  0.8132598E-05  0.1833736E+04  0.7818609E-02  0.8688562E-01
       -1   -1    0    0    0  501  0.00000000000E+00  0.00000000000E+00  0.73840558350E+03  0.73840558352E+03  0.50400001928E-02 0.  1.
        1   -1    0    0  501    0  0.00000000000E+00  0.00000000000E+00 -0.11384627594E+04  0.11384627594E+04  0.50400001928E-02 0. -1.
    10030    2    1    2    0    0  0.00000000000E+00  0.00000000000E+00 -0.40005717591E+03  0.18768683429E+04  0.18337363586E+04 0.  0.
        3    1    3    3  502    0  0.12652628211E+03  0.20234487398E+03 -0.11061166809E+04  0.11315681465E+04  0.10100000352E+00 0. -1.
       -3    1    3    3    0  502 -0.12652628211E+03 -0.20234487398E+03  0.70605950500E+03  0.74530019649E+03  0.10100000352E+00 0.  1.
</event>
<event>
 5   0  0.1549012E-04  0.1801142E+04  0.7818609E-02  0.8705692E-01
       -2   -1    0    0    0  501  0.00000000000E+00  0.00000000000E+00  0.30888061025E+03  0.30888061026E+03  0.25500000920E-02 0. -1.
        2   -1    0    0  501    0  0.00000000000E+00  0.00000000000E+00 -0.26257013565E+04  0.26257013565E+04  0.25500000920E-02 0.  1.
    10030    2    1    2    0    0  0.00000000000E+00  0.00000000000E+00 -0.23168207462E+04  0.29345819667E+04  0.18011421236E+04 0.  0.
        4    1    3    3  502    0 -0.11970582522E+03 -0.73485576192E+03 -0.33294704058E+03  0.81559660381E+03  0.12699999809E+01 0. -1.
       -4    1    3    3    0  502  0.11970582522E+03  0.73485576192E+03 -0.19838737056E+04  0.21189853629E+04  0.12699999809E+01 0.  1.
</event>
<event>
 5   0  0.1628397E-04  0.1795978E+04  0.7818609E-02  0.8708441E-01
       -2   -1    0    0    0  501  0.00000000000E+00  0.00000000000E+00  0.99537998230E+03  0.99537998231E+03  0.25500000920E-02 0.  1.
        2   -1    0    0  501    0  0.00000000000E+00  0.00000000000E+00 -0.81012740773E+03  0.81012740773E+03  0.25500000920E-02 0. -1.
    10030    2    1    2    0    0  0.00000000000E+00  0.00000000000E+00  0.18525257458E+03  0.18055073900E+04  0.17959784016E+04 0.  0.
        3    1    3    3  502    0 -0.42757109012E+03 -0.77811132994E+03  0.22791487748E+03  0.91663486758E+03  0.10100000352E+00 0.  1.
       -3    1    3    3    0  502  0.42757109012E+03  0.77811132994E+03 -0.42662302907E+02  0.88887252246E+03  0.10100000352E+00 0. -1.
</event>
<event>
 5   0  0.1603564E-04  0.1797837E+04  0.7818609E-02  0.8707450E-01
       -2   -1    0    0    0  501  0.00000000000E+00  0.00000000000E+00  0.46873122269E+03  0.46873122269E+03  0.25500000920E-02 0.  1.
        2   -1    0    0  501    0  0.00000000000E+00  0.00000000000E+00 -0.17239193641E+04  0.17239193641E+04  0.25500000920E-02 0. -1.
    10030    2    1    2    0    0  0.00000000000E+00  0.00000000000E+00 -0.12551881414E+04  0.21926505868E+04  0.17978374024E+04 0.  0.
        5    1    3    3  502    0 -0.27733595899E+03 -0.84073888374E+03 -0.43757187518E+03  0.98754662712E+03  0.46999998093E+01 0.  1.
       -5    1    3    3    0  502  0.27733595899E+03  0.84073888374E+03 -0.81761626620E+03  0.12051039596E+04  0.46999998093E+01 0. -1.
</event>
<event>
 5   0  0.8254914E-05  0.1833861E+04  0.7818609E-02  0.8688497E-01
        1   -1    0    0  501    0  0.00000000000E+00  0.00000000000E+00  0.97157981761E+03  0.97157981763E+03  0.50400001928E-02 0. -1.
       -1   -1    0    0    0  501  0.00000000000E+00  0.00000000000E+00 -0.86535507748E+03  0.86535507749E+03  0.50400001928E-02 0.  1.
    10030    2    1    2    0    0  0.00000000000E+00  0.00000000000E+00  0.10622474014E+03  0.18369348951E+04  0.18338609853E+04 0.  0.
        4    1    3    3  502    0  0.25807039948E+03 -0.48845807594E+03  0.78616436799E+03  0.96085776754E+03  0.12699999809E+01 0. -1.
       -4    1    3    3    0  502 -0.25807039948E+03  0.48845807594E+03 -0.67993962785E+03  0.87607712758E+03  0.12699999809E+01 0.  1.
</event>
<event>
 5   0  0.8132598E-05  0.1783915E+04  0.7818609E-02  0.8714900E-01
        1   -1    0    0  501    0  0.00000000000E+00  0.00000000000E+00  0.12842424047E+04  0.12842424047E+04  0.50400001928E-02 0. -1.
       -1   -1    0    0    0  501  0.00000000000E+00  0.00000000000E+00 -0.61950034902E+03  0.61950034904E+03  0.50400001928E-02 0.  1.
    10030    2    1    2    0    0  0.00000000000E+00  0.00000000000E+00  0.66474205563E+03  0.19037427537E+04  0.17839154890E+04 0.  0.
        3    1    3    3  502    0  0.42357844957E+03  0.13124345232E+03 -0.49352900046E+03  0.66348657199E+03  0.10100000352E+00 0.  1.
       -3    1    3    3    0  502 -0.42357844957E+03 -0.13124345232E+03  0.11582710561E+04  0.12402561817E+04  0.10100000352E+00 0. -1.
</event>
<event>
 5   0  0.8430513E-05  0.1816589E+04  0.7818609E-02  0.8697527E-01
        1   -1    0    0  501    0  0.00000000000E+00  0.00000000000E+00  0.11487575232E+04  0.11487575232E+04  0.50400001928E-02 0. -1.
       -1   -1    0    0    0  501  0.00000000000E+00  0.00000000000E+00 -0.71816638922E+03  0.71816638924E+03  0.50400001928E-02 0.  1.
    10030    2    1    2    0    0  0.00000000000E+00  0.00000000000E+00  0.43059113397E+03  0.18669239124E+04  0.18165891583E+04 0.  0.
        5    1    3    3  502    0 -0.52649460729E+03 -0.73283272946E+03  0.10880706585E+03  0.90890123141E+03  0.46999998093E+01 0.  1.
       -5    1    3    3    0  502  0.52649460729E+03  0.73283272946E+03  0.32178406812E+03  0.95802268104E+03  0.46999998093E+01 0. -1.
</event>
<event>
 5   0  0.1549012E-04  0.1800896E+04  0.7818609E-02  0.8705823E-01
        2   -1    0    0  501    0  0.00000000000E+00  0.00000000000E+00  0.12781504275E+04  0.12781504275E+04  0.25500000920E-02 0.  1.
       -2   -1    0    0    0  501  0.00000000000E+00  0.00000000000E+00 -0.63435900218E+03  0.63435900219E+03  0.25500000920E-02 0. -1.
    10030    2    1    2    0    0  0.00000000000E+00  0.00000000000E+00  0.64379142533E+03  0.19125094297E+04  0.18008955881E+04 0.  0.
        4    1    3    3  502    0  0.20650629818E+03 -0.37931203097E+03  0.11609798469E+04  0.12387083134E+04  0.12699999809E+01 0.  1.
       -4    1    3    3    0  502 -0.20650629818E+03  0.37931203097E+03 -0.51718842153E+03  0.67380111628E+03  0.12699999809E+01 0. -1.
</event>
<event>
 5   0  0.1573981E-04  0.1813439E+04  0.7818609E-02  0.8699185E-01
       -2   -1    0    0    0  501  0.00000000000E+00  0.00000000000E+00  0.53824678806E+03  0.53824678806E+03  0.25500000920E-02 0. -1.
        2   -1    0    0  501    0  0.00000000000E+00  0.00000000000E+00 -0.15274416338E+04  0.15274416338E+04  0.25500000920E-02 0.  1.
    10030    2    1    2    0    0  0.00000000000E+00  0.00000000000E+00 -0.98919484579E+03  0.20656884219E+04  0.18134393327E+04 0.  0.
        1    1    3    3  502    0 -0.37689161122E+03 -0.12909695129E+02 -0.14338725073E+04  0.14826342482E+04  0.50400001928E-02 0.  1.
       -1    1    3    3    0  502  0.37689161122E+03  0.12909695129E+02  0.44467766147E+03  0.58305417371E+03  0.50400001928E-02 0. -1.
</event>
<event>
 5   0  0.1603564E-04  0.1812421E+04  0.7818609E-02  0.8699722E-01
       -2   -1    0    0    0  501  0.00000000000E+00  0.00000000000E+00  0.63317114731E+03  0.63317114732E+03  0.25500000920E-02 0.  1.
        2   -1    0    0  501    0  0.00000000000E+00  0.00000000000E+00 -0.12969916045E+04  0.12969916045E+04  0.25500000920E-02 0. -1.
    10030    2    1    2    0    0  0.00000000000E+00  0.00000000000E+00 -0.66382045721E+03  0.19301627518E+04  0.18124212119E+04 0.  0.
        5    1    3    3  502    0 -0.26373215590E+03 -0.49793815425E+03 -0.10877332747E+04  0.12250236008E+04  0.46999998093E+01 0. -1.
       -5    1    3    3    0  502  0.26373215590E+03  0.49793815425E+03  0.42391281752E+03  0.70513915107E+03  0.46999998093E+01 0.  1.
</event>
<event>
 5   0  0.1549012E-04  0.1797787E+04  0.7818609E-02  0.8707477E-01
        2   -1    0    0  501    0  0.00000000000E+00  0.00000000000E+00  0.19991461390E+04  0.19991461390E+04  0.25500000920E-02 0. -1.
       -2   -1    0    0    0  501  0.00000000000E+00  0.00000000000E+00 -0.40417710202E+03  0.40417710203E+03  0.25500000920E-02 0.  1.
    10030    2    1    2    0    0  0.00000000000E+00  0.00000000000E+00  0.15949690370E+04  0.24033232410E+04  0.17977865201E+04 0.  0.
        4    1    3    3  502    0 -0.23597872098E+03 -0.85321302647E+03  0.10060849104E+04  0.13400995803E+04  0.12699999809E+01 0.  1.
       -4    1    3    3    0  502  0.23597872098E+03  0.85321302647E+03  0.58888412656E+03  0.10632236607E+04  0.12699999809E+01 0. -1.
</event>
<event>
 5   0  0.1608627E-04  0.1804317E+04  0.7818609E-02  0.8704007E-01
        2   -1    0    0  501    0  0.00000000000E+00  0.00000000000E+00  0.80226591031E+03  0.80226591032E+03  0.25500000920E-02 0.  1.
       -2   -1    0    0    0  501  0.00000000000E+00  0.00000000000E+00 -0.10144891033E+04  0.10144891033E+04  0.25500000920E-02 0. -1.
    10030    2    1    2    0    0  0.00000000000E+00  0.00000000000E+00 -0.21222319302E+03  0.18167550137E+04  0.18043170719E+04 0.  0.
        2    1    3    3  502    0  0.35469977093E+03 -0.45491623988E+03 -0.80452797738E+03  0.98996261505E+03  0.25500000920E-02 0.  1.
       -2    1    3    3    0  502 -0.35469977093E+03  0.45491623988E+03  0.59230478436E+03  0.82679239860E+03  0.25500000920E-02 0. -1.
</event>
<event>
 5   0  0.1603564E-04  0.1832049E+04  0.7818609E-02  0.8689439E-01
        2   -1    0    0  501    0  0.00000000000E+00  0.00000000000E+00  0.11896694460E+04  0.11896694460E+04  0.25500000920E-02 0. -1.
       -2   -1    0    0    0  501  0.00000000000E+00  0.00000000000E+00 -0.70532282669E+03  0.70532282670E+03  0.25500000920E-02 0.  1.
    10030    2    1    2    0    0  0.00000000000E+00  0.00000000000E+00  0.48434661933E+03  0.18949922727E+04  0.18320491440E+04 0.  0.
        5    1    3    3  502    0 -0.78073047382E+03  0.47852525099E+03  0.21786179253E+03  0.94128228457E+03  0.46999998093E+01 0.  1.
       -5    1    3    3    0  502  0.78073047382E+03 -0.47852525099E+03  0.26648482680E+03  0.95370998816E+03  0.46999998093E+01 0. -1.
</event>
<event>
 5   0  0.1603564E-04  0.1806372E+04  0.7818609E-02  0.8702918E-01
        2   -1    0    0  501    0  0.00000000000E+00  0.00000000000E+00  0.14819571385E+04  0.14819571385E+04  0.25500000920E-02 0. -1.
       -2   -1    0    0    0  501  0.00000000000E+00  0.00000000000E+00 -0.55045084609E+03  0.55045084610E+03  0.25500000920E-02 0.  1.
    10030    2    1    2    0    0  0.00000000000E+00  0.00000000000E+00  0.93150629238E+03  0.20324079846E+04  0.18063715684E+04 0.  0.
        5    1    3    3  502    0  0.55749168331E+03  0.70210581462E+03  0.58886612040E+03  0.10726299220E+04  0.46999998093E+01 0.  1.
       -5    1    3    3    0  502 -0.55749168331E+03 -0.70210581462E+03  0.34264017198E+03  0.95977806254E+03  0.46999998093E+01 0. -1.
</event>
<event>
 5   0  0.8492114E-05  0.1801815E+04  0.7818609E-02  0.8705335E-01
       -1   -1    0    0    0  501  0.00000000000E+00  0.00000000000E+00  0.13660617554E+04  0.13660617554E+04  0.50400001928E-02 0.  1.
        1   -1    0    0  501    0  0.00000000000E+00  0.00000000000E+00 -0.59414206585E+03  0.59414206587E+03  0.50400001928E-02 0. -1.
    10030    2    1    2    0    0  0.00000000000E+00  0.00000000000E+00  0.77191968955E+03  0.19602038213E+04  0.18018154772E+04 0.  0.
        2    1    3    3  502    0 -0.76080562033E+03  0.48183109506E+03  0.35825867277E+03  0.96919331029E+03  0.25500000920E-02 0. -1.
       -2    1    3    3    0  502  0.76080562033E+03 -0.48183109506E+03  0.41366101678E+03  0.99101051099E+03  0.25500000920E-02 0.  1.
</event>
<event>
 5   0  0.8492114E-05  0.1875819E+04  0.7818609E-02  0.8666987E-01
       -1   -1    0    0    0  501  0.00000000000E+00  0.00000000000E+00  0.10756160633E+04  0.10756160633E+04  0.50400001928E-02 0.  1.
        1   -1    0    0  501    0  0.00000000000E+00  0.00000000000E+00 -0.81783274963E+03  0.81783274964E+03  0.50400001928E-02 0. -1.
    10030    2    1    2    0    0  0.00000000000E+00  0.00000000000E+00  0.25778331363E+03  0.18934488129E+04  0.18758188000E+04 0.  0.
        2    1    3    3  502    0 -0.15014189494E+01  0.18437303591E+03  0.10571423810E+04  0.10731009665E+04  0.25500000920E-02 0.  1.
       -2    1    3    3    0  502  0.15014189494E+01 -0.18437303591E+03 -0.79935906733E+03  0.82034784644E+03  0.25500000920E-02 0. -1.
</event>
<event>
 5   0  0.5820500E-05  0.1935656E+04  0.7818609E-02  0.8637309E-01
        4   -1    0    0  501    0  0.00000000000E+00  0.00000000000E+00  0.10189340819E+04  0.10189348733E+04  0.12699999809E+01 0.  1.
       -4   -1    0    0    0  501  0.00000000000E+00  0.00000000000E+00 -0.91928394840E+03  0.91928482566E+03  0.12699999809E+01 0. -1.
    10030    2    1    2    0    0  0.00000000000E+00  0.00000000000E+00  0.99650133485E+02  0.19382196990E+04  0.19356563364E+04 0.  0.
        3    1    3    3  502    0 -0.42834349488E+03 -0.83519612948E+03  0.28606254770E+03  0.98125558124E+03  0.10100000352E+00 0.  1.
       -3    1    3    3    0  502  0.42834349488E+03  0.83519612948E+03 -0.18641241422E+03  0.95696411776E+03  0.10100000352E+00 0. -1.
</event>
<event>
 5   0  0.8430513E-05  0.1793696E+04  0.7818609E-02  0.8709659E-01
        1   -1    0    0  501    0  0.00000000000E+00  0.00000000000E+00  0.10609728102E+04  0.10609728102E+04  0.50400001928E-02 0. -1.
       -1   -1    0    0    0  501  0.00000000000E+00  0.00000000000E+00 -0.75811190062E+03  0.75811190064E+03  0.50400001928E-02 0.  1.
    10030    2    1    2    0    0  0.00000000000E+00  0.00000000000E+00  0.30286090955E+03  0.18190847108E+04  0.17936957531E+04 0.  0.
        5    1    3    3  502    0  0.66936848688E+03 -0.59038869818E+03  0.62432758998E+02  0.89472505585E+03  0.46999998093E+01 0. -1.
       -5    1    3    3    0  502 -0.66936848688E+03  0.59038869818E+03  0.24042815055E+03  0.92435965497E+03  0.46999998093E+01 0.  1.
</event>
<event>
 5   0  0.1628397E-04  0.1803553E+04  0.7818609E-02  0.8704413E-01
       -2   -1    0    0    0  501  0.00000000000E+00  0.00000000000E+00  0.41503249595E+03  0.41503249596E+03  0.25500000920E-02 0. -1.
        2   -1    0    0  501    0  0.00000000000E+00  0.00000000000E+00 -0.19593656733E+04  0.19593656733E+04  0.25500000920E-02 0.  1.
    10030    2    1    2    0    0  0.00000000000E+00  0.00000000000E+00 -0.15443331774E+04  0.23743981693E+04  0.18035525231E+04 0.  0.
        3    1    3    3  502    0  0.28392700825E+02 -0.17844609624E+03 -0.19352891214E+04  0.19437060344E+04  0.10100000352E+00 0.  1.
       -3    1    3    3    0  502 -0.28392700825E+02  0.17844609624E+03  0.39095594398E+03  0.43069213489E+03  0.10100000352E+00 0. -1.
</event>
<event>
 5   0  0.8132598E-05  0.1795182E+04  0.7818609E-02  0.8708866E-01
        1   -1    0    0  501    0  0.00000000000E+00  0.00000000000E+00  0.89377503898E+03  0.89377503900E+03  0.50400001928E-02 0.  1.
       -1   -1    0    0    0  501  0.00000000000E+00  0.00000000000E+00 -0.90142292024E+03  0.90142292025E+03  0.50400001928E-02 0. -1.
    10030    2    1    2    0    0  0.00000000000E+00  0.00000000000E+00 -0.76478812554E+01  0.17951979592E+04  0.17951816685E+04 0.  0.
        3    1    3    3  502    0  0.34406492861E+03 -0.59652348726E+02  0.82306337157E+03  0.89407628401E+03  0.10100000352E+00 0.  1.
       -3    1    3    3    0  502 -0.34406492861E+03  0.59652348726E+02 -0.83071125283E+03  0.90112167524E+03  0.10100000352E+00 0. -1.
</event>
<event>
 5   0  0.8492114E-05  0.1793630E+04  0.7818609E-02  0.8709694E-01
        1   -1    0    0  501    0  0.00000000000E+00  0.00000000000E+00  0.23580174666E+04  0.23580174666E+04  0.50400001928E-02 0. -1.
       -1   -1    0    0    0  501  0.00000000000E+00  0.00000000000E+00 -0.34108194368E+03  0.34108194372E+03  0.50400001928E-02 0.  1.
    10030    2    1    2    0    0  0.00000000000E+00  0.00000000000E+00  0.20169355229E+04  0.26990994103E+04  0.17936300408E+04 0.  0.
        2    1    3    3  502    0  0.79436654875E+03  0.29882325757E+03  0.57242246274E+03  0.10237094455E+04  0.25500000920E-02 0.  1.
       -2    1    3    3    0  502 -0.79436654875E+03 -0.29882325757E+03  0.14445130601E+04  0.16753899647E+04  0.25500000920E-02 0. -1.
</event>
<event>
 5   0  0.8430513E-05  0.1785770E+04  0.7818609E-02  0.8713904E-01
        1   -1    0    0  501    0  0.00000000000E+00  0.00000000000E+00  0.11336212452E+04  0.11336212453E+04  0.50400001928E-02 0. -1.
       -1   -1    0    0    0  501  0.00000000000E+00  0.00000000000E+00 -0.70327148049E+03  0.70327148050E+03  0.50400001928E-02 0.  1.
    10030    2    1    2    0    0  0.00000000000E+00  0.00000000000E+00  0.43034976476E+03  0.18368927258E+04  0.17857698525E+04 0.  0.
        5    1    3    3  502    0  0.70101178359E+02 -0.80224506261E+02 -0.69669738815E+03  0.70481166794E+03  0.46999998093E+01 0.  1.
       -5    1    3    3    0  502 -0.70101178359E+02  0.80224506261E+02  0.11270471529E+04  0.11320810578E+04  0.46999998093E+01 0. -1.
</event>
<event>
 5   0  0.1608627E-04  0.1804842E+04  0.7818609E-02  0.8703729E-01
        2   -1    0    0  501    0  0.00000000000E+00  0.00000000000E+00  0.91224564701E+03  0.91224564702E+03  0.25500000920E-02 0.  1.
       -2   -1    0    0    0  501  0.00000000000E+00  0.00000000000E+00 -0.89270216612E+03  0.89270216612E+03  0.25500000920E-02 0. -1.
    10030    2    1    2    0    0  0.00000000000E+00  0.00000000000E+00  0.19543480891E+02  0.18049478131E+04  0.18048420043E+04 0.  0.
        2    1    3    3  502    0 -0.26293054991E+03  0.46228103775E+03  0.73887376114E+03  0.91036842369E+03  0.25500000920E-02 0.  1.
       -2    1    3    3    0  502  0.26293054991E+03 -0.46228103775E+03 -0.71933028025E+03  0.89457938945E+03  0.25500000920E-02 0. -1.
</event>
<event>
 5   0  0.1549012E-04  0.1798512E+04  0.7818609E-02  0.8707091E-01
        2   -1    0    0  501    0  0.00000000000E+00  0.00000000000E+00  0.27648177468E+04  0.27648177468E+04  0.25500000920E-02 0.  1.
       -2   -1    0    0    0  501  0.00000000000E+00  0.00000000000E+00 -0.29248280675E+03  0.29248280676E+03  0.25500000920E-02 0. -1.
    10030    2    1    2    0    0  0.00000000000E+00  0.00000000000E+00  0.24723349401E+04  0.30573005536E+04  0.17985123350E+04 0.  0.
        4    1    3    3  502    0  0.38218527250E+03 -0.19644241222E+03  0.25789902269E+04  0.26145453538E+04  0.12699999809E+01 0.  1.
       -4    1    3    3    0  502 -0.38218527250E+03  0.19644241222E+03 -0.10665528680E+03  0.44275519979E+03  0.12699999809E+01 0. -1.
</event>
<event>
 5   0  0.8132598E-05  0.1799904E+04  0.7818609E-02  0.8706350E-01
        1   -1    0    0  501    0  0.00000000000E+00  0.00000000000E+00  0.18719791924E+04  0.18719791924E+04  0.50400001928E-02 0. -1.
       -1   -1    0    0    0  501  0.00000000000E+00  0.00000000000E+00 -0.43265105001E+03  0.43265105003E+03  0.50400001928E-02 0.  1.
    10030    2    1    2    0    0  0.00000000000E+00  0.00000000000E+00  0.14393281424E+04  0.23046302425E+04  0.17999041788E+04 0.  0.
        3    1    3    3  502    0 -0.57039893321E+03 -0.50812128607E+03  0.13288681628E+04  0.15327859566E+04  0.10100000352E+00 0. -1.
       -3    1    3    3    0  502  0.57039893321E+03  0.50812128607E+03  0.11045997961E+03  0.77184428589E+03  0.10100000352E+00 0.  1.
</event>
<event>
 5   0  0.1608627E-04  0.1785733E+04  0.7818609E-02  0.8713924E-01
       -2   -1    0    0    0  501  0.00000000000E+00  0.00000000000E+00  0.67167161375E+03  0.67167161376E+03  0.25500000920E-02 0.  1.
        2   -1    0    0  501    0  0.00000000000E+00  0.00000000000E+00 -0.11869051062E+04  0.11869051062E+04  0.25500000920E-02 0. -1.
    10030    2    1    2    0    0  0.00000000000E+00  0.00000000000E+00 -0.51523349247E+03  0.18585767200E+04  0.17857328670E+04 0.  0.
        2    1    3    3  502    0 -0.48569797093E+03 -0.35186942701E+03  0.43079928070E+03  0.73844609342E+03  0.25500000920E-02 0.  1.
       -2    1    3    3    0  502  0.48569797093E+03  0.35186942701E+03 -0.94603277317E+03  0.11201306266E+04  0.25500000920E-02 0. -1.
</event>
<event>
 5   0  0.8430513E-05  0.1787835E+04  0.7818609E-02  0.8712795E-01
        1   -1    0    0  501    0  0.00000000000E+00  0.00000000000E+00  0.10958223653E+04  0.10958223653E+04  0.50400001928E-02 0. -1.
       -1   -1    0    0    0  501  0.00000000000E+00  0.00000000000E+00 -0.72921361317E+03  0.72921361319E+03  0.50400001928E-02 0.  1.
    10030    2    1    2    0    0  0.00000000000E+00  0.00000000000E+00  0.36660875208E+03  0.18250359785E+04  0.17878351002E+04 0.  0.
        5    1    3    3  502    0 -0.57214963531E+01 -0.76865655727E+02 -0.72580242972E+03  0.72989884336E+03  0.46999998093E+01 0.  1.
       -5    1    3    3    0  502  0.57214963531E+01  0.76865655727E+02  0.10924111818E+04  0.10951371351E+04  0.46999998093E+01 0. -1.
</event>
<event>
 5   0  0.8254914E-05  0.1872146E+04  0.7818609E-02  0.8668847E-01
       -1   -1    0    0    0  501  0.00000000000E+00  0.00000000000E+00  0.52400544605E+03  0.52400544607E+03  0.50400001928E-02 0.  1.
        1   -1    0    0  501    0  0.00000000000E+00  0.00000000000E+00 -0.16721824054E+04  0.16721824055E+04  0.50400001928E-02 0. -1.
    10030    2    1    2    0    0  0.00000000000E+00  0.00000000000E+00 -0.11481769594E+04  0.21961878515E+04  0.18721460277E+04 0.  0.
        4    1    3    3  502    0 -0.31790349174E+03 -0.83244686107E+02 -0.16022891280E+04  0.16356418834E+04  0.12699999809E+01 0. -1.
       -4    1    3    3    0  502  0.31790349174E+03  0.83244686107E+02  0.45411216864E+03  0.56054596818E+03  0.12699999809E+01 0.  1.
</event>
<event>
 5   0  0.8492114E-05  0.1799891E+04  0.7818609E-02  0.8706357E-01
       -1   -1    0    0    0  501  0.00000000000E+00  0.00000000000E+00  0.74786171648E+03  0.74786171650E+03  0.50400001928E-02 0. -1.
        1   -1    0    0  501    0  0.00000000000E+00  0.00000000000E+00 -0.10829568531E+04  0.10829568531E+04  0.50400001928E-02 0.  1.
    10030    2    1    2    0    0  0.00000000000E+00  0.00000000000E+00 -0.33509513660E+03  0.18308185696E+04  0.17998910756E+04 0.  0.
        2    1    3    3  502    0  0.73970844014E+03  0.43384474831E+03  0.11011195348E+03  0.86458919976E+03  0.25500000920E-02 0. -1.
       -2    1    3    3    0  502 -0.73970844014E+03 -0.43384474831E+03 -0.44520709008E+03  0.96622936982E+03  0.25500000920E-02 0.  1.
</event>
<event>
 5   0  0.8430513E-05  0.1796673E+04  0.7818609E-02  0.8708071E-01
       -1   -1    0    0    0  501  0.00000000000E+00  0.00000000000E+00  0.43022729549E+03  0.43022729552E+03  0.50400001928E-02 0.  1.
        1   -1    0    0  501    0  0.00000000000E+00  0.00000000000E+00 -0.18757731415E+04  0.18757731415E+04  0.50400001928E-02 0. -1.
    10030    2    1    2    0    0  0.00000000000E+00  0.00000000000E+00 -0.14455458460E+04  0.23060004370E+04  0.17966733767E+04 0.  0.
        5    1    3    3  502    0  0.60574007435E+03 -0.60695791636E+03 -0.10663721559E+04  0.13683897890E+04  0.46999998093E+01 0.  1.
       -5    1    3    3    0  502 -0.60574007435E+03  0.60695791636E+03 -0.37917369013E+03  0.93761064798E+03  0.46999998093E+01 0. -1.
</event>
<event>
 5   0  0.8206783E-05  0.1831827E+04  0.7818609E-02  0.8689555E-01
       -1   -1    0    0    0  501  0.00000000000E+00  0.00000000000E+00  0.50349373356E+03  0.50349373359E+03  0.50400001928E-02 0. -1.
        1   -1    0    0  501    0  0.00000000000E+00  0.00000000000E+00 -0.16661528127E+04  0.16661528127E+04  0.50400001928E-02 0.  1.
    10030    2    1    2    0    0  0.00000000000E+00  0.00000000000E+00 -0.11626590792E+04  0.21696465463E+04  0.18318269573E+04 0.  0.
        1    1    3    3  502    0 -0.48161313790E+03  0.77757544821E+03 -0.52424718703E+03  0.10542342744E+04  0.50400001928E-02 0. -1.
       -1    1    3    3    0  502  0.48161313790E+03 -0.77757544821E+03 -0.63841189215E+03  0.11154122719E+04  0.50400001928E-02 0.  1.
</event>
<event>
 5   0  0.1628397E-04  0.1803158E+04  0.7818609E-02  0.8704622E-01
        2   -1    0    0  501    0  0.00000000000E+00  0.00000000000E+00  0.62440640052E+03  0.62440640052E+03  0.25500000920E-02 0. -1.
       -2   -1    0    0    0  501  0.00000000000E+00  0.00000000000E+00 -0.13017881026E+04  0.13017881026E+04  0.25500000920E-02 0.  1.
    10030    2    1    2    0    0  0.00000000000E+00  0.00000000000E+00 -0.67738170206E+03  0.19261945031E+04  0.18031581443E+04 0.  0.
        3    1    3    3  502    0 -0.14241899262E+03 -0.64315309227E+03  0.31887257033E+03  0.73185298787E+03  0.10100000352E+00 0.  1.
       -3    1    3    3    0  502  0.14241899262E+03  0.64315309227E+03 -0.99625427238E+03  0.11943415152E+04  0.10100000352E+00 0. -1.
</event>
<event>
 5   0  0.1628397E-04  0.1807501E+04  0.7818609E-02  0.8702321E-01
        2   -1    0    0  501    0  0.00000000000E+00  0.00000000000E+00  0.15266303389E+04  0.15266303389E+04  0.25500000920E-02 0.  1.
       -2   -1    0    0    0  501  0.00000000000E+00  0.00000000000E+00 -0.53501147784E+03  0.53501147784E+03  0.25500000920E-02 0. -1.
    10030    2    1    2    0    0  0.00000000000E+00  0.00000000000E+00  0.99161886106E+03  0.20616418167E+04  0.18075007648E+04 0.  0.
        3    1    3    3  502    0  0.93104078571E+02 -0.46540757665E+03  0.13730308383E+04  0.14527512778E+04  0.10100000352E+00 0.  1.
       -3    1    3    3    0  502 -0.93104078571E+02  0.46540757665E+03 -0.38141197727E+03  0.60889053898E+03  0.10100000352E+00 0. -1.
</event>
<event>
 5   0  0.8430513E-05  0.1791860E+04  0.7818609E-02  0.8710640E-01
       -1   -1    0    0    0  501  0.00000000000E+00  0.00000000000E+00  0.10905713967E+04  0.10905713968E+04  0.50400001928E-02 0. -1.
        1   -1    0    0  501    0  0.00000000000E+00  0.00000000000E+00 -0.73602793156E+03  0.73602793158E+03  0.50400001928E-02 0.  1.
    10030    2    1    2    0    0  0.00000000000E+00  0.00000000000E+00  0.35454346518E+03  0.18265993283E+04  0.17918604961E+04 0.  0.
        5    1    3    3  502    0  0.45015297309E+03  0.62855431285E+03  0.63876332930E+03  0.10028753184E+04  0.46999998093E+01 0. -1.
       -5    1    3    3    0  502 -0.45015297309E+03 -0.62855431285E+03 -0.28421986412E+03  0.82372400994E+03  0.46999998093E+01 0.  1.
</event>
<event>
 5   0  0.8132598E-05  0.1774595E+04  0.7818609E-02  0.8719927E-01
        1   -1    0    0  501    0  0.00000000000E+00  0.00000000000E+00  0.11447973098E+04  0.11447973098E+04  0.50400001928E-02 0.  1.
       -1   -1    0    0    0  501  0.00000000000E+00  0.00000000000E+00 -0.68771748249E+03  0.68771748251E+03  0.50400001928E-02 0. -1.
    10030    2    1    2    0    0  0.00000000000E+00  0.00000000000E+00  0.45707982733E+03  0.18325147923E+04  0.17745953047E+04 0.  0.
        3    1    3    3  502    0 -0.84609688879E+03  0.10558426654E+02  0.50428656588E+03  0.98503623097E+03  0.10100000352E+00 0.  1.
       -3    1    3    3    0  502  0.84609688879E+03 -0.10558426654E+02 -0.47206738555E+02  0.84747856136E+03  0.10100000352E+00 0. -1.
</event>
<event>
 5   0  0.8132598E-05  0.1790277E+04  0.7818609E-02  0.8711487E-01
        1   -1    0    0  501    0  0.00000000000E+00  0.00000000000E+00  0.19942548388E+04  0.19942548388E+04  0.50400001928E-02 0.  1.
       -1   -1    0    0    0  501  0.00000000000E+00  0.00000000000E+00 -0.40179065816E+03  0.40179065819E+03  0.50400001928E-02 0. -1.
    10030    2    1    2    0    0  0.00000000000E+00  0.00000000000E+00  0.15924641807E+04  0.23960454970E+04  0.17902770336E+04 0.  0.
        3    1    3    3  502    0 -0.18136670696E+03 -0.25721268083E+03 -0.32529982372E+03  0.45262813776E+03  0.10100000352E+00 0. -1.
       -3    1    3    3    0  502  0.18136670696E+03  0.25721268083E+03  0.19177640044E+04  0.19434173593E+04  0.10100000352E+00 0.  1.
</event>
<event>
 5   0  0.1608627E-04  0.1920494E+04  0.7818609E-02  0.8644722E-01
        2   -1    0    0  501    0  0.00000000000E+00  0.00000000000E+00  0.24667397792E+04  0.24667397792E+04  0.25500000920E-02 0.  1.
       -2   -1    0    0    0  501  0.00000000000E+00  0.00000000000E+00 -0.37380281414E+03  0.37380281415E+03  0.25500000920E-02 0. -1.
    10030    2    1    2    0    0  0.00000000000E+00  0.00000000000E+00  0.20929369650E+04  0.28405425933E+04  0.19204939690E+04 0.  0.
        2    1    3    3  502    0  0.95816140300E+02 -0.81662650575E+02 -0.36154339270E+03  0.38283566455E+03  0.25500000920E-02 0. -1.
       -2    1    3    3    0  502 -0.95816140300E+02  0.81662650575E+02  0.24544803577E+04  0.24577069288E+04  0.25500000920E-02 0.  1.
</event>
<event>
 5   0  0.1608627E-04  0.1799103E+04  0.7818609E-02  0.8706777E-01
        2   -1    0    0  501    0  0.00000000000E+00  0.00000000000E+00  0.18190447408E+04  0.18190447408E+04  0.25500000920E-02 0.  1.
       -2   -1    0    0    0  501  0.00000000000E+00  0.00000000000E+00 -0.44484491791E+03  0.44484491791E+03  0.25500000920E-02 0. -1.
    10030    2    1    2    0    0  0.00000000000E+00  0.00000000000E+00  0.13741998229E+04  0.22638896588E+04  0.17991028969E+04 0.  0.
        2    1    3    3  502    0  0.15902913536E+03  0.27707116796E+03  0.17452570018E+04  0.17742549705E+04  0.25500000920E-02 0.  1.
       -2    1    3    3    0  502 -0.15902913536E+03 -0.27707116796E+03 -0.37105717883E+03  0.48963468829E+03  0.25500000920E-02 0. -1.
</event>
<event>
 5   0  0.8254914E-05  0.1795927E+04  0.7818609E-02  0.8708468E-01
       -1   -1    0    0    0  501  0.00000000000E+00  0.00000000000E+00  0.51898618169E+03  0.51898618172E+03  0.50400001928E-02 0. -1.
        1   -1    0    0  501    0  0.00000000000E+00  0.00000000000E+00 -0.15536805895E+04  0.15536805895E+04  0.50400001928E-02 0.  1.
    10030    2    1    2    0    0  0.00000000000E+00  0.00000000000E+00 -0.10346944078E+04  0.20726667712E+04  0.17959273446E+04 0.  0.
        4    1    3    3  502    0 -0.42266579337E+03 -0.75345069415E+03 -0.80004769408E+03  0.11774600830E+04  0.12699999809E+01 0. -1.
       -4    1    3    3    0  502  0.42266579337E+03  0.75345069415E+03 -0.23464671369E+03  0.89520668817E+03  0.12699999809E+01 0.  1.
</event>
<event>
 5   0  0.1573981E-04  0.1635864E+04  0.7818609E-02  0.8798814E-01
        2   -1    0    0  501    0  0.00000000000E+00  0.00000000000E+00  0.15991751735E+04  0.15991751735E+04  0.25500000920E-02 0.  1.
       -2   -1    0    0    0  501  0.00000000000E+00  0.00000000000E+00 -0.41834849534E+03  0.41834849535E+03  0.25500000920E-02 0. -1.
    10030    2    1    2    0    0  0.00000000000E+00  0.00000000000E+00  0.11808266781E+04  0.20175236688E+04  0.16358637200E+04 0.  0.
        1    1    3    3  502    0 -0.75454743207E+03 -0.56339743602E+02  0.97352676697E+03  0.12329924412E+04  0.50400001928E-02 0.  1.
       -1    1    3    3    0  502  0.75454743207E+03  0.56339743602E+02  0.20729991115E+03  0.78453122764E+03  0.50400001928E-02 0. -1.
</event>
<event>
 5   0  0.1603564E-04  0.1796433E+04  0.7818609E-02  0.8708199E-01
        2   -1    0    0  501    0  0.00000000000E+00  0.00000000000E+00  0.10267777477E+04  0.10267777477E+04  0.25500000920E-02 0. -1.
       -2   -1    0    0    0  501  0.00000000000E+00  0.00000000000E+00 -0.78575195057E+03  0.78575195057E+03  0.25500000920E-02 0.  1.
    10030    2    1    2    0    0  0.00000000000E+00  0.00000000000E+00  0.24102579711E+03  0.18125296983E+04  0.17964327074E+04 0.  0.
        5    1    3    3  502    0  0.61128306476E+03 -0.31344367615E+03 -0.46334023076E+03  0.82862547802E+03  0.46999998093E+01 0.  1.
       -5    1    3    3    0  502 -0.61128306476E+03  0.31344367615E+03  0.70436602788E+03  0.98390422024E+03  0.46999998093E+01 0. -1.
</event>
<event>
 5   0  0.1603564E-04  0.1794524E+04  0.7818609E-02  0.8709217E-01
       -2   -1    0    0    0  501  0.00000000000E+00  0.00000000000E+00  0.40065781328E+03  0.40065781328E+03  0.25500000920E-02 0.  1.
        2   -1    0    0  501    0  0.00000000000E+00  0.00000000000E+00 -0.20093941838E+04  0.20093941838E+04  0.25500000920E-02 0. -1.
    10030    2    1    2    0    0  0.00000000000E+00  0.00000000000E+00 -0.16087363705E+04  0.24100519970E+04  0.17945244269E+04 0.  0.
        5    1    3    3  502    0  0.88831074093E+03  0.75600715484E+02 -0.66842634830E+03  0.11142833184E+04  0.46999998093E+01 0.  1.
       -5    1    3    3    0  502 -0.88831074093E+03 -0.75600715484E+02 -0.94031002218E+03  0.12957686786E+04  0.46999998093E+01 0. -1.
</event>
<event>
 5   0  0.1608627E-04  0.1854759E+04  0.7818609E-02  0.8677709E-01
        2   -1    0    0  501    0  0.00000000000E+00  0.00000000000E+00  0.82262707986E+03  0.82262707986E+03  0.25500000920E-02 0.  1.
       -2   -1    0    0    0  501  0.00000000000E+00  0.00000000000E+00 -0.10454706241E+04  0.10454706241E+04  0.25500000920E-02 0. -1.
    10030    2    1    2    0    0  0.00000000000E+00  0.00000000000E+00 -0.22284354424E+03  0.18680977040E+04  0.18547586868E+04 0.  0.
        2    1    3    3  502    0  0.85919153003E+03  0.26413670771E+03  0.11837286983E+03  0.90663687436E+03  0.25500000920E-02 0. -1.
       -2    1    3    3    0  502 -0.85919153003E+03 -0.26413670771E+03 -0.34121641407E+03  0.96146082961E+03  0.25500000920E-02 0.  1.
</event>
<event>
 5   0  0.5820500E-05  0.1788005E+04  0.7818609E-02  0.8712704E-01
        3   -1    0    0  501    0  0.00000000000E+00  0.00000000000E+00  0.44824682089E+03  0.44824683227E+03  0.10100000352E+00 0. -1.
       -3   -1    0    0    0  501  0.00000000000E+00  0.00000000000E+00 -0.17830374246E+04  0.17830374274E+04  0.10100000352E+00 0.  1.
    10030    2    1    2    0    0  0.00000000000E+00  0.00000000000E+00 -0.13347906037E+04  0.22312842597E+04  0.17880054507E+04 0.  0.
        2    1    3    3  502    0  0.52801384093E+03  0.69862316140E+03 -0.44288123294E+03  0.98133415530E+03  0.25500000920E-02 0. -1.
       -2    1    3    3    0  502 -0.52801384093E+03 -0.69862316140E+03 -0.89190937072E+03  0.12499501044E+04  0.25500000920E-02 0.  1.
</event>
<event>
 5   0  0.1628397E-04  0.1809252E+04  0.7818609E-02  0.8701395E-01
        2   -1    0    0  501    0  0.00000000000E+00  0.00000000000E+00  0.70962857601E+03  0.70962857602E+03  0.25500000920E-02 0. -1.
       -2   -1    0    0    0  501  0.00000000000E+00  0.00000000000E+00 -0.11532068838E+04  0.11532068838E+04  0.25500000920E-02 0.  1.
    10030    2    1    2    0    0  0.00000000000E+00  0.00000000000E+00 -0.44357830774E+03  0.18628354598E+04  0.18092523967E+04 0.  0.
        3    1    3    3  502    0 -0.52801497888E+03  0.27308611801E+03  0.48029483407E+03  0.76423751779E+03  0.10100000352E+00 0. -1.
       -3    1    3    3    0  502  0.52801497888E+03 -0.27308611801E+03 -0.92387314181E+03  0.10985979420E+04  0.10100000352E+00 0.  1.
</event>
<event>
 5   0  0.8132598E-05  0.1806833E+04  0.7818609E-02  0.8702674E-01
        1   -1    0    0  501    0  0.00000000000E+00  0.00000000000E+00  0.97803003049E+03  0.97803003050E+03  0.50400001928E-02 0.  1.
       -1   -1    0    0    0  501  0.00000000000E+00  0.00000000000E+00 -0.83449565116E+03  0.83449565117E+03  0.50400001928E-02 0. -1.
    10030    2    1    2    0    0  0.00000000000E+00  0.00000000000E+00  0.14353437933E+03  0.18125256817E+04  0.18068334812E+04 0.  0.
        3    1    3    3  502    0  0.44121407840E+03 -0.77246135274E+03 -0.86194413563E+02  0.89375382046E+03  0.10100000352E+00 0.  1.
       -3    1    3    3    0  502 -0.44121407840E+03  0.77246135274E+03  0.22972879289E+03  0.91877186121E+03  0.10100000352E+00 0. -1.
</event>
<event>
 5   0  0.1549012E-04  0.1807843E+04  0.7818609E-02  0.8702140E-01
       -2   -1    0    0    0  501  0.00000000000E+00  0.00000000000E+00  0.81175998984E+03  0.81175998985E+03  0.25500000920E-02 0.  1.
        2   -1    0    0  501    0  0.00000000000E+00  0.00000000000E+00 -0.10065465591E+04  0.10065465591E+04  0.25500000920E-02 0. -1.
    10030    2    1    2    0    0  0.00000000000E+00  0.00000000000E+00 -0.19478656929E+03  0.18183065490E+04  0.18078431620E+04 0.  0.
        4    1    3    3  502    0 -0.84323655857E+03  0.32423140869E+03 -0.67241256185E+02  0.90592323048E+03  0.12699999809E+01 0. -1.
       -4    1    3    3    0  502  0.84323655857E+03 -0.32423140869E+03 -0.12754531310E+03  0.91238331850E+03  0.12699999809E+01 0.  1.
</event>
<event>
 5   0  0.8492114E-05  0.1812393E+04  0.7818609E-02  0.8699737E-01
        1   -1    0    0  501    0  0.00000000000E+00  0.00000000000E+00  0.87998509801E+03  0.87998509802E+03  0.50400001928E-02 0.  1.
       -1   -1    0    0    0  501  0.00000000000E+00  0.00000000000E+00 -0.93318840665E+03  0.93318840666E+03  0.50400001928E-02 0. -1.
    10030    2    1    2    0    0  0.00000000000E+00  0.00000000000E+00 -0.53203308638E+02  0.18131735047E+04  0.18123927737E+04 0.  0.
        2    1    3    3  502    0 -0.47634924002E+03  0.63727303746E+03  0.40736668311E+03  0.89385297295E+03  0.25500000920E-02 0.  1.
       -2    1    3    3    0  502  0.47634924002E+03 -0.63727303746E+03 -0.46056999175E+03  0.91932053173E+03  0.25500000920E-02 0. -1.
</event>
<event>
 5   0  0.8206783E-05  0.1799720E+04  0.7818609E-02  0.8706448E-01
        1   -1    0    0  501    0  0.00000000000E+00  0.00000000000E+00  0.12348832035E+04  0.12348832035E+04  0.50400001928E-02 0.  1.
       -1   -1    0    0    0  501  0.00000000000E+00  0.00000000000E+00 -0.65572863038E+03  0.65572863040E+03  0.50400001928E-02 0. -1.
    10030    2    1    2    0    0  0.00000000000E+00  0.00000000000E+00  0.57915457311E+03  0.18906118339E+04  0.17997202802E+04 0.  0.
        1    1    3    3  502    0  0.20934538536E+03 -0.36838083650E+03  0.11235327925E+04  0.12007730289E+04  0.50400001928E-02 0.  1.
       -1    1    3    3    0  502 -0.20934538536E+03  0.36838083650E+03 -0.54437821941E+03  0.68983880498E+03  0.50400001928E-02 0. -1.
</event>
<event>
 5   0  0.1603564E-04  0.1792290E+04  0.7818609E-02  0.8710410E-01
        2   -1    0    0  501    0  0.00000000000E+00  0.00000000000E+00  0.11734177009E+04  0.11734177009E+04  0.25500000920E-02 0.  1.
       -2   -1    0    0    0  501  0.00000000000E+00  0.00000000000E+00 -0.68439070233E+03  0.68439070233E+03  0.25500000920E-02 0. -1.
    10030    2    1    2    0    0  0.00000000000E+00  0.00000000000E+00  0.48902699856E+03  0.18578084032E+04  0.17922903386E+04 0.  0.
        5    1    3    3  502    0 -0.12037377263E+01 -0.50318982689E+03  0.10131406301E+04  0.11312283046E+04  0.46999998093E+01 0.  1.
       -5    1    3    3    0  502  0.12037377263E+01  0.50318982689E+03 -0.52411363154E+03  0.72658009857E+03  0.46999998093E+01 0. -1.
</event>
<event>
 5   0  0.8430513E-05  0.1800203E+04  0.7818609E-02  0.8706192E-01
        1   -1    0    0  501    0  0.00000000000E+00  0.00000000000E+00  0.16489030496E+04  0.16489030496E+04  0.50400001928E-02 0.  1.
       -1   -1    0    0    0  501  0.00000000000E+00  0.00000000000E+00 -0.49134638669E+03  0.49134638671E+03  0.50400001928E-02 0. -1.
    10030    2    1    2    0    0  0.00000000000E+00  0.00000000000E+00  0.11575566629E+04  0.21402494363E+04  0.18002028280E+04 0.  0.
        5    1    3    3  502    0 -0.12352971270E+02  0.21028337492E+03 -0.46161473416E+03  0.50742678926E+03  0.46999998093E+01 0. -1.
       -5    1    3    3    0  502  0.12352971270E+02 -0.21028337492E+03  0.16191713971E+04  0.16328226471E+04  0.46999998093E+01 0.  1.
</event>
<event>
 5   0  0.1628397E-04  0.1798502E+04  0.7818609E-02  0.8707096E-01
        2   -1    0    0  501    0  0.00000000000E+00  0.00000000000E+00  0.55567907335E+03  0.55567907335E+03  0.25500000920E-02 0. -1.
       -2   -1    0    0    0  501  0.00000000000E+00  0.00000000000E+00 -0.14552514723E+04  0.14552514723E+04  0.25500000920E-02 0.  1.
    10030    2    1    2    0    0  0.00000000000E+00  0.00000000000E+00 -0.89957239898E+03  0.20109305457E+04  0.17985024767E+04 0.  0.
        3    1    3    3  502    0 -0.62283020278E+03 -0.12913506973E+02  0.27532469818E+03  0.68109317996E+03  0.10100000352E+00 0. -1.
       -3    1    3    3    0  502  0.62283020278E+03  0.12913506973E+02 -0.11748970972E+04  0.13298373657E+04  0.10100000352E+00 0.  1.
</event>
<event>
 5   0  0.1573981E-04  0.1808846E+04  0.7818609E-02  0.8701609E-01
       -2   -1    0    0    0  501  0.00000000000E+00  0.00000000000E+00  0.43909566456E+03  0.43909566457E+03  0.25500000920E-02 0.  1.
        2   -1    0    0  501    0  0.00000000000E+00  0.00000000000E+00 -0.18628765257E+04  0.18628765257E+04  0.25500000920E-02 0. -1.
    10030    2    1    2    0    0  0.00000000000E+00  0.00000000000E+00 -0.14237808611E+04  0.23019721903E+04  0.18088460477E+04 0.  0.
        1    1    3    3  502    0  0.29295056249E+02 -0.42149459647E+03  0.30577938785E+03  0.52155242233E+03  0.50400001928E-02 0.  1.
       -1    1    3    3    0  502 -0.29295056249E+02  0.42149459647E+03 -0.17295602490E+04  0.17804197679E+04  0.50400001928E-02 0. -1.
</event>
<event>
 5   0  0.8492114E-05  0.1799768E+04  0.7818609E-02  0.8706423E-01
        1   -1    0    0  501    0  0.00000000000E+00  0.00000000000E+00  0.99165608400E+03  0.99165608402E+03  0.50400001928E-02 0. -1.
       -1   -1    0    0    0  501  0.00000000000E+00  0.00000000000E+00 -0.81660455715E+03  0.81660455717E+03  0.50400001928E-02 0.  1.
    10030    2    1    2    0    0  0.00000000000E+00  0.00000000000E+00  0.17505152685E+03  0.18082606412E+04  0.17997676265E+04 0.  0.
        2    1    3    3  502    0 -0.34062335857E+03 -0.37282144051E+03  0.83586993842E+03  0.97657496019E+03  0.25500000920E-02 0. -1.
       -2    1    3    3    0  502  0.34062335857E+03  0.37282144051E+03 -0.66081841156E+03  0.83168568100E+03  0.25500000920E-02 0.  1.
</event>
<event>
 5   0  0.8492114E-05  0.1780818E+04  0.7818609E-02  0.8716567E-01
       -1   -1    0    0    0  501  0.00000000000E+00  0.00000000000E+00  0.39494078885E+03  0.39494078889E+03  0.50400001928E-02 0. -1.
        1   -1    0    0  501    0  0.00000000000E+00  0.00000000000E+00 -0.20074617804E+04  0.20074617804E+04  0.50400001928E-02 0.  1.
    10030    2    1    2    0    0  0.00000000000E+00  0.00000000000E+00 -0.16125209916E+04  0.24024025693E+04  0.17808183952E+04 0.  0.
        2    1    3    3  502    0 -0.27559077557E+03  0.42085989896E+03  0.18485569705E+03  0.53595238489E+03  0.25500000920E-02 0. -1.
       -2    1    3    3    0  502  0.27559077557E+03 -0.42085989896E+03 -0.17973766886E+04  0.18664501844E+04  0.25500000920E-02 0.  1.
</event>
<event>
 5   0  0.1628397E-04  0.1795874E+04  0.7818609E-02  0.8708497E-01
       -2   -1    0    0    0  501  0.00000000000E+00  0.00000000000E+00  0.93860657705E+03  0.93860657706E+03  0.25500000920E-02 0.  1.
        2   -1    0    0  501    0  0.00000000000E+00  0.00000000000E+00 -0.85902974577E+03  0.85902974577E+03  0.25500000920E-02 0. -1.
    10030    2    1    2    0    0  0.00000000000E+00  0.00000000000E+00  0.79576831282E+02  0.17976363228E+04  0.17958741262E+04 0.  0.
        3    1    3    3  502    0 -0.65512078491E+02  0.36002959825E+03 -0.78100266634E+03  0.86248380801E+03  0.10100000352E+00 0. -1.
       -3    1    3    3    0  502  0.65512078491E+02 -0.36002959825E+03  0.86057949762E+03  0.93515251482E+03  0.10100000352E+00 0.  1.
</event>
<event>
 5   0  0.1628397E-04  0.1834715E+04  0.7818609E-02  0.8688053E-01
        2   -1    0    0  501    0  0.00000000000E+00  0.00000000000E+00  0.18276403050E+04  0.18276403051E+04  0.25500000920E-02 0. -1.
       -2   -1    0    0    0  501  0.00000000000E+00  0.00000000000E+00 -0.46045424493E+03  0.46045424494E+03  0.25500000920E-02 0.  1.
    10030    2    1    2    0    0  0.00000000000E+00  0.00000000000E+00  0.13671860601E+04  0.22880945500E+04  0.18347149497E+04 0.  0.
        3    1    3    3  502    0 -0.30536577701E+03  0.61413161062E+03 -0.76161968716E+02  0.69007720482E+03  0.10100000352E+00 0. -1.
       -3    1    3    3    0  502  0.30536577701E+03 -0.61413161062E+03  0.14433480288E+04  0.15980173452E+04  0.10100000352E+00 0.  1.
</event>
<event>
 5   0  0.8254914E-05  0.1793807E+04  0.7818609E-02  0.8709600E-01
       -1   -1    0    0    0  501  0.00000000000E+00  0.00000000000E+00  0.40809326608E+03  0.40809326611E+03  0.50400001928E-02 0.  1.
        1   -1    0    0  501    0  0.00000000000E+00  0.00000000000E+00 -0.19712064660E+04  0.19712064661E+04  0.50400001928E-02 0. -1.
    10030    2    1    2    0    0  0.00000000000E+00  0.00000000000E+00 -0.15631132000E+04  0.23792997322E+04  0.17938072192E+04 0.  0.
        4    1    3    3  502    0 -0.41983188698E+03  0.23214785945E+03  0.22360613597E+03  0.52929458614E+03  0.12699999809E+01 0.  1.
       -4    1    3    3    0  502  0.41983188698E+03 -0.23214785945E+03 -0.17867193359E+04  0.18500051460E+04  0.12699999809E+01 0. -1.
</event>
<event>
 5   0  0.8254914E-05  0.1800718E+04  0.7818609E-02  0.8705918E-01
       -1   -1    0    0    0  501  0.00000000000E+00  0.00000000000E+00  0.10846674953E+04  0.10846674953E+04  0.50400001928E-02 0.  1.
        1   -1    0    0  501    0  0.00000000000E+00  0.00000000000E+00 -0.74736828987E+03  0.74736828989E+03  0.50400001928E-02 0. -1.
    10030    2    1    2    0    0  0.00000000000E+00  0.00000000000E+00  0.33729920542E+03  0.18320357852E+04  0.18007177359E+04 0.  0.
        4    1    3    3  502    0 -0.65122493763E+03 -0.42322465006E+03 -0.29471794731E+03  0.83070650965E+03  0.12699999809E+01 0. -1.
       -4    1    3    3    0  502  0.65122493763E+03  0.42322465006E+03  0.63201715273E+03  0.10013292755E+04  0.12699999809E+01 0.  1.
</event>
<event>
 5   0  0.8206783E-05  0.1825529E+04  0.7818609E-02  0.8692840E-01
        1   -1    0    0  501    0  0.00000000000E+00  0.00000000000E+00  0.13131159307E+04  0.13131159307E+04  0.50400001928E-02 0. -1.
       -1   -1    0    0    0  501  0.00000000000E+00  0.00000000000E+00 -0.63447463390E+03  0.63447463392E+03  0.50400001928E-02 0.  1.
    10030    2    1    2    0    0  0.00000000000E+00  0.00000000000E+00  0.67864129682E+03  0.19475905647E+04  0.18255286899E+04 0.  0.
        1    1    3    3  502    0  0.83811457396E+03  0.28477699595E+03  0.57693394085E+03  0.10565920446E+04  0.50400001928E-02 0. -1.
       -1    1    3    3    0  502 -0.83811457396E+03 -0.28477699595E+03  0.10170735597E+03  0.89099852009E+03  0.50400001928E-02 0.  1.
</event>
<event>
 5   0  0.8206783E-05  0.1794655E+04  0.7818609E-02  0.8709147E-01
        1   -1    0    0  501    0  0.00000000000E+00  0.00000000000E+00  0.12100858990E+04  0.12100858990E+04  0.50400001928E-02 0.  1.
       -1   -1    0    0    0  501  0.00000000000E+00  0.00000000000E+00 -0.66540475454E+03  0.66540475456E+03  0.50400001928E-02 0. -1.
    10030    2    1    2    0    0  0.00000000000E+00  0.00000000000E+00  0.54468114449E+03  0.18754906536E+04  0.17946552991E+04 0.  0.
        1    1    3    3  502    0  0.84353044428E+02 -0.80176590761E+03 -0.13942850072E+03  0.81815910039E+03  0.50400001928E-02 0.  1.
       -1    1    3    3    0  502 -0.84353044428E+02  0.80176590761E+03  0.68410964521E+03  0.10573315532E+04  0.50400001928E-02 0. -1.
</event>
<event>
 5   0  0.8492114E-05  0.1807208E+04  0.7818609E-02  0.8702476E-01
        1   -1    0    0  501    0  0.00000000000E+00  0.00000000000E+00  0.14243623805E+04  0.14243623805E+04  0.50400001928E-02 0.  1.
       -1   -1    0    0    0  501  0.00000000000E+00  0.00000000000E+00 -0.57323879205E+03  0.57323879208E+03  0.50400001928E-02 0. -1.
    10030    2    1    2    0    0  0.00000000000E+00  0.00000000000E+00  0.85112358844E+03  0.19976011726E+04  0.18072075370E+04 0.  0.
        2    1    3    3  502    0  0.53984342584E+03 -0.72458819681E+03  0.41850214098E+03  0.99579265984E+03  0.25500000920E-02 0. -1.
       -2    1    3    3    0  502 -0.53984342584E+03  0.72458819681E+03  0.43262144746E+03  0.10018085127E+04  0.25500000920E-02 0.  1.
</event>
<event>
 5   0  0.8430513E-05  0.1819980E+04  0.7818609E-02  0.8695746E-01
        1   -1    0    0  501    0  0.00000000000E+00  0.00000000000E+00  0.69229009504E+03  0.69229009506E+03  0.50400001928E-02 0. -1.
       -1   -1    0    0    0  501  0.00000000000E+00  0.00000000000E+00 -0.11961486372E+04  0.11961486373E+04  0.50400001928E-02 0.  1.
    10030    2    1    2    0    0  0.00000000000E+00  0.00000000000E+00 -0.50385854221E+03  0.18884387323E+04  0.18199800590E+04 0.  0.
        5    1    3    3  502    0 -0.32553049018E+03  0.79610147120E+03 -0.56028101123E+03  0.10264913804E+04  0.46999998093E+01 0.  1.
       -5    1    3    3    0  502  0.32553049018E+03 -0.79610147120E+03  0.56422469021E+02  0.86194735192E+03  0.46999998093E+01 0. -1.
</event>
<event>
 5   0  0.8492114E-05  0.1798764E+04  0.7818609E-02  0.8706957E-01
        1   -1    0    0  501    0  0.00000000000E+00  0.00000000000E+00  0.85340852661E+03  0.85340852662E+03  0.50400001928E-02 0.  1.
       -1   -1    0    0    0  501  0.00000000000E+00  0.00000000000E+00 -0.94783185752E+03  0.94783185753E+03  0.50400001928E-02 0. -1.
    10030    2    1    2    0    0  0.00000000000E+00  0.00000000000E+00 -0.94423330913E+02  0.18012403842E+04  0.17987637855E+04 0.  0.
        2    1    3    3  502    0  0.28042193177E+03 -0.12393474244E+03 -0.89388836732E+03  0.94500407060E+03  0.25500000920E-02 0. -1.
       -2    1    3    3    0  502 -0.28042193177E+03  0.12393474244E+03  0.79946503641E+03  0.85623631356E+03  0.25500000920E-02 0.  1.
</event>
<event>
 5   0  0.1573981E-04  0.1689343E+04  0.7818609E-02  0.8767466E-01
       -2   -1    0    0    0  501  0.00000000000E+00  0.00000000000E+00  0.72244624543E+03  0.72244624543E+03  0.25500000920E-02 0. -1.
        2   -1    0    0  501    0  0.00000000000E+00  0.00000000000E+00 -0.98757454985E+03  0.98757454986E+03  0.25500000920E-02 0.  1.
    10030    2    1    2    0    0  0.00000000000E+00  0.00000000000E+00 -0.26512830442E+03  0.17100207953E+04  0.16893425060E+04 0.  0.
        1    1    3    3  502    0 -0.49125346424E+03 -0.73242732938E+02  0.55900801210E+03  0.74778634761E+03  0.50400001928E-02 0. -1.
       -1    1    3    3    0  502  0.49125346424E+03  0.73242732938E+02 -0.82413631653E+03  0.96223444768E+03  0.50400001928E-02 0.  1.
</event>
<event>
 5   0  0.1573981E-04  0.1793817E+04  0.7818609E-02  0.8709594E-01
       -2   -1    0    0    0  501  0.00000000000E+00  0.00000000000E+00  0.52850729590E+03  0.52850729591E+03  0.25500000920E-02 0. -1.
        2   -1    0    0  501    0  0.00000000000E+00  0.00000000000E+00 -0.15221079076E+04  0.15221079076E+04  0.25500000920E-02 0.  1.
    10030    2    1    2    0    0  0.00000000000E+00  0.00000000000E+00 -0.99360061166E+03  0.20506152035E+04  0.17938173088E+04 0.  0.
        1    1    3    3  502    0  0.59740346087E+03  0.86104812047E+02 -0.12552058186E+04  0.13927837524E+04  0.50400001928E-02 0.  1.
       -1    1    3    3    0  502 -0.59740346087E+03 -0.86104812047E+02  0.26160520698E+03  0.65783145110E+03  0.50400001928E-02 0. -1.
</event>
<event>
 5   0  0.1608627E-04  0.1769543E+04  0.7818609E-02  0.8722666E-01
       -2   -1    0    0    0  501  0.00000000000E+00  0.00000000000E+00  0.10117077682E+04  0.10117077682E+04  0.25500000920E-02 0. -1.
        2   -1    0    0  501    0  0.00000000000E+00  0.00000000000E+00 -0.77376194418E+03  0.77376194418E+03  0.25500000920E-02 0.  1.
    10030    2    1    2    0    0  0.00000000000E+00  0.00000000000E+00  0.23794582400E+03  0.17854697124E+04  0.17695434096E+04 0.  0.
        2    1    3    3  502    0 -0.33645802796E+01 -0.54230387380E+03  0.82434718442E+03  0.98673861402E+03  0.25500000920E-02 0. -1.
       -2    1    3    3    0  502  0.33645802796E+01  0.54230387380E+03 -0.58640136042E+03  0.79873109834E+03  0.25500000920E-02 0.  1.
</event>
<event>
 5   0  0.8254914E-05  0.1796419E+04  0.7818609E-02  0.8708206E-01
        1   -1    0    0  501    0  0.00000000000E+00  0.00000000000E+00  0.20359745110E+04  0.20359745110E+04  0.50400001928E-02 0.  1.
       -1   -1    0    0    0  501  0.00000000000E+00  0.00000000000E+00 -0.39626260956E+03  0.39626260959E+03  0.50400001928E-02 0. -1.
    10030    2    1    2    0    0  0.00000000000E+00  0.00000000000E+00  0.16397119015E+04  0.24322371206E+04  0.17964192971E+04 0.  0.
        4    1    3    3  502    0 -0.42825321726E+03  0.10491897111E+03  0.18793663107E+04  0.19303958535E+04  0.12699999809E+01 0.  1.
       -4    1    3    3    0  502  0.42825321726E+03 -0.10491897111E+03 -0.23965440924E+03  0.50184126709E+03  0.12699999809E+01 0. -1.
</event>
<event>
 5   0  0.8254914E-05  0.1805518E+04  0.7818609E-02  0.8703370E-01
        1   -1    0    0  501    0  0.00000000000E+00  0.00000000000E+00  0.21715481012E+04  0.21715481012E+04  0.50400001928E-02 0.  1.
       -1   -1    0    0    0  501  0.00000000000E+00  0.00000000000E+00 -0.37529633406E+03  0.37529633409E+03  0.50400001928E-02 0. -1.
    10030    2    1    2    0    0  0.00000000000E+00  0.00000000000E+00  0.17962517671E+04  0.25468444353E+04  0.18055182543E+04 0.  0.
        4    1    3    3  502    0 -0.16145916661E+03 -0.66159291195E+03  0.17340688853E+04  0.18630004711E+04  0.12699999809E+01 0.  1.
       -4    1    3    3    0  502  0.16145916661E+03  0.66159291195E+03  0.62182881862E+02  0.68384396417E+03  0.12699999809E+01 0. -1.
</event>
<event>
 5   0  0.8206783E-05  0.1793557E+04  0.7818609E-02  0.8709734E-01
       -1   -1    0    0    0  501  0.00000000000E+00  0.00000000000E+00  0.39535406014E+03  0.39535406017E+03  0.50400001928E-02 0. -1.
        1   -1    0    0  501    0  0.00000000000E+00  0.00000000000E+00 -0.20341546797E+04  0.20341546797E+04  0.50400001928E-02 0.  1.
    10030    2    1    2    0    0  0.00000000000E+00  0.00000000000E+00 -0.16388006196E+04  0.24295087399E+04  0.17935565914E+04 0.  0.
        1    1    3    3  502    0  0.89527119954E+03  0.15275637541E+02 -0.75211392585E+03  0.11693670182E+04  0.50400001928E-02 0.  1.
       -1    1    3    3    0  502 -0.89527119954E+03 -0.15275637541E+02 -0.88668669372E+03  0.12601417217E+04  0.50400001928E-02 0. -1.
</event>
<event>
 5   0  0.8492114E-05  0.1797095E+04  0.7818609E-02  0.8707846E-01
        1   -1    0    0  501    0  0.00000000000E+00  0.00000000000E+00  0.14438685224E+04  0.14438685224E+04  0.50400001928E-02 0.  1.
       -1   -1    0    0    0  501  0.00000000000E+00  0.00000000000E+00 -0.55918339672E+03  0.55918339674E+03  0.50400001928E-02 0. -1.
    10030    2    1    2    0    0  0.00000000000E+00  0.00000000000E+00  0.88468512567E+03  0.20030519191E+04  0.17970946606E+04 0.  0.
        2    1    3    3  502    0 -0.26795145376E+03 -0.22171839065E+03 -0.48112037143E+03  0.59366138340E+03  0.25500000920E-02 0. -1.
       -2    1    3    3    0  502  0.26795145376E+03  0.22171839065E+03  0.13658054971E+04  0.14093905357E+04  0.25500000920E-02 0.  1.
</event>
<event>
 5   0  0.8492114E-05  0.1778182E+04  0.7818609E-02  0.8717989E-01
       -1   -1    0    0    0  501  0.00000000000E+00  0.00000000000E+00  0.40888203351E+03  0.40888203354E+03  0.50400001928E-02 0.  1.
        1   -1    0    0  501    0  0.00000000000E+00  0.00000000000E+00 -0.19332776575E+04  0.19332776575E+04  0.50400001928E-02 0. -1.
    10030    2    1    2    0    0  0.00000000000E+00  0.00000000000E+00 -0.15243956240E+04  0.23421596910E+04  0.17781816555E+04 0.  0.
        2    1    3    3  502    0 -0.15528787197E+03  0.30971787092E+03  0.31630507706E+03  0.46913578474E+03  0.25500000920E-02 0.  1.
       -2    1    3    3    0  502  0.15528787197E+03 -0.30971787092E+03 -0.18407007010E+04  0.18730239063E+04  0.25500000920E-02 0. -1.
</event>
<event>
 5   0  0.1628397E-04  0.1742115E+04  0.7818609E-02  0.8737702E-01
        2   -1    0    0  501    0  0.00000000000E+00  0.00000000000E+00  0.15795578416E+04  0.15795578416E+04  0.25500000920E-02 0. -1.
       -2   -1    0    0    0  501  0.00000000000E+00  0.00000000000E+00 -0.48035050050E+03  0.48035050051E+03  0.25500000920E-02 0.  1.
    10030    2    1    2    0    0  0.00000000000E+00  0.00000000000E+00  0.10992073411E+04  0.20599083421E+04  0.17421152658E+04 0.  0.
        3    1    3    3  502    0 -0.33985945478E+03  0.31548254098E+03  0.14214777261E+04  0.14952032032E+04  0.10100000352E+00 0. -1.
       -3    1    3    3    0  502  0.33985945478E+03 -0.31548254098E+03 -0.32227038504E+03  0.56470513894E+03  0.10100000352E+00 0.  1.
</event>
<event>
 5   0  0.1573981E-04  0.1799175E+04  0.7818609E-02  0.8706739E-01
       -2   -1    0    0    0  501  0.00000000000E+00  0.00000000000E+00  0.89600110461E+03  0.89600110462E+03  0.25500000920E-02 0.  1.
        2   -1    0    0  501    0  0.00000000000E+00  0.00000000000E+00 -0.90318783264E+03  0.90318783264E+03  0.25500000920E-02 0. -1.
    10030    2    1    2    0    0  0.00000000000E+00  0.00000000000E+00 -0.71867280263E+01  0.17991889373E+04  0.17991745838E+04 0.  0.
        1    1    3    3  502    0 -0.55511984247E+03 -0.68753179446E+03 -0.17211559085E+03  0.90026761828E+03  0.50400001928E-02 0.  1.
       -1    1    3    3    0  502  0.55511984247E+03  0.68753179446E+03  0.16492886282E+03  0.89892131897E+03  0.50400001928E-02 0. -1.
</event>
<event>
 5   0  0.1628397E-04  0.1775135E+04  0.7818609E-02  0.8719635E-01
        2   -1    0    0  501    0  0.00000000000E+00  0.00000000000E+00  0.18266638095E+04  0.18266638095E+04  0.25500000920E-02 0.  1.
       -2   -1    0    0    0  501  0.00000000000E+00  0.00000000000E+00 -0.43126515397E+03  0.43126515398E+03  0.25500000920E-02 0. -1.
    10030    2    1    2    0    0  0.00000000000E+00  0.00000000000E+00  0.13953986555E+04  0.22579289635E+04  0.17751354304E+04 0.  0.
        3    1    3    3  502    0  0.54857821039E+03 -0.76139473485E+02 -0.18450646316E+03  0.58376186711E+03  0.10100000352E+00 0. -1.
       -3    1    3    3    0  502 -0.54857821039E+03  0.76139473485E+02  0.15799051187E+04  0.16741670963E+04  0.10100000352E+00 0.  1.
</event>
<event>
 5   0  0.8206783E-05  0.1787017E+04  0.7818609E-02  0.8713235E-01
       -1   -1    0    0    0  501  0.00000000000E+00  0.00000000000E+00  0.38714938860E+03  0.38714938864E+03  0.50400001928E-02 0.  1.
        1   -1    0    0  501    0  0.00000000000E+00  0.00000000000E+00 -0.20621421310E+04  0.20621421310E+04  0.50400001928E-02 0. -1.
    10030    2    1    2    0    0  0.00000000000E+00  0.00000000000E+00 -0.16749927424E+04  0.24492915196E+04  0.17870165811E+04 0.  0.
        1    1    3    3  502    0 -0.95622214420E+02 -0.85543115883E+02 -0.20494509557E+04  0.20534630390E+04  0.50400001928E-02 0. -1.
       -1    1    3    3    0  502  0.95622214420E+02  0.85543115883E+02  0.37445821331E+03  0.39582848067E+03  0.50400001928E-02 0.  1.
</event>
<event>
 5   0  0.1608627E-04  0.1736159E+04  0.7818609E-02  0.8741006E-01
       -2   -1    0    0    0  501  0.00000000000E+00  0.00000000000E+00  0.57849129699E+03  0.57849129700E+03  0.25500000920E-02 0. -1.
        2   -1    0    0  501    0  0.00000000000E+00  0.00000000000E+00 -0.13026339033E+04  0.13026339033E+04  0.25500000920E-02 0.  1.
    10030    2    1    2    0    0  0.00000000000E+00  0.00000000000E+00 -0.72414260634E+03  0.18811252003E+04  0.17361594123E+04 0.  0.
        2    1    3    3  502    0 -0.45289844602E+03  0.23044776983E+03  0.40049823211E+03  0.64701005476E+03  0.25500000920E-02 0. -1.
       -2    1    3    3    0  502  0.45289844602E+03 -0.23044776983E+03 -0.11246408385E+04  0.12341151456E+04  0.25500000920E-02 0.  1.
</event>
<event>
 5   0  0.1608627E-04  0.1801126E+04  0.7818609E-02  0.8705701E-01
       -2   -1    0    0    0  501  0.00000000000E+00  0.00000000000E+00  0.65078021194E+03  0.65078021194E+03  0.25500000920E-02 0. -1.
        2   -1    0    0  501    0  0.00000000000E+00  0.00000000000E+00 -0.12462180687E+04  0.12462180687E+04  0.25500000920E-02 0.  1.
    10030    2    1    2    0    0  0.00000000000E+00  0.00000000000E+00 -0.59543785676E+03  0.18969982806E+04  0.18011263797E+04 0.  0.
        2    1    3    3  502    0  0.36952265366E+03 -0.24691527578E+03 -0.11226734424E+04  0.12074393580E+04  0.25500000920E-02 0.  1.
       -2    1    3    3    0  502 -0.36952265366E+03  0.24691527578E+03  0.52723558566E+03  0.68955892262E+03  0.25500000920E-02 0. -1.
</event>
<event>
 5   0  0.8206783E-05  0.1796619E+04  0.7818609E-02  0.8708100E-01
        1   -1    0    0  501    0  0.00000000000E+00  0.00000000000E+00  0.14808975658E+04  0.14808975658E+04  0.50400001928E-02 0.  1.
       -1   -1    0    0    0  501  0.00000000000E+00  0.00000000000E+00 -0.54491260548E+03  0.54491260551E+03  0.50400001928E-02 0. -1.
    10030    2    1    2    0    0  0.00000000000E+00  0.00000000000E+00  0.93598496033E+03  0.20258101713E+04  0.17966187699E+04 0.  0.
        1    1    3    3  502    0 -0.42654245793E+03  0.50775074942E+03  0.11512750402E+04  0.13286020887E+04  0.50400001928E-02 0.  1.
       -1    1    3    3    0  502  0.42654245793E+03 -0.50775074942E+03 -0.21529007985E+03  0.69720808262E+03  0.50400001928E-02 0. -1.
</event>
<event>
 5   0  0.8254914E-05  0.1786765E+04  0.7818609E-02  0.8713370E-01
        1   -1    0    0  501    0  0.00000000000E+00  0.00000000000E+00  0.12502820958E+04  0.12502820958E+04  0.50400001928E-02 0. -1.
       -1   -1    0    0    0  501  0.00000000000E+00  0.00000000000E+00 -0.63836159614E+03  0.63836159616E+03  0.50400001928E-02 0.  1.
    10030    2    1    2    0    0  0.00000000000E+00  0.00000000000E+00  0.61192049970E+03  0.18886436920E+04  0.17867647572E+04 0.  0.
        4    1    3    3  502    0 -0.34876807409E+03 -0.81716922898E+03  0.20722235408E+03  0.91233077073E+03  0.12699999809E+01 0. -1.
       -4    1    3    3    0  502  0.34876807409E+03  0.81716922898E+03  0.40469814561E+03  0.97631292128E+03  0.12699999809E+01 0.  1.
</event>
<event>
 5   0  0.8430513E-05  0.1816132E+04  0.7818609E-02  0.8697767E-01
       -1   -1    0    0    0  501  0.00000000000E+00  0.00000000000E+00  0.49202852378E+03  0.49202852380E+03  0.50400001928E-02 0.  1.
        1   -1    0    0  501    0  0.00000000000E+00  0.00000000000E+00 -0.16758865295E+04  0.16758865295E+04  0.50400001928E-02 0. -1.
    10030    2    1    2    0    0  0.00000000000E+00  0.00000000000E+00 -0.11838580057E+04  0.21679150533E+04  0.18161321264E+04 0.  0.
        5    1    3    3  502    0  0.62826269007E+03  0.44983778378E+03 -0.11612794240E+04  0.13948691803E+04  0.46999998093E+01 0. -1.
       -5    1    3    3    0  502 -0.62826269007E+03 -0.44983778378E+03 -0.22578581702E+02  0.77304587303E+03  0.46999998093E+01 0.  1.
</event>
<event>
 5   0  0.1549012E-04  0.1792071E+04  0.7818609E-02  0.8710528E-01
       -2   -1    0    0    0  501  0.00000000000E+00  0.00000000000E+00  0.38247967251E+03  0.38247967252E+03  0.25500000920E-02 0.  1.
        2   -1    0    0  501    0  0.00000000000E+00  0.00000000000E+00 -0.20991425854E+04  0.20991425854E+04  0.25500000920E-02 0. -1.
    10030    2    1    2    0    0  0.00000000000E+00  0.00000000000E+00 -0.17166629129E+04  0.24816222579E+04  0.17920707225E+04 0.  0.
        4    1    3    3  502    0  0.24089957905E+03 -0.51556273185E+03 -0.18167749626E+04  0.19038147008E+04  0.12699999809E+01 0. -1.
       -4    1    3    3    0  502 -0.24089957905E+03  0.51556273185E+03  0.10011204965E+03  0.57780755710E+03  0.12699999809E+01 0.  1.
</event>
<event>
 5   0  0.8430513E-05  0.1813431E+04  0.7818609E-02  0.8699189E-01
        1   -1    0    0  501    0  0.00000000000E+00  0.00000000000E+00  0.12034040692E+04  0.12034040692E+04  0.50400001928E-02 0.  1.
       -1   -1    0    0    0  501  0.00000000000E+00  0.00000000000E+00 -0.68317295701E+03  0.68317295703E+03  0.50400001928E-02 0. -1.
    10030    2    1    2    0    0  0.00000000000E+00  0.00000000000E+00  0.52023111216E+03  0.18865770262E+04  0.18134311307E+04 0.  0.
        5    1    3    3  502    0 -0.84385191772E+03 -0.31306936127E+03  0.37413815663E+03  0.97473069832E+03  0.46999998093E+01 0. -1.
       -5    1    3    3    0  502  0.84385191772E+03  0.31306936127E+03  0.14609295552E+03  0.91184632787E+03  0.46999998093E+01 0.  1.
</event>
<event>
 5   0  0.1573981E-04  0.1883375E+04  0.7818609E-02  0.8663176E-01
       -2   -1    0    0    0  501  0.00000000000E+00  0.00000000000E+00  0.11586956811E+04  0.11586956811E+04  0.25500000920E-02 0. -1.
        2   -1    0    0  501    0  0.00000000000E+00  0.00000000000E+00 -0.76532233459E+03  0.76532233459E+03  0.25500000920E-02 0.  1.
    10030    2    1    2    0    0  0.00000000000E+00  0.00000000000E+00  0.39337334648E+03  0.19240180157E+04  0.18833753569E+04 0.  0.
        1    1    3    3  502    0 -0.32417005245E+03 -0.81511162644E+03  0.54654229185E+03  0.10335384189E+04  0.50400001928E-02 0. -1.
       -1    1    3    3    0  502  0.32417005245E+03  0.81511162644E+03 -0.15316894537E+03  0.89047959680E+03  0.50400001928E-02 0.  1.
</event>
<event>
 5   0  0.8430513E-05  0.1795587E+04  0.7818609E-02  0.8708650E-01
       -1   -1    0    0    0  501  0.00000000000E+00  0.00000000000E+00  0.12162593100E+04  0.12162593100E+04  0.50400001928E-02 0. -1.
        1   -1    0    0  501    0  0.00000000000E+00  0.00000000000E+00 -0.66271500475E+03  0.66271500477E+03  0.50400001928E-02 0.  1.
    10030    2    1    2    0    0  0.00000000000E+00  0.00000000000E+00  0.55354430522E+03  0.18789743148E+04  0.17955871401E+04 0.  0.
        5    1    3    3  502    0 -0.17553691026E+03  0.43122669080E+03  0.10800412038E+04  0.11761295667E+04  0.46999998093E+01 0. -1.
       -5    1    3    3    0  502  0.17553691026E+03 -0.43122669080E+03 -0.52649689856E+03  0.70284474809E+03  0.46999998093E+01 0.  1.
</event>
<event>
 5   0  0.8132598E-05  0.1801419E+04  0.7818609E-02  0.8705545E-01
       -1   -1    0    0    0  501  0.00000000000E+00  0.00000000000E+00  0.58629502739E+03  0.58629502741E+03  0.50400001928E-02 0. -1.
        1   -1    0    0  501    0  0.00000000000E+00  0.00000000000E+00 -0.13837361000E+04  0.13837361000E+04  0.50400001928E-02 0.  1.
    10030    2    1    2    0    0  0.00000000000E+00  0.00000000000E+00 -0.79744107260E+03  0.19700311274E+04  0.18014189903E+04 0.  0.
        3    1    3    3  502    0 -0.64168937590E+03 -0.50085077872E+03 -0.82037492357E+03  0.11556953678E+04  0.10100000352E+00 0.  1.
       -3    1    3    3    0  502  0.64168937590E+03  0.50085077872E+03  0.22933850969E+02  0.81433575963E+03  0.10100000352E+00 0. -1.
</event>
<event>
 5   0  0.8132598E-05  0.1778996E+04  0.7818609E-02  0.8717550E-01
        1   -1    0    0  501    0  0.00000000000E+00  0.00000000000E+00  0.76475723361E+03  0.76475723362E+03  0.50400001928E-02 0. -1.
       -1   -1    0    0    0  501  0.00000000000E+00  0.00000000000E+00 -0.10345849893E+04  0.10345849893E+04  0.50400001928E-02 0.  1.
    10030    2    1    2    0    0  0.00000000000E+00  0.00000000000E+00 -0.26982775571E+03  0.17993422230E+04  0.17789956204E+04 0.  0.
        3    1    3    3  502    0 -0.35814347400E+03 -0.29634610646E+03  0.63212537952E+03  0.78464658823E+03  0.10100000352E+00 0. -1.
       -3    1    3    3    0  502  0.35814347400E+03  0.29634610646E+03 -0.90195313523E+03  0.10146956347E+04  0.10100000352E+00 0.  1.
</event>
<event>
 5   0  0.5820500E-05  0.1801087E+04  0.7818609E-02  0.8705721E-01
       -3   -1    0    0    0  501  0.00000000000E+00  0.00000000000E+00  0.10530278445E+04  0.10530278493E+04  0.10100000352E+00 0. -1.
        3   -1    0    0  501    0  0.00000000000E+00  0.00000000000E+00 -0.77013998734E+03  0.77013999396E+03  0.10100000352E+00 0.  1.
    10030    2    1    2    0    0  0.00000000000E+00  0.00000000000E+00  0.28288785717E+03  0.18231678433E+04  0.18010872953E+04 0.  0.
        2    1    3    3  502    0 -0.15969168076E+03  0.68448238284E+03 -0.42845128104E+03  0.82315737593E+03  0.25500000920E-02 0.  1.
       -2    1    3    3    0  502  0.15969168076E+03 -0.68448238284E+03  0.71133913820E+03  0.10000104674E+04  0.25500000920E-02 0. -1.
</event>
<event>
 5   0  0.1549012E-04  0.1826022E+04  0.7818609E-02  0.8692582E-01
        2   -1    0    0  501    0  0.00000000000E+00  0.00000000000E+00  0.32708360153E+03  0.32708360154E+03  0.25500000920E-02 0.  1.
       -2   -1    0    0    0  501  0.00000000000E+00  0.00000000000E+00 -0.25485513064E+04  0.25485513064E+04  0.25500000920E-02 0. -1.
    10030    2    1    2    0    0  0.00000000000E+00  0.00000000000E+00 -0.22214677049E+04  0.28756349079E+04  0.18260222781E+04 0.  0.
        4    1    3    3  502    0 -0.44767410427E+03 -0.54130787944E+02 -0.23609426351E+04  0.24036210152E+04  0.12699999809E+01 0. -1.
       -4    1    3    3    0  502  0.44767410427E+03  0.54130787944E+02  0.13947493022E+03  0.47201389270E+03  0.12699999809E+01 0.  1.
</event>
<event>
 5   0  0.1628397E-04  0.1791274E+04  0.7818609E-02  0.8710954E-01
        2   -1    0    0  501    0  0.00000000000E+00  0.00000000000E+00  0.96572132970E+03  0.96572132970E+03  0.25500000920E-02 0. -1.
       -2   -1    0    0    0  501  0.00000000000E+00  0.00000000000E+00 -0.83063849484E+03  0.83063849485E+03  0.25500000920E-02 0.  1.
    10030    2    1    2    0    0  0.00000000000E+00  0.00000000000E+00  0.13508283485E+03  0.17963598246E+04  0.17912736382E+04 0.  0.
        3    1    3    3  502    0  0.33121134398E+03 -0.25275597305E+03 -0.72753935646E+03  0.83839135354E+03  0.10100000352E+00 0.  1.
       -3    1    3    3    0  502 -0.33121134398E+03  0.25275597305E+03  0.86262219132E+03  0.95796847101E+03  0.10100000352E+00 0. -1.
</event>
<event>
 5   0  0.1608627E-04  0.1822307E+04  0.7818609E-02  0.8694526E-01
       -2   -1    0    0    0  501  0.00000000000E+00  0.00000000000E+00  0.79191431164E+03  0.79191431165E+03  0.25500000920E-02 0.  1.
        2   -1    0    0  501    0  0.00000000000E+00  0.00000000000E+00 -0.10483471442E+04  0.10483471442E+04  0.25500000920E-02 0. -1.
    10030    2    1    2    0    0  0.00000000000E+00  0.00000000000E+00 -0.25643283252E+03  0.18402614558E+04  0.18223074461E+04 0.  0.
        2    1    3    3  502    0  0.20289718712E+03 -0.84242435849E+03  0.15625925714E+03  0.88049021787E+03  0.25500000920E-02 0.  1.
       -2    1    3    3    0  502 -0.20289718712E+03  0.84242435849E+03 -0.41269208966E+03  0.95977123795E+03  0.25500000920E-02 0. -1.
</event>
<event>
 5   0  0.1573981E-04  0.1828050E+04  0.7818609E-02  0.8691524E-01
        2   -1    0    0  501    0  0.00000000000E+00  0.00000000000E+00  0.17831299353E+04  0.17831299353E+04  0.25500000920E-02 0. -1.
       -2   -1    0    0    0  501  0.00000000000E+00  0.00000000000E+00 -0.46852532435E+03  0.46852532436E+03  0.25500000920E-02 0.  1.
    10030    2    1    2    0    0  0.00000000000E+00  0.00000000000E+00  0.13146046110E+04  0.22516552597E+04  0.18280498148E+04 0.  0.
        1    1    3    3  502    0  0.54777704991E+03 -0.55106584689E+03  0.12502066560E+04  0.14719884330E+04  0.50400001928E-02 0. -1.
       -1    1    3    3    0  502 -0.54777704991E+03  0.55106584689E+03  0.64397954926E+02  0.77966682669E+03  0.50400001928E-02 0.  1.
</event>
<event>
 5   0  0.1603564E-04  0.1795315E+04  0.7818609E-02  0.8708795E-01
       -2   -1    0    0    0  501  0.00000000000E+00  0.00000000000E+00  0.24429610880E+04  0.24429610881E+04  0.25500000920E-02 0. -1.
        2   -1    0    0  501    0  0.00000000000E+00  0.00000000000E+00 -0.32984120352E+03  0.32984120353E+03  0.25500000920E-02 0.  1.
    10030    2    1    2    0    0  0.00000000000E+00  0.00000000000E+00  0.21131198845E+04  0.27728022916E+04  0.17953152653E+04 0.  0.
        5    1    3    3  502    0 -0.24328160718E+03  0.48642168301E+03 -0.46382081090E+02  0.54586205358E+03  0.46999998093E+01 0.  1.
       -5    1    3    3    0  502  0.24328160718E+03 -0.48642168301E+03  0.21595019656E+04  0.22269402380E+04  0.46999998093E+01 0. -1.
</event>
<event>
 5   0  0.1628397E-04  0.1796927E+04  0.7818609E-02  0.8707935E-01
        2   -1    0    0  501    0  0.00000000000E+00  0.00000000000E+00  0.18083282117E+04  0.18083282117E+04  0.25500000920E-02 0.  1.
       -2   -1    0    0    0  501  0.00000000000E+00  0.00000000000E+00 -0.44639948857E+03  0.44639948858E+03  0.25500000920E-02 0. -1.
    10030    2    1    2    0    0  0.00000000000E+00  0.00000000000E+00  0.13619287231E+04  0.22547277003E+04  0.17969271425E+04 0.  0.
        3    1    3    3  502    0  0.46326803805E+03 -0.27633090613E+03 -0.22060299544E+03  0.58278790015E+03  0.10100000352E+00 0. -1.
       -3    1    3    3    0  502 -0.46326803805E+03  0.27633090613E+03  0.15825317186E+04  0.16719398001E+04  0.10100000352E+00 0.  1.
</event>
<event>
 5   0  0.8132598E-05  0.1816820E+04  0.7818609E-02  0.8697406E-01
       -1   -1    0    0    0  501  0.00000000000E+00  0.00000000000E+00  0.55287942392E+03  0.55287942394E+03  0.50400001928E-02 0. -1.
        1   -1    0    0  501    0  0.00000000000E+00  0.00000000000E+00 -0.14925648059E+04  0.14925648059E+04  0.50400001928E-02 0.  1.
    10030    2    1    2    0    0  0.00000000000E+00  0.00000000000E+00 -0.93968538199E+03  0.20454442299E+04  0.18168196059E+04 0.  0.
        3    1    3    3  502    0 -0.69457802224E+02 -0.76833222820E+03  0.70148330764E+02  0.77464804762E+03  0.10100000352E+00 0. -1.
       -3    1    3    3    0  502  0.69457802224E+02  0.76833222820E+03 -0.10098337128E+04  0.12707961822E+04  0.10100000352E+00 0.  1.
</event>
<event>
 5   0  0.8132598E-05  0.1798697E+04  0.7818609E-02  0.8706993E-01
        1   -1    0    0  501    0  0.00000000000E+00  0.00000000000E+00  0.14779051568E+04  0.14779051568E+04  0.50400001928E-02 0.  1.
       -1   -1    0    0    0  501  0.00000000000E+00  0.00000000000E+00 -0.54727980646E+03  0.54727980648E+03  0.50400001928E-02 0. -1.
    10030    2    1    2    0    0  0.00000000000E+00  0.00000000000E+00  0.93062535034E+03  0.20251849633E+04  0.17986969152E+04 0.  0.
        3    1    3    3  502    0 -0.40631104272E+02 -0.17358241658E+03 -0.52718623795E+03  0.55651332568E+03  0.10100000352E+00 0. -1.
       -3    1    3    3    0  502  0.40631104272E+02  0.17358241658E+03  0.14578115883E+04  0.14686716376E+04  0.10100000352E+00 0.  1.
</event>
<event>
 5   0  0.8430513E-05  0.1799953E+04  0.7818609E-02  0.8706324E-01
       -1   -1    0    0    0  501  0.00000000000E+00  0.00000000000E+00  0.66810084315E+03  0.66810084317E+03  0.50400001928E-02 0.  1.
        1   -1    0    0  501    0  0.00000000000E+00  0.00000000000E+00 -0.12123287431E+04  0.12123287431E+04  0.50400001928E-02 0. -1.
    10030    2    1    2    0    0  0.00000000000E+00  0.00000000000E+00 -0.54422789998E+03  0.18804295863E+04  0.17999531722E+04 0.  0.
        5    1    3    3  502    0 -0.29073971428E+03 -0.60480805123E+03  0.35437556258E+03  0.75889820770E+03  0.46999998093E+01 0.  1.
       -5    1    3    3    0  502  0.29073971428E+03  0.60480805123E+03 -0.89860346256E+03  0.11215313786E+04  0.46999998093E+01 0. -1.
</event>
<event>
 5   0  0.8132598E-05  0.1791030E+04  0.7818609E-02  0.8711084E-01
       -1   -1    0    0    0  501  0.00000000000E+00  0.00000000000E+00  0.10392893389E+04  0.10392893389E+04  0.50400001928E-02 0.  1.
        1   -1    0    0  501    0  0.00000000000E+00  0.00000000000E+00 -0.77162991967E+03  0.77162991968E+03  0.50400001928E-02 0. -1.
    10030    2    1    2    0    0  0.00000000000E+00  0.00000000000E+00  0.26765941920E+03  0.18109192586E+04  0.17910295911E+04 0.  0.
        3    1    3    3  502    0 -0.25643405290E+03  0.29241807481E+03  0.94943502985E+03  0.10260085965E+04  0.10100000352E+00 0.  1.
       -3    1    3    3    0  502  0.25643405290E+03 -0.29241807481E+03 -0.68177561065E+03  0.78491066207E+03  0.10100000352E+00 0. -1.
</event>
<event>
 5   0  0.1608627E-04  0.1804898E+04  0.7818609E-02  0.8703699E-01
       -2   -1    0    0    0  501  0.00000000000E+00  0.00000000000E+00  0.57986600428E+03  0.57986600429E+03  0.25500000920E-02 0. -1.
        2   -1    0    0  501    0  0.00000000000E+00  0.00000000000E+00 -0.14044868076E+04  0.14044868076E+04  0.25500000920E-02 0.  1.
    10030    2    1    2    0    0  0.00000000000E+00  0.00000000000E+00 -0.82462080335E+03  0.19843528119E+04  0.18048979508E+04 0.  0.
        2    1    3    3  502    0 -0.12574289645E+03  0.38807850423E+03 -0.12973303415E+04  0.13599566965E+04  0.25500000920E-02 0.  1.
       -2    1    3    3    0  502  0.12574289645E+03 -0.38807850423E+03  0.47270953815E+03  0.62439611540E+03  0.25500000920E-02 0. -1.
</event>
<event>
 5   0  0.1628397E-04  0.1806582E+04  0.7818609E-02  0.8702807E-01
        2   -1    0    0  501    0  0.00000000000E+00  0.00000000000E+00  0.11776232059E+04  0.11776232059E+04  0.25500000920E-02 0.  1.
       -2   -1    0    0    0  501  0.00000000000E+00  0.00000000000E+00 -0.69286559253E+03  0.69286559254E+03  0.25500000920E-02 0. -1.
    10030    2    1    2    0    0  0.00000000000E+00  0.00000000000E+00  0.48475761338E+03  0.18704887985E+04  0.18065819664E+04 0.  0.
        3    1    3    3  502    0 -0.66700962514E+03  0.57604394166E+03  0.37369104637E+02  0.88211389453E+03  0.10100000352E+00 0. -1.
       -3    1    3    3    0  502  0.66700962514E+03 -0.57604394166E+03  0.44738850875E+03  0.98837490392E+03  0.10100000352E+00 0.  1.
</event>
<event>
 5   0  0.8132598E-05  0.1795786E+04  0.7818609E-02  0.8708543E-01
        1   -1    0    0  501    0  0.00000000000E+00  0.00000000000E+00  0.41519185052E+03  0.41519185055E+03  0.50400001928E-02 0. -1.
       -1   -1    0    0    0  501  0.00000000000E+00  0.00000000000E+00 -0.19417823773E+04  0.19417823773E+04  0.50400001928E-02 0.  1.
    10030    2    1    2    0    0  0.00000000000E+00  0.00000000000E+00 -0.15265905268E+04  0.23569742278E+04  0.17957864222E+04 0.  0.
        3    1    3    3  502    0 -0.52099340072E+03 -0.45651468900E+03 -0.15131150185E+04  0.16641384721E+04  0.10100000352E+00 0.  1.
       -3    1    3    3    0  502  0.52099340072E+03  0.45651468900E+03 -0.13475508215E+02  0.69283575571E+03  0.10100000352E+00 0. -1.
</event>
<event>
 5   0  0.8492114E-05  0.1801575E+04  0.7818609E-02  0.8705462E-01
       -1   -1    0    0    0  501  0.00000000000E+00  0.00000000000E+00  0.93489004603E+03  0.93489004605E+03  0.50400001928E-02 0. -1.
        1   -1    0    0  501    0  0.00000000000E+00  0.00000000000E+00 -0.86792869722E+03  0.86792869724E+03  0.50400001928E-02 0.  1.
    10030    2    1    2    0    0  0.00000000000E+00  0.00000000000E+00  0.66961348814E+02  0.18028187433E+04  0.18015747553E+04 0.  0.
        2    1    3    3  502    0  0.19490458531E+02 -0.12843693436E+03 -0.85850565816E+03  0.86827869327E+03  0.25500000920E-02 0.  1.
       -2    1    3    3    0  502 -0.19490458531E+02  0.12843693436E+03  0.92546700697E+03  0.93454005002E+03  0.25500000920E-02 0. -1.
</event>
<event>
 5   0  0.1608627E-04  0.1799737E+04  0.7818609E-02  0.8706439E-01
       -2   -1    0    0    0  501  0.00000000000E+00  0.00000000000E+00  0.11721486289E+04  0.11721486289E+04  0.25500000920E-02 0.  1.
        2   -1    0    0  501    0  0.00000000000E+00  0.00000000000E+00 -0.69083657216E+03  0.69083657216E+03  0.25500000920E-02 0. -1.
    10030    2    1    2    0    0  0.00000000000E+00  0.00000000000E+00  0.48131205677E+03  0.18629852011E+04  0.17997368040E+04 0.  0.
        2    1    3    3  502    0  0.63318549471E+03 -0.30351659333E+03 -0.34189779750E+03  0.78098674578E+03  0.25500000920E-02 0. -1.
       -2    1    3    3    0  502 -0.63318549471E+03  0.30351659333E+03  0.82320985427E+03  0.10819984553E+04  0.25500000920E-02 0.  1.
</event>
<event>
 5   0  0.8254914E-05  0.1793176E+04  0.7818609E-02  0.8709937E-01
       -1   -1    0    0    0  501  0.00000000000E+00  0.00000000000E+00  0.51314266411E+03  0.51314266413E+03  0.50400001928E-02 0.  1.
        1   -1    0    0  501    0  0.00000000000E+00  0.00000000000E+00 -0.15665631847E+04  0.15665631847E+04  0.50400001928E-02 0. -1.
    10030    2    1    2    0    0  0.00000000000E+00  0.00000000000E+00 -0.10534205206E+04  0.20797058488E+04  0.17931764064E+04 0.  0.
        4    1    3    3  502    0 -0.59928077626E+03  0.56713153438E+03 -0.11980259589E+03  0.83374450581E+03  0.12699999809E+01 0.  1.
       -4    1    3    3    0  502  0.59928077626E+03 -0.56713153438E+03 -0.93361792467E+03  0.12459613430E+04  0.12699999809E+01 0. -1.
</event>
<event>
 5   0  0.1573981E-04  0.1794354E+04  0.7818609E-02  0.8709307E-01
        2   -1    0    0  501    0  0.00000000000E+00  0.00000000000E+00  0.17163319665E+04  0.17163319665E+04  0.25500000920E-02 0.  1.
       -2   -1    0    0    0  501  0.00000000000E+00  0.00000000000E+00 -0.46898092295E+03  0.46898092296E+03  0.25500000920E-02 0. -1.
    10030    2    1    2    0    0  0.00000000000E+00  0.00000000000E+00  0.12473510435E+04  0.21853128894E+04  0.17943544240E+04 0.  0.
        1    1    3    3  502    0 -0.24201590397E+03 -0.34391510725E+01  0.16758184800E+04  0.16932073421E+04  0.50400001928E-02 0.  1.
       -1    1    3    3    0  502  0.24201590397E+03  0.34391510725E+01 -0.42846743648E+03  0.49210554730E+03  0.50400001928E-02 0. -1.
</event>
<event>
 5   0  0.8254914E-05  0.1692908E+04  0.7818609E-02  0.8765420E-01
       -1   -1    0    0    0  501  0.00000000000E+00  0.00000000000E+00  0.17505451585E+04  0.17505451585E+04  0.50400001928E-02 0. -1.
        1   -1    0    0  501    0  0.00000000000E+00  0.00000000000E+00 -0.40929205929E+03  0.40929205932E+03  0.50400001928E-02 0.  1.
    10030    2    1    2    0    0  0.00000000000E+00  0.00000000000E+00  0.13412530992E+04  0.21598372179E+04  0.16929078331E+04 0.  0.
        4    1    3    3  502    0  0.24107764500E+03 -0.55266145564E+03 -0.87307973689E+02  0.60924330988E+03  0.12699999809E+01 0.  1.
       -4    1    3    3    0  502 -0.24107764500E+03  0.55266145564E+03  0.14285610729E+04  0.15505939080E+04  0.12699999809E+01 0. -1.
</event>
<event>
 5   0  0.8132598E-05  0.1796188E+04  0.7818609E-02  0.8708329E-01
       -1   -1    0    0    0  501  0.00000000000E+00  0.00000000000E+00  0.17899758312E+04  0.17899758312E+04  0.50400001928E-02 0.  1.
        1   -1    0    0  501    0  0.00000000000E+00  0.00000000000E+00 -0.45060561543E+03  0.45060561546E+03  0.50400001928E-02 0. -1.
    10030    2    1    2    0    0  0.00000000000E+00  0.00000000000E+00  0.13393702158E+04  0.22405814467E+04  0.17961883655E+04 0.  0.
        3    1    3    3  502    0 -0.54685078135E+03  0.46930212460E+03  0.13382810505E+04  0.15199626448E+04  0.10100000352E+00 0.  1.
       -3    1    3    3    0  502  0.54685078135E+03 -0.46930212460E+03  0.10891653251E+01  0.72061880193E+03  0.10100000352E+00 0. -1.
</event>
<event>
 5   0  0.8492114E-05  0.1874642E+04  0.7818609E-02  0.8667583E-01
        1   -1    0    0  501    0  0.00000000000E+00  0.00000000000E+00  0.15061369740E+04  0.15061369740E+04  0.50400001928E-02 0. -1.
       -1   -1    0    0    0  501  0.00000000000E+00  0.00000000000E+00 -0.58332716702E+03  0.58332716704E+03  0.50400001928E-02 0.  1.
    10030    2    1    2    0    0  0.00000000000E+00  0.00000000000E+00  0.92280980694E+03  0.20894641410E+04  0.18746419543E+04 0.  0.
        2    1    3    3  502    0 -0.58761938919E+02  0.12672523946E+03  0.14944705621E+04  0.15009845145E+04  0.25500000920E-02 0. -1.
       -2    1    3    3    0  502  0.58761938919E+02 -0.12672523946E+03 -0.57166075518E+03  0.58847962649E+03  0.25500000920E-02 0.  1.
</event>
<event>
 5   0  0.1573981E-04  0.1812621E+04  0.7818609E-02  0.8699616E-01
       -2   -1    0    0    0  501  0.00000000000E+00  0.00000000000E+00  0.72060377457E+03  0.72060377457E+03  0.25500000920E-02 0.  1.
        2   -1    0    0  501    0  0.00000000000E+00  0.00000000000E+00 -0.11398758622E+04  0.11398758622E+04  0.25500000920E-02 0. -1.
    10030    2    1    2    0    0  0.00000000000E+00  0.00000000000E+00 -0.41927208758E+03  0.18604796367E+04  0.18126211395E+04 0.  0.
        1    1    3    3  502    0  0.88792062865E+03  0.18159452367E+03 -0.20513447726E+03  0.92922535889E+03  0.50400001928E-02 0. -1.
       -1    1    3    3    0  502 -0.88792062865E+03 -0.18159452367E+03 -0.21413761032E+03  0.93125427784E+03  0.50400001928E-02 0.  1.
</event>
<event>
 5   0  0.1603564E-04  0.1799718E+04  0.7818609E-02  0.8706449E-01
       -2   -1    0    0    0  501  0.00000000000E+00  0.00000000000E+00  0.82086814154E+03  0.82086814155E+03  0.25500000920E-02 0.  1.
        2   -1    0    0  501    0  0.00000000000E+00  0.00000000000E+00 -0.98645095228E+03  0.98645095229E+03  0.25500000920E-02 0. -1.
    10030    2    1    2    0    0  0.00000000000E+00  0.00000000000E+00 -0.16558281074E+03  0.18073190938E+04  0.17997179334E+04 0.  0.
        5    1    3    3  502    0 -0.41856645560E+03  0.41876790720E+03 -0.76326651181E+03  0.96600325874E+03  0.46999998093E+01 0.  1.
       -5    1    3    3    0  502  0.41856645560E+03 -0.41876790720E+03  0.59768370107E+03  0.84131583509E+03  0.46999998093E+01 0. -1.
</event>
<event>
 5   0  0.8430513E-05  0.1797946E+04  0.7818609E-02  0.8707393E-01
        1   -1    0    0  501    0  0.00000000000E+00  0.00000000000E+00  0.10112040200E+04  0.10112040200E+04  0.50400001928E-02 0. -1.
       -1   -1    0    0    0  501  0.00000000000E+00  0.00000000000E+00 -0.79919812925E+03  0.79919812927E+03  0.50400001928E-02 0.  1.
    10030    2    1    2    0    0  0.00000000000E+00  0.00000000000E+00  0.21200589073E+03  0.18104021493E+04  0.17979458958E+04 0.  0.
        5    1    3    3  502    0 -0.48721883281E+02 -0.35219889510E+03  0.93738190765E+03  0.10025591326E+04  0.46999998093E+01 0. -1.
       -5    1    3    3    0  502  0.48721883281E+02  0.35219889510E+03 -0.72537601692E+03  0.80784301664E+03  0.46999998093E+01 0.  1.
</event>
<event>
 5   0  0.1549012E-04  0.1791158E+04  0.7818609E-02  0.8711016E-01
        2   -1    0    0  501    0  0.00000000000E+00  0.00000000000E+00  0.87272983469E+03  0.87272983469E+03  0.25500000920E-02 0.  1.
       -2   -1    0    0    0  501  0.00000000000E+00  0.00000000000E+00 -0.91902656175E+03  0.91902656175E+03  0.25500000920E-02 0. -1.
    10030    2    1    2    0    0  0.00000000000E+00  0.00000000000E+00 -0.46296727059E+02  0.17917563964E+04  0.17911581720E+04 0.  0.
        4    1    3    3  502    0 -0.26449806793E+03  0.75765357957E+03  0.37455468021E+03  0.88560205281E+03  0.12699999809E+01 0.  1.
       -4    1    3    3    0  502  0.26449806793E+03 -0.75765357957E+03 -0.42085140727E+03  0.90615434363E+03  0.12699999809E+01 0. -1.
</event>
<event>
 5   0  0.8206783E-05  0.1808329E+04  0.7818609E-02  0.8701883E-01
       -1   -1    0    0    0  501  0.00000000000E+00  0.00000000000E+00  0.11029111239E+04  0.11029111239E+04  0.50400001928E-02 0.  1.
        1   -1    0    0  501    0  0.00000000000E+00  0.00000000000E+00 -0.74123216266E+03  0.74123216268E+03  0.50400001928E-02 0. -1.
    10030    2    1    2    0    0  0.00000000000E+00  0.00000000000E+00  0.36167896121E+03  0.18441432866E+04  0.18083287285E+04 0.  0.
        1    1    3    3  502    0  0.93752380093E+02  0.53295971738E+03 -0.55785278778E+03  0.77719708053E+03  0.50400001928E-02 0. -1.
       -1    1    3    3    0  502 -0.93752380093E+02 -0.53295971738E+03  0.91953174899E+03  0.10669462060E+04  0.50400001928E-02 0.  1.
</event>
<event>
 5   0  0.8430513E-05  0.1805568E+04  0.7818609E-02  0.8703344E-01
        1   -1    0    0  501    0  0.00000000000E+00  0.00000000000E+00  0.21448882883E+04  0.21448882883E+04  0.50400001928E-02 0.  1.
       -1   -1    0    0    0  501  0.00000000000E+00  0.00000000000E+00 -0.37998183662E+03  0.37998183666E+03  0.50400001928E-02 0. -1.
    10030    2    1    2    0    0  0.00000000000E+00  0.00000000000E+00  0.17649064517E+04  0.25248701250E+04  0.18055676018E+04 0.  0.
        5    1    3    3  502    0  0.79413026594E+03 -0.49137242748E+02  0.14789229094E+04  0.16793726239E+04  0.46999998093E+01 0.  1.
       -5    1    3    3    0  502 -0.79413026594E+03  0.49137242748E+02  0.28598354232E+03  0.84549750111E+03  0.46999998093E+01 0. -1.
</event>
<event>
 5   0  0.8492114E-05  0.1790244E+04  0.7818609E-02  0.8711505E-01
        1   -1    0    0  501    0  0.00000000000E+00  0.00000000000E+00  0.79995911780E+03  0.79995911782E+03  0.50400001928E-02 0. -1.
       -1   -1    0    0    0  501  0.00000000000E+00  0.00000000000E+00 -0.10016053714E+04  0.10016053714E+04  0.50400001928E-02 0.  1.
    10030    2    1    2    0    0  0.00000000000E+00  0.00000000000E+00 -0.20164625358E+03  0.18015644892E+04  0.17902439491E+04 0.  0.
        2    1    3    3  502    0 -0.23547872111E+03 -0.19997822049E+03 -0.94625572459E+03  0.99541017329E+03  0.25500000920E-02 0.  1.
       -2    1    3    3    0  502  0.23547872111E+03  0.19997822049E+03  0.74460947101E+03  0.80615431593E+03  0.25500000920E-02 0. -1.
</event>
<event>
 5   0  0.8492114E-05  0.1793554E+04  0.7818609E-02  0.8709735E-01
        1   -1    0    0  501    0  0.00000000000E+00  0.00000000000E+00  0.72548812770E+03  0.72548812772E+03  0.50400001928E-02 0. -1.
       -1   -1    0    0    0  501  0.00000000000E+00  0.00000000000E+00 -0.11085072955E+04  0.11085072955E+04  0.50400001928E-02 0.  1.
    10030    2    1    2    0    0  0.00000000000E+00  0.00000000000E+00 -0.38301916781E+03  0.18339954232E+04  0.17935538825E+04 0.  0.
        2    1    3    3  502    0  0.84423491751E+03  0.15486982805E+03  0.74139764168E+02  0.86151840620E+03  0.25500000920E-02 0. -1.
       -2    1    3    3    0  502 -0.84423491751E+03 -0.15486982805E+03 -0.45715893198E+03  0.97247701704E+03  0.25500000920E-02 0.  1.
</event>
<event>
 5   0  0.5820500E-05  0.1893560E+04  0.7818609E-02  0.8658069E-01
        3   -1    0    0  501    0  0.00000000000E+00  0.00000000000E+00  0.18270017856E+04  0.18270017884E+04  0.10100000352E+00 0. -1.
       -3   -1    0    0    0  501  0.00000000000E+00  0.00000000000E+00 -0.49063564303E+03  0.49063565342E+03  0.10100000352E+00 0.  1.
    10030    2    1    2    0    0  0.00000000000E+00  0.00000000000E+00  0.13363661426E+04  0.23176374418E+04  0.18935598339E+04 0.  0.
        2    1    3    3  502    0  0.19626932999E+03  0.63300095874E+03 -0.15939741592E+03  0.68162995816E+03  0.25500000920E-02 0.  1.
       -2    1    3    3    0  502 -0.19626932999E+03 -0.63300095874E+03  0.14957635585E+04  0.16360074836E+04  0.25500000920E-02 0. -1.
</event>
<event>
 5   0  0.8430513E-05  0.1793570E+04  0.7818609E-02  0.8709727E-01
        1   -1    0    0  501    0  0.00000000000E+00  0.00000000000E+00  0.12071185218E+04  0.12071185218E+04  0.50400001928E-02 0.  1.
       -1   -1    0    0    0  501  0.00000000000E+00  0.00000000000E+00 -0.66623373173E+03  0.66623373175E+03  0.50400001928E-02 0. -1.
    10030    2    1    2    0    0  0.00000000000E+00  0.00000000000E+00  0.54088479003E+03  0.18733522535E+04  0.17935697114E+04 0.  0.
        5    1    3    3  502    0  0.36232285521E+03  0.37115674778E+01 -0.58635763015E+03  0.68929600867E+03  0.46999998093E+01 0. -1.
       -5    1    3    3    0  502 -0.36232285521E+03 -0.37115674778E+01  0.11272424202E+04  0.11840562449E+04  0.46999998093E+01 0.  1.
</event>
<event>
 5   0  0.8492114E-05  0.1803688E+04  0.7818609E-02  0.8704340E-01
        1   -1    0    0  501    0  0.00000000000E+00  0.00000000000E+00  0.48235459095E+03  0.48235459097E+03  0.50400001928E-02 0.  1.
       -1   -1    0    0    0  501  0.00000000000E+00  0.00000000000E+00 -0.16861516773E+04  0.16861516773E+04  0.50400001928E-02 0. -1.
    10030    2    1    2    0    0  0.00000000000E+00  0.00000000000E+00 -0.12037970864E+04  0.21685062683E+04  0.18036884461E+04 0.  0.
        2    1    3    3  502    0  0.59962297340E+02 -0.14296624534E+03  0.46621385841E+03  0.49131475267E+03  0.25500000920E-02 0.  1.
       -2    1    3    3    0  502 -0.59962297340E+02  0.14296624534E+03 -0.16700109448E+04  0.16771915156E+04  0.25500000920E-02 0. -1.
</event>
<event>
 5   0  0.8492114E-05  0.1801497E+04  0.7818609E-02  0.8705504E-01
        1   -1    0    0  501    0  0.00000000000E+00  0.00000000000E+00  0.67038022896E+03  0.67038022898E+03  0.50400001928E-02 0. -1.
       -1   -1    0    0    0  501  0.00000000000E+00  0.00000000000E+00 -0.12102800738E+04  0.12102800738E+04  0.50400001928E-02 0.  1.
    10030    2    1    2    0    0  0.00000000000E+00  0.00000000000E+00 -0.53989984484E+03  0.18806603028E+04  0.18014969698E+04 0.  0.
        2    1    3    3  502    0  0.88589280794E+03  0.15603172104E+03 -0.31886918756E+03  0.95437389105E+03  0.25500000920E-02 0.  1.
       -2    1    3    3    0  502 -0.88589280794E+03 -0.15603172104E+03 -0.22103065728E+03  0.92628641175E+03  0.25500000920E-02 0. -1.
</event>
<event>
 5   0  0.5820500E-05  0.1720815E+04  0.7818609E-02  0.8749581E-01
       -4   -1    0    0    0  501  0.00000000000E+00  0.00000000000E+00  0.85776897296E+03  0.85776991313E+03  0.12699999809E+01 0.  1.
        4   -1    0    0  501    0  0.00000000000E+00  0.00000000000E+00 -0.86305249850E+03  0.86305343292E+03  0.12699999809E+01 0. -1.
    10030    2    1    2    0    0  0.00000000000E+00  0.00000000000E+00 -0.52835255387E+01  0.17208233460E+04  0.17208152349E+04 0.  0.
        1    1    3    3  502    0 -0.30107856266E+03  0.58951657149E+03  0.54701815694E+03  0.85872402610E+03  0.50400001928E-02 0.  1.
       -1    1    3    3    0  502  0.30107856266E+03 -0.58951657149E+03 -0.55230168248E+03  0.86209931995E+03  0.50400001928E-02 0. -1.
</event>
<event>
 5   0  0.1573981E-04  0.1790274E+04  0.7818609E-02  0.8711489E-01
        2   -1    0    0  501    0  0.00000000000E+00  0.00000000000E+00  0.19551435677E+04  0.19551435677E+04  0.25500000920E-02 0. -1.
       -2   -1    0    0    0  501  0.00000000000E+00  0.00000000000E+00 -0.40982689517E+03  0.40982689517E+03  0.25500000920E-02 0.  1.
    10030    2    1    2    0    0  0.00000000000E+00  0.00000000000E+00  0.15453166726E+04  0.23649704629E+04  0.17902741890E+04 0.  0.
        1    1    3    3  502    0 -0.53283217452E+03 -0.59988102583E+03  0.24839359588E+03  0.83992068070E+03  0.50400001928E-02 0.  1.
       -1    1    3    3    0  502  0.53283217452E+03  0.59988102583E+03  0.12969230767E+04  0.15250497822E+04  0.50400001928E-02 0. -1.
</event>
<event>
 5   0  0.8430513E-05  0.1794184E+04  0.7818609E-02  0.8709399E-01
        1   -1    0    0  501    0  0.00000000000E+00  0.00000000000E+00  0.13976021519E+04  0.13976021519E+04  0.50400001928E-02 0. -1.
       -1   -1    0    0    0  501  0.00000000000E+00  0.00000000000E+00 -0.57582455079E+03  0.57582455082E+03  0.50400001928E-02 0.  1.
    10030    2    1    2    0    0  0.00000000000E+00  0.00000000000E+00  0.82177760112E+03  0.19734267027E+04  0.17941835261E+04 0.  0.
        5    1    3    3  502    0  0.79722352145E+03  0.40146844857E+03  0.31245348111E+03  0.94572275336E+03  0.46999998093E+01 0.  1.
       -5    1    3    3    0  502 -0.79722352145E+03 -0.40146844857E+03  0.50932412000E+03  0.10277039494E+04  0.46999998093E+01 0. -1.
</event>
<event>
 5   0  0.8492114E-05  0.1799263E+04  0.7818609E-02  0.8706692E-01
        1   -1    0    0  501    0  0.00000000000E+00  0.00000000000E+00  0.50752611369E+03  0.50752611372E+03  0.50400001928E-02 0. -1.
       -1   -1    0    0    0  501  0.00000000000E+00  0.00000000000E+00 -0.15946695944E+04  0.15946695945E+04  0.50400001928E-02 0.  1.
    10030    2    1    2    0    0  0.00000000000E+00  0.00000000000E+00 -0.10871434808E+04  0.21021957082E+04  0.17992625844E+04 0.  0.
        2    1    3    3  502    0 -0.35104633613E+03  0.87580474512E+02 -0.15059192969E+04  0.15487726749E+04  0.25500000920E-02 0.  1.
       -2    1    3    3    0  502  0.35104633613E+03 -0.87580474512E+02  0.41877581613E+03  0.55342303332E+03  0.25500000920E-02 0. -1.
</event>
<event>
 5   0  0.8206783E-05  0.1808420E+04  0.7818609E-02  0.8701835E-01
        1   -1    0    0  501    0  0.00000000000E+00  0.00000000000E+00  0.14024656727E+04  0.14024656727E+04  0.50400001928E-02 0. -1.
       -1   -1    0    0    0  501  0.00000000000E+00  0.00000000000E+00 -0.58296997729E+03  0.58296997731E+03  0.50400001928E-02 0.  1.
    10030    2    1    2    0    0  0.00000000000E+00  0.00000000000E+00  0.81949569544E+03  0.19854356500E+04  0.18084196210E+04 0.  0.
        1    1    3    3  502    0  0.31218811426E+03 -0.80734006132E+03  0.69674748278E+03  0.11111779552E+04  0.50400001928E-02 0. -1.
       -1    1    3    3    0  502 -0.31218811426E+03  0.80734006132E+03  0.12274821266E+03  0.87425769487E+03  0.50400001928E-02 0.  1.
</event>
<event>
 5   0  0.1603564E-04  0.1800025E+04  0.7818609E-02  0.8706286E-01
       -2   -1    0    0    0  501  0.00000000000E+00  0.00000000000E+00  0.52870838852E+03  0.52870838853E+03  0.25500000920E-02 0. -1.
        2   -1    0    0  501    0  0.00000000000E+00  0.00000000000E+00 -0.15320777835E+04  0.15320777835E+04  0.25500000920E-02 0.  1.
    10030    2    1    2    0    0  0.00000000000E+00  0.00000000000E+00 -0.10033693949E+04  0.20607861720E+04  0.18000248620E+04 0.  0.
        5    1    3    3  502    0  0.86904530294E+03 -0.22636365761E+03 -0.56960949415E+03  0.10634647666E+04  0.46999998093E+01 0. -1.
       -5    1    3    3    0  502 -0.86904530294E+03  0.22636365761E+03 -0.43375990079E+03  0.99732140536E+03  0.46999998093E+01 0.  1.
</event>
<event>
 5   0  0.1603564E-04  0.1815138E+04  0.7818609E-02  0.8698291E-01
       -2   -1    0    0    0  501  0.00000000000E+00  0.00000000000E+00  0.55244027453E+03  0.55244027454E+03  0.25500000920E-02 0. -1.
        2   -1    0    0  501    0  0.00000000000E+00  0.00000000000E+00 -0.14909868812E+04  0.14909868812E+04  0.25500000920E-02 0.  1.
    10030    2    1    2    0    0  0.00000000000E+00  0.00000000000E+00 -0.93854660667E+03  0.20434271557E+04  0.18151376829E+04 0.  0.
        5    1    3    3  502    0  0.64631472795E+02  0.53999309158E+03  0.34866592227E+03  0.64603388579E+03  0.46999998093E+01 0. -1.
       -5    1    3    3    0  502 -0.64631472795E+02 -0.53999309158E+03 -0.12872125289E+04  0.13973932700E+04  0.46999998093E+01 0.  1.
</event>
<event>
 5   0  0.1549012E-04  0.1800577E+04  0.7818609E-02  0.8705993E-01
       -2   -1    0    0    0  501  0.00000000000E+00  0.00000000000E+00  0.55455593802E+03  0.55455593802E+03  0.25500000920E-02 0. -1.
        2   -1    0    0  501    0  0.00000000000E+00  0.00000000000E+00 -0.14615646406E+04  0.14615646406E+04  0.25500000920E-02 0.  1.
    10030    2    1    2    0    0  0.00000000000E+00  0.00000000000E+00 -0.90700870256E+03  0.20161205786E+04  0.18005769633E+04 0.  0.
        4    1    3    3  502    0 -0.24847115367E+03  0.85501847862E+03 -0.60256952156E+03  0.10751214602E+04  0.12699999809E+01 0. -1.
       -4    1    3    3    0  502  0.24847115367E+03 -0.85501847862E+03 -0.30443918099E+03  0.94099911839E+03  0.12699999809E+01 0.  1.
</event>
<event>
 5   0  0.8430513E-05  0.1790308E+04  0.7818609E-02  0.8711470E-01
       -1   -1    0    0    0  501  0.00000000000E+00  0.00000000000E+00  0.47272722859E+03  0.47272722862E+03  0.50400001928E-02 0.  1.
        1   -1    0    0  501    0  0.00000000000E+00  0.00000000000E+00 -0.16950598925E+04  0.16950598925E+04  0.50400001928E-02 0. -1.
    10030    2    1    2    0    0  0.00000000000E+00  0.00000000000E+00 -0.12223326639E+04  0.21677871211E+04  0.17903083146E+04 0.  0.
        5    1    3    3  502    0  0.53646083232E+03  0.68857151577E+03 -0.85138395398E+03  0.12193431363E+04  0.46999998093E+01 0.  1.
       -5    1    3    3    0  502 -0.53646083232E+03 -0.68857151577E+03 -0.37094870991E+03  0.94844398481E+03  0.46999998093E+01 0. -1.
</event>
<event>
 5   0  0.1608627E-04  0.1807307E+04  0.7818609E-02  0.8702423E-01
        2   -1    0    0  501    0  0.00000000000E+00  0.00000000000E+00  0.96816282589E+03  0.96816282590E+03  0.25500000920E-02 0.  1.
       -2   -1    0    0    0  501  0.00000000000E+00  0.00000000000E+00 -0.84344260511E+03  0.84344260511E+03  0.25500000920E-02 0. -1.
    10030    2    1    2    0    0  0.00000000000E+00  0.00000000000E+00  0.12472022078E+03  0.18116054310E+04  0.18073071416E+04 0.  0.
        2    1    3    3  502    0 -0.53448956569E+03  0.54549238240E+03 -0.42185058746E+03  0.87246716456E+03  0.25500000920E-02 0. -1.
       -2    1    3    3    0  502  0.53448956569E+03 -0.54549238240E+03  0.54657080824E+03  0.93913826645E+03  0.25500000920E-02 0.  1.
</event>
<event>
 5   0  0.8492114E-05  0.1801809E+04  0.7818609E-02  0.8705338E-01
       -1   -1    0    0    0  501  0.00000000000E+00  0.00000000000E+00  0.45961067113E+03  0.45961067116E+03  0.50400001928E-02 0. -1.
        1   -1    0    0  501    0  0.00000000000E+00  0.00000000000E+00 -0.17659054162E+04  0.17659054162E+04  0.50400001928E-02 0.  1.
    10030    2    1    2    0    0  0.00000000000E+00  0.00000000000E+00 -0.13062947451E+04  0.22255160874E+04  0.18018090615E+04 0.  0.
        2    1    3    3  502    0 -0.37389561231E+03  0.24514413118E+03 -0.16192066546E+04  0.16797987273E+04  0.25500000920E-02 0.  1.
       -2    1    3    3    0  502  0.37389561231E+03 -0.24514413118E+03  0.31291190952E+03  0.54571736007E+03  0.25500000920E-02 0. -1.
</event>
<event>
 5   0  0.1608627E-04  0.1799104E+04  0.7818609E-02  0.8706776E-01
        2   -1    0    0  501    0  0.00000000000E+00  0.00000000000E+00  0.13441970979E+04  0.13441970979E+04  0.25500000920E-02 0.  1.
       -2   -1    0    0    0  501  0.00000000000E+00  0.00000000000E+00 -0.60199049989E+03  0.60199049989E+03  0.25500000920E-02 0. -1.
    10030    2    1    2    0    0  0.00000000000E+00  0.00000000000E+00  0.74220659802E+03  0.19461875978E+04  0.17991040914E+04 0.  0.
        2    1    3    3  502    0  0.26677184252E+03  0.25248438671E+03  0.12593794489E+04  0.13118506690E+04  0.25500000920E-02 0.  1.
       -2    1    3    3    0  502 -0.26677184252E+03 -0.25248438671E+03 -0.51717285089E+03  0.63433692877E+03  0.25500000920E-02 0. -1.
</event>
<event>
 5   0  0.8430513E-05  0.1802204E+04  0.7818609E-02  0.8705128E-01
       -1   -1    0    0    0  501  0.00000000000E+00  0.00000000000E+00  0.38399209106E+03  0.38399209109E+03  0.50400001928E-02 0.  1.
        1   -1    0    0  501    0  0.00000000000E+00  0.00000000000E+00 -0.21145870325E+04  0.21145870325E+04  0.50400001928E-02 0. -1.
    10030    2    1    2    0    0  0.00000000000E+00  0.00000000000E+00 -0.17305949414E+04  0.24985791236E+04  0.18022038690E+04 0.  0.
        5    1    3    3  502    0 -0.30939682048E+03  0.22451976840E+03  0.26598203353E+03  0.46572959008E+03  0.46999998093E+01 0.  1.
       -5    1    3    3    0  502  0.30939682048E+03 -0.22451976840E+03 -0.19965769749E+04  0.20328495335E+04  0.46999998093E+01 0. -1.
</event>
<event>
 5   0  0.1549012E-04  0.1795738E+04  0.7818609E-02  0.8708569E-01
        2   -1    0    0  501    0  0.00000000000E+00  0.00000000000E+00  0.16923051050E+04  0.16923051050E+04  0.25500000920E-02 0.  1.
       -2   -1    0    0    0  501  0.00000000000E+00  0.00000000000E+00 -0.47637342031E+03  0.47637342032E+03  0.25500000920E-02 0. -1.
    10030    2    1    2    0    0  0.00000000000E+00  0.00000000000E+00  0.12159316847E+04  0.21686785253E+04  0.17957384788E+04 0.  0.
        4    1    3    3  502    0 -0.57032870604E+03 -0.39027446755E+03  0.13002297742E+04  0.14724768493E+04  0.12699999809E+01 0.  1.
       -4    1    3    3    0  502  0.57032870604E+03  0.39027446755E+03 -0.84298089532E+02  0.69620167606E+03  0.12699999809E+01 0. -1.
</event>
<event>
 5   0  0.8206783E-05  0.1803916E+04  0.7818609E-02  0.8704220E-01
       -1   -1    0    0    0  501  0.00000000000E+00  0.00000000000E+00  0.51494365185E+03  0.51494365187E+03  0.50400001928E-02 0. -1.
        1   -1    0    0  501    0  0.00000000000E+00  0.00000000000E+00 -0.15798397093E+04  0.15798397093E+04  0.50400001928E-02 0.  1.
    10030    2    1    2    0    0  0.00000000000E+00  0.00000000000E+00 -0.10648960575E+04  0.20947833612E+04  0.18039162168E+04 0.  0.
        1    1    3    3  502    0 -0.80283731888E+03  0.33008506835E+03 -0.81695118413E+03  0.11920206165E+04  0.50400001928E-02 0.  1.
       -1    1    3    3    0  502  0.80283731888E+03 -0.33008506835E+03 -0.24794487332E+03  0.90276274467E+03  0.50400001928E-02 0. -1.
</event>
<event>
 5   0  0.8430513E-05  0.1810125E+04  0.7818609E-02  0.8700934E-01
        1   -1    0    0  501    0  0.00000000000E+00  0.00000000000E+00  0.12565961499E+04  0.12565961500E+04  0.50400001928E-02 0.  1.
       -1   -1    0    0    0  501  0.00000000000E+00  0.00000000000E+00 -0.65187039925E+03  0.65187039927E+03  0.50400001928E-02 0. -1.
    10030    2    1    2    0    0  0.00000000000E+00  0.00000000000E+00  0.60472575070E+03  0.19084665492E+04  0.18101246741E+04 0.  0.
        5    1    3    3  502    0  0.36471473834E+03 -0.82609324979E+03  0.36622462633E+03  0.97446881152E+03  0.46999998093E+01 0.  1.
       -5    1    3    3    0  502 -0.36471473834E+03  0.82609324979E+03  0.23850112437E+03  0.93399773770E+03  0.46999998093E+01 0. -1.
</event>
<event>
 5   0  0.8206783E-05  0.1804169E+04  0.7818609E-02  0.8704086E-01
       -1   -1    0    0    0  501  0.00000000000E+00  0.00000000000E+00  0.15724092016E+04  0.15724092016E+04  0.50400001928E-02 0. -1.
        1   -1    0    0  501    0  0.00000000000E+00  0.00000000000E+00 -0.51752196079E+03  0.51752196081E+03  0.50400001928E-02 0.  1.
    10030    2    1    2    0    0  0.00000000000E+00  0.00000000000E+00  0.10548872408E+04  0.20899311624E+04  0.18041688316E+04 0.  0.
        1    1    3    3  502    0  0.70707732351E+03  0.42025554423E+03  0.95649106224E+03  0.12615261456E+04  0.50400001928E-02 0. -1.
       -1    1    3    3    0  502 -0.70707732351E+03 -0.42025554423E+03  0.98396178557E+02  0.82840501680E+03  0.50400001928E-02 0.  1.
</event>
<event>
 5   0  0.1608627E-04  0.1769088E+04  0.7818609E-02  0.8722913E-01
        2   -1    0    0  501    0  0.00000000000E+00  0.00000000000E+00  0.97060523681E+03  0.97060523682E+03  0.25500000920E-02 0. -1.
       -2   -1    0    0    0  501  0.00000000000E+00  0.00000000000E+00 -0.80611367970E+03  0.80611367970E+03  0.25500000920E-02 0.  1.
    10030    2    1    2    0    0  0.00000000000E+00  0.00000000000E+00  0.16449155711E+03  0.17767189165E+04  0.17690880803E+04 0.  0.
        2    1    3    3  502    0 -0.25747798740E+03  0.83439753949E+03 -0.59444271599E+02  0.87524156057E+03  0.25500000920E-02 0.  1.
       -2    1    3    3    0  502  0.25747798740E+03 -0.83439753949E+03  0.22393582871E+03  0.90147735595E+03  0.25500000920E-02 0. -1.
</event>
<event>
 5   0  0.1628397E-04  0.1800128E+04  0.7818609E-02  0.8706231E-01
        2   -1    0    0  501    0  0.00000000000E+00  0.00000000000E+00  0.18926343666E+04  0.18926343666E+04  0.25500000920E-02 0. -1.
       -2   -1    0    0    0  501  0.00000000000E+00  0.00000000000E+00 -0.42803570191E+03  0.42803570192E+03  0.25500000920E-02 0.  1.
    10030    2    1    2    0    0  0.00000000000E+00  0.00000000000E+00  0.14645986647E+04  0.23206700685E+04  0.18001278617E+04 0.  0.
        3    1    3    3  502    0  0.84057059249E+03 -0.23863499923E+03  0.10106211179E+04  0.13359867656E+04  0.10100000352E+00 0. -1.
       -3    1    3    3    0  502 -0.84057059249E+03  0.23863499923E+03  0.45397754682E+03  0.98468330291E+03  0.10100000352E+00 0.  1.
</event>
<event>
 5   0  0.8430513E-05  0.1742024E+04  0.7818609E-02  0.8737753E-01
       -1   -1    0    0    0  501  0.00000000000E+00  0.00000000000E+00  0.91718763994E+03  0.91718763995E+03  0.50400001928E-02 0. -1.
        1   -1    0    0  501    0  0.00000000000E+00  0.00000000000E+00 -0.82716060106E+03  0.82716060107E+03  0.50400001928E-02 0.  1.
    10030    2    1    2    0    0  0.00000000000E+00  0.00000000000E+00  0.90027038880E+02  0.17443482410E+04  0.17420235125E+04 0.  0.
        5    1    3    3  502    0  0.41362217937E+03 -0.60859707194E+03  0.51164580274E+03  0.89625734066E+03  0.46999998093E+01 0.  1.
       -5    1    3    3    0  502 -0.41362217937E+03  0.60859707194E+03 -0.42161876386E+03  0.84809090036E+03  0.46999998093E+01 0. -1.
</event>
<event>
 5   0  0.1603564E-04  0.1805755E+04  0.7818609E-02  0.8703245E-01
       -2   -1    0    0    0  501  0.00000000000E+00  0.00000000000E+00  0.76140753117E+03  0.76140753117E+03  0.25500000920E-02 0.  1.
        2   -1    0    0  501    0  0.00000000000E+00  0.00000000000E+00 -0.10706324301E+04  0.10706324301E+04  0.25500000920E-02 0. -1.
    10030    2    1    2    0    0  0.00000000000E+00  0.00000000000E+00 -0.30922489889E+03  0.18320399612E+04  0.18057547955E+04 0.  0.
        5    1    3    3  502    0  0.70742980145E+03 -0.11321534364E+03 -0.71205633113E+03  0.10101093736E+04  0.46999998093E+01 0. -1.
       -5    1    3    3    0  502 -0.70742980145E+03  0.11321534364E+03  0.40283143224E+03  0.82193058759E+03  0.46999998093E+01 0.  1.
</event>
<event>
 5   0  0.1603564E-04  0.1797621E+04  0.7818609E-02  0.8707566E-01
        2   -1    0    0  501    0  0.00000000000E+00  0.00000000000E+00  0.18107378789E+04  0.18107378789E+04  0.25500000920E-02 0. -1.
       -2   -1    0    0    0  501  0.00000000000E+00  0.00000000000E+00 -0.44614985058E+03  0.44614985058E+03  0.25500000920E-02 0.  1.
    10030    2    1    2    0    0  0.00000000000E+00  0.00000000000E+00  0.13645880283E+04  0.22568877295E+04  0.17976211326E+04 0.  0.
        5    1    3    3  502    0 -0.66310447712E+03 -0.54895648941E+03  0.35785946693E+03  0.93228014186E+03  0.46999998093E+01 0.  1.
       -5    1    3    3    0  502  0.66310447712E+03  0.54895648941E+03  0.10067285614E+04  0.13246075876E+04  0.46999998093E+01 0. -1.
</event>
<event>
 5   0  0.1603564E-04  0.1814052E+04  0.7818609E-02  0.8698862E-01
       -2   -1    0    0    0  501  0.00000000000E+00  0.00000000000E+00  0.57608737676E+03  0.57608737677E+03  0.25500000920E-02 0. -1.
        2   -1    0    0  501    0  0.00000000000E+00  0.00000000000E+00 -0.14280760047E+04  0.14280760047E+04  0.25500000920E-02 0.  1.
    10030    2    1    2    0    0  0.00000000000E+00  0.00000000000E+00 -0.85198862789E+03  0.20041633814E+04  0.18140524351E+04 0.  0.
        5    1    3    3  502    0  0.89864562596E+03  0.10810615539E+03 -0.36135113108E+03  0.97460126812E+03  0.46999998093E+01 0.  1.
       -5    1    3    3    0  502 -0.89864562596E+03 -0.10810615539E+03 -0.49063749681E+03  0.10295621133E+04  0.46999998093E+01 0. -1.
</event>
<event>
 5   0  0.8206783E-05  0.1812004E+04  0.7818609E-02  0.8699942E-01
       -1   -1    0    0    0  501  0.00000000000E+00  0.00000000000E+00  0.92091010245E+03  0.92091010246E+03  0.50400001928E-02 0.  1.
        1   -1    0    0  501    0  0.00000000000E+00  0.00000000000E+00 -0.89133528000E+03  0.89133528002E+03  0.50400001928E-02 0. -1.
    10030    2    1    2    0    0  0.00000000000E+00  0.00000000000E+00  0.29574822448E+02  0.18122453825E+04  0.18120040442E+04 0.  0.
        1    1    3    3  502    0  0.65323374035E+02  0.65637204212E+03  0.63595649009E+03  0.91625982024E+03  0.50400001928E-02 0.  1.
       -1    1    3    3    0  502 -0.65323374035E+02 -0.65637204212E+03 -0.60638166765E+03  0.89598556224E+03  0.50400001928E-02 0. -1.
</event>
<event>
 5   0  0.1549012E-04  0.1837389E+04  0.7818609E-02  0.8686665E-01
        2   -1    0    0  501    0  0.00000000000E+00  0.00000000000E+00  0.18562130460E+04  0.18562130460E+04  0.25500000920E-02 0.  1.
       -2   -1    0    0    0  501  0.00000000000E+00  0.00000000000E+00 -0.45468894009E+03  0.45468894010E+03  0.25500000920E-02 0. -1.
    10030    2    1    2    0    0  0.00000000000E+00  0.00000000000E+00  0.14015241059E+04  0.23109019861E+04  0.18373889545E+04 0.  0.
        4    1    3    3  502    0  0.32291954361E+03 -0.52519507936E+03  0.15573824485E+04  0.16749771959E+04  0.12699999809E+01 0.  1.
       -4    1    3    3    0  502 -0.32291954361E+03  0.52519507936E+03 -0.15585834251E+03  0.63592479026E+03  0.12699999809E+01 0. -1.
</event>
<event>
 5   0  0.8206783E-05  0.1712732E+04  0.7818609E-02  0.8754136E-01
        1   -1    0    0  501    0  0.00000000000E+00  0.00000000000E+00  0.15996463499E+04  0.15996463499E+04  0.50400001928E-02 0.  1.
       -1   -1    0    0    0  501  0.00000000000E+00  0.00000000000E+00 -0.45845297290E+03  0.45845297292E+03  0.50400001928E-02 0. -1.
    10030    2    1    2    0    0  0.00000000000E+00  0.00000000000E+00  0.11411933770E+04  0.20580993228E+04  0.17127318818E+04 0.  0.
        1    1    3    3  502    0  0.30004233511E+03  0.26336064037E+03  0.14809809067E+04  0.15338476703E+04  0.50400001928E-02 0.  1.
       -1    1    3    3    0  502 -0.30004233511E+03 -0.26336064037E+03 -0.33978752972E+03  0.52425165248E+03  0.50400001928E-02 0. -1.
</event>
<event>
 5   0  0.8132598E-05  0.1792317E+04  0.7818609E-02  0.8710396E-01
        1   -1    0    0  501    0  0.00000000000E+00  0.00000000000E+00  0.93674642554E+03  0.93674642555E+03  0.50400001928E-02 0.  1.
       -1   -1    0    0    0  501  0.00000000000E+00  0.00000000000E+00 -0.85732946542E+03  0.85732946543E+03  0.50400001928E-02 0. -1.
    10030    2    1    2    0    0  0.00000000000E+00  0.00000000000E+00  0.79416960120E+02  0.17940758910E+04  0.17923172847E+04 0.  0.
        3    1    3    3  502    0 -0.73530932699E+03  0.16200596557E+03 -0.44674630211E+03  0.87550443053E+03  0.10100000352E+00 0. -1.
       -3    1    3    3    0  502  0.73530932699E+03 -0.16200596557E+03  0.52616326223E+03  0.91857146045E+03  0.10100000352E+00 0.  1.
</event>
<event>
 5   0  0.8492114E-05  0.1798617E+04  0.7818609E-02  0.8707035E-01
       -1   -1    0    0    0  501  0.00000000000E+00  0.00000000000E+00  0.36558326878E+03  0.36558326882E+03  0.50400001928E-02 0.  1.
        1   -1    0    0  501    0  0.00000000000E+00  0.00000000000E+00 -0.22122333972E+04  0.22122333972E+04  0.50400001928E-02 0. -1.
    10030    2    1    2    0    0  0.00000000000E+00  0.00000000000E+00 -0.18466501284E+04  0.25778166660E+04  0.17986167093E+04 0.  0.
        2    1    3    3  502    0 -0.61904707910E+03  0.40758428323E+03 -0.16532998073E+04  0.18118345639E+04  0.25500000920E-02 0. -1.
       -2    1    3    3    0  502  0.61904707910E+03 -0.40758428323E+03 -0.19335032109E+03  0.76598210211E+03  0.25500000920E-02 0.  1.
</event>
<event>
 5   0  0.1549012E-04  0.1807462E+04  0.7818609E-02  0.8702341E-01
       -2   -1    0    0    0  501  0.00000000000E+00  0.00000000000E+00  0.42144492011E+03  0.42144492011E+03  0.25500000920E-02 0.  1.
        2   -1    0    0  501    0  0.00000000000E+00  0.00000000000E+00 -0.19379277347E+04  0.19379277347E+04  0.25500000920E-02 0. -1.
    10030    2    1    2    0    0  0.00000000000E+00  0.00000000000E+00 -0.15164828146E+04  0.23593726548E+04  0.18074620874E+04 0.  0.
        4    1    3    3  502    0 -0.70275484308E+03 -0.56783257825E+03 -0.73117369807E+03  0.11622886027E+04  0.12699999809E+01 0. -1.
       -4    1    3    3    0  502  0.70275484308E+03  0.56783257825E+03 -0.78530911656E+03  0.11970840521E+04  0.12699999809E+01 0.  1.
</event>
<event>
 5   0  0.8254914E-05  0.1798055E+04  0.7818609E-02  0.8707335E-01
       -1   -1    0    0    0  501  0.00000000000E+00  0.00000000000E+00  0.12227631781E+04  0.12227631781E+04  0.50400001928E-02 0.  1.
        1   -1    0    0  501    0  0.00000000000E+00  0.00000000000E+00 -0.66100304447E+03  0.66100304449E+03  0.50400001928E-02 0. -1.
    10030    2    1    2    0    0  0.00000000000E+00  0.00000000000E+00  0.56176013361E+03  0.18837662226E+04  0.17980547082E+04 0.  0.
        4    1    3    3  502    0 -0.44432580214E+03 -0.73756635628E+03  0.55169596855E+03  0.10226434388E+04  0.12699999809E+01 0.  1.
       -4    1    3    3    0  502  0.44432580214E+03  0.73756635628E+03  0.10064165056E+02  0.86112278374E+03  0.12699999809E+01 0. -1.
</event>
<event>
 5   0  0.8132598E-05  0.1801425E+04  0.7818609E-02  0.8705542E-01
       -1   -1    0    0    0  501  0.00000000000E+00  0.00000000000E+00  0.48978612037E+03  0.48978612040E+03  0.50400001928E-02 0. -1.
        1   -1    0    0  501    0  0.00000000000E+00  0.00000000000E+00 -0.16564018805E+04  0.16564018805E+04  0.50400001928E-02 0.  1.
    10030    2    1    2    0    0  0.00000000000E+00  0.00000000000E+00 -0.11666157601E+04  0.21461880009E+04  0.18014246039E+04 0.  0.
        3    1    3    3  502    0  0.42441327726E+03 -0.49957982607E+03  0.15263177102E+03  0.67305504995E+03  0.10100000352E+00 0. -1.
       -3    1    3    3    0  502 -0.42441327726E+03  0.49957982607E+03 -0.13192475311E+04  0.14731329509E+04  0.10100000352E+00 0.  1.
</event>
<event>
 5   0  0.1573981E-04  0.1799772E+04  0.7818609E-02  0.8706421E-01
        2   -1    0    0  501    0  0.00000000000E+00  0.00000000000E+00  0.99142773027E+03  0.99142773028E+03  0.25500000920E-02 0.  1.
       -2   -1    0    0    0  501  0.00000000000E+00  0.00000000000E+00 -0.81679628861E+03  0.81679628862E+03  0.25500000920E-02 0. -1.
    10030    2    1    2    0    0  0.00000000000E+00  0.00000000000E+00  0.17463144166E+03  0.18082240189E+04  0.17997716416E+04 0.  0.
        1    1    3    3  502    0 -0.76295124266E+03  0.46544585862E+03  0.19297636806E+03  0.91431631542E+03  0.50400001928E-02 0.  1.
       -1    1    3    3    0  502  0.76295124266E+03 -0.46544585862E+03 -0.18344926405E+02  0.89390770348E+03  0.50400001928E-02 0. -1.
</event>
<event>
 5   0  0.1603564E-04  0.1793320E+04  0.7818609E-02  0.8709860E-01
        2   -1    0    0  501    0  0.00000000000E+00  0.00000000000E+00  0.74049591199E+03  0.74049591200E+03  0.25500000920E-02 0.  1.
       -2   -1    0    0    0  501  0.00000000000E+00  0.00000000000E+00 -0.10857579243E+04  0.10857579243E+04  0.25500000920E-02 0. -1.
    10030    2    1    2    0    0  0.00000000000E+00  0.00000000000E+00 -0.34526201234E+03  0.18262538363E+04  0.17933201659E+04 0.  0.
        5    1    3    3  502    0  0.25231774815E+03 -0.13905848741E+03  0.69206534112E+03  0.74965194279E+03  0.46999998093E+01 0.  1.
       -5    1    3    3    0  502 -0.25231774815E+03  0.13905848741E+03 -0.10373273535E+04  0.10766018935E+04  0.46999998093E+01 0. -1.
</event>
<event>
 5   0  0.8254914E-05  0.1807100E+04  0.7818609E-02  0.8702533E-01
        1   -1    0    0  501    0  0.00000000000E+00  0.00000000000E+00  0.53400156757E+03  0.53400156760E+03  0.50400001928E-02 0.  1.
       -1   -1    0    0    0  501  0.00000000000E+00  0.00000000000E+00 -0.15288386635E+04  0.15288386635E+04  0.50400001928E-02 0. -1.
    10030    2    1    2    0    0  0.00000000000E+00  0.00000000000E+00 -0.99483709595E+03  0.20628402311E+04  0.18070996020E+04 0.  0.
        4    1    3    3  502    0  0.74596257396E+03 -0.24272314840E+03  0.14392380456E+02  0.78459125794E+03  0.12699999809E+01 0.  1.
       -4    1    3    3    0  502 -0.74596257396E+03  0.24272314840E+03 -0.10092294764E+04  0.12782489732E+04  0.12699999809E+01 0. -1.
</event>
<event>
 5   0  0.1549012E-04  0.1801936E+04  0.7818609E-02  0.8705271E-01
        2   -1    0    0  501    0  0.00000000000E+00  0.00000000000E+00  0.11329325187E+04  0.11329325187E+04  0.25500000920E-02 0.  1.
       -2   -1    0    0    0  501  0.00000000000E+00  0.00000000000E+00 -0.71649733085E+03  0.71649733085E+03  0.25500000920E-02 0. -1.
    10030    2    1    2    0    0  0.00000000000E+00  0.00000000000E+00  0.41643518788E+03  0.18494298496E+04  0.18019357655E+04 0.  0.
        4    1    3    3  502    0 -0.10039842280E+03 -0.75882581688E+02 -0.70743085818E+03  0.71853882394E+03  0.12699999809E+01 0. -1.
       -4    1    3    3    0  502  0.10039842280E+03  0.75882581688E+02  0.11238660461E+04  0.11308910256E+04  0.12699999809E+01 0.  1.
</event>
<event>
 5   0  0.1608627E-04  0.1813389E+04  0.7818609E-02  0.8699212E-01
        2   -1    0    0  501    0  0.00000000000E+00  0.00000000000E+00  0.62912458228E+03  0.62912458228E+03  0.25500000920E-02 0. -1.
       -2   -1    0    0    0  501  0.00000000000E+00  0.00000000000E+00 -0.13067279567E+04  0.13067279567E+04  0.25500000920E-02 0.  1.
    10030    2    1    2    0    0  0.00000000000E+00  0.00000000000E+00 -0.67760337444E+03  0.19358525390E+04  0.18133887393E+04 0.  0.
        2    1    3    3  502    0 -0.43437515831E+01  0.62269081679E+03 -0.10423472868E+04  0.12141872128E+04  0.25500000920E-02 0.  1.
       -2    1    3    3    0  502  0.43437515831E+01 -0.62269081679E+03  0.36474391231E+03  0.72166532622E+03  0.25500000920E-02 0. -1.
</event>
<event>
 5   0  0.8206783E-05  0.1803738E+04  0.7818609E-02  0.8704314E-01
        1   -1    0    0  501    0  0.00000000000E+00  0.00000000000E+00  0.16354494646E+04  0.16354494646E+04  0.50400001928E-02 0. -1.
       -1   -1    0    0    0  501  0.00000000000E+00  0.00000000000E+00 -0.49733578196E+03  0.49733578199E+03  0.50400001928E-02 0.  1.
    10030    2    1    2    0    0  0.00000000000E+00  0.00000000000E+00  0.11381136826E+04  0.21327852466E+04  0.18037378284E+04 0.  0.
        1    1    3    3  502    0  0.59783133546E+03 -0.65365251755E+02 -0.22562851469E+03  0.64232635666E+03  0.50400001928E-02 0.  1.
       -1    1    3    3    0  502 -0.59783133546E+03  0.65365251755E+02  0.13637421973E+04  0.14904588899E+04  0.50400001928E-02 0. -1.
</event>
<event>
 5   0  0.1608627E-04  0.1808636E+04  0.7818609E-02  0.8701721E-01
       -2   -1    0    0    0  501  0.00000000000E+00  0.00000000000E+00  0.50733617817E+03  0.50733617818E+03  0.25500000920E-02 0.  1.
        2   -1    0    0  501    0  0.00000000000E+00  0.00000000000E+00 -0.16119304352E+04  0.16119304352E+04  0.25500000920E-02 0. -1.
    10030    2    1    2    0    0  0.00000000000E+00  0.00000000000E+00 -0.11045942570E+04  0.21192666133E+04  0.18086355370E+04 0.  0.
        2    1    3    3  502    0  0.51698555776E+03 -0.65370850881E+02  0.31372215574E+03  0.60825077566E+03  0.25500000920E-02 0.  1.
       -2    1    3    3    0  502 -0.51698555776E+03  0.65370850881E+02 -0.14183164127E+04  0.15110158377E+04  0.25500000920E-02 0. -1.
</event>
<event>
 5   0  0.8492114E-05  0.1800186E+04  0.7818609E-02  0.8706201E-01
        1   -1    0    0  501    0  0.00000000000E+00  0.00000000000E+00  0.18928375847E+04  0.18928375847E+04  0.50400001928E-02 0. -1.
       -1   -1    0    0    0  501  0.00000000000E+00  0.00000000000E+00 -0.42801742672E+03  0.42801742675E+03  0.50400001928E-02 0.  1.
    10030    2    1    2    0    0  0.00000000000E+00  0.00000000000E+00  0.14648201580E+04  0.23208550115E+04  0.18001860707E+04 0.  0.
        2    1    3    3  502    0  0.13553886119E+03  0.96774230934E+02  0.18728010208E+04  0.18801913993E+04  0.25500000920E-02 0. -1.
       -2    1    3    3    0  502 -0.13553886119E+03 -0.96774230934E+02 -0.40798086278E+03  0.44066361214E+03  0.25500000920E-02 0.  1.
</event>
<event>
 5   0  0.8254914E-05  0.1789817E+04  0.7818609E-02  0.8711734E-01
       -1   -1    0    0    0  501  0.00000000000E+00  0.00000000000E+00  0.55678607153E+03  0.55678607155E+03  0.50400001928E-02 0. -1.
        1   -1    0    0  501    0  0.00000000000E+00  0.00000000000E+00 -0.14383642616E+04  0.14383642616E+04  0.50400001928E-02 0.  1.
    10030    2    1    2    0    0  0.00000000000E+00  0.00000000000E+00 -0.88157819005E+03  0.19951503331E+04  0.17898169590E+04 0.  0.
        4    1    3    3  502    0  0.82106603479E+03 -0.27556704910E+03 -0.18961018614E+03  0.88658911996E+03  0.12699999809E+01 0. -1.
       -4    1    3    3    0  502 -0.82106603479E+03  0.27556704910E+03 -0.69196800392E+03  0.11085612132E+04  0.12699999809E+01 0.  1.
</event>
<event>
 5   0  0.1573981E-04  0.1883929E+04  0.7818609E-02  0.8662898E-01
       -2   -1    0    0    0  501  0.00000000000E+00  0.00000000000E+00  0.57898911071E+03  0.57898911072E+03  0.25500000920E-02 0.  1.
        2   -1    0    0  501    0  0.00000000000E+00  0.00000000000E+00 -0.15324932815E+04  0.15324932815E+04  0.25500000920E-02 0. -1.
    10030    2    1    2    0    0  0.00000000000E+00  0.00000000000E+00 -0.95350417077E+03  0.21114823922E+04  0.18839287908E+04 0.  0.
        1    1    3    3  502    0 -0.12312827297E+03 -0.93386839501E+03 -0.48248580415E+03  0.10583304314E+04  0.50400001928E-02 0. -1.
       -1    1    3    3    0  502  0.12312827297E+03  0.93386839501E+03 -0.47101836662E+03  0.10531519608E+04  0.50400001928E-02 0.  1.
</event>
<event>
 5   0  0.1608627E-04  0.1801563E+04  0.7818609E-02  0.8705469E-01
        2   -1    0    0  501    0  0.00000000000E+00  0.00000000000E+00  0.41889508137E+03  0.41889508138E+03  0.25500000920E-02 0. -1.
       -2   -1    0    0    0  501  0.00000000000E+00  0.00000000000E+00 -0.19370188586E+04  0.19370188586E+04  0.25500000920E-02 0.  1.
    10030    2    1    2    0    0  0.00000000000E+00  0.00000000000E+00 -0.15181237772E+04  0.23559139400E+04  0.18015634015E+04 0.  0.
        2    1    3    3  502    0 -0.28975327230E+03  0.39102773896E+02  0.35511656786E+03  0.45999322007E+03  0.25500000920E-02 0. -1.
       -2    1    3    3    0  502  0.28975327230E+03 -0.39102773896E+02 -0.18732403451E+04  0.18959207199E+04  0.25500000920E-02 0.  1.
</event>
<event>
 5   0  0.8206783E-05  0.1793556E+04  0.7818609E-02  0.8709734E-01
       -1   -1    0    0    0  501  0.00000000000E+00  0.00000000000E+00  0.55800042630E+03  0.55800042632E+03  0.50400001928E-02 0.  1.
        1   -1    0    0  501    0  0.00000000000E+00  0.00000000000E+00 -0.14412362483E+04  0.14412362483E+04  0.50400001928E-02 0. -1.
    10030    2    1    2    0    0  0.00000000000E+00  0.00000000000E+00 -0.88323582200E+03  0.19992366746E+04  0.17935556205E+04 0.  0.
        1    1    3    3  502    0 -0.49828516222E+03  0.36966420930E+03 -0.11633842482E+04  0.13184849789E+04  0.50400001928E-02 0. -1.
       -1    1    3    3    0  502  0.49828516222E+03 -0.36966420930E+03  0.28014842621E+03  0.68075169575E+03  0.50400001928E-02 0.  1.
</event>
<event>
 5   0  0.8492114E-05  0.1798047E+04  0.7818609E-02  0.8707339E-01
       -1   -1    0    0    0  501  0.00000000000E+00  0.00000000000E+00  0.50952219553E+03  0.50952219555E+03  0.50400001928E-02 0.  1.
        1   -1    0    0  501    0  0.00000000000E+00  0.00000000000E+00 -0.15862772202E+04  0.15862772202E+04  0.50400001928E-02 0. -1.
    10030    2    1    2    0    0  0.00000000000E+00  0.00000000000E+00 -0.10767550247E+04  0.20957994157E+04  0.17980472207E+04 0.  0.
        2    1    3    3  502    0  0.42181104764E+03 -0.81899043339E+02  0.38208405166E+03  0.57499585716E+03  0.25500000920E-02 0.  1.
       -2    1    3    3    0  502 -0.42181104764E+03  0.81899043339E+02 -0.14588390763E+04  0.15208035586E+04  0.25500000920E-02 0. -1.
</event>
<event>
 5   0  0.1573981E-04  0.1794123E+04  0.7818609E-02  0.8709431E-01
       -2   -1    0    0    0  501  0.00000000000E+00  0.00000000000E+00  0.49280233283E+03  0.49280233284E+03  0.25500000920E-02 0. -1.
        2   -1    0    0  501    0  0.00000000000E+00  0.00000000000E+00 -0.16329453396E+04  0.16329453396E+04  0.25500000920E-02 0.  1.
    10030    2    1    2    0    0  0.00000000000E+00  0.00000000000E+00 -0.11401430068E+04  0.21257476725E+04  0.17941229309E+04 0.  0.
        1    1    3    3  502    0 -0.73034037066E+01  0.31563127615E+03  0.42480062824E+03  0.52927499088E+03  0.50400001928E-02 0. -1.
       -1    1    3    3    0  502  0.73034037066E+01 -0.31563127615E+03 -0.15649436350E+04  0.15964726816E+04  0.50400001928E-02 0.  1.
</event>
<event>
 5   0  0.8492114E-05  0.1791588E+04  0.7818609E-02  0.8710786E-01
        1   -1    0    0  501    0  0.00000000000E+00  0.00000000000E+00  0.66269505693E+03  0.66269505695E+03  0.50400001928E-02 0.  1.
       -1   -1    0    0    0  501  0.00000000000E+00  0.00000000000E+00 -0.12108843438E+04  0.12108843438E+04  0.50400001928E-02 0. -1.
    10030    2    1    2    0    0  0.00000000000E+00  0.00000000000E+00 -0.54818928682E+03  0.18735794007E+04  0.17915881995E+04 0.  0.
        2    1    3    3  502    0  0.24495233553E+03 -0.74202870817E+03 -0.73213332440E+03  0.10708069178E+04  0.25500000920E-02 0. -1.
       -2    1    3    3    0  502 -0.24495233553E+03  0.74202870817E+03  0.18394403757E+03  0.80277248295E+03  0.25500000920E-02 0.  1.
</event>
<event>
 5   0  0.8132598E-05  0.1801331E+04  0.7818609E-02  0.8705592E-01
        1   -1    0    0  501    0  0.00000000000E+00  0.00000000000E+00  0.17064119967E+04  0.17064119967E+04  0.50400001928E-02 0.  1.
       -1   -1    0    0    0  501  0.00000000000E+00  0.00000000000E+00 -0.47538256332E+03  0.47538256335E+03  0.50400001928E-02 0. -1.
    10030    2    1    2    0    0  0.00000000000E+00  0.00000000000E+00  0.12310294333E+04  0.21817945600E+04  0.18013311845E+04 0.  0.
        3    1    3    3  502    0 -0.63870742434E+03 -0.22364688471E+03  0.13353798936E+04  0.14970653203E+04  0.10100000352E+00 0.  1.
       -3    1    3    3    0  502  0.63870742434E+03  0.22364688471E+03 -0.10435046024E+03  0.68472923970E+03  0.10100000352E+00 0. -1.
</event>
<event>
 5   0  0.1549012E-04  0.1802432E+04  0.7818609E-02  0.8705007E-01
       -2   -1    0    0    0  501  0.00000000000E+00  0.00000000000E+00  0.47163242087E+03  0.47163242088E+03  0.25500000920E-02 0.  1.
        2   -1    0    0  501    0  0.00000000000E+00  0.00000000000E+00 -0.17220839541E+04  0.17220839541E+04  0.25500000920E-02 0. -1.
    10030    2    1    2    0    0  0.00000000000E+00  0.00000000000E+00 -0.12504515333E+04  0.21937163750E+04  0.18024323835E+04 0.  0.
        4    1    3    3  502    0 -0.64930066246E+03  0.21683502440E+03 -0.13386298332E+04  0.15035093021E+04  0.12699999809E+01 0.  1.
       -4    1    3    3    0  502  0.64930066246E+03 -0.21683502440E+03  0.88178299954E+02  0.69020707296E+03  0.12699999809E+01 0. -1.
</event>
<event>
 5   0  0.1549012E-04  0.1800366E+04  0.7818609E-02  0.8706105E-01
       -2   -1    0    0    0  501  0.00000000000E+00  0.00000000000E+00  0.40854022257E+03  0.40854022258E+03  0.25500000920E-02 0.  1.
        2   -1    0    0  501    0  0.00000000000E+00  0.00000000000E+00 -0.19834742091E+04  0.19834742092E+04  0.25500000920E-02 0. -1.
    10030    2    1    2    0    0  0.00000000000E+00  0.00000000000E+00 -0.15749339866E+04  0.23920144317E+04  0.18003655128E+04 0.  0.
        4    1    3    3  502    0 -0.56946079363E+03 -0.18128048972E+03 -0.16818799471E+04  0.17849005521E+04  0.12699999809E+01 0. -1.
       -4    1    3    3    0  502  0.56946079363E+03  0.18128048972E+03  0.10694596056E+03  0.60711387961E+03  0.12699999809E+01 0.  1.
</event>
<event>
 5   0  0.1549012E-04  0.1797564E+04  0.7818609E-02  0.8707596E-01
       -2   -1    0    0    0  501  0.00000000000E+00  0.00000000000E+00  0.88163663592E+03  0.88163663592E+03  0.25500000920E-02 0.  1.
        2   -1    0    0  501    0  0.00000000000E+00  0.00000000000E+00 -0.91626052668E+03  0.91626052669E+03  0.25500000920E-02 0. -1.
    10030    2    1    2    0    0  0.00000000000E+00  0.00000000000E+00 -0.34623890769E+02  0.17978971626E+04  0.17975637384E+04 0.  0.
        4    1    3    3  502    0  0.73357635314E+03  0.35633419944E+01 -0.53669650260E+03  0.90895088541E+03  0.12699999809E+01 0. -1.
       -4    1    3    3    0  502 -0.73357635314E+03 -0.35633419944E+01  0.50207261183E+03  0.88894627719E+03  0.12699999809E+01 0.  1.
</event>
<event>
 5   0  0.1628397E-04  0.1799729E+04  0.7818609E-02  0.8706444E-01
        2   -1    0    0  501    0  0.00000000000E+00  0.00000000000E+00  0.25224750909E+04  0.25224750909E+04  0.25500000920E-02 0. -1.
       -2   -1    0    0    0  501  0.00000000000E+00  0.00000000000E+00 -0.32101648004E+03  0.32101648005E+03  0.25500000920E-02 0.  1.
    10030    2    1    2    0    0  0.00000000000E+00  0.00000000000E+00  0.22014586108E+04  0.28434915709E+04  0.17997289515E+04 0.  0.
        3    1    3    3  502    0 -0.71698441186E+02 -0.78848723083E+03  0.42502669804E+03  0.89861030703E+03  0.10100000352E+00 0.  1.
       -3    1    3    3    0  502  0.71698441186E+02  0.78848723083E+03  0.17764319128E+04  0.19448812639E+04  0.10100000352E+00 0. -1.
</event>
<event>
 5   0  0.8206783E-05  0.1776563E+04  0.7818609E-02  0.8718863E-01
        1   -1    0    0  501    0  0.00000000000E+00  0.00000000000E+00  0.15243457285E+04  0.15243457285E+04  0.50400001928E-02 0. -1.
       -1   -1    0    0    0  501  0.00000000000E+00  0.00000000000E+00 -0.51762825700E+03  0.51762825703E+03  0.50400001928E-02 0.  1.
    10030    2    1    2    0    0  0.00000000000E+00  0.00000000000E+00  0.10067174715E+04  0.20419739855E+04  0.17765634495E+04 0.  0.
        1    1    3    3  502    0 -0.58806670675E+03  0.41070350952E+03  0.11056075224E+04  0.13179028105E+04  0.50400001928E-02 0. -1.
       -1    1    3    3    0  502  0.58806670675E+03 -0.41070350952E+03 -0.98890050895E+02  0.72407117503E+03  0.50400001928E-02 0.  1.
</event>
<event>
 5   0  0.1608627E-04  0.1796690E+04  0.7818609E-02  0.8708061E-01
       -2   -1    0    0    0  501  0.00000000000E+00  0.00000000000E+00  0.53456005133E+03  0.53456005134E+03  0.25500000920E-02 0. -1.
        2   -1    0    0  501    0  0.00000000000E+00  0.00000000000E+00 -0.15096976144E+04  0.15096976144E+04  0.25500000920E-02 0.  1.
    10030    2    1    2    0    0  0.00000000000E+00  0.00000000000E+00 -0.97513756304E+03  0.20442576657E+04  0.17966903286E+04 0.  0.
        2    1    3    3  502    0 -0.82132401310E+03 -0.19950689891E+03 -0.14124669617E+03  0.85692868221E+03  0.25500000920E-02 0.  1.
       -2    1    3    3    0  502  0.82132401310E+03  0.19950689891E+03 -0.83389086687E+03  0.11873289835E+04  0.25500000920E-02 0. -1.
</event>
<event>
 5   0  0.1573981E-04  0.1801992E+04  0.7818609E-02  0.8705241E-01
       -2   -1    0    0    0  501  0.00000000000E+00  0.00000000000E+00  0.66680970527E+03  0.66680970528E+03  0.25500000920E-02 0. -1.
        2   -1    0    0  501    0  0.00000000000E+00  0.00000000000E+00 -0.12174296717E+04  0.12174296717E+04  0.25500000920E-02 0.  1.
    10030    2    1    2    0    0  0.00000000000E+00  0.00000000000E+00 -0.55061996639E+03  0.18842393769E+04  0.18019921427E+04 0.  0.
        1    1    3    3  502    0 -0.55880696134E+03  0.27635218897E+03 -0.95550672406E+03  0.11408895004E+04  0.50400001928E-02 0.  1.
       -1    1    3    3    0  502  0.55880696134E+03 -0.27635218897E+03  0.40488675766E+03  0.74334987654E+03  0.50400001928E-02 0. -1.
</event>
<event>
 5   0  0.8492114E-05  0.1795622E+04  0.7818609E-02  0.8708631E-01
        1   -1    0    0  501    0  0.00000000000E+00  0.00000000000E+00  0.80882326833E+03  0.80882326834E+03  0.50400001928E-02 0.  1.
       -1   -1    0    0    0  501  0.00000000000E+00  0.00000000000E+00 -0.99658922740E+03  0.99658922741E+03  0.50400001928E-02 0. -1.
    10030    2    1    2    0    0  0.00000000000E+00  0.00000000000E+00 -0.18776595907E+03  0.18054124958E+04  0.17956219603E+04 0.  0.
        2    1    3    3  502    0 -0.56664639118E+03  0.25389786019E+03  0.55812196252E+03  0.83489662899E+03  0.25500000920E-02 0.  1.
       -2    1    3    3    0  502  0.56664639118E+03 -0.25389786019E+03 -0.74588792159E+03  0.97051586676E+03  0.25500000920E-02 0. -1.
</event>
<event>
 5   0  0.8492114E-05  0.1809558E+04  0.7818609E-02  0.8701233E-01
        1   -1    0    0  501    0  0.00000000000E+00  0.00000000000E+00  0.24451781197E+04  0.24451781197E+04  0.50400001928E-02 0. -1.
       -1   -1    0    0    0  501  0.00000000000E+00  0.00000000000E+00 -0.33479166275E+03  0.33479166279E+03  0.50400001928E-02 0.  1.
    10030    2    1    2    0    0  0.00000000000E+00  0.00000000000E+00  0.21103864570E+04  0.27799697825E+04  0.18095582317E+04 0.  0.
        2    1    3    3  502    0  0.29385543422E+03  0.54601211777E+03  0.20674365348E+04  0.21584193463E+04  0.25500000920E-02 0. -1.
       -2    1    3    3    0  502 -0.29385543422E+03 -0.54601211777E+03  0.42949922177E+02  0.62155043624E+03  0.25500000920E-02 0.  1.
</event>
<event>
 5   0  0.1549012E-04  0.1888297E+04  0.7818609E-02  0.8660704E-01
       -2   -1    0    0    0  501  0.00000000000E+00  0.00000000000E+00  0.41477282276E+03  0.41477282277E+03  0.25500000920E-02 0.  1.
        2   -1    0    0  501    0  0.00000000000E+00  0.00000000000E+00 -0.21491678688E+04  0.21491678688E+04  0.25500000920E-02 0. -1.
    10030    2    1    2    0    0  0.00000000000E+00  0.00000000000E+00 -0.17343950460E+04  0.25639406916E+04  0.18882970355E+04 0.  0.
        4    1    3    3  502    0  0.50119710833E+03  0.45468300118E+03  0.26770561788E+02  0.67723958009E+03  0.12699999809E+01 0.  1.
       -4    1    3    3    0  502 -0.50119710833E+03 -0.45468300118E+03 -0.17611656078E+04  0.18867011115E+04  0.12699999809E+01 0. -1.
</event>
<event>
 5   0  0.1549012E-04  0.1886956E+04  0.7818609E-02  0.8661377E-01
        2   -1    0    0  501    0  0.00000000000E+00  0.00000000000E+00  0.99983392703E+03  0.99983392704E+03  0.25500000920E-02 0. -1.
       -2   -1    0    0    0  501  0.00000000000E+00  0.00000000000E+00 -0.89029854353E+03  0.89029854354E+03  0.25500000920E-02 0.  1.
    10030    2    1    2    0    0  0.00000000000E+00  0.00000000000E+00  0.10953538350E+03  0.18901324706E+04  0.18869559497E+04 0.  0.
        4    1    3    3  502    0  0.69683093269E+03  0.10105239463E+02 -0.58228532624E+03  0.90814826910E+03  0.12699999809E+01 0.  1.
       -4    1    3    3    0  502 -0.69683093269E+03 -0.10105239463E+02  0.69182070974E+03  0.98198420147E+03  0.12699999809E+01 0. -1.
</event>
<event>
 5   0  0.1549012E-04  0.1796321E+04  0.7818609E-02  0.8708258E-01
       -2   -1    0    0    0  501  0.00000000000E+00  0.00000000000E+00  0.62590280594E+03  0.62590280594E+03  0.25500000920E-02 0. -1.
        2   -1    0    0  501    0  0.00000000000E+00  0.00000000000E+00 -0.12888459618E+04  0.12888459618E+04  0.25500000920E-02 0.  1.
    10030    2    1    2    0    0  0.00000000000E+00  0.00000000000E+00 -0.66294315581E+03  0.19147487677E+04  0.17963210224E+04 0.  0.
        4    1    3    3  502    0  0.33795366721E+03 -0.24847359715E+03 -0.11780216440E+04  0.12504752762E+04  0.12699999809E+01 0.  1.
       -4    1    3    3    0  502 -0.33795366721E+03  0.24847359715E+03  0.51507848819E+03  0.66427349153E+03  0.12699999809E+01 0. -1.
</event>
<event>
 5   0  0.8132598E-05  0.1803380E+04  0.7818609E-02  0.8704504E-01
       -1   -1    0    0    0  501  0.00000000000E+00  0.00000000000E+00  0.10702638635E+04  0.10702638635E+04  0.50400001928E-02 0. -1.
        1   -1    0    0  501    0  0.00000000000E+00  0.00000000000E+00 -0.75966797972E+03  0.75966797974E+03  0.50400001928E-02 0.  1.
    10030    2    1    2    0    0  0.00000000000E+00  0.00000000000E+00  0.31059588378E+03  0.18299318433E+04  0.18033803670E+04 0.  0.
        3    1    3    3  502    0  0.48120924116E+03 -0.76245879493E+03  0.14331608337E+03  0.91293223062E+03  0.10100000352E+00 0.  1.
       -3    1    3    3    0  502 -0.48120924116E+03  0.76245879493E+03  0.16727980041E+03  0.91699961264E+03  0.10100000352E+00 0. -1.
</event>
<event>
 5   0  0.8430513E-05  0.1801721E+04  0.7818609E-02  0.8705385E-01
       -1   -1    0    0    0  501  0.00000000000E+00  0.00000000000E+00  0.57582459869E+03  0.57582459871E+03  0.50400001928E-02 0. -1.
        1   -1    0    0  501    0  0.00000000000E+00  0.00000000000E+00 -0.14093696437E+04  0.14093696437E+04  0.50400001928E-02 0.  1.
    10030    2    1    2    0    0  0.00000000000E+00  0.00000000000E+00 -0.83354504500E+03  0.19851942424E+04  0.18017210767E+04 0.  0.
        5    1    3    3  502    0  0.78520738089E+03 -0.39106431955E+03 -0.64270370316E+03  0.10874612973E+04  0.46999998093E+01 0. -1.
       -5    1    3    3    0  502 -0.78520738089E+03  0.39106431955E+03 -0.19084134184E+03  0.89773294513E+03  0.46999998093E+01 0.  1.
</event>
<event>
 5   0  0.1608627E-04  0.1814630E+04  0.7818609E-02  0.8698558E-01
        2   -1    0    0  501    0  0.00000000000E+00  0.00000000000E+00  0.16470689717E+04  0.16470689717E+04  0.25500000920E-02 0. -1.
       -2   -1    0    0    0  501  0.00000000000E+00  0.00000000000E+00 -0.49980924153E+03  0.49980924154E+03  0.25500000920E-02 0.  1.
    10030    2    1    2    0    0  0.00000000000E+00  0.00000000000E+00  0.11472597302E+04  0.21468782133E+04  0.18146297623E+04 0.  0.
        2    1    3    3  502    0  0.84340409848E+03 -0.26381430519E+03  0.33032677142E+03  0.94342155841E+03  0.25500000920E-02 0.  1.
       -2    1    3    3    0  502 -0.84340409848E+03  0.26381430519E+03  0.81693295876E+03  0.12034566548E+04  0.25500000920E-02 0. -1.
</event>
<event>
 5   0  0.8492114E-05  0.1787331E+04  0.7818609E-02  0.8713066E-01
       -1   -1    0    0    0  501  0.00000000000E+00  0.00000000000E+00  0.10621352356E+04  0.10621352356E+04  0.50400001928E-02 0.  1.
        1   -1    0    0  501    0  0.00000000000E+00  0.00000000000E+00 -0.75191714948E+03  0.75191714949E+03  0.50400001928E-02 0. -1.
    10030    2    1    2    0    0  0.00000000000E+00  0.00000000000E+00  0.31021808613E+03  0.18140523851E+04  0.17873306339E+04 0.  0.
        2    1    3    3  502    0  0.68938235899E+02  0.68898498923E+03  0.72852014346E+03  0.10050842727E+04  0.25500000920E-02 0.  1.
       -2    1    3    3    0  502 -0.68938235899E+02 -0.68898498923E+03 -0.41830205734E+03  0.80896811243E+03  0.25500000920E-02 0. -1.
</event>
<event>
 5   0  0.8492114E-05  0.1810339E+04  0.7818609E-02  0.8700821E-01
        1   -1    0    0  501    0  0.00000000000E+00  0.00000000000E+00  0.11250751065E+04  0.11250751065E+04  0.50400001928E-02 0.  1.
       -1   -1    0    0    0  501  0.00000000000E+00  0.00000000000E+00 -0.72824607826E+03  0.72824607827E+03  0.50400001928E-02 0. -1.
    10030    2    1    2    0    0  0.00000000000E+00  0.00000000000E+00  0.39682902825E+03  0.18533211848E+04  0.18103386800E+04 0.  0.
        2    1    3    3  502    0  0.67082729751E+02  0.63101148083E+03 -0.46240012391E+03  0.78516842535E+03  0.25500000920E-02 0. -1.
       -2    1    3    3    0  502 -0.67082729751E+02 -0.63101148083E+03  0.85922915216E+03  0.10681527594E+04  0.25500000920E-02 0.  1.
</event>
<event>
 5   0  0.8206783E-05  0.1792819E+04  0.7818609E-02  0.8710127E-01
        1   -1    0    0  501    0  0.00000000000E+00  0.00000000000E+00  0.16458103833E+04  0.16458103833E+04  0.50400001928E-02 0.  1.
       -1   -1    0    0    0  501  0.00000000000E+00  0.00000000000E+00 -0.48823987771E+03  0.48823987774E+03  0.50400001928E-02 0. -1.
    10030    2    1    2    0    0  0.00000000000E+00  0.00000000000E+00  0.11575705056E+04  0.21340502610E+04  0.17928192997E+04 0.  0.
        1    1    3    3  502    0  0.52772655185E+03 -0.34145934585E+02  0.14403496926E+04  0.15343625698E+04  0.50400001928E-02 0.  1.
       -1    1    3    3    0  502 -0.52772655185E+03  0.34145934585E+02 -0.28277918708E+03  0.59968769126E+03  0.50400001928E-02 0. -1.
</event>
<event>
 5   0  0.1608627E-04  0.1800634E+04  0.7818609E-02  0.8705962E-01
        2   -1    0    0  501    0  0.00000000000E+00  0.00000000000E+00  0.11951338904E+04  0.11951338904E+04  0.25500000920E-02 0.  1.
       -2   -1    0    0    0  501  0.00000000000E+00  0.00000000000E+00 -0.67822595821E+03  0.67822595822E+03  0.25500000920E-02 0. -1.
    10030    2    1    2    0    0  0.00000000000E+00  0.00000000000E+00  0.51690793220E+03  0.18733598486E+04  0.18006341417E+04 0.  0.
        2    1    3    3  502    0  0.19543195225E+03 -0.15695766293E+03  0.11580995691E+04  0.11849151732E+04  0.25500000920E-02 0.  1.
       -2    1    3    3    0  502 -0.19543195225E+03  0.15695766293E+03 -0.64119163685E+03  0.68844467540E+03  0.25500000920E-02 0. -1.
</event>
<event>
 5   0  0.1549012E-04  0.1779817E+04  0.7818609E-02  0.8717107E-01
        2   -1    0    0  501    0  0.00000000000E+00  0.00000000000E+00  0.20776428532E+04  0.20776428532E+04  0.25500000920E-02 0.  1.
       -2   -1    0    0    0  501  0.00000000000E+00  0.00000000000E+00 -0.38117103726E+03  0.38117103727E+03  0.25500000920E-02 0. -1.
    10030    2    1    2    0    0  0.00000000000E+00  0.00000000000E+00  0.16964718159E+04  0.24588138904E+04  0.17798171607E+04 0.  0.
        4    1    3    3  502    0  0.10655692658E+03 -0.37518654161E+03 -0.25680392876E+03  0.46697879003E+03  0.12699999809E+01 0. -1.
       -4    1    3    3    0  502 -0.10655692658E+03  0.37518654161E+03  0.19532757447E+04  0.19918351004E+04  0.12699999809E+01 0.  1.
</event>
<event>
 5   0  0.8132598E-05  0.1777632E+04  0.7818609E-02  0.8718286E-01
        1   -1    0    0  501    0  0.00000000000E+00  0.00000000000E+00  0.21672780645E+04  0.21672780645E+04  0.50400001928E-02 0. -1.
       -1   -1    0    0    0  501  0.00000000000E+00  0.00000000000E+00 -0.36450956673E+03  0.36450956676E+03  0.50400001928E-02 0.  1.
    10030    2    1    2    0    0  0.00000000000E+00  0.00000000000E+00  0.18027684978E+04  0.25317876313E+04  0.17776316697E+04 0.  0.
        3    1    3    3  502    0 -0.25216410462E+03 -0.59688604235E+03  0.34891518283E+02  0.64890454727E+03  0.10100000352E+00 0.  1.
       -3    1    3    3    0  502  0.25216410462E+03  0.59688604235E+03  0.17678769795E+04  0.18828830840E+04  0.10100000352E+00 0. -1.
</event>
<event>
 5   0  0.1573981E-04  0.1803661E+04  0.7818609E-02  0.8704355E-01
        2   -1    0    0  501    0  0.00000000000E+00  0.00000000000E+00  0.18926023987E+04  0.18926023987E+04  0.25500000920E-02 0. -1.
       -2   -1    0    0    0  501  0.00000000000E+00  0.00000000000E+00 -0.42972499597E+03  0.42972499597E+03  0.25500000920E-02 0.  1.
    10030    2    1    2    0    0  0.00000000000E+00  0.00000000000E+00  0.14628774028E+04  0.23223273947E+04  0.18036613409E+04 0.  0.
        1    1    3    3  502    0 -0.66722195834E+03 -0.25885183896E+03  0.24909007483E+02  0.71610744648E+03  0.50400001928E-02 0.  1.
       -1    1    3    3    0  502  0.66722195834E+03  0.25885183896E+03  0.14379683953E+04  0.16062199482E+04  0.50400001928E-02 0. -1.
</event>
<event>
 5   0  0.8492114E-05  0.1817504E+04  0.7818609E-02  0.8697046E-01
        1   -1    0    0  501    0  0.00000000000E+00  0.00000000000E+00  0.79167789531E+03  0.79167789533E+03  0.50400001928E-02 0.  1.
       -1   -1    0    0    0  501  0.00000000000E+00  0.00000000000E+00 -0.10431393556E+04  0.10431393556E+04  0.50400001928E-02 0. -1.
    10030    2    1    2    0    0  0.00000000000E+00  0.00000000000E+00 -0.25146146032E+03  0.18348172510E+04  0.18175041894E+04 0.  0.
        2    1    3    3  502    0  0.28827309406E+03  0.74268108962E+03  0.31564541052E+03  0.85691808408E+03  0.25500000920E-02 0.  1.
       -2    1    3    3    0  502 -0.28827309406E+03 -0.74268108962E+03 -0.56710687083E+03  0.97789916688E+03  0.25500000920E-02 0. -1.
</event>
<event>
 5   0  0.8206783E-05  0.1798478E+04  0.7818609E-02  0.8707109E-01
        1   -1    0    0  501    0  0.00000000000E+00  0.00000000000E+00  0.60887646713E+03  0.60887646715E+03  0.50400001928E-02 0. -1.
       -1   -1    0    0    0  501  0.00000000000E+00  0.00000000000E+00 -0.13280701614E+04  0.13280701615E+04  0.50400001928E-02 0.  1.
    10030    2    1    2    0    0  0.00000000000E+00  0.00000000000E+00 -0.71919369431E+03  0.19369466286E+04  0.17984778765E+04 0.  0.
        1    1    3    3  502    0  0.94554620065E+01 -0.54009408871E+03  0.41466963827E+03  0.68098600525E+03  0.50400001928E-02 0. -1.
       -1    1    3    3    0  502 -0.94554620065E+01  0.54009408871E+03 -0.11338633326E+04  0.12559606234E+04  0.50400001928E-02 0.  1.
</event>
<event>
 5   0  0.8132598E-05  0.1823817E+04  0.7818609E-02  0.8693736E-01
       -1   -1    0    0    0  501  0.00000000000E+00  0.00000000000E+00  0.10605933963E+04  0.10605933963E+04  0.50400001928E-02 0.  1.
        1   -1    0    0  501    0  0.00000000000E+00  0.00000000000E+00 -0.78406756479E+03  0.78406756481E+03  0.50400001928E-02 0. -1.
    10030    2    1    2    0    0  0.00000000000E+00  0.00000000000E+00  0.27652583154E+03  0.18446609611E+04  0.18238167468E+04 0.  0.
        3    1    3    3  502    0  0.64497899554E+03  0.64464986030E+03  0.13588568006E+03  0.92197411857E+03  0.10100000352E+00 0. -1.
       -3    1    3    3    0  502 -0.64497899554E+03 -0.64464986030E+03  0.14064015148E+03  0.92268684258E+03  0.10100000352E+00 0.  1.
</event>
<event>
 5   0  0.8206783E-05  0.1791171E+04  0.7818609E-02  0.8711009E-01
       -1   -1    0    0    0  501  0.00000000000E+00  0.00000000000E+00  0.11316616448E+04  0.11316616448E+04  0.50400001928E-02 0. -1.
        1   -1    0    0  501    0  0.00000000000E+00  0.00000000000E+00 -0.70875697704E+03  0.70875697706E+03  0.50400001928E-02 0.  1.
    10030    2    1    2    0    0  0.00000000000E+00  0.00000000000E+00  0.42290466780E+03  0.18404186219E+04  0.17911706635E+04 0.  0.
        1    1    3    3  502    0 -0.28505107351E+03  0.30647330828E+02 -0.66033312085E+03  0.71988416006E+03  0.50400001928E-02 0.  1.
       -1    1    3    3    0  502  0.28505107351E+03 -0.30647330828E+02  0.10832377886E+04  0.11205344618E+04  0.50400001928E-02 0. -1.
</event>
<event>
 5   0  0.8206783E-05  0.1800003E+04  0.7818609E-02  0.8706298E-01
       -1   -1    0    0    0  501  0.00000000000E+00  0.00000000000E+00  0.83189549624E+03  0.83189549625E+03  0.50400001928E-02 0.  1.
        1   -1    0    0  501    0  0.00000000000E+00  0.00000000000E+00 -0.97368287165E+03  0.97368287166E+03  0.50400001928E-02 0. -1.
    10030    2    1    2    0    0  0.00000000000E+00  0.00000000000E+00 -0.14178737541E+03  0.18055783679E+04  0.18000026619E+04 0.  0.
        1    1    3    3  502    0  0.37142236129E+03  0.81912646469E+03 -0.10385365075E+03  0.90537744417E+03  0.50400001928E-02 0.  1.
       -1    1    3    3    0  502 -0.37142236129E+03 -0.81912646469E+03 -0.37933724660E+02  0.90020092374E+03  0.50400001928E-02 0. -1.
</event>
<event>
 5   0  0.8492114E-05  0.1791958E+04  0.7818609E-02  0.8710588E-01
        1   -1    0    0  501    0  0.00000000000E+00  0.00000000000E+00  0.16613864085E+04  0.16613864085E+04  0.50400001928E-02 0.  1.
       -1   -1    0    0    0  501  0.00000000000E+00  0.00000000000E+00 -0.48319784600E+03  0.48319784603E+03  0.50400001928E-02 0. -1.
    10030    2    1    2    0    0  0.00000000000E+00  0.00000000000E+00  0.11781885625E+04  0.21445842546E+04  0.17919579616E+04 0.  0.
        2    1    3    3  502    0 -0.77200992655E+03  0.28410355600E+03  0.10140181649E+04  0.13057361892E+04  0.25500000920E-02 0.  1.
       -2    1    3    3    0  502  0.77200992655E+03 -0.28410355600E+03  0.16417039766E+03  0.83884806532E+03  0.25500000920E-02 0. -1.
</event>
<event>
 5   0  0.8206783E-05  0.1801476E+04  0.7818609E-02  0.8705515E-01
       -1   -1    0    0    0  501  0.00000000000E+00  0.00000000000E+00  0.82713864484E+03  0.82713864485E+03  0.50400001928E-02 0. -1.
        1   -1    0    0  501    0  0.00000000000E+00  0.00000000000E+00 -0.98088656032E+03  0.98088656033E+03  0.50400001928E-02 0.  1.
    10030    2    1    2    0    0  0.00000000000E+00  0.00000000000E+00 -0.15374791548E+03  0.18080252052E+04  0.18014762616E+04 0.  0.
        1    1    3    3  502    0  0.28851454793E+03 -0.79543952822E+03 -0.38680800572E+03  0.93036827157E+03  0.50400001928E-02 0. -1.
       -1    1    3    3    0  502 -0.28851454793E+03  0.79543952822E+03  0.23306009025E+03  0.87765693361E+03  0.50400001928E-02 0.  1.
</event>
<event>
 5   0  0.1608627E-04  0.1751312E+04  0.7818609E-02  0.8732628E-01
       -2   -1    0    0    0  501  0.00000000000E+00  0.00000000000E+00  0.63578419929E+03  0.63578419930E+03  0.25500000920E-02 0. -1.
        2   -1    0    0  501    0  0.00000000000E+00  0.00000000000E+00 -0.12060284048E+04  0.12060284048E+04  0.25500000920E-02 0.  1.
    10030    2    1    2    0    0  0.00000000000E+00  0.00000000000E+00 -0.57024420548E+03  0.18418126041E+04  0.17513124263E+04 0.  0.
        2    1    3    3  502    0 -0.27073133583E+03  0.47387456958E+03 -0.10052866929E+04  0.11438766974E+04  0.25500000920E-02 0.  1.
       -2    1    3    3    0  502  0.27073133583E+03 -0.47387456958E+03  0.43504248746E+03  0.69793590665E+03  0.25500000920E-02 0. -1.
</event>
<event>
 5   0  0.8492114E-05  0.1797733E+04  0.7818609E-02  0.8707506E-01
        1   -1    0    0  501    0  0.00000000000E+00  0.00000000000E+00  0.11878362391E+04  0.11878362391E+04  0.50400001928E-02 0. -1.
       -1   -1    0    0    0  501  0.00000000000E+00  0.00000000000E+00 -0.68019538026E+03  0.68019538028E+03  0.50400001928E-02 0.  1.
    10030    2    1    2    0    0  0.00000000000E+00  0.00000000000E+00  0.50764085887E+03  0.18680316194E+04  0.17977327080E+04 0.  0.
        2    1    3    3  502    0 -0.65987224186E+03 -0.30534823320E+03  0.80296690177E+03  0.10832473238E+04  0.25500000920E-02 0.  1.
       -2    1    3    3    0  502  0.65987224186E+03  0.30534823320E+03 -0.29532604289E+03  0.78478429566E+03  0.25500000920E-02 0. -1.
</event>
<event>
 5   0  0.8430513E-05  0.1796370E+04  0.7818609E-02  0.8708232E-01
        1   -1    0    0  501    0  0.00000000000E+00  0.00000000000E+00  0.66730524601E+03  0.66730524603E+03  0.50400001928E-02 0.  1.
       -1   -1    0    0    0  501  0.00000000000E+00  0.00000000000E+00 -0.12089458695E+04  0.12089458695E+04  0.50400001928E-02 0. -1.
    10030    2    1    2    0    0  0.00000000000E+00  0.00000000000E+00 -0.54164062346E+03  0.18762511155E+04  0.17963695843E+04 0.  0.
        5    1    3    3  502    0  0.30351406064E+03 -0.74916727937E+03 -0.67982193313E+03  0.10561971162E+04  0.46999998093E+01 0. -1.
       -5    1    3    3    0  502 -0.30351406064E+03  0.74916727937E+03  0.13818130966E+03  0.82005399933E+03  0.46999998093E+01 0.  1.
</event>
<event>
 5   0  0.1573981E-04  0.1785339E+04  0.7818609E-02  0.8714135E-01
       -2   -1    0    0    0  501  0.00000000000E+00  0.00000000000E+00  0.53038842697E+03  0.53038842698E+03  0.25500000920E-02 0. -1.
        2   -1    0    0  501    0  0.00000000000E+00  0.00000000000E+00 -0.15024055173E+04  0.15024055173E+04  0.25500000920E-02 0.  1.
    10030    2    1    2    0    0  0.00000000000E+00  0.00000000000E+00 -0.97201709033E+03  0.20327939443E+04  0.17853386222E+04 0.  0.
        1    1    3    3  502    0  0.35413767840E+03 -0.56967134832E+03  0.18462789936E+03  0.69572005980E+03  0.50400001928E-02 0. -1.
       -1    1    3    3    0  502 -0.35413767840E+03  0.56967134832E+03 -0.11566449897E+04  0.13370738845E+04  0.50400001928E-02 0.  1.
</event>
<event>
 5   0  0.1573981E-04  0.1781009E+04  0.7818609E-02  0.8716465E-01
        2   -1    0    0  501    0  0.00000000000E+00  0.00000000000E+00  0.16424835135E+04  0.16424835135E+04  0.25500000920E-02 0.  1.
       -2   -1    0    0    0  501  0.00000000000E+00  0.00000000000E+00 -0.48280421075E+03  0.48280421076E+03  0.25500000920E-02 0. -1.
    10030    2    1    2    0    0  0.00000000000E+00  0.00000000000E+00  0.11596793027E+04  0.21252877242E+04  0.17810086540E+04 0.  0.
        1    1    3    3  502    0  0.19026886744E+03  0.44026589406E+03  0.14751860934E+04  0.15511964123E+04  0.50400001928E-02 0.  1.
       -1    1    3    3    0  502 -0.19026886744E+03 -0.44026589406E+03 -0.31550679070E+03  0.57409131190E+03  0.50400001928E-02 0. -1.
</event>
<event>
 5   0  0.1608627E-04  0.1812711E+04  0.7818609E-02  0.8699569E-01
       -2   -1    0    0    0  501  0.00000000000E+00  0.00000000000E+00  0.85206075154E+03  0.85206075154E+03  0.25500000920E-02 0. -1.
        2   -1    0    0  501    0  0.00000000000E+00  0.00000000000E+00 -0.96410954839E+03  0.96410954840E+03  0.25500000920E-02 0.  1.
    10030    2    1    2    0    0  0.00000000000E+00  0.00000000000E+00 -0.11204879686E+03  0.18161702999E+04  0.18127105741E+04 0.  0.
        2    1    3    3  502    0  0.16504450934E+03 -0.83602102033E+03  0.25328649600E+03  0.88900218535E+03  0.25500000920E-02 0. -1.
       -2    1    3    3    0  502 -0.16504450934E+03  0.83602102033E+03 -0.36533529286E+03  0.92716811459E+03  0.25500000920E-02 0.  1.
</event>
<event>
 5   0  0.1603564E-04  0.1755886E+04  0.7818609E-02  0.8730117E-01
       -2   -1    0    0    0  501  0.00000000000E+00  0.00000000000E+00  0.57826269107E+03  0.57826269108E+03  0.25500000920E-02 0.  1.
        2   -1    0    0  501    0  0.00000000000E+00  0.00000000000E+00 -0.13329298959E+04  0.13329298959E+04  0.25500000920E-02 0. -1.
    10030    2    1    2    0    0  0.00000000000E+00  0.00000000000E+00 -0.75466720483E+03  0.19111925870E+04  0.17558856781E+04 0.  0.
        5    1    3    3  502    0  0.33638383298E+02  0.86979389244E+03 -0.50185802098E+03  0.10047668980E+04  0.46999998093E+01 0. -1.
       -5    1    3    3    0  502 -0.33638383298E+02 -0.86979389244E+03 -0.25280918385E+03  0.90642568895E+03  0.46999998093E+01 0.  1.
</event>
<event>
 5   0  0.8254914E-05  0.1801413E+04  0.7818609E-02  0.8705548E-01
        1   -1    0    0  501    0  0.00000000000E+00  0.00000000000E+00  0.95960186784E+03  0.95960186786E+03  0.50400001928E-02 0. -1.
       -1   -1    0    0    0  501  0.00000000000E+00  0.00000000000E+00 -0.84542568444E+03  0.84542568446E+03  0.50400001928E-02 0.  1.
    10030    2    1    2    0    0  0.00000000000E+00  0.00000000000E+00  0.11417618340E+03  0.18050275523E+04  0.18014128521E+04 0.  0.
        4    1    3    3  502    0  0.24465099974E+03 -0.12498266845E+03 -0.80241846421E+03  0.84814608629E+03  0.12699999809E+01 0.  1.
       -4    1    3    3    0  502 -0.24465099974E+03  0.12498266845E+03  0.91659464761E+03  0.95688146602E+03  0.12699999809E+01 0. -1.
</event>
<event>
 5   0  0.1573981E-04  0.1739935E+04  0.7818609E-02  0.8738910E-01
       -2   -1    0    0    0  501  0.00000000000E+00  0.00000000000E+00  0.75364148052E+03  0.75364148053E+03  0.25500000920E-02 0.  1.
        2   -1    0    0  501    0  0.00000000000E+00  0.00000000000E+00 -0.10042490599E+04  0.10042490599E+04  0.25500000920E-02 0. -1.
    10030    2    1    2    0    0  0.00000000000E+00  0.00000000000E+00 -0.25060757938E+03  0.17578905404E+04  0.17399353417E+04 0.  0.
        1    1    3    3  502    0  0.66667786588E+03  0.54671204002E+03 -0.79573836890E+01  0.86221618608E+03  0.50400001928E-02 0.  1.
       -1    1    3    3    0  502 -0.66667786588E+03 -0.54671204002E+03 -0.24265019570E+03  0.89567435436E+03  0.50400001928E-02 0. -1.
</event>
<event>
 5   0  0.8206783E-05  0.1802361E+04  0.7818609E-02  0.8705045E-01
       -1   -1    0    0    0  501  0.00000000000E+00  0.00000000000E+00  0.71458340645E+03  0.71458340647E+03  0.50400001928E-02 0. -1.
        1   -1    0    0  501    0  0.00000000000E+00  0.00000000000E+00 -0.11365032062E+04  0.11365032062E+04  0.50400001928E-02 0.  1.
    10030    2    1    2    0    0  0.00000000000E+00  0.00000000000E+00 -0.42191979974E+03  0.18510866127E+04  0.18023610432E+04 0.  0.
        1    1    3    3  502    0 -0.13102818729E+03 -0.66262502315E+03 -0.82364936862E+03  0.10651941558E+04  0.50400001928E-02 0.  1.
       -1    1    3    3    0  502  0.13102818729E+03  0.66262502315E+03  0.40172956888E+03  0.78589245683E+03  0.50400001928E-02 0. -1.
</event>
<event>
 5   0  0.8492114E-05  0.1801339E+04  0.7818609E-02  0.8705588E-01
       -1   -1    0    0    0  501  0.00000000000E+00  0.00000000000E+00  0.12934067191E+04  0.12934067191E+04  0.50400001928E-02 0. -1.
        1   -1    0    0  501    0  0.00000000000E+00  0.00000000000E+00 -0.62718510912E+03  0.62718510914E+03  0.50400001928E-02 0.  1.
    10030    2    1    2    0    0  0.00000000000E+00  0.00000000000E+00  0.66622160997E+03  0.19205918282E+04  0.18013388735E+04 0.  0.
        2    1    3    3  502    0  0.48446414011E+03  0.73527688271E+03  0.13118480194E+03  0.89025111602E+03  0.25500000920E-02 0.  1.
       -2    1    3    3    0  502 -0.48446414011E+03 -0.73527688271E+03  0.53503680803E+03  0.10303407122E+04  0.25500000920E-02 0. -1.
</event>
<event>
 5   0  0.8206783E-05  0.1806560E+04  0.7818609E-02  0.8702819E-01
       -1   -1    0    0    0  501  0.00000000000E+00  0.00000000000E+00  0.48830306096E+03  0.48830306098E+03  0.50400001928E-02 0.  1.
        1   -1    0    0  501    0  0.00000000000E+00  0.00000000000E+00 -0.16709190655E+04  0.16709190655E+04  0.50400001928E-02 0. -1.
    10030    2    1    2    0    0  0.00000000000E+00  0.00000000000E+00 -0.11826160045E+04  0.21592221265E+04  0.18065601505E+04 0.  0.
        1    1    3    3  502    0  0.27062659322E+03  0.22236484575E+03  0.40383060499E+03  0.53456901812E+03  0.50400001928E-02 0.  1.
       -1    1    3    3    0  502 -0.27062659322E+03 -0.22236484575E+03 -0.15864466095E+04  0.16246531083E+04  0.50400001928E-02 0. -1.
</event>
<event>
 5   0  0.8430513E-05  0.1810071E+04  0.7818609E-02  0.8700962E-01
       -1   -1    0    0    0  501  0.00000000000E+00  0.00000000000E+00  0.48602575219E+03  0.48602575221E+03  0.50400001928E-02 0.  1.
        1   -1    0    0  501    0  0.00000000000E+00  0.00000000000E+00 -0.16852799100E+04  0.16852799100E+04  0.50400001928E-02 0. -1.
    10030    2    1    2    0    0  0.00000000000E+00  0.00000000000E+00 -0.11992541578E+04  0.21713056622E+04  0.18100711985E+04 0.  0.
        5    1    3    3  502    0 -0.58541843967E+02 -0.42985181863E+03  0.35315684970E+03  0.55941181965E+03  0.46999998093E+01 0.  1.
       -5    1    3    3    0  502  0.58541843967E+02  0.42985181863E+03 -0.15524110075E+04  0.16118938425E+04  0.46999998093E+01 0. -1.
</event>
<event>
 5   0  0.8492114E-05  0.1700763E+04  0.7818609E-02  0.8760929E-01
        1   -1    0    0  501    0  0.00000000000E+00  0.00000000000E+00  0.14907784931E+04  0.14907784931E+04  0.50400001928E-02 0. -1.
       -1   -1    0    0    0  501  0.00000000000E+00  0.00000000000E+00 -0.48508113376E+03  0.48508113379E+03  0.50400001928E-02 0.  1.
    10030    2    1    2    0    0  0.00000000000E+00  0.00000000000E+00  0.10056973594E+04  0.19758596269E+04  0.17007627955E+04 0.  0.
        2    1    3    3  502    0  0.41182618392E+03  0.60652285037E+03  0.10034503222E+04  0.12427322008E+04  0.25500000920E-02 0. -1.
       -2    1    3    3    0  502 -0.41182618392E+03 -0.60652285037E+03  0.22470371844E+01  0.73312742614E+03  0.25500000920E-02 0.  1.
</event>
<event>
 5   0  0.1573981E-04  0.1791204E+04  0.7818609E-02  0.8710991E-01
        2   -1    0    0  501    0  0.00000000000E+00  0.00000000000E+00  0.13160448569E+04  0.13160448569E+04  0.25500000920E-02 0.  1.
       -2   -1    0    0    0  501  0.00000000000E+00  0.00000000000E+00 -0.60947993514E+03  0.60947993515E+03  0.25500000920E-02 0. -1.
    10030    2    1    2    0    0  0.00000000000E+00  0.00000000000E+00  0.70656492175E+03  0.19255247920E+04  0.17912039907E+04 0.  0.
        1    1    3    3  502    0  0.14007317757E+03  0.55151429069E+03 -0.39018301544E+03  0.68995021086E+03  0.50400001928E-02 0. -1.
       -1    1    3    3    0  502 -0.14007317757E+03 -0.55151429069E+03  0.10967479372E+04  0.12355745812E+04  0.50400001928E-02 0.  1.
</event>
<event>
 5   0  0.1628397E-04  0.1690542E+04  0.7818609E-02  0.8766777E-01
        2   -1    0    0  501    0  0.00000000000E+00  0.00000000000E+00  0.44152689544E+03  0.44152689545E+03  0.25500000920E-02 0. -1.
       -2   -1    0    0    0  501  0.00000000000E+00  0.00000000000E+00 -0.16182087142E+04  0.16182087142E+04  0.25500000920E-02 0.  1.
    10030    2    1    2    0    0  0.00000000000E+00  0.00000000000E+00 -0.11766818188E+04  0.20597356097E+04  0.16905415343E+04 0.  0.
        3    1    3    3  502    0  0.69690348408E+03 -0.33049568633E+03 -0.10096650560E+04  0.12705610573E+04  0.10100000352E+00 0.  1.
       -3    1    3    3    0  502 -0.69690348408E+03  0.33049568633E+03 -0.16701676272E+03  0.78917455233E+03  0.10100000352E+00 0. -1.
</event>
<event>
 5   0  0.8206783E-05  0.1798563E+04  0.7818609E-02  0.8707064E-01
        1   -1    0    0  501    0  0.00000000000E+00  0.00000000000E+00  0.18305572145E+04  0.18305572145E+04  0.50400001928E-02 0. -1.
       -1   -1    0    0    0  501  0.00000000000E+00  0.00000000000E+00 -0.44178188376E+03  0.44178188379E+03  0.50400001928E-02 0.  1.
    10030    2    1    2    0    0  0.00000000000E+00  0.00000000000E+00  0.13887753307E+04  0.22723390983E+04  0.17985627758E+04 0.  0.
        1    1    3    3  502    0 -0.55214592227E+03  0.38891734790E+03  0.14445920091E+04  0.15946685850E+04  0.50400001928E-02 0. -1.
       -1    1    3    3    0  502  0.55214592227E+03 -0.38891734790E+03 -0.55816678443E+02  0.67767051330E+03  0.50400001928E-02 0.  1.
</event>
<event>
 5   0  0.8492114E-05  0.1809187E+04  0.7818609E-02  0.8701429E-01
       -1   -1    0    0    0  501  0.00000000000E+00  0.00000000000E+00  0.74731233836E+03  0.74731233838E+03  0.50400001928E-02 0. -1.
        1   -1    0    0  501    0  0.00000000000E+00  0.00000000000E+00 -0.10949763569E+04  0.10949763569E+04  0.50400001928E-02 0.  1.
    10030    2    1    2    0    0  0.00000000000E+00  0.00000000000E+00 -0.34766401853E+03  0.18422886953E+04  0.18091869353E+04 0.  0.
        2    1    3    3  502    0  0.73449064100E+03  0.26634339947E+03  0.29044199352E+03  0.83352975937E+03  0.25500000920E-02 0. -1.
       -2    1    3    3    0  502 -0.73449064100E+03 -0.26634339947E+03 -0.63810601205E+03  0.10087589359E+04  0.25500000920E-02 0.  1.
</event>
<event>
 5   0  0.8206783E-05  0.1785960E+04  0.7818609E-02  0.8713802E-01
        1   -1    0    0  501    0  0.00000000000E+00  0.00000000000E+00  0.89317673946E+03  0.89317673947E+03  0.50400001928E-02 0. -1.
       -1   -1    0    0    0  501  0.00000000000E+00  0.00000000000E+00 -0.89278291927E+03  0.89278291928E+03  0.50400001928E-02 0.  1.
    10030    2    1    2    0    0  0.00000000000E+00  0.00000000000E+00  0.39382018980E+00  0.17859596588E+04  0.17859596153E+04 0.  0.
        1    1    3    3  502    0 -0.10993718514E+03 -0.77433443398E+03  0.43116436314E+03  0.89307486158E+03  0.50400001928E-02 0. -1.
       -1    1    3    3    0  502  0.10993718514E+03  0.77433443398E+03 -0.43077054296E+03  0.89288479717E+03  0.50400001928E-02 0.  1.
</event>
<event>
 5   0  0.8492114E-05  0.1791509E+04  0.7818609E-02  0.8710828E-01
        1   -1    0    0  501    0  0.00000000000E+00  0.00000000000E+00  0.11453751750E+04  0.11453751750E+04  0.50400001928E-02 0. -1.
       -1   -1    0    0    0  501  0.00000000000E+00  0.00000000000E+00 -0.70053542615E+03  0.70053542617E+03  0.50400001928E-02 0.  1.
    10030    2    1    2    0    0  0.00000000000E+00  0.00000000000E+00  0.44483974885E+03  0.18459106012E+04  0.17915087344E+04 0.  0.
        2    1    3    3  502    0  0.22467099786E+03 -0.21033821121E+03 -0.64434845643E+03  0.71407573386E+03  0.25500000920E-02 0.  1.
       -2    1    3    3    0  502 -0.22467099786E+03  0.21033821121E+03  0.10891882053E+04  0.11318348673E+04  0.25500000920E-02 0. -1.
</event>
<event>
 5   0  0.8132598E-05  0.1787297E+04  0.7818609E-02  0.8713084E-01
        1   -1    0    0  501    0  0.00000000000E+00  0.00000000000E+00  0.21522864843E+04  0.21522864843E+04  0.50400001928E-02 0.  1.
       -1   -1    0    0    0  501  0.00000000000E+00  0.00000000000E+00 -0.37105089281E+03  0.37105089285E+03  0.50400001928E-02 0. -1.
    10030    2    1    2    0    0  0.00000000000E+00  0.00000000000E+00  0.17812355914E+04  0.25233373771E+04  0.17872972015E+04 0.  0.
        3    1    3    3  502    0  0.69178441973E+03 -0.16907922251E+03  0.16528087885E+04  0.17997028556E+04  0.10100000352E+00 0.  1.
       -3    1    3    3    0  502 -0.69178441973E+03  0.16907922251E+03  0.12842680298E+03  0.72363452156E+03  0.10100000352E+00 0. -1.
</event>
<event>
 5   0  0.1573981E-04  0.1797695E+04  0.7818609E-02  0.8707526E-01
        2   -1    0    0  501    0  0.00000000000E+00  0.00000000000E+00  0.63047018194E+03  0.63047018195E+03  0.25500000920E-02 0. -1.
       -2   -1    0    0    0  501  0.00000000000E+00  0.00000000000E+00 -0.12814678527E+04  0.12814678527E+04  0.25500000920E-02 0.  1.
    10030    2    1    2    0    0  0.00000000000E+00  0.00000000000E+00 -0.65099767072E+03  0.19119380346E+04  0.17976954917E+04 0.  0.
        1    1    3    3  502    0  0.31552257900E+03 -0.20923271745E+03 -0.11925326513E+04  0.12511862181E+04  0.50400001928E-02 0.  1.
       -1    1    3    3    0  502 -0.31552257900E+03  0.20923271745E+03  0.54153498054E+03  0.66075181655E+03  0.50400001928E-02 0. -1.
</event>
<event>
 5   0  0.8430513E-05  0.1802497E+04  0.7818609E-02  0.8704973E-01
       -1   -1    0    0    0  501  0.00000000000E+00  0.00000000000E+00  0.11656983869E+04  0.11656983869E+04  0.50400001928E-02 0. -1.
        1   -1    0    0  501    0  0.00000000000E+00  0.00000000000E+00 -0.69679174565E+03  0.69679174567E+03  0.50400001928E-02 0.  1.
    10030    2    1    2    0    0  0.00000000000E+00  0.00000000000E+00  0.46890664125E+03  0.18624901326E+04  0.18024971722E+04 0.  0.
        5    1    3    3  502    0  0.86306189992E+03  0.25856049217E+03  0.21140501812E+03  0.92544234984E+03  0.46999998093E+01 0. -1.
       -5    1    3    3    0  502 -0.86306189992E+03 -0.25856049217E+03  0.25750162313E+03  0.93704778273E+03  0.46999998093E+01 0.  1.
</event>
<event>
 5   0  0.1608627E-04  0.1802550E+04  0.7818609E-02  0.8704944E-01
        2   -1    0    0  501    0  0.00000000000E+00  0.00000000000E+00  0.13199412834E+04  0.13199412834E+04  0.25500000920E-02 0. -1.
       -2   -1    0    0    0  501  0.00000000000E+00  0.00000000000E+00 -0.61540393280E+03  0.61540393280E+03  0.25500000920E-02 0.  1.
    10030    2    1    2    0    0  0.00000000000E+00  0.00000000000E+00  0.70453735064E+03  0.19353452162E+04  0.18025504785E+04 0.  0.
        2    1    3    3  502    0  0.44812384542E+03 -0.47138021382E+03  0.10221588358E+04  0.12115374416E+04  0.25500000920E-02 0. -1.
       -2    1    3    3    0  502 -0.44812384542E+03  0.47138021382E+03 -0.31762148514E+03  0.72380777465E+03  0.25500000920E-02 0.  1.
</event>
<event>
 5   0  0.8492114E-05  0.1799258E+04  0.7818609E-02  0.8706694E-01
       -1   -1    0    0    0  501  0.00000000000E+00  0.00000000000E+00  0.83904237337E+03  0.83904237338E+03  0.50400001928E-02 0.  1.
        1   -1    0    0  501    0  0.00000000000E+00  0.00000000000E+00 -0.96459085855E+03  0.96459085856E+03  0.50400001928E-02 0. -1.
    10030    2    1    2    0    0  0.00000000000E+00  0.00000000000E+00 -0.12554848518E+03  0.18036332319E+04  0.17992582953E+04 0.  0.
        2    1    3    3  502    0 -0.77271697959E+03 -0.42910988421E+03  0.10528118237E+03  0.89011850371E+03  0.25500000920E-02 0. -1.
       -2    1    3    3    0  502  0.77271697959E+03  0.42910988421E+03 -0.23082966756E+03  0.91351472824E+03  0.25500000920E-02 0.  1.
</event>
<event>
 5   0  0.1628397E-04  0.1796413E+04  0.7818609E-02  0.8708209E-01
        2   -1    0    0  501    0  0.00000000000E+00  0.00000000000E+00  0.14316590708E+04  0.14316590708E+04  0.25500000920E-02 0.  1.
       -2   -1    0    0    0  501  0.00000000000E+00  0.00000000000E+00 -0.56352452843E+03  0.56352452844E+03  0.25500000920E-02 0. -1.
    10030    2    1    2    0    0  0.00000000000E+00  0.00000000000E+00  0.86813454232E+03  0.19951835992E+04  0.17964130958E+04 0.  0.
        3    1    3    3  502    0 -0.55360978170E+03 -0.41775873535E+03 -0.19984830813E+03  0.72176554906E+03  0.10100000352E+00 0. -1.
       -3    1    3    3    0  502  0.55360978170E+03  0.41775873535E+03  0.10679828505E+04  0.12734180501E+04  0.10100000352E+00 0.  1.
</event>
<event>
 5   0  0.8206783E-05  0.1679391E+04  0.7818609E-02  0.8773207E-01
       -1   -1    0    0    0  501  0.00000000000E+00  0.00000000000E+00  0.33456163406E+03  0.33456163410E+03  0.50400001928E-02 0. -1.
        1   -1    0    0  501    0  0.00000000000E+00  0.00000000000E+00 -0.21074989606E+04  0.21074989606E+04  0.50400001928E-02 0.  1.
    10030    2    1    2    0    0  0.00000000000E+00  0.00000000000E+00 -0.17729373265E+04  0.24420605947E+04  0.16793907182E+04 0.  0.
        1    1    3    3  502    0  0.43173122943E+03  0.45595731879E+01 -0.19337240864E+04  0.19813383070E+04  0.50400001928E-02 0.  1.
       -1    1    3    3    0  502 -0.43173122943E+03 -0.45595731879E+01  0.16078675995E+03  0.46072228768E+03  0.50400001928E-02 0. -1.
</event>
<event>
 5   0  0.1628397E-04  0.1794046E+04  0.7818609E-02  0.8709472E-01
        2   -1    0    0  501    0  0.00000000000E+00  0.00000000000E+00  0.27459889774E+04  0.27459889774E+04  0.25500000920E-02 0.  1.
       -2   -1    0    0    0  501  0.00000000000E+00  0.00000000000E+00 -0.29302760613E+03  0.29302760614E+03  0.25500000920E-02 0. -1.
    10030    2    1    2    0    0  0.00000000000E+00  0.00000000000E+00  0.24529613713E+04  0.30390165836E+04  0.17940463501E+04 0.  0.
        3    1    3    3  502    0 -0.58814159305E+03 -0.41990608482E+03  0.32626557338E+03  0.79289399551E+03  0.10100000352E+00 0. -1.
       -3    1    3    3    0  502  0.58814159305E+03  0.41990608482E+03  0.21266957979E+04  0.22461225881E+04  0.10100000352E+00 0.  1.
</event>
<event>
 5   0  0.8430513E-05  0.1792293E+04  0.7818609E-02  0.8710409E-01
       -1   -1    0    0    0  501  0.00000000000E+00  0.00000000000E+00  0.59074587520E+03  0.59074587522E+03  0.50400001928E-02 0. -1.
        1   -1    0    0  501    0  0.00000000000E+00  0.00000000000E+00 -0.13594315528E+04  0.13594315528E+04  0.50400001928E-02 0.  1.
    10030    2    1    2    0    0  0.00000000000E+00  0.00000000000E+00 -0.76868567763E+03  0.19501774281E+04  0.17922930369E+04 0.  0.
        5    1    3    3  502    0 -0.54984502676E+02 -0.55214207156E+03 -0.11500157671E+04  0.12768878248E+04  0.46999998093E+01 0.  1.
       -5    1    3    3    0  502  0.54984502676E+02  0.55214207156E+03  0.38133008943E+03  0.67328960324E+03  0.46999998093E+01 0. -1.
</event>
<event>
 5   0  0.8430513E-05  0.1799457E+04  0.7818609E-02  0.8706588E-01
        1   -1    0    0  501    0  0.00000000000E+00  0.00000000000E+00  0.74442884182E+03  0.74442884184E+03  0.50400001928E-02 0.  1.
       -1   -1    0    0    0  501  0.00000000000E+00  0.00000000000E+00 -0.10874265286E+04  0.10874265286E+04  0.50400001928E-02 0. -1.
    10030    2    1    2    0    0  0.00000000000E+00  0.00000000000E+00 -0.34299768675E+03  0.18318553704E+04  0.17994573307E+04 0.  0.
        5    1    3    3  502    0 -0.60597333523E+03  0.55597934618E+03 -0.54299771617E+03  0.98548735463E+03  0.46999998093E+01 0. -1.
       -5    1    3    3    0  502  0.60597333523E+03 -0.55597934618E+03  0.20000002942E+03  0.84636801579E+03  0.46999998093E+01 0.  1.
</event>
<event>
 5   0  0.8132598E-05  0.1796404E+04  0.7818609E-02  0.8708214E-01
        1   -1    0    0  501    0  0.00000000000E+00  0.00000000000E+00  0.17918807778E+04  0.17918807778E+04  0.50400001928E-02 0.  1.
       -1   -1    0    0    0  501  0.00000000000E+00  0.00000000000E+00 -0.45023441078E+03  0.45023441081E+03  0.50400001928E-02 0. -1.
    10030    2    1    2    0    0  0.00000000000E+00  0.00000000000E+00  0.13416463670E+04  0.22421151886E+04  0.17964035028E+04 0.  0.
        3    1    3    3  502    0 -0.24405513782E+03  0.10922672661E+03 -0.39940980444E+03  0.48064705366E+03  0.10100000352E+00 0. -1.
       -3    1    3    3    0  502  0.24405513782E+03 -0.10922672661E+03  0.17410561714E+04  0.17614681349E+04  0.10100000352E+00 0.  1.
</event>
<event>
 5   0  0.1603564E-04  0.1825415E+04  0.7818609E-02  0.8692900E-01
        2   -1    0    0  501    0  0.00000000000E+00  0.00000000000E+00  0.39462022133E+03  0.39462022134E+03  0.25500000920E-02 0. -1.
       -2   -1    0    0    0  501  0.00000000000E+00  0.00000000000E+00 -0.21109784159E+04  0.21109784159E+04  0.25500000920E-02 0.  1.
    10030    2    1    2    0    0  0.00000000000E+00  0.00000000000E+00 -0.17163581945E+04  0.25055986372E+04  0.18254147690E+04 0.  0.
        5    1    3    3  502    0 -0.32769476951E+03  0.26991519163E+03  0.25082096414E+03  0.49312403986E+03  0.46999998093E+01 0. -1.
       -5    1    3    3    0  502  0.32769476951E+03 -0.26991519163E+03 -0.19671791587E+04  0.20124745973E+04  0.46999998093E+01 0.  1.
</event>
<event>
 5   0  0.1573981E-04  0.1816796E+04  0.7818609E-02  0.8697418E-01
        2   -1    0    0  501    0  0.00000000000E+00  0.00000000000E+00  0.10656228134E+04  0.10656228134E+04  0.25500000920E-02 0.  1.
       -2   -1    0    0    0  501  0.00000000000E+00  0.00000000000E+00 -0.77437073677E+03  0.77437073678E+03  0.25500000920E-02 0. -1.
    10030    2    1    2    0    0  0.00000000000E+00  0.00000000000E+00  0.29125207666E+03  0.18399935502E+04  0.18167962166E+04 0.  0.
        1    1    3    3  502    0 -0.20925342997E+02  0.12259977616E+03 -0.76570702678E+03  0.77574211307E+03  0.50400001928E-02 0. -1.
       -1    1    3    3    0  502  0.20925342997E+02 -0.12259977616E+03  0.10569591034E+04  0.10642514371E+04  0.50400001928E-02 0.  1.
</event>
<event>
 5   0  0.1573981E-04  0.1802726E+04  0.7818609E-02  0.8704851E-01
        2   -1    0    0  501    0  0.00000000000E+00  0.00000000000E+00  0.11456453977E+04  0.11456453977E+04  0.25500000920E-02 0.  1.
       -2   -1    0    0    0  501  0.00000000000E+00  0.00000000000E+00 -0.70916801667E+03  0.70916801668E+03  0.25500000920E-02 0. -1.
    10030    2    1    2    0    0  0.00000000000E+00  0.00000000000E+00  0.43647738107E+03  0.18548134144E+04  0.18027257967E+04 0.  0.
        1    1    3    3  502    0 -0.52387938087E+03 -0.11328081020E+03  0.96386585127E+03  0.11028687714E+04  0.50400001928E-02 0.  1.
       -1    1    3    3    0  502  0.52387938087E+03  0.11328081020E+03 -0.52738847020E+03  0.75194464303E+03  0.50400001928E-02 0. -1.
</event>
<event>
 5   0  0.8492114E-05  0.1614378E+04  0.7818609E-02  0.8811764E-01
       -1   -1    0    0    0  501  0.00000000000E+00  0.00000000000E+00  0.55851665107E+03  0.55851665109E+03  0.50400001928E-02 0.  1.
        1   -1    0    0  501    0  0.00000000000E+00  0.00000000000E+00 -0.11665789535E+04  0.11665789535E+04  0.50400001928E-02 0. -1.
    10030    2    1    2    0    0  0.00000000000E+00  0.00000000000E+00 -0.60806230244E+03  0.17250956046E+04  0.16143776143E+04 0.  0.
        2    1    3    3  502    0 -0.37245956405E+03 -0.71595492336E+03 -0.32045367496E+03  0.86833641922E+03  0.25500000920E-02 0. -1.
       -2    1    3    3    0  502  0.37245956405E+03  0.71595492336E+03 -0.28760862748E+03  0.85675918539E+03  0.25500000920E-02 0.  1.
</event>
<event>
 5   0  0.5820500E-05  0.1796617E+04  0.7818609E-02  0.8708100E-01
       -4   -1    0    0    0  501  0.00000000000E+00  0.00000000000E+00  0.88724231538E+03  0.88724322432E+03  0.12699999809E+01 0. -1.
        4   -1    0    0  501    0  0.00000000000E+00  0.00000000000E+00 -0.90951125185E+03  0.90951213853E+03  0.12699999809E+01 0.  1.
    10030    2    1    2    0    0  0.00000000000E+00  0.00000000000E+00 -0.22268936468E+02  0.17967553629E+04  0.17966173573E+04 0.  0.
        4    1    3    3  502    0 -0.20784243283E+03  0.58788436200E+03 -0.65782961389E+03  0.90639280325E+03  0.12699999809E+01 0.  1.
       -4    1    3    3    0  502  0.20784243283E+03 -0.58788436200E+03  0.63556067742E+03  0.89036255961E+03  0.12699999809E+01 0. -1.
</event>
<event>
 5   0  0.1608627E-04  0.1799153E+04  0.7818609E-02  0.8706750E-01
        2   -1    0    0  501    0  0.00000000000E+00  0.00000000000E+00  0.15428038974E+04  0.15428038974E+04  0.25500000920E-02 0. -1.
       -2   -1    0    0    0  501  0.00000000000E+00  0.00000000000E+00 -0.52452416065E+03  0.52452416065E+03  0.25500000920E-02 0.  1.
    10030    2    1    2    0    0  0.00000000000E+00  0.00000000000E+00  0.10182797368E+04  0.20673280581E+04  0.17991530445E+04 0.  0.
        2    1    3    3  502    0 -0.35832267927E+03  0.80217826124E+03  0.28706318955E+03  0.92427830229E+03  0.25500000920E-02 0. -1.
       -2    1    3    3    0  502  0.35832267927E+03 -0.80217826124E+03  0.73121654723E+03  0.11430497558E+04  0.25500000920E-02 0.  1.
</event>
<event>
 5   0  0.8430513E-05  0.1769562E+04  0.7818609E-02  0.8722656E-01
        1   -1    0    0  501    0  0.00000000000E+00  0.00000000000E+00  0.15065284119E+04  0.15065284119E+04  0.50400001928E-02 0.  1.
       -1   -1    0    0    0  501  0.00000000000E+00  0.00000000000E+00 -0.51963007702E+03  0.51963007704E+03  0.50400001928E-02 0. -1.
    10030    2    1    2    0    0  0.00000000000E+00  0.00000000000E+00  0.98689833489E+03  0.20261584890E+04  0.17695620642E+04 0.  0.
        5    1    3    3  502    0 -0.75273725872E+03  0.97978278284E+02 -0.26996202452E+02  0.75958146938E+03  0.46999998093E+01 0. -1.
       -5    1    3    3    0  502  0.75273725872E+03 -0.97978278284E+02  0.10138945373E+04  0.12665770196E+04  0.46999998093E+01 0.  1.
</event>
<event>
 5   0  0.8254914E-05  0.1802169E+04  0.7818609E-02  0.8705147E-01
       -1   -1    0    0    0  501  0.00000000000E+00  0.00000000000E+00  0.64052213050E+03  0.64052213052E+03  0.50400001928E-02 0. -1.
        1   -1    0    0  501    0  0.00000000000E+00  0.00000000000E+00 -0.12676431436E+04  0.12676431436E+04  0.50400001928E-02 0.  1.
    10030    2    1    2    0    0  0.00000000000E+00  0.00000000000E+00 -0.62712101307E+03  0.19081652741E+04  0.18021692341E+04 0.  0.
        4    1    3    3  502    0  0.65540439670E+03 -0.61814805583E+03 -0.33158937680E+03  0.96000784884E+03  0.12699999809E+01 0.  1.
       -4    1    3    3    0  502 -0.65540439670E+03  0.61814805583E+03 -0.29553163627E+03  0.94815742526E+03  0.12699999809E+01 0. -1.
</event>
<event>
 5   0  0.8132598E-05  0.1800894E+04  0.7818609E-02  0.8705824E-01
        1   -1    0    0  501    0  0.00000000000E+00  0.00000000000E+00  0.48890045462E+03  0.48890045465E+03  0.50400001928E-02 0. -1.
       -1   -1    0    0    0  501  0.00000000000E+00  0.00000000000E+00 -0.16584259182E+04  0.16584259182E+04  0.50400001928E-02 0.  1.
    10030    2    1    2    0    0  0.00000000000E+00  0.00000000000E+00 -0.11695254636E+04  0.21473263729E+04  0.18008944282E+04 0.  0.
        3    1    3    3  502    0  0.31896567578E+03 -0.27276755091E+03  0.36514563728E+03  0.55630260271E+03  0.10100000352E+00 0. -1.
       -3    1    3    3    0  502 -0.31896567578E+03  0.27276755091E+03 -0.15346711009E+04  0.15910237702E+04  0.10100000352E+00 0.  1.
</event>
<event>
 5   0  0.8430513E-05  0.1804864E+04  0.7818609E-02  0.8703717E-01
       -1   -1    0    0    0  501  0.00000000000E+00  0.00000000000E+00  0.16395297477E+04  0.16395297477E+04  0.50400001928E-02 0. -1.
        1   -1    0    0  501    0  0.00000000000E+00  0.00000000000E+00 -0.49671762189E+03  0.49671762191E+03  0.50400001928E-02 0.  1.
    10030    2    1    2    0    0  0.00000000000E+00  0.00000000000E+00  0.11428121258E+04  0.21362473696E+04  0.18048637814E+04 0.  0.
        5    1    3    3  502    0  0.52203528282E+03 -0.15082190676E+02  0.14424731777E+04  0.15341118823E+04  0.46999998093E+01 0. -1.
       -5    1    3    3    0  502 -0.52203528282E+03  0.15082190676E+02 -0.29966105195E+03  0.60213548728E+03  0.46999998093E+01 0.  1.
</event>
<event>
 5   0  0.1608627E-04  0.1806528E+04  0.7818609E-02  0.8702836E-01
       -2   -1    0    0    0  501  0.00000000000E+00  0.00000000000E+00  0.47482930517E+03  0.47482930518E+03  0.25500000920E-02 0. -1.
        2   -1    0    0  501    0  0.00000000000E+00  0.00000000000E+00 -0.17182717247E+04  0.17182717247E+04  0.25500000920E-02 0.  1.
    10030    2    1    2    0    0  0.00000000000E+00  0.00000000000E+00 -0.12434424195E+04  0.21931010299E+04  0.18065279064E+04 0.  0.
        2    1    3    3  502    0  0.72553441197E+03 -0.38452030575E+03 -0.10785896549E+04  0.13555853688E+04  0.25500000920E-02 0.  1.
       -2    1    3    3    0  502 -0.72553441197E+03  0.38452030575E+03 -0.16485276460E+03  0.83751566104E+03  0.25500000920E-02 0. -1.
</event>
<event>
 5   0  0.1608627E-04  0.1791848E+04  0.7818609E-02  0.8710647E-01
        2   -1    0    0  501    0  0.00000000000E+00  0.00000000000E+00  0.77004901592E+03  0.77004901593E+03  0.25500000920E-02 0.  1.
       -2   -1    0    0    0  501  0.00000000000E+00  0.00000000000E+00 -0.10423748238E+04  0.10423748238E+04  0.25500000920E-02 0. -1.
    10030    2    1    2    0    0  0.00000000000E+00  0.00000000000E+00 -0.27232580790E+03  0.18124238397E+04  0.17918478812E+04 0.  0.
        2    1    3    3  502    0  0.10451823836E+03  0.56935339250E+03  0.55549657262E+03  0.80228660085E+03  0.25500000920E-02 0.  1.
       -2    1    3    3    0  502 -0.10451823836E+03 -0.56935339250E+03 -0.82782238052E+03  0.10101372389E+04  0.25500000920E-02 0. -1.
</event>
<event>
 5   0  0.8254914E-05  0.1800049E+04  0.7818609E-02  0.8706273E-01
        1   -1    0    0  501    0  0.00000000000E+00  0.00000000000E+00  0.12180862938E+04  0.12180862938E+04  0.50400001928E-02 0. -1.
       -1   -1    0    0    0  501  0.00000000000E+00  0.00000000000E+00 -0.66501391621E+03  0.66501391623E+03  0.50400001928E-02 0.  1.
    10030    2    1    2    0    0  0.00000000000E+00  0.00000000000E+00  0.55307237760E+03  0.18831002100E+04  0.18000492622E+04 0.  0.
        4    1    3    3  502    0 -0.70681168505E+03 -0.37102735294E+03  0.71140597763E+03  0.10692727120E+04  0.12699999809E+01 0. -1.
       -4    1    3    3    0  502  0.70681168505E+03  0.37102735294E+03 -0.15833360003E+03  0.81382749803E+03  0.12699999809E+01 0.  1.
</event>
<event>
 5   0  0.8206783E-05  0.1781019E+04  0.7818609E-02  0.8716459E-01
       -1   -1    0    0    0  501  0.00000000000E+00  0.00000000000E+00  0.97453244106E+03  0.97453244107E+03  0.50400001928E-02 0.  1.
        1   -1    0    0  501    0  0.00000000000E+00  0.00000000000E+00 -0.81373100067E+03  0.81373100068E+03  0.50400001928E-02 0. -1.
    10030    2    1    2    0    0  0.00000000000E+00  0.00000000000E+00  0.16080144039E+03  0.17882634418E+04  0.17810190998E+04 0.  0.
        1    1    3    3  502    0 -0.68121796831E+03  0.43136118337E+03 -0.29912733183E+03  0.86000439041E+03  0.50400001928E-02 0. -1.
       -1    1    3    3    0  502  0.68121796831E+03 -0.43136118337E+03  0.45992877222E+03  0.92825905134E+03  0.50400001928E-02 0.  1.
</event>
<event>
 5   0  0.8206783E-05  0.1799044E+04  0.7818609E-02  0.8706808E-01
       -1   -1    0    0    0  501  0.00000000000E+00  0.00000000000E+00  0.55458788866E+03  0.55458788868E+03  0.50400001928E-02 0. -1.
        1   -1    0    0  501    0  0.00000000000E+00  0.00000000000E+00 -0.14589928193E+04  0.14589928193E+04  0.50400001928E-02 0.  1.
    10030    2    1    2    0    0  0.00000000000E+00  0.00000000000E+00 -0.90440493066E+03  0.20135807080E+04  0.17990439097E+04 0.  0.
        1    1    3    3  502    0  0.87301354831E+03  0.14746693504E+03 -0.63002101777E+03  0.10866580121E+04  0.50400001928E-02 0.  1.
       -1    1    3    3    0  502 -0.87301354831E+03 -0.14746693504E+03 -0.27438391289E+03  0.92692269588E+03  0.50400001928E-02 0. -1.
</event>
<event>
 5   0  0.8430513E-05  0.1816672E+04  0.7818609E-02  0.8697483E-01
        1   -1    0    0  501    0  0.00000000000E+00  0.00000000000E+00  0.17662078125E+04  0.17662078125E+04  0.50400001928E-02 0.  1.
       -1   -1    0    0    0  501  0.00000000000E+00  0.00000000000E+00 -0.46714448181E+03  0.46714448183E+03  0.50400001928E-02 0. -1.
    10030    2    1    2    0    0  0.00000000000E+00  0.00000000000E+00  0.12990633307E+04  0.22333522943E+04  0.18166719389E+04 0.  0.
        5    1    3    3  502    0  0.61626130370E+03 -0.57090377954E+03  0.10742287162E+04  0.13637076463E+04  0.46999998093E+01 0.  1.
       -5    1    3    3    0  502 -0.61626130370E+03  0.57090377954E+03  0.22483461448E+03  0.86964464800E+03  0.46999998093E+01 0. -1.
</event>
<event>
 5   0  0.1549012E-04  0.1802402E+04  0.7818609E-02  0.8705023E-01
        2   -1    0    0  501    0  0.00000000000E+00  0.00000000000E+00  0.54965071862E+03  0.54965071863E+03  0.25500000920E-02 0. -1.
       -2   -1    0    0    0  501  0.00000000000E+00  0.00000000000E+00 -0.14775991355E+04  0.14775991355E+04  0.25500000920E-02 0.  1.
    10030    2    1    2    0    0  0.00000000000E+00  0.00000000000E+00 -0.92794841684E+03  0.20272498541E+04  0.18024022045E+04 0.  0.
        4    1    3    3  502    0 -0.28054260660E+03  0.43198808139E+03  0.36776519515E+03  0.63290655570E+03  0.12699999809E+01 0.  1.
       -4    1    3    3    0  502  0.28054260660E+03 -0.43198808139E+03 -0.12957136120E+04  0.13943432984E+04  0.12699999809E+01 0. -1.
</event>
<event>
 5   0  0.1628397E-04  0.1797756E+04  0.7818609E-02  0.8707494E-01
       -2   -1    0    0    0  501  0.00000000000E+00  0.00000000000E+00  0.10858148869E+04  0.10858148869E+04  0.25500000920E-02 0.  1.
        2   -1    0    0  501    0  0.00000000000E+00  0.00000000000E+00 -0.74412484700E+03  0.74412484701E+03  0.25500000920E-02 0. -1.
    10030    2    1    2    0    0  0.00000000000E+00  0.00000000000E+00  0.34169003992E+03  0.18299397339E+04  0.17977561977E+04 0.  0.
        3    1    3    3  502    0  0.25795268992E+03 -0.79162544080E+03 -0.17399910209E+03  0.85057987660E+03  0.10100000352E+00 0.  1.
       -3    1    3    3    0  502 -0.25795268992E+03  0.79162544080E+03  0.51568914202E+03  0.97935985733E+03  0.10100000352E+00 0. -1.
</event>
<event>
 5   0  0.1573981E-04  0.1682366E+04  0.7818609E-02  0.8771486E-01
       -2   -1    0    0    0  501  0.00000000000E+00  0.00000000000E+00  0.40397657502E+03  0.40397657503E+03  0.25500000920E-02 0. -1.
        2   -1    0    0  501    0  0.00000000000E+00  0.00000000000E+00 -0.17515596592E+04  0.17515596592E+04  0.25500000920E-02 0.  1.
    10030    2    1    2    0    0  0.00000000000E+00  0.00000000000E+00 -0.13475830842E+04  0.21555362342E+04  0.16823662765E+04 0.  0.
        1    1    3    3  502    0 -0.43201147024E+03  0.20117474178E+03 -0.15619167289E+04  0.16330000169E+04  0.50400001928E-02 0.  1.
       -1    1    3    3    0  502  0.43201147024E+03 -0.20117474178E+03  0.21433364471E+03  0.52253621734E+03  0.50400001928E-02 0. -1.
</event>
<event>
 5   0  0.1628397E-04  0.1794575E+04  0.7818609E-02  0.8709190E-01
        2   -1    0    0  501    0  0.00000000000E+00  0.00000000000E+00  0.11146245700E+04  0.11146245701E+04  0.25500000920E-02 0. -1.
       -2   -1    0    0    0  501  0.00000000000E+00  0.00000000000E+00 -0.72232821196E+03  0.72232821197E+03  0.25500000920E-02 0.  1.
    10030    2    1    2    0    0  0.00000000000E+00  0.00000000000E+00  0.39229635809E+03  0.18369527820E+04  0.17945749053E+04 0.  0.
        3    1    3    3  502    0 -0.32987331874E+03  0.42519616700E+03  0.93109805280E+03  0.10754309745E+04  0.10100000352E+00 0. -1.
       -3    1    3    3    0  502  0.32987331874E+03 -0.42519616700E+03 -0.53880169471E+03  0.76152180749E+03  0.10100000352E+00 0.  1.
</event>
<event>
 5   0  0.1603564E-04  0.1795199E+04  0.7818609E-02  0.8708857E-01
       -2   -1    0    0    0  501  0.00000000000E+00  0.00000000000E+00  0.15355858077E+04  0.15355858077E+04  0.25500000920E-02 0.  1.
        2   -1    0    0  501    0  0.00000000000E+00  0.00000000000E+00 -0.52467585915E+03  0.52467585916E+03  0.25500000920E-02 0. -1.
    10030    2    1    2    0    0  0.00000000000E+00  0.00000000000E+00  0.10109099486E+04  0.20602616669E+04  0.17951989338E+04 0.  0.
        5    1    3    3  502    0  0.24844298030E+03 -0.33867075712E+03  0.14158256878E+04  0.14768230308E+04  0.46999998093E+01 0.  1.
       -5    1    3    3    0  502 -0.24844298030E+03  0.33867075712E+03 -0.40491573921E+03  0.58343863606E+03  0.46999998093E+01 0. -1.
</event>
<event>
 5   0  0.5820500E-05  0.1792526E+04  0.7818609E-02  0.8710284E-01
        4   -1    0    0  501    0  0.00000000000E+00  0.00000000000E+00  0.10581343104E+04  0.10581350725E+04  0.12699999809E+01 0.  1.
       -4   -1    0    0    0  501  0.00000000000E+00  0.00000000000E+00 -0.75915325311E+03  0.75915431541E+03  0.12699999809E+01 0. -1.
    10030    2    1    2    0    0  0.00000000000E+00  0.00000000000E+00  0.29898105726E+03  0.18172893879E+04  0.17925264424E+04 0.  0.
        2    1    3    3  502    0  0.42752797478E+03 -0.59023274210E+03 -0.37937961038E+03  0.82163480199E+03  0.25500000920E-02 0. -1.
       -2    1    3    3    0  502 -0.42752797478E+03  0.59023274210E+03  0.67836066764E+03  0.99565458592E+03  0.25500000920E-02 0.  1.
</event>
<event>
 5   0  0.8132598E-05  0.1754877E+04  0.7818609E-02  0.8730670E-01
        1   -1    0    0  501    0  0.00000000000E+00  0.00000000000E+00  0.24506240960E+04  0.24506240960E+04  0.50400001928E-02 0.  1.
       -1   -1    0    0    0  501  0.00000000000E+00  0.00000000000E+00 -0.31416412558E+03  0.31416412563E+03  0.50400001928E-02 0. -1.
    10030    2    1    2    0    0  0.00000000000E+00  0.00000000000E+00  0.21364599704E+04  0.27647882217E+04  0.17548768348E+04 0.  0.
        3    1    3    3  502    0  0.63306249497E+03  0.48686265969E+03  0.16408388679E+04  0.18248713852E+04  0.10100000352E+00 0.  1.
       -3    1    3    3    0  502 -0.63306249497E+03 -0.48686265969E+03  0.49562110253E+03  0.93991683644E+03  0.10100000352E+00 0. -1.
</event>
<event>
 5   0  0.1573981E-04  0.1780155E+04  0.7818609E-02  0.8716925E-01
       -2   -1    0    0    0  501  0.00000000000E+00  0.00000000000E+00  0.29757795566E+03  0.29757795567E+03  0.25500000920E-02 0.  1.
        2   -1    0    0  501    0  0.00000000000E+00  0.00000000000E+00 -0.26622861525E+04  0.26622861525E+04  0.25500000920E-02 0. -1.
    10030    2    1    2    0    0  0.00000000000E+00  0.00000000000E+00 -0.23647081968E+04  0.29598641082E+04  0.17801546794E+04 0.  0.
        1    1    3    3  502    0  0.88082324233E+03  0.79641409590E+02 -0.10157076028E+04  0.13467940721E+04  0.50400001928E-02 0. -1.
       -1    1    3    3    0  502 -0.88082324233E+03 -0.79641409590E+02 -0.13490005941E+04  0.16130700360E+04  0.50400001928E-02 0.  1.
</event>
<event>
 5   0  0.8132598E-05  0.1810187E+04  0.7818609E-02  0.8700901E-01
       -1   -1    0    0    0  501  0.00000000000E+00  0.00000000000E+00  0.37929616815E+03  0.37929616818E+03  0.50400001928E-02 0. -1.
        1   -1    0    0  501    0  0.00000000000E+00  0.00000000000E+00 -0.21597753457E+04  0.21597753457E+04  0.50400001928E-02 0.  1.
    10030    2    1    2    0    0  0.00000000000E+00  0.00000000000E+00 -0.17804791775E+04  0.25390715139E+04  0.18101872972E+04 0.  0.
        3    1    3    3  502    0  0.32926363186E+03 -0.84289894029E+03 -0.86589067393E+03  0.12524615093E+04  0.10100000352E+00 0. -1.
       -3    1    3    3    0  502 -0.32926363186E+03  0.84289894029E+03 -0.91458850359E+03  0.12866100046E+04  0.10100000352E+00 0.  1.
</event>
<event>
 5   0  0.8492114E-05  0.1795395E+04  0.7818609E-02  0.8708752E-01
        1   -1    0    0  501    0  0.00000000000E+00  0.00000000000E+00  0.93838397421E+03  0.93838397423E+03  0.50400001928E-02 0.  1.
       -1   -1    0    0    0  501  0.00000000000E+00  0.00000000000E+00 -0.85877501152E+03  0.85877501153E+03  0.50400001928E-02 0. -1.
    10030    2    1    2    0    0  0.00000000000E+00  0.00000000000E+00  0.79608962696E+02  0.17971589858E+04  0.17953948962E+04 0.  0.
        2    1    3    3  502    0  0.69438792946E+03  0.54627044174E+03 -0.11933196517E+03  0.89153020701E+03  0.25500000920E-02 0.  1.
       -2    1    3    3    0  502 -0.69438792946E+03 -0.54627044174E+03  0.19894092787E+03  0.90562877874E+03  0.25500000920E-02 0. -1.
</event>
<event>
 5   0  0.8254914E-05  0.1801765E+04  0.7818609E-02  0.8705362E-01
        1   -1    0    0  501    0  0.00000000000E+00  0.00000000000E+00  0.53696462869E+03  0.53696462871E+03  0.50400001928E-02 0. -1.
       -1   -1    0    0    0  501  0.00000000000E+00  0.00000000000E+00 -0.15114382233E+04  0.15114382233E+04  0.50400001928E-02 0.  1.
    10030    2    1    2    0    0  0.00000000000E+00  0.00000000000E+00 -0.97447359461E+03  0.20484028520E+04  0.18017645400E+04 0.  0.
        4    1    3    3  502    0 -0.21221545531E+03  0.66022527177E+03 -0.11409759825E+04  0.13352005896E+04  0.12699999809E+01 0.  1.
       -4    1    3    3    0  502  0.21221545531E+03 -0.66022527177E+03  0.16650238794E+03  0.71320226237E+03  0.12699999809E+01 0. -1.
</event>
<event>
 5   0  0.1549012E-04  0.1797810E+04  0.7818609E-02  0.8707465E-01
        2   -1    0    0  501    0  0.00000000000E+00  0.00000000000E+00  0.93027111501E+03  0.93027111501E+03  0.25500000920E-02 0. -1.
       -2   -1    0    0    0  501  0.00000000000E+00  0.00000000000E+00 -0.86859635983E+03  0.86859635983E+03  0.25500000920E-02 0.  1.
    10030    2    1    2    0    0  0.00000000000E+00  0.00000000000E+00  0.61674755183E+02  0.17988674748E+04  0.17978098945E+04 0.  0.
        4    1    3    3  502    0 -0.80436069561E+03  0.40111482198E+03  0.19029495174E+02  0.89902890034E+03  0.12699999809E+01 0. -1.
       -4    1    3    3    0  502  0.80436069561E+03 -0.40111482198E+03  0.42645260009E+02  0.89983857450E+03  0.12699999809E+01 0.  1.
</event>
<event>
 5   0  0.5820500E-05  0.1818142E+04  0.7818609E-02  0.8696711E-01
        3   -1    0    0  501    0  0.00000000000E+00  0.00000000000E+00  0.66323567757E+03  0.66323568526E+03  0.10100000352E+00 0. -1.
       -3   -1    0    0    0  501  0.00000000000E+00  0.00000000000E+00 -0.12460281413E+04  0.12460281454E+04  0.10100000352E+00 0.  1.
    10030    2    1    2    0    0  0.00000000000E+00  0.00000000000E+00 -0.58279246375E+03  0.19092638307E+04  0.18181422715E+04 0.  0.
        2    1    3    3  502    0 -0.58784166314E+03 -0.60891411928E+03  0.57008950643E+02  0.84828311668E+03  0.25500000920E-02 0. -1.
       -2    1    3    3    0  502  0.58784166314E+03  0.60891411928E+03 -0.63980141439E+03  0.10609807140E+04  0.25500000920E-02 0.  1.
</event>
<event>
 5   0  0.8430513E-05  0.1793296E+04  0.7818609E-02  0.8709873E-01
        1   -1    0    0  501    0  0.00000000000E+00  0.00000000000E+00  0.11009500142E+04  0.11009500142E+04  0.50400001928E-02 0.  1.
       -1   -1    0    0    0  501  0.00000000000E+00  0.00000000000E+00 -0.73025805675E+03  0.73025805676E+03  0.50400001928E-02 0. -1.
    10030    2    1    2    0    0  0.00000000000E+00  0.00000000000E+00  0.37069195742E+03  0.18312080709E+04  0.17932959800E+04 0.  0.
        5    1    3    3  502    0  0.22397837323E+03 -0.77206495408E+03 -0.22017034791E+03  0.83351525306E+03  0.46999998093E+01 0. -1.
       -5    1    3    3    0  502 -0.22397837323E+03  0.77206495408E+03  0.59086230533E+03  0.99769281788E+03  0.46999998093E+01 0.  1.
</event>
<event>
 5   0  0.8430513E-05  0.1806927E+04  0.7818609E-02  0.8702625E-01
        1   -1    0    0  501    0  0.00000000000E+00  0.00000000000E+00  0.10861924846E+04  0.10861924846E+04  0.50400001928E-02 0. -1.
       -1   -1    0    0    0  501  0.00000000000E+00  0.00000000000E+00 -0.75147445762E+03  0.75147445764E+03  0.50400001928E-02 0.  1.
    10030    2    1    2    0    0  0.00000000000E+00  0.00000000000E+00  0.33471802696E+03  0.18376669422E+04  0.18069265710E+04 0.  0.
        5    1    3    3  502    0  0.35435377521E+02 -0.41711076073E+03 -0.64687798010E+03  0.77052596571E+03  0.46999998093E+01 0.  1.
       -5    1    3    3    0  502 -0.35435377521E+02  0.41711076073E+03  0.98159600707E+03  0.10671409765E+04  0.46999998093E+01 0. -1.
</event>
<event>
 5   0  0.1603564E-04  0.1733606E+04  0.7818609E-02  0.8742426E-01
       -2   -1    0    0    0  501  0.00000000000E+00  0.00000000000E+00  0.34001426706E+03  0.34001426707E+03  0.25500000920E-02 0.  1.
        2   -1    0    0  501    0  0.00000000000E+00  0.00000000000E+00 -0.22097521620E+04  0.22097521620E+04  0.25500000920E-02 0. -1.
    10030    2    1    2    0    0  0.00000000000E+00  0.00000000000E+00 -0.18697378949E+04  0.25497664290E+04  0.17336057934E+04 0.  0.
        5    1    3    3  502    0 -0.13496731275E+03 -0.66229834881E+03 -0.17329931831E+04  0.18601458924E+04  0.46999998093E+01 0. -1.
       -5    1    3    3    0  502  0.13496731275E+03  0.66229834881E+03 -0.13674471180E+03  0.68962053663E+03  0.46999998093E+01 0.  1.
</event>
<event>
 5   0  0.1573981E-04  0.1802723E+04  0.7818609E-02  0.8704853E-01
       -2   -1    0    0    0  501  0.00000000000E+00  0.00000000000E+00  0.99058852595E+03  0.99058852595E+03  0.25500000920E-02 0. -1.
        2   -1    0    0  501    0  0.00000000000E+00  0.00000000000E+00 -0.82017143201E+03  0.82017143202E+03  0.25500000920E-02 0.  1.
    10030    2    1    2    0    0  0.00000000000E+00  0.00000000000E+00  0.17041709393E+03  0.18107599580E+04  0.18027228404E+04 0.  0.
        1    1    3    3  502    0 -0.47363816200E+03 -0.61227744889E+01  0.85549240200E+03  0.97787414670E+03  0.50400001928E-02 0. -1.
       -1    1    3    3    0  502  0.47363816200E+03  0.61227744889E+01 -0.68507530807E+03  0.83288581127E+03  0.50400001928E-02 0.  1.
</event>
<event>
 5   0  0.8492114E-05  0.1949431E+04  0.7818609E-02  0.8630635E-01
        1   -1    0    0  501    0  0.00000000000E+00  0.00000000000E+00  0.23806723061E+04  0.23806723061E+04  0.50400001928E-02 0.  1.
       -1   -1    0    0    0  501  0.00000000000E+00  0.00000000000E+00 -0.39907636683E+03  0.39907636686E+03  0.50400001928E-02 0. -1.
    10030    2    1    2    0    0  0.00000000000E+00  0.00000000000E+00  0.19815959393E+04  0.27797486730E+04  0.19494307421E+04 0.  0.
        2    1    3    3  502    0  0.65782091707E+03  0.43442237771E+02 -0.32949579678E+02  0.66007670900E+03  0.25500000920E-02 0. -1.
       -2    1    3    3    0  502 -0.65782091707E+03 -0.43442237771E+02  0.20145455190E+04  0.21196719640E+04  0.25500000920E-02 0.  1.
</event>
<event>
 5   0  0.1603564E-04  0.1797152E+04  0.7818609E-02  0.8707815E-01
       -2   -1    0    0    0  501  0.00000000000E+00  0.00000000000E+00  0.49912297523E+03  0.49912297524E+03  0.25500000920E-02 0.  1.
        2   -1    0    0  501    0  0.00000000000E+00  0.00000000000E+00 -0.16177157950E+04  0.16177157950E+04  0.25500000920E-02 0. -1.
    10030    2    1    2    0    0  0.00000000000E+00  0.00000000000E+00 -0.11185928198E+04  0.21168387703E+04  0.17971523260E+04 0.  0.
        5    1    3    3  502    0 -0.10862444120E+03  0.86250730884E+02  0.48642308353E+03  0.50583392926E+03  0.46999998093E+01 0.  1.
       -5    1    3    3    0  502  0.10862444120E+03 -0.86250730884E+02 -0.16050159033E+04  0.16110048410E+04  0.46999998093E+01 0. -1.
</event>
<event>
 5   0  0.1573981E-04  0.1797105E+04  0.7818609E-02  0.8707841E-01
       -2   -1    0    0    0  501  0.00000000000E+00  0.00000000000E+00  0.53503661738E+03  0.53503661738E+03  0.25500000920E-02 0. -1.
        2   -1    0    0  501    0  0.00000000000E+00  0.00000000000E+00 -0.15090491474E+04  0.15090491474E+04  0.25500000920E-02 0.  1.
    10030    2    1    2    0    0  0.00000000000E+00  0.00000000000E+00 -0.97401253004E+03  0.20440857648E+04  0.17971049511E+04 0.  0.
        1    1    3    3  502    0 -0.65530280814E+03  0.37769509393E+03  0.64761338136E+02  0.75912409083E+03  0.50400001928E-02 0.  1.
       -1    1    3    3    0  502  0.65530280814E+03 -0.37769509393E+03 -0.10387738682E+04  0.12849616740E+04  0.50400001928E-02 0. -1.
</event>
<event>
 5   0  0.1573981E-04  0.1641575E+04  0.7818609E-02  0.8795407E-01
        2   -1    0    0  501    0  0.00000000000E+00  0.00000000000E+00  0.15564336341E+04  0.15564336342E+04  0.25500000920E-02 0. -1.
       -2   -1    0    0    0  501  0.00000000000E+00  0.00000000000E+00 -0.43284319812E+03  0.43284319813E+03  0.25500000920E-02 0.  1.
    10030    2    1    2    0    0  0.00000000000E+00  0.00000000000E+00  0.11235904360E+04  0.19892768323E+04  0.16415745026E+04 0.  0.
        1    1    3    3  502    0 -0.28813567945E+03 -0.36342164892E+03  0.13824281251E+04  0.14581512219E+04  0.50400001928E-02 0. -1.
       -1    1    3    3    0  502  0.28813567945E+03  0.36342164892E+03 -0.25883768912E+03  0.53112561039E+03  0.50400001928E-02 0.  1.
</event>
<event>
 5   0  0.1628397E-04  0.1769142E+04  0.7818609E-02  0.8722884E-01
        2   -1    0    0  501    0  0.00000000000E+00  0.00000000000E+00  0.17256693264E+04  0.17256693264E+04  0.25500000920E-02 0. -1.
       -2   -1    0    0    0  501  0.00000000000E+00  0.00000000000E+00 -0.45342721721E+03  0.45342721721E+03  0.25500000920E-02 0.  1.
    10030    2    1    2    0    0  0.00000000000E+00  0.00000000000E+00  0.12722421092E+04  0.21790965436E+04  0.17691415325E+04 0.  0.
        3    1    3    3  502    0 -0.78909338913E+02  0.80223432701E+03  0.10847445108E+04  0.13514722576E+04  0.10100000352E+00 0.  1.
       -3    1    3    3    0  502  0.78909338913E+02 -0.80223432701E+03  0.18749759843E+03  0.82762428603E+03  0.10100000352E+00 0. -1.
</event>
<event>
 5   0  0.8254914E-05  0.1802114E+04  0.7818609E-02  0.8705176E-01
        1   -1    0    0  501    0  0.00000000000E+00  0.00000000000E+00  0.10617008258E+04  0.10617008258E+04  0.50400001928E-02 0. -1.
       -1   -1    0    0    0  501  0.00000000000E+00  0.00000000000E+00 -0.76472003177E+03  0.76472003179E+03  0.50400001928E-02 0.  1.
    10030    2    1    2    0    0  0.00000000000E+00  0.00000000000E+00  0.29698079404E+03  0.18264208576E+04  0.18021141909E+04 0.  0.
        4    1    3    3  502    0 -0.44386744995E+03  0.13001713799E+03  0.93221179047E+03  0.10406455710E+04  0.12699999809E+01 0. -1.
       -4    1    3    3    0  502  0.44386744995E+03 -0.13001713799E+03 -0.63523099643E+03  0.78577528659E+03  0.12699999809E+01 0.  1.
</event>
<event>
 5   0  0.8254914E-05  0.1792420E+04  0.7818609E-02  0.8710341E-01
        1   -1    0    0  501    0  0.00000000000E+00  0.00000000000E+00  0.11139983922E+04  0.11139983922E+04  0.50400001928E-02 0. -1.
       -1   -1    0    0    0  501  0.00000000000E+00  0.00000000000E+00 -0.72099980063E+03  0.72099980064E+03  0.50400001928E-02 0.  1.
    10030    2    1    2    0    0  0.00000000000E+00  0.00000000000E+00  0.39299859160E+03  0.18349981929E+04  0.17924202841E+04 0.  0.
        4    1    3    3  502    0  0.37267091970E+03  0.10940873632E+03  0.10233590172E+04  0.10945863041E+04  0.12699999809E+01 0. -1.
       -4    1    3    3    0  502 -0.37267091970E+03 -0.10940873632E+03 -0.63036042565E+03  0.74041188881E+03  0.12699999809E+01 0.  1.
</event>
<event>
 5   0  0.8206783E-05  0.1771872E+04  0.7818609E-02  0.8721402E-01
       -1   -1    0    0    0  501  0.00000000000E+00  0.00000000000E+00  0.82310014321E+03  0.82310014322E+03  0.50400001928E-02 0. -1.
        1   -1    0    0  501    0  0.00000000000E+00  0.00000000000E+00 -0.95356897015E+03  0.95356897016E+03  0.50400001928E-02 0.  1.
    10030    2    1    2    0    0  0.00000000000E+00  0.00000000000E+00 -0.13046882694E+03  0.17766691134E+04  0.17718721804E+04 0.  0.
        1    1    3    3  502    0 -0.21814824135E+03  0.70275690083E+03  0.42948436178E+03  0.85200512552E+03  0.50400001928E-02 0.  1.
       -1    1    3    3    0  502  0.21814824135E+03 -0.70275690083E+03 -0.55995318873E+03  0.92466398787E+03  0.50400001928E-02 0. -1.
</event>
<event>
 5   0  0.1603564E-04  0.1789377E+04  0.7818609E-02  0.8711969E-01
       -2   -1    0    0    0  501  0.00000000000E+00  0.00000000000E+00  0.54503393348E+03  0.54503393349E+03  0.25500000920E-02 0. -1.
        2   -1    0    0  501    0  0.00000000000E+00  0.00000000000E+00 -0.14686556408E+04  0.14686556408E+04  0.25500000920E-02 0.  1.
    10030    2    1    2    0    0  0.00000000000E+00  0.00000000000E+00 -0.92362170733E+03  0.20136895743E+04  0.17893766075E+04 0.  0.
        5    1    3    3  502    0 -0.13380587421E+03  0.86522092617E+03 -0.25450714877E+03  0.91176051780E+03  0.46999998093E+01 0. -1.
       -5    1    3    3    0  502  0.13380587421E+03 -0.86522092617E+03 -0.66911455856E+03  0.11019290565E+04  0.46999998093E+01 0.  1.
</event>
<event>
 5   0  0.8132598E-05  0.1807497E+04  0.7818609E-02  0.8702323E-01
        1   -1    0    0  501    0  0.00000000000E+00  0.00000000000E+00  0.11206069926E+04  0.11206069926E+04  0.50400001928E-02 0. -1.
       -1   -1    0    0    0  501  0.00000000000E+00  0.00000000000E+00 -0.72885633395E+03  0.72885633396E+03  0.50400001928E-02 0.  1.
    10030    2    1    2    0    0  0.00000000000E+00  0.00000000000E+00  0.39175065865E+03  0.18494633266E+04  0.18074971695E+04 0.  0.
        3    1    3    3  502    0  0.70582892857E+03 -0.19896851837E+03 -0.34457215768E+03  0.81025485482E+03  0.10100000352E+00 0.  1.
       -3    1    3    3    0  502 -0.70582892857E+03  0.19896851837E+03  0.73632281633E+03  0.10392084717E+04  0.10100000352E+00 0. -1.
</event>
<event>
 5   0  0.1603564E-04  0.1814533E+04  0.7818609E-02  0.8698609E-01
       -2   -1    0    0    0  501  0.00000000000E+00  0.00000000000E+00  0.38523045226E+03  0.38523045227E+03  0.25500000920E-02 0.  1.
        2   -1    0    0  501    0  0.00000000000E+00  0.00000000000E+00 -0.21367278214E+04  0.21367278214E+04  0.25500000920E-02 0. -1.
    10030    2    1    2    0    0  0.00000000000E+00  0.00000000000E+00 -0.17514973691E+04  0.25219582737E+04  0.18145331356E+04 0.  0.
        5    1    3    3  502    0  0.88715799179E+03 -0.61518133811E+02 -0.62604905109E+03  0.10875630039E+04  0.46999998093E+01 0.  1.
       -5    1    3    3    0  502 -0.88715799179E+03  0.61518133811E+02 -0.11254483180E+04  0.14343952697E+04  0.46999998093E+01 0. -1.
</event>
<event>
 5   0  0.1573981E-04  0.1807078E+04  0.7818609E-02  0.8702544E-01
        2   -1    0    0  501    0  0.00000000000E+00  0.00000000000E+00  0.72984413543E+03  0.72984413543E+03  0.25500000920E-02 0.  1.
       -2   -1    0    0    0  501  0.00000000000E+00  0.00000000000E+00 -0.11185715593E+04  0.11185715593E+04  0.25500000920E-02 0. -1.
    10030    2    1    2    0    0  0.00000000000E+00  0.00000000000E+00 -0.38872742388E+03  0.18484156947E+04  0.18070781860E+04 0.  0.
        1    1    3    3  502    0  0.11575253304E+03 -0.45375405901E+03 -0.98475682515E+03  0.10904299151E+04  0.50400001928E-02 0. -1.
       -1    1    3    3    0  502 -0.11575253304E+03  0.45375405901E+03  0.59602940127E+03  0.75798577967E+03  0.50400001928E-02 0.  1.
</event>
<event>
 5   0  0.1549012E-04  0.1812957E+04  0.7818609E-02  0.8699439E-01
        2   -1    0    0  501    0  0.00000000000E+00  0.00000000000E+00  0.78014155284E+03  0.78014155285E+03  0.25500000920E-02 0. -1.
       -2   -1    0    0    0  501  0.00000000000E+00  0.00000000000E+00 -0.10532749732E+04  0.10532749732E+04  0.25500000920E-02 0.  1.
    10030    2    1    2    0    0  0.00000000000E+00  0.00000000000E+00 -0.27313342040E+03  0.18334165261E+04  0.18129573334E+04 0.  0.
        4    1    3    3  502    0 -0.26826524907E+03 -0.85728173775E+03 -0.13523044315E+02  0.89837781994E+03  0.12699999809E+01 0. -1.
       -4    1    3    3    0  502  0.26826524907E+03  0.85728173775E+03 -0.25961037608E+03  0.93503870615E+03  0.12699999809E+01 0.  1.
</event>
<event>
 5   0  0.1603564E-04  0.1802981E+04  0.7818609E-02  0.8704716E-01
       -2   -1    0    0    0  501  0.00000000000E+00  0.00000000000E+00  0.51198522743E+03  0.51198522744E+03  0.25500000920E-02 0.  1.
        2   -1    0    0  501    0  0.00000000000E+00  0.00000000000E+00 -0.15873206186E+04  0.15873206186E+04  0.25500000920E-02 0. -1.
    10030    2    1    2    0    0  0.00000000000E+00  0.00000000000E+00 -0.10753353912E+04  0.20993058461E+04  0.18029805412E+04 0.  0.
        5    1    3    3  502    0  0.11200438395E+03 -0.53418796493E+03  0.29771876453E+03  0.62173974993E+03  0.46999998093E+01 0.  1.
       -5    1    3    3    0  502 -0.11200438395E+03  0.53418796493E+03 -0.13730541557E+04  0.14775660961E+04  0.46999998093E+01 0. -1.
</event>
<event>
 5   0  0.8254914E-05  0.1801122E+04  0.7818609E-02  0.8705703E-01
       -1   -1    0    0    0  501  0.00000000000E+00  0.00000000000E+00  0.86042765328E+03  0.86042765330E+03  0.50400001928E-02 0. -1.
        1   -1    0    0  501    0  0.00000000000E+00  0.00000000000E+00 -0.94256585717E+03  0.94256585719E+03  0.50400001928E-02 0.  1.
    10030    2    1    2    0    0  0.00000000000E+00  0.00000000000E+00 -0.82138203890E+02  0.18029935105E+04  0.18011215712E+04 0.  0.
        4    1    3    3  502    0 -0.66869189137E+03 -0.33288861728E+03 -0.54462714183E+03  0.92443713340E+03  0.12699999809E+01 0.  1.
       -4    1    3    3    0  502  0.66869189137E+03  0.33288861728E+03  0.46248893794E+03  0.87855637708E+03  0.12699999809E+01 0. -1.
</event>
<event>
 5   0  0.1573981E-04  0.1637768E+04  0.7818609E-02  0.8797676E-01
       -2   -1    0    0    0  501  0.00000000000E+00  0.00000000000E+00  0.49291872034E+03  0.49291872034E+03  0.25500000920E-02 0. -1.
        2   -1    0    0  501    0  0.00000000000E+00  0.00000000000E+00 -0.13604082402E+04  0.13604082402E+04  0.25500000920E-02 0.  1.
    10030    2    1    2    0    0  0.00000000000E+00  0.00000000000E+00 -0.86748951983E+03  0.18533269605E+04  0.16377676134E+04 0.  0.
        1    1    3    3  502    0 -0.45405990024E+03  0.32236612974E+03 -0.11131682805E+04  0.12446822628E+04  0.50400001928E-02 0.  1.
       -1    1    3    3    0  502  0.45405990024E+03 -0.32236612974E+03  0.24567876065E+03  0.60864469773E+03  0.50400001928E-02 0. -1.
</event>
<event>
 5   0  0.8254914E-05  0.1801907E+04  0.7818609E-02  0.8705286E-01
       -1   -1    0    0    0  501  0.00000000000E+00  0.00000000000E+00  0.67678139308E+03  0.67678139310E+03  0.50400001928E-02 0. -1.
        1   -1    0    0  501    0  0.00000000000E+00  0.00000000000E+00 -0.11993785584E+04  0.11993785584E+04  0.50400001928E-02 0.  1.
    10030    2    1    2    0    0  0.00000000000E+00  0.00000000000E+00 -0.52259716532E+03  0.18761599515E+04  0.18019068695E+04 0.  0.
        4    1    3    3  502    0 -0.33474389496E+03  0.67679256213E+03 -0.77309638463E+03  0.10806392924E+04  0.12699999809E+01 0.  1.
       -4    1    3    3    0  502  0.33474389496E+03 -0.67679256213E+03  0.25049921930E+03  0.79552065915E+03  0.12699999809E+01 0. -1.
</event>
<event>
 5   0  0.8492114E-05  0.1803918E+04  0.7818609E-02  0.8704219E-01
       -1   -1    0    0    0  501  0.00000000000E+00  0.00000000000E+00  0.18984672630E+04  0.18984672630E+04  0.50400001928E-02 0.  1.
        1   -1    0    0  501    0  0.00000000000E+00  0.00000000000E+00 -0.42851944768E+03  0.42851944771E+03  0.50400001928E-02 0. -1.
    10030    2    1    2    0    0  0.00000000000E+00  0.00000000000E+00  0.14699478153E+04  0.23269867107E+04  0.18039181168E+04 0.  0.
        2    1    3    3  502    0 -0.49136639028E+03  0.72790663173E+03  0.10000954052E+04  0.13309695013E+04  0.25500000920E-02 0.  1.
       -2    1    3    3    0  502  0.49136639028E+03 -0.72790663173E+03  0.46985241010E+03  0.99601720934E+03  0.25500000920E-02 0. -1.
</event>
<event>
 5   0  0.5820500E-05  0.1799395E+04  0.7818609E-02  0.8706621E-01
       -4   -1    0    0    0  501  0.00000000000E+00  0.00000000000E+00  0.13587456153E+04  0.13587462088E+04  0.12699999809E+01 0.  1.
        4   -1    0    0  501    0  0.00000000000E+00  0.00000000000E+00 -0.59573621466E+03  0.59573756836E+03  0.12699999809E+01 0. -1.
    10030    2    1    2    0    0  0.00000000000E+00  0.00000000000E+00  0.76300940065E+03  0.19544837772E+04  0.17993953123E+04 0.  0.
        5    1    3    3  502    0  0.49972115529E+03  0.12884375712E+03  0.11819840245E+04  0.12897403890E+04  0.46999998093E+01 0.  1.
       -5    1    3    3    0  502 -0.49972115529E+03 -0.12884375712E+03 -0.41897462382E+03  0.66474338823E+03  0.46999998093E+01 0. -1.
</event>
<event>
 5   0  0.8206783E-05  0.1809509E+04  0.7818609E-02  0.8701259E-01
        1   -1    0    0  501    0  0.00000000000E+00  0.00000000000E+00  0.53890197920E+03  0.53890197923E+03  0.50400001928E-02 0. -1.
       -1   -1    0    0    0  501  0.00000000000E+00  0.00000000000E+00 -0.15189787286E+04  0.15189787286E+04  0.50400001928E-02 0.  1.
    10030    2    1    2    0    0  0.00000000000E+00  0.00000000000E+00 -0.98007674937E+03  0.20578807078E+04  0.18095089314E+04 0.  0.
        1    1    3    3  502    0 -0.70050038055E+03  0.44219180756E+03 -0.76309997182E+02  0.83189999010E+03  0.50400001928E-02 0.  1.
       -1    1    3    3    0  502  0.70050038055E+03 -0.44219180756E+03 -0.90376675219E+03  0.12259807177E+04  0.50400001928E-02 0. -1.
</event>
<event>
 5   0  0.8254914E-05  0.1798016E+04  0.7818609E-02  0.8707355E-01
       -1   -1    0    0    0  501  0.00000000000E+00  0.00000000000E+00  0.55778760964E+03  0.55778760966E+03  0.50400001928E-02 0.  1.
        1   -1    0    0  501    0  0.00000000000E+00  0.00000000000E+00 -0.14489659035E+04  0.14489659035E+04  0.50400001928E-02 0. -1.
    10030    2    1    2    0    0  0.00000000000E+00  0.00000000000E+00 -0.89117829389E+03  0.20067535132E+04  0.17980158262E+04 0.  0.
        4    1    3    3  502    0 -0.71240325798E+03 -0.42128872634E+03 -0.83735384742E+03  0.11773553718E+04  0.12699999809E+01 0. -1.
       -4    1    3    3    0  502  0.71240325798E+03  0.42128872634E+03 -0.53824446467E+02  0.82939814135E+03  0.12699999809E+01 0.  1.
</event>
<event>
 5   0  0.1549012E-04  0.1790489E+04  0.7818609E-02  0.8711374E-01
        2   -1    0    0  501    0  0.00000000000E+00  0.00000000000E+00  0.80907954614E+03  0.80907954614E+03  0.25500000920E-02 0. -1.
       -2   -1    0    0    0  501  0.00000000000E+00  0.00000000000E+00 -0.99058616959E+03  0.99058616959E+03  0.25500000920E-02 0.  1.
    10030    2    1    2    0    0  0.00000000000E+00  0.00000000000E+00 -0.18150662345E+03  0.17996657157E+04  0.17904893281E+04 0.  0.
        4    1    3    3  502    0  0.17726677527E+03  0.59257063138E+03  0.55978700240E+03  0.83422213094E+03  0.12699999809E+01 0. -1.
       -4    1    3    3    0  502 -0.17726677527E+03 -0.59257063138E+03 -0.74129362585E+03  0.96544358479E+03  0.12699999809E+01 0.  1.
</event>
<event>
 5   0  0.1549012E-04  0.1839019E+04  0.7818609E-02  0.8685821E-01
        2   -1    0    0  501    0  0.00000000000E+00  0.00000000000E+00  0.11683255406E+04  0.11683255407E+04  0.25500000920E-02 0. -1.
       -2   -1    0    0    0  501  0.00000000000E+00  0.00000000000E+00 -0.72368308277E+03  0.72368308278E+03  0.25500000920E-02 0.  1.
    10030    2    1    2    0    0  0.00000000000E+00  0.00000000000E+00  0.44464245788E+03  0.18920086234E+04  0.18390186828E+04 0.  0.
        4    1    3    3  502    0  0.79016416578E+02 -0.62054069601E+03  0.91566987904E+03  0.11089487318E+04  0.12699999809E+01 0. -1.
       -4    1    3    3    0  502 -0.79016416578E+02  0.62054069601E+03 -0.47102742116E+03  0.78305989163E+03  0.12699999809E+01 0.  1.
</event>
<event>
 5   0  0.8430513E-05  0.1695292E+04  0.7818609E-02  0.8764054E-01
       -1   -1    0    0    0  501  0.00000000000E+00  0.00000000000E+00  0.71379054312E+03  0.71379054314E+03  0.50400001928E-02 0. -1.
        1   -1    0    0  501    0  0.00000000000E+00  0.00000000000E+00 -0.10066026060E+04  0.10066026060E+04  0.50400001928E-02 0.  1.
    10030    2    1    2    0    0  0.00000000000E+00  0.00000000000E+00 -0.29281206290E+03  0.17203931492E+04  0.16952916220E+04 0.  0.
        5    1    3    3  502    0  0.46411844792E+03  0.27136974942E+02  0.57284704668E+03  0.73777922036E+03  0.46999998093E+01 0. -1.
       -5    1    3    3    0  502 -0.46411844792E+03 -0.27136974942E+02 -0.86565910959E+03  0.98261392882E+03  0.46999998093E+01 0.  1.
</event>
<event>
 5   0  0.1608627E-04  0.1789395E+04  0.7818609E-02  0.8711959E-01
        2   -1    0    0  501    0  0.00000000000E+00  0.00000000000E+00  0.14373935123E+04  0.14373935123E+04  0.25500000920E-02 0. -1.
       -2   -1    0    0    0  501  0.00000000000E+00  0.00000000000E+00 -0.55689946759E+03  0.55689946759E+03  0.25500000920E-02 0.  1.
    10030    2    1    2    0    0  0.00000000000E+00  0.00000000000E+00  0.88049404470E+03  0.19942929799E+04  0.17893950729E+04 0.  0.
        2    1    3    3  502    0 -0.86851846328E+03 -0.18532970058E+03  0.56137634051E+03  0.10506259157E+04  0.25500000920E-02 0. -1.
       -2    1    3    3    0  502  0.86851846328E+03  0.18532970058E+03  0.31911770419E+03  0.94366706422E+03  0.25500000920E-02 0.  1.
</event>
<event>
 5   0  0.8430513E-05  0.1793979E+04  0.7818609E-02  0.8709508E-01
       -1   -1    0    0    0  501  0.00000000000E+00  0.00000000000E+00  0.86406622173E+03  0.86406622174E+03  0.50400001928E-02 0.  1.
        1   -1    0    0  501    0  0.00000000000E+00  0.00000000000E+00 -0.93116761195E+03  0.93116761196E+03  0.50400001928E-02 0. -1.
    10030    2    1    2    0    0  0.00000000000E+00  0.00000000000E+00 -0.67101390218E+02  0.17952338337E+04  0.17939793536E+04 0.  0.
        5    1    3    3  502    0  0.46111500471E+03 -0.76526313118E+03  0.45963554024E+02  0.89464487134E+03  0.46999998093E+01 0.  1.
       -5    1    3    3    0  502 -0.46111500471E+03  0.76526313118E+03 -0.11306494424E+03  0.90058896236E+03  0.46999998093E+01 0. -1.
</event>
<event>
 5   0  0.1573981E-04  0.1791865E+04  0.7818609E-02  0.8710638E-01
        2   -1    0    0  501    0  0.00000000000E+00  0.00000000000E+00  0.13146470984E+04  0.13146470984E+04  0.25500000920E-02 0. -1.
       -2   -1    0    0    0  501  0.00000000000E+00  0.00000000000E+00 -0.61057800278E+03  0.61057800278E+03  0.25500000920E-02 0.  1.
    10030    2    1    2    0    0  0.00000000000E+00  0.00000000000E+00  0.70406909561E+03  0.19252251012E+04  0.17918645035E+04 0.  0.
        1    1    3    3  502    0 -0.29917471571E+02 -0.74081483311E+03 -0.18838436507E+03  0.76497734678E+03  0.50400001928E-02 0.  1.
       -1    1    3    3    0  502  0.29917471571E+02  0.74081483311E+03  0.89245346068E+03  0.11602477544E+04  0.50400001928E-02 0. -1.
</event>
<event>
 5   0  0.1549012E-04  0.1805996E+04  0.7818609E-02  0.8703117E-01
        2   -1    0    0  501    0  0.00000000000E+00  0.00000000000E+00  0.19109211073E+04  0.19109211073E+04  0.25500000920E-02 0. -1.
       -2   -1    0    0    0  501  0.00000000000E+00  0.00000000000E+00 -0.42670823255E+03  0.42670823255E+03  0.25500000920E-02 0.  1.
    10030    2    1    2    0    0  0.00000000000E+00  0.00000000000E+00  0.14842128748E+04  0.23376293399E+04  0.18059964211E+04 0.  0.
        4    1    3    3  502    0  0.82488003520E+03 -0.45590313001E+00  0.26656490956E+03  0.86688277422E+03  0.12699999809E+01 0.  1.
       -4    1    3    3    0  502 -0.82488003520E+03  0.45590313001E+00  0.12176479652E+04  0.14707465657E+04  0.12699999809E+01 0. -1.
</event>
<event>
 5   0  0.8430513E-05  0.1801918E+04  0.7818609E-02  0.8705280E-01
       -1   -1    0    0    0  501  0.00000000000E+00  0.00000000000E+00  0.41831817320E+03  0.41831817323E+03  0.50400001928E-02 0.  1.
        1   -1    0    0  501    0  0.00000000000E+00  0.00000000000E+00 -0.19404548407E+04  0.19404548407E+04  0.50400001928E-02 0. -1.
    10030    2    1    2    0    0  0.00000000000E+00  0.00000000000E+00 -0.15221366675E+04  0.23587730139E+04  0.18019184490E+04 0.  0.
        5    1    3    3  502    0  0.32450582187E+03  0.11603097010E+02 -0.18611765453E+04  0.18892958696E+04  0.46999998093E+01 0. -1.
       -5    1    3    3    0  502 -0.32450582187E+03 -0.11603097010E+02  0.33903987779E+03  0.46947714430E+03  0.46999998093E+01 0.  1.
</event>
<event>
 5   0  0.1549012E-04  0.1809647E+04  0.7818609E-02  0.8701186E-01
       -2   -1    0    0    0  501  0.00000000000E+00  0.00000000000E+00  0.88313384326E+03  0.88313384326E+03  0.25500000920E-02 0. -1.
        2   -1    0    0  501    0  0.00000000000E+00  0.00000000000E+00 -0.92704576285E+03  0.92704576285E+03  0.25500000920E-02 0.  1.
    10030    2    1    2    0    0  0.00000000000E+00  0.00000000000E+00 -0.43911919591E+02  0.18101796061E+04  0.18096469130E+04 0.  0.
        4    1    3    3  502    0  0.66171592567E+03  0.73898575858E+02 -0.63481478060E+03  0.91995672962E+03  0.12699999809E+01 0.  1.
       -4    1    3    3    0  502 -0.66171592567E+03 -0.73898575858E+02  0.59090286101E+03  0.89022287650E+03  0.12699999809E+01 0. -1.
</event>
<event>
 5   0  0.1603564E-04  0.1802493E+04  0.7818609E-02  0.8704975E-01
       -2   -1    0    0    0  501  0.00000000000E+00  0.00000000000E+00  0.93101464213E+03  0.93101464213E+03  0.25500000920E-02 0.  1.
        2   -1    0    0  501    0  0.00000000000E+00  0.00000000000E+00 -0.87243062634E+03  0.87243062635E+03  0.25500000920E-02 0. -1.
    10030    2    1    2    0    0  0.00000000000E+00  0.00000000000E+00  0.58584015782E+02  0.18034452685E+04  0.18024934811E+04 0.  0.
        5    1    3    3  502    0  0.35856835808E+03 -0.71943666815E+03  0.43701572877E+03  0.91496733499E+03  0.46999998093E+01 0.  1.
       -5    1    3    3    0  502 -0.35856835808E+03  0.71943666815E+03 -0.37843171299E+03  0.88847793349E+03  0.46999998093E+01 0. -1.
</event>
<event>
 5   0  0.1573981E-04  0.1810956E+04  0.7818609E-02  0.8700495E-01
       -2   -1    0    0    0  501  0.00000000000E+00  0.00000000000E+00  0.51146977756E+03  0.51146977756E+03  0.25500000920E-02 0. -1.
        2   -1    0    0  501    0  0.00000000000E+00  0.00000000000E+00 -0.16030083426E+04  0.16030083426E+04  0.25500000920E-02 0.  1.
    10030    2    1    2    0    0  0.00000000000E+00  0.00000000000E+00 -0.10915385651E+04  0.21144781202E+04  0.18109559027E+04 0.  0.
        1    1    3    3  502    0 -0.35111133585E+03  0.63065383336E+03  0.92565861283E+02  0.72771688615E+03  0.50400001928E-02 0. -1.
       -1    1    3    3    0  502  0.35111133585E+03 -0.63065383336E+03 -0.11841044263E+04  0.13867612340E+04  0.50400001928E-02 0.  1.
</event>
<event>
 5   0  0.8254914E-05  0.1771234E+04  0.7818609E-02  0.8721748E-01
       -1   -1    0    0    0  501  0.00000000000E+00  0.00000000000E+00  0.63723088955E+03  0.63723088957E+03  0.50400001928E-02 0. -1.
        1   -1    0    0  501    0  0.00000000000E+00  0.00000000000E+00 -0.12308213572E+04  0.12308213572E+04  0.50400001928E-02 0.  1.
    10030    2    1    2    0    0  0.00000000000E+00  0.00000000000E+00 -0.59359046765E+03  0.18680522468E+04  0.17712339070E+04 0.  0.
        4    1    3    3  502    0 -0.74209368378E+03  0.34577936722E+03 -0.65296704518E+03  0.10472029322E+04  0.12699999809E+01 0. -1.
       -4    1    3    3    0  502  0.74209368378E+03 -0.34577936722E+03  0.59376577534E+02  0.82084931453E+03  0.12699999809E+01 0.  1.
</event>
<event>
 5   0  0.1573981E-04  0.1801328E+04  0.7818609E-02  0.8705594E-01
        2   -1    0    0  501    0  0.00000000000E+00  0.00000000000E+00  0.13167613811E+04  0.13167613811E+04  0.25500000920E-02 0. -1.
       -2   -1    0    0    0  501  0.00000000000E+00  0.00000000000E+00 -0.61605343178E+03  0.61605343178E+03  0.25500000920E-02 0.  1.
    10030    2    1    2    0    0  0.00000000000E+00  0.00000000000E+00  0.70070794931E+03  0.19328148129E+04  0.18013276966E+04 0.  0.
        1    1    3    3  502    0 -0.18620041137E+03 -0.35808631366E+03  0.12142971599E+04  0.12796147834E+04  0.50400001928E-02 0. -1.
       -1    1    3    3    0  502  0.18620041137E+03  0.35808631366E+03 -0.51358921062E+03  0.65320002949E+03  0.50400001928E-02 0.  1.
</event>
<event>
 5   0  0.8492114E-05  0.1841761E+04  0.7818609E-02  0.8684401E-01
       -1   -1    0    0    0  501  0.00000000000E+00  0.00000000000E+00  0.70793900887E+03  0.70793900889E+03  0.50400001928E-02 0. -1.
        1   -1    0    0  501    0  0.00000000000E+00  0.00000000000E+00 -0.11978730133E+04  0.11978730133E+04  0.50400001928E-02 0.  1.
    10030    2    1    2    0    0  0.00000000000E+00  0.00000000000E+00 -0.48993400445E+03  0.19058120222E+04  0.18417611505E+04 0.  0.
        2    1    3    3  502    0  0.13712084352E+03  0.89772735755E+03 -0.40293410230E+03  0.99351518610E+03  0.25500000920E-02 0.  1.
       -2    1    3    3    0  502 -0.13712084352E+03 -0.89772735755E+03 -0.86999902155E+02  0.91229683612E+03  0.25500000920E-02 0. -1.
</event>
<event>
 5   0  0.1628397E-04  0.1796534E+04  0.7818609E-02  0.8708145E-01
       -2   -1    0    0    0  501  0.00000000000E+00  0.00000000000E+00  0.51112742168E+03  0.51112742168E+03  0.25500000920E-02 0. -1.
        2   -1    0    0  501    0  0.00000000000E+00  0.00000000000E+00 -0.15786342764E+04  0.15786342764E+04  0.25500000920E-02 0.  1.
    10030    2    1    2    0    0  0.00000000000E+00  0.00000000000E+00 -0.10675068547E+04  0.20897616981E+04  0.17965336261E+04 0.  0.
        3    1    3    3  502    0 -0.11256293144E+03 -0.49405157348E+03 -0.13965183015E+04  0.14856045057E+04  0.10100000352E+00 0.  1.
       -3    1    3    3    0  502  0.11256293144E+03  0.49405157348E+03  0.32901144677E+03  0.60415719237E+03  0.10100000352E+00 0. -1.
</event>
<event>
 5   0  0.8254914E-05  0.1782633E+04  0.7818609E-02  0.8715590E-01
        1   -1    0    0  501    0  0.00000000000E+00  0.00000000000E+00  0.12324546172E+04  0.12324546172E+04  0.50400001928E-02 0.  1.
       -1   -1    0    0    0  501  0.00000000000E+00  0.00000000000E+00 -0.64460390760E+03  0.64460390762E+03  0.50400001928E-02 0. -1.
    10030    2    1    2    0    0  0.00000000000E+00  0.00000000000E+00  0.58785070961E+03  0.18770585248E+04  0.17826329541E+04 0.  0.
        4    1    3    3  502    0 -0.61529455828E+03  0.63863218034E+03  0.38813522188E+03  0.96803358339E+03  0.12699999809E+01 0. -1.
       -4    1    3    3    0  502  0.61529455828E+03 -0.63863218034E+03  0.19971548774E+03  0.90902494144E+03  0.12699999809E+01 0.  1.
</event>
<event>
 5   0  0.8206783E-05  0.1812245E+04  0.7818609E-02  0.8699815E-01
       -1   -1    0    0    0  501  0.00000000000E+00  0.00000000000E+00  0.94629844968E+03  0.94629844970E+03  0.50400001928E-02 0. -1.
        1   -1    0    0  501    0  0.00000000000E+00  0.00000000000E+00 -0.86765211132E+03  0.86765211133E+03  0.50400001928E-02 0.  1.
    10030    2    1    2    0    0  0.00000000000E+00  0.00000000000E+00  0.78646338366E+02  0.18139505610E+04  0.18122448486E+04 0.  0.
        1    1    3    3  502    0 -0.72107770753E+03  0.15362265489E+03 -0.48795995861E+03  0.88411419038E+03  0.50400001928E-02 0.  1.
       -1    1    3    3    0  502  0.72107770753E+03 -0.15362265489E+03  0.56660629698E+03  0.92983637065E+03  0.50400001928E-02 0. -1.
</event>
<event>
 5   0  0.1573981E-04  0.1773124E+04  0.7818609E-02  0.8720724E-01
       -2   -1    0    0    0  501  0.00000000000E+00  0.00000000000E+00  0.70209156608E+03  0.70209156608E+03  0.25500000920E-02 0.  1.
        2   -1    0    0  501    0  0.00000000000E+00  0.00000000000E+00 -0.11195012808E+04  0.11195012808E+04  0.25500000920E-02 0. -1.
    10030    2    1    2    0    0  0.00000000000E+00  0.00000000000E+00 -0.41740971475E+03  0.18215928469E+04  0.17731242568E+04 0.  0.
        1    1    3    3  502    0 -0.71428171769E+03  0.20838465904E+03  0.28651955779E+03  0.79731800141E+03  0.50400001928E-02 0.  1.
       -1    1    3    3    0  502  0.71428171769E+03 -0.20838465904E+03 -0.70392927254E+03  0.10242748455E+04  0.50400001928E-02 0. -1.
</event>
<event>
 5   0  0.1549012E-04  0.1794475E+04  0.7818609E-02  0.8709243E-01
       -2   -1    0    0    0  501  0.00000000000E+00  0.00000000000E+00  0.59850211119E+03  0.59850211120E+03  0.25500000920E-02 0. -1.
        2   -1    0    0  501    0  0.00000000000E+00  0.00000000000E+00 -0.13450838899E+04  0.13450838899E+04  0.25500000920E-02 0.  1.
    10030    2    1    2    0    0  0.00000000000E+00  0.00000000000E+00 -0.74658177867E+03  0.19435860011E+04  0.17944754641E+04 0.  0.
        4    1    3    3  502    0  0.47626063028E+03  0.38831418340E+03 -0.10813908879E+04  0.12437925705E+04  0.12699999809E+01 0.  1.
       -4    1    3    3    0  502 -0.47626063028E+03 -0.38831418340E+03  0.33480910924E+03  0.69979343060E+03  0.12699999809E+01 0. -1.
</event>
<event>
 5   0  0.5820500E-05  0.1802375E+04  0.7818609E-02  0.8705038E-01
       -3   -1    0    0    0  501  0.00000000000E+00  0.00000000000E+00  0.46221729329E+03  0.46221730432E+03  0.10100000352E+00 0. -1.
        3   -1    0    0  501    0  0.00000000000E+00  0.00000000000E+00 -0.17570496247E+04  0.17570496276E+04  0.10100000352E+00 0.  1.
    10030    2    1    2    0    0  0.00000000000E+00  0.00000000000E+00 -0.12948323314E+04  0.22192669319E+04  0.18023748080E+04 0.  0.
        2    1    3    3  502    0  0.33856829037E+03  0.81364575759E+03 -0.41545113548E+03  0.97429336037E+03  0.25500000920E-02 0. -1.
       -2    1    3    3    0  502 -0.33856829037E+03 -0.81364575759E+03 -0.87938119593E+03  0.12449735715E+04  0.25500000920E-02 0.  1.
</event>
<event>
 5   0  0.1573981E-04  0.1807495E+04  0.7818609E-02  0.8702324E-01
        2   -1    0    0  501    0  0.00000000000E+00  0.00000000000E+00  0.66701789195E+03  0.66701789195E+03  0.25500000920E-02 0. -1.
       -2   -1    0    0    0  501  0.00000000000E+00  0.00000000000E+00 -0.12244938580E+04  0.12244938580E+04  0.25500000920E-02 0.  1.
    10030    2    1    2    0    0  0.00000000000E+00  0.00000000000E+00 -0.55747596607E+03  0.18915117500E+04  0.18074947434E+04 0.  0.
        1    1    3    3  502    0 -0.11953036634E+03 -0.54714197959E+03 -0.10210087859E+04  0.11645217023E+04  0.50400001928E-02 0.  1.
       -1    1    3    3    0  502  0.11953036634E+03  0.54714197959E+03  0.46353281982E+03  0.72699004765E+03  0.50400001928E-02 0. -1.
</event>
<event>
 5   0  0.1628397E-04  0.1786988E+04  0.7818609E-02  0.8713250E-01
       -2   -1    0    0    0  501  0.00000000000E+00  0.00000000000E+00  0.68084349221E+03  0.68084349222E+03  0.25500000920E-02 0. -1.
        2   -1    0    0  501    0  0.00000000000E+00  0.00000000000E+00 -0.11725623749E+04  0.11725623749E+04  0.25500000920E-02 0.  1.
    10030    2    1    2    0    0  0.00000000000E+00  0.00000000000E+00 -0.49171888268E+03  0.18534058671E+04  0.17869879263E+04 0.  0.
        3    1    3    3  502    0  0.75601360167E+03  0.47421160831E+03 -0.20067134073E+03  0.91471427919E+03  0.10100000352E+00 0. -1.
       -3    1    3    3    0  502 -0.75601360167E+03 -0.47421160831E+03 -0.29104754196E+03  0.93869158793E+03  0.10100000352E+00 0.  1.
</event>
<event>
 5   0  0.8206783E-05  0.1793520E+04  0.7818609E-02  0.8709753E-01
       -1   -1    0    0    0  501  0.00000000000E+00  0.00000000000E+00  0.21068857180E+04  0.21068857180E+04  0.50400001928E-02 0.  1.
        1   -1    0    0  501    0  0.00000000000E+00  0.00000000000E+00 -0.38169039873E+03  0.38169039876E+03  0.50400001928E-02 0. -1.
    10030    2    1    2    0    0  0.00000000000E+00  0.00000000000E+00  0.17251953193E+04  0.24885761168E+04  0.17935195007E+04 0.  0.
        1    1    3    3  502    0  0.95496957666E+02 -0.75950919824E+03  0.15107488716E+04  0.16936162624E+04  0.50400001928E-02 0.  1.
       -1    1    3    3    0  502 -0.95496957666E+02  0.75950919824E+03  0.21444644767E+03  0.79495985438E+03  0.50400001928E-02 0. -1.
</event>
<event>
 5   0  0.8206783E-05  0.1811235E+04  0.7818609E-02  0.8700347E-01
        1   -1    0    0  501    0  0.00000000000E+00  0.00000000000E+00  0.11942705321E+04  0.11942705321E+04  0.50400001928E-02 0.  1.
       -1   -1    0    0    0  501  0.00000000000E+00  0.00000000000E+00 -0.68673150508E+03  0.68673150510E+03  0.50400001928E-02 0. -1.
    10030    2    1    2    0    0  0.00000000000E+00  0.00000000000E+00  0.50753902703E+03  0.18810020372E+04  0.18112351587E+04 0.  0.
        1    1    3    3  502    0 -0.66091340782E+03 -0.35747774080E+03  0.77875736298E+03  0.10821552099E+04  0.50400001928E-02 0.  1.
       -1    1    3    3    0  502  0.66091340782E+03  0.35747774080E+03 -0.27121833595E+03  0.79884682736E+03  0.50400001928E-02 0. -1.
</event>
<event>
 5   0  0.8132598E-05  0.1846760E+04  0.7818609E-02  0.8681821E-01
       -1   -1    0    0    0  501  0.00000000000E+00  0.00000000000E+00  0.49248779412E+03  0.49248779415E+03  0.50400001928E-02 0. -1.
        1   -1    0    0  501    0  0.00000000000E+00  0.00000000000E+00 -0.17312718341E+04  0.17312718341E+04  0.50400001928E-02 0.  1.
    10030    2    1    2    0    0  0.00000000000E+00  0.00000000000E+00 -0.12387840400E+04  0.22237596283E+04  0.18467595909E+04 0.  0.
        3    1    3    3  502    0 -0.27304257124E+03 -0.18744875853E+03 -0.16572899070E+04  0.16900589128E+04  0.10100000352E+00 0.  1.
       -3    1    3    3    0  502  0.27304257124E+03  0.18744875853E+03  0.41850586698E+03  0.53370071546E+03  0.10100000352E+00 0. -1.
</event>
<event>
 5   0  0.8430513E-05  0.1798620E+04  0.7818609E-02  0.8707034E-01
        1   -1    0    0  501    0  0.00000000000E+00  0.00000000000E+00  0.20468308980E+04  0.20468308980E+04  0.50400001928E-02 0.  1.
       -1   -1    0    0    0  501  0.00000000000E+00  0.00000000000E+00 -0.39512708340E+03  0.39512708343E+03  0.50400001928E-02 0. -1.
    10030    2    1    2    0    0  0.00000000000E+00  0.00000000000E+00  0.16517038146E+04  0.24419579814E+04  0.17986198297E+04 0.  0.
        5    1    3    3  502    0  0.83197212887E+03 -0.32048890132E+03  0.66609754641E+03  0.11129235330E+04  0.46999998093E+01 0. -1.
       -5    1    3    3    0  502 -0.83197212887E+03  0.32048890132E+03  0.98560626816E+03  0.13290344484E+04  0.46999998093E+01 0.  1.
</event>
<event>
 5   0  0.8430513E-05  0.1817287E+04  0.7818609E-02  0.8697160E-01
       -1   -1    0    0    0  501  0.00000000000E+00  0.00000000000E+00  0.65617824004E+03  0.65617824006E+03  0.50400001928E-02 0.  1.
        1   -1    0    0  501    0  0.00000000000E+00  0.00000000000E+00 -0.12582454723E+04  0.12582454723E+04  0.50400001928E-02 0. -1.
    10030    2    1    2    0    0  0.00000000000E+00  0.00000000000E+00 -0.60206723223E+03  0.19144237123E+04  0.18172873186E+04 0.  0.
        5    1    3    3  502    0  0.87107052870E+03  0.74404803971E+02 -0.56187987990E+03  0.10392454139E+04  0.46999998093E+01 0.  1.
       -5    1    3    3    0  502 -0.87107052870E+03 -0.74404803971E+02 -0.40187352321E+02  0.87517829847E+03  0.46999998093E+01 0. -1.
</event>
<event>
 5   0  0.1549012E-04  0.1782664E+04  0.7818609E-02  0.8715573E-01
       -2   -1    0    0    0  501  0.00000000000E+00  0.00000000000E+00  0.32089398316E+03  0.32089398317E+03  0.25500000920E-02 0.  1.
        2   -1    0    0  501    0  0.00000000000E+00  0.00000000000E+00 -0.24758105868E+04  0.24758105868E+04  0.25500000920E-02 0. -1.
    10030    2    1    2    0    0  0.00000000000E+00  0.00000000000E+00 -0.21549166036E+04  0.27967045699E+04  0.17826639849E+04 0.  0.
        4    1    3    3  502    0  0.42297532157E+03  0.20891765993E+03  0.10897512860E+03  0.48418168371E+03  0.12699999809E+01 0.  1.
       -4    1    3    3    0  502 -0.42297532157E+03 -0.20891765993E+03 -0.22638917322E+04  0.23125228862E+04  0.12699999809E+01 0. -1.
</event>
<event>
 5   0  0.1573981E-04  0.1794685E+04  0.7818609E-02  0.8709131E-01
       -2   -1    0    0    0  501  0.00000000000E+00  0.00000000000E+00  0.63023674212E+03  0.63023674212E+03  0.25500000920E-02 0. -1.
        2   -1    0    0  501    0  0.00000000000E+00  0.00000000000E+00 -0.12776527356E+04  0.12776527356E+04  0.25500000920E-02 0.  1.
    10030    2    1    2    0    0  0.00000000000E+00  0.00000000000E+00 -0.64741599350E+03  0.19078894777E+04  0.17946851508E+04 0.  0.
        1    1    3    3  502    0  0.73921973057E+02 -0.52648547443E+03  0.44478184234E+03  0.69316830581E+03  0.50400001928E-02 0. -1.
       -1    1    3    3    0  502 -0.73921973057E+02  0.52648547443E+03 -0.10921978358E+04  0.12147211719E+04  0.50400001928E-02 0.  1.
</event>
<event>
 5   0  0.8492114E-05  0.1982191E+04  0.7818609E-02  0.8614993E-01
       -1   -1    0    0    0  501  0.00000000000E+00  0.00000000000E+00  0.66584328201E+03  0.66584328202E+03  0.50400001928E-02 0. -1.
        1   -1    0    0  501    0  0.00000000000E+00  0.00000000000E+00 -0.14752272715E+04  0.14752272715E+04  0.50400001928E-02 0.  1.
    10030    2    1    2    0    0  0.00000000000E+00  0.00000000000E+00 -0.80938398947E+03  0.21410705535E+04  0.19821908770E+04 0.  0.
        2    1    3    3  502    0 -0.11952846349E+03  0.90534376236E+03 -0.82070650141E+03  0.12278002863E+04  0.25500000920E-02 0.  1.
       -2    1    3    3    0  502  0.11952846349E+03 -0.90534376236E+03  0.11322511946E+02  0.91327026718E+03  0.25500000920E-02 0. -1.
</event>
<event>
 5   0  0.1603564E-04  0.1824621E+04  0.7818609E-02  0.8693315E-01
       -2   -1    0    0    0  501  0.00000000000E+00  0.00000000000E+00  0.78045269200E+03  0.78045269201E+03  0.25500000920E-02 0.  1.
        2   -1    0    0  501    0  0.00000000000E+00  0.00000000000E+00 -0.10664451787E+04  0.10664451787E+04  0.25500000920E-02 0. -1.
    10030    2    1    2    0    0  0.00000000000E+00  0.00000000000E+00 -0.28599248673E+03  0.18468978707E+04  0.18246205201E+04 0.  0.
        5    1    3    3  502    0  0.83467923857E+03  0.51726534758E+02  0.22604096481E+03  0.86630345346E+03  0.46999998093E+01 0. -1.
       -5    1    3    3    0  502 -0.83467923857E+03 -0.51726534758E+02 -0.51203345154E+03  0.98059441728E+03  0.46999998093E+01 0.  1.
</event>
<event>
 5   0  0.8492114E-05  0.1830222E+04  0.7818609E-02  0.8690391E-01
        1   -1    0    0  501    0  0.00000000000E+00  0.00000000000E+00  0.64675742750E+03  0.64675742752E+03  0.50400001928E-02 0.  1.
       -1   -1    0    0    0  501  0.00000000000E+00  0.00000000000E+00 -0.12948104985E+04  0.12948104985E+04  0.50400001928E-02 0. -1.
    10030    2    1    2    0    0  0.00000000000E+00  0.00000000000E+00 -0.64805307102E+03  0.19415679261E+04  0.18302221801E+04 0.  0.
        2    1    3    3  502    0  0.44420095124E+03 -0.47708414749E+03  0.35731229430E+03  0.74336790658E+03  0.25500000920E-02 0.  1.
       -2    1    3    3    0  502 -0.44420095124E+03  0.47708414749E+03 -0.10053653653E+04  0.11982000195E+04  0.25500000920E-02 0. -1.
</event>
<event>
 5   0  0.1608627E-04  0.1797293E+04  0.7818609E-02  0.8707741E-01
       -2   -1    0    0    0  501  0.00000000000E+00  0.00000000000E+00  0.50539312864E+03  0.50539312865E+03  0.25500000920E-02 0. -1.
        2   -1    0    0  501    0  0.00000000000E+00  0.00000000000E+00 -0.15978951066E+04  0.15978951066E+04  0.25500000920E-02 0.  1.
    10030    2    1    2    0    0  0.00000000000E+00  0.00000000000E+00 -0.10925019779E+04  0.21032882352E+04  0.17972926386E+04 0.  0.
        2    1    3    3  502    0  0.34232871876E+03 -0.26235493728E+02 -0.15181168293E+04  0.15564562185E+04  0.25500000920E-02 0.  1.
       -2    1    3    3    0  502 -0.34232871876E+03  0.26235493728E+02  0.42561485134E+03  0.54683201672E+03  0.25500000920E-02 0. -1.
</event>
<event>
 5   0  0.1628397E-04  0.1820197E+04  0.7818609E-02  0.8695632E-01
       -2   -1    0    0    0  501  0.00000000000E+00  0.00000000000E+00  0.61028849864E+03  0.61028849864E+03  0.25500000920E-02 0. -1.
        2   -1    0    0  501    0  0.00000000000E+00  0.00000000000E+00 -0.13571922612E+04  0.13571922612E+04  0.25500000920E-02 0.  1.
    10030    2    1    2    0    0  0.00000000000E+00  0.00000000000E+00 -0.74690376255E+03  0.19674807598E+04  0.18201965031E+04 0.  0.
        3    1    3    3  502    0 -0.18984794910E+03  0.40448545831E+03 -0.12304682349E+04  0.13090847249E+04  0.10100000352E+00 0.  1.
       -3    1    3    3    0  502  0.18984794910E+03 -0.40448545831E+03  0.48356447230E+03  0.65839603495E+03  0.10100000352E+00 0. -1.
</event>
<event>
 5   0  0.1573981E-04  0.1797718E+04  0.7818609E-02  0.8707514E-01
        2   -1    0    0  501    0  0.00000000000E+00  0.00000000000E+00  0.81023671310E+03  0.81023671310E+03  0.25500000920E-02 0. -1.
       -2   -1    0    0    0  501  0.00000000000E+00  0.00000000000E+00 -0.99717496598E+03  0.99717496598E+03  0.25500000920E-02 0.  1.
    10030    2    1    2    0    0  0.00000000000E+00  0.00000000000E+00 -0.18693825288E+03  0.18074116791E+04  0.17977182948E+04 0.  0.
        1    1    3    3  502    0 -0.44946907350E+03 -0.61607541436E+03  0.38488665057E+03  0.85423012007E+03  0.50400001928E-02 0. -1.
       -1    1    3    3    0  502  0.44946907350E+03  0.61607541436E+03 -0.57182490345E+03  0.95318155902E+03  0.50400001928E-02 0.  1.
</event>
<event>
 5   0  0.1549012E-04  0.1794993E+04  0.7818609E-02  0.8708967E-01
        2   -1    0    0  501    0  0.00000000000E+00  0.00000000000E+00  0.16813589420E+04  0.16813589420E+04  0.25500000920E-02 0. -1.
       -2   -1    0    0    0  501  0.00000000000E+00  0.00000000000E+00 -0.47907666505E+03  0.47907666506E+03  0.25500000920E-02 0.  1.
    10030    2    1    2    0    0  0.00000000000E+00  0.00000000000E+00  0.12022822769E+04  0.21604356071E+04  0.17949928520E+04 0.  0.
        4    1    3    3  502    0  0.32743632418E+03  0.64700810963E+03 -0.35356836687E+02  0.72600672112E+03  0.12699999809E+01 0.  1.
       -4    1    3    3    0  502 -0.32743632418E+03 -0.64700810963E+03  0.12376391136E+04  0.14344288859E+04  0.12699999809E+01 0. -1.
</event>
<event>
 5   0  0.8430513E-05  0.1798544E+04  0.7818609E-02  0.8707074E-01
       -1   -1    0    0    0  501  0.00000000000E+00  0.00000000000E+00  0.82981512711E+03  0.82981512713E+03  0.50400001928E-02 0. -1.
        1   -1    0    0  501    0  0.00000000000E+00  0.00000000000E+00 -0.97454281085E+03  0.97454281086E+03  0.50400001928E-02 0.  1.
    10030    2    1    2    0    0  0.00000000000E+00  0.00000000000E+00 -0.14472768373E+03  0.18043579380E+04  0.17985442630E+04 0.  0.
        5    1    3    3  502    0 -0.78345930369E+03 -0.37080053245E+03  0.16792396260E+03  0.88290546641E+03  0.46999998093E+01 0. -1.
       -5    1    3    3    0  502  0.78345930369E+03  0.37080053245E+03 -0.31265164634E+03  0.92145247157E+03  0.46999998093E+01 0.  1.
</event>
<event>
 5   0  0.8254914E-05  0.1795264E+04  0.7818609E-02  0.8708822E-01
        1   -1    0    0  501    0  0.00000000000E+00  0.00000000000E+00  0.65301172710E+03  0.65301172711E+03  0.50400001928E-02 0. -1.
       -1   -1    0    0    0  501  0.00000000000E+00  0.00000000000E+00 -0.12338874918E+04  0.12338874918E+04  0.50400001928E-02 0.  1.
    10030    2    1    2    0    0  0.00000000000E+00  0.00000000000E+00 -0.58087576474E+03  0.18868992190E+04  0.17952637713E+04 0.  0.
        4    1    3    3  502    0  0.57188716672E+03 -0.54634290166E+03  0.15572442793E+03  0.80609999876E+03  0.12699999809E+01 0.  1.
       -4    1    3    3    0  502 -0.57188716672E+03  0.54634290166E+03 -0.73660019267E+03  0.10807992202E+04  0.12699999809E+01 0. -1.
</event>
<event>
 5   0  0.5820500E-05  0.1799743E+04  0.7818609E-02  0.8706436E-01
       -3   -1    0    0    0  501  0.00000000000E+00  0.00000000000E+00  0.75525615028E+03  0.75525615704E+03  0.10100000352E+00 0.  1.
        3   -1    0    0  501    0  0.00000000000E+00  0.00000000000E+00 -0.10721774266E+04  0.10721774313E+04  0.10100000352E+00 0. -1.
    10030    2    1    2    0    0  0.00000000000E+00  0.00000000000E+00 -0.31692127629E+03  0.18274335884E+04  0.17997428773E+04 0.  0.
        4    1    3    3  502    0 -0.68645988838E+03  0.56849478576E+03 -0.32644965588E+02  0.89189730713E+03  0.12699999809E+01 0. -1.
       -4    1    3    3    0  502  0.68645988838E+03 -0.56849478576E+03 -0.28427631070E+03  0.93553628123E+03  0.12699999809E+01 0.  1.
</event>
<event>
 5   0  0.1628397E-04  0.1797299E+04  0.7818609E-02  0.8707737E-01
        2   -1    0    0  501    0  0.00000000000E+00  0.00000000000E+00  0.88222784039E+03  0.88222784039E+03  0.25500000920E-02 0. -1.
       -2   -1    0    0    0  501  0.00000000000E+00  0.00000000000E+00 -0.91537682359E+03  0.91537682359E+03  0.25500000920E-02 0.  1.
    10030    2    1    2    0    0  0.00000000000E+00  0.00000000000E+00 -0.33148983201E+02  0.17976046640E+04  0.17972989937E+04 0.  0.
        3    1    3    3  502    0  0.36860720854E+02  0.73058066865E+03  0.50549520373E+03  0.88917503190E+03  0.10100000352E+00 0. -1.
       -3    1    3    3    0  502 -0.36860720854E+02 -0.73058066865E+03 -0.53864418693E+03  0.90842963209E+03  0.10100000352E+00 0.  1.
</event>
<event>
 5   0  0.1608627E-04  0.1804393E+04  0.7818609E-02  0.8703967E-01
       -2   -1    0    0    0  501  0.00000000000E+00  0.00000000000E+00  0.15251060263E+04  0.15251060263E+04  0.25500000920E-02 0.  1.
        2   -1    0    0  501    0  0.00000000000E+00  0.00000000000E+00 -0.53370604782E+03  0.53370604783E+03  0.25500000920E-02 0. -1.
    10030    2    1    2    0    0  0.00000000000E+00  0.00000000000E+00  0.99139997849E+03  0.20588120741E+04  0.18043927619E+04 0.  0.
        2    1    3    3  502    0  0.46102869629E+03 -0.21273068615E+03 -0.35521101736E+03  0.61965851119E+03  0.25500000920E-02 0. -1.
       -2    1    3    3    0  502 -0.46102869629E+03  0.21273068615E+03  0.13466109958E+04  0.14391535630E+04  0.25500000920E-02 0.  1.
</event>
<event>
 5   0  0.1603564E-04  0.1811363E+04  0.7818609E-02  0.8700280E-01
        2   -1    0    0  501    0  0.00000000000E+00  0.00000000000E+00  0.14740239730E+04  0.14740239730E+04  0.25500000920E-02 0. -1.
       -2   -1    0    0    0  501  0.00000000000E+00  0.00000000000E+00 -0.55647621032E+03  0.55647621032E+03  0.25500000920E-02 0.  1.
    10030    2    1    2    0    0  0.00000000000E+00  0.00000000000E+00  0.91754776265E+03  0.20305001833E+04  0.18113633257E+04 0.  0.
        5    1    3    3  502    0 -0.47077682143E+03  0.66605258742E+03  0.17472040877E+02  0.81583345544E+03  0.46999998093E+01 0.  1.
       -5    1    3    3    0  502  0.47077682143E+03 -0.66605258742E+03  0.90007572177E+03  0.12146667278E+04  0.46999998093E+01 0. -1.
</event>
<event>
 5   0  0.8254914E-05  0.1808431E+04  0.7818609E-02  0.8701829E-01
       -1   -1    0    0    0  501  0.00000000000E+00  0.00000000000E+00  0.11446344366E+04  0.11446344367E+04  0.50400001928E-02 0.  1.
        1   -1    0    0  501    0  0.00000000000E+00  0.00000000000E+00 -0.71429379398E+03  0.71429379400E+03  0.50400001928E-02 0. -1.
    10030    2    1    2    0    0  0.00000000000E+00  0.00000000000E+00  0.43034064267E+03  0.18589282307E+04  0.18084305621E+04 0.  0.
        4    1    3    3  502    0 -0.38421388328E+03  0.52500253151E+03 -0.43034245679E+03  0.78002833873E+03  0.12699999809E+01 0.  1.
       -4    1    3    3    0  502  0.38421388328E+03 -0.52500253151E+03  0.86068309946E+03  0.10788998919E+04  0.12699999809E+01 0. -1.
</event>
<event>
 5   0  0.8206783E-05  0.1796538E+04  0.7818609E-02  0.8708143E-01
       -1   -1    0    0    0  501  0.00000000000E+00  0.00000000000E+00  0.34536964152E+03  0.34536964156E+03  0.50400001928E-02 0.  1.
        1   -1    0    0  501    0  0.00000000000E+00  0.00000000000E+00 -0.23362993347E+04  0.23362993347E+04  0.50400001928E-02 0. -1.
    10030    2    1    2    0    0  0.00000000000E+00  0.00000000000E+00 -0.19909296932E+04  0.26816689763E+04  0.17965376297E+04 0.  0.
        1    1    3    3  502    0 -0.22362053173E+02 -0.74929352293E+03 -0.17342259854E+04  0.18893069135E+04  0.50400001928E-02 0. -1.
       -1    1    3    3    0  502  0.22362053173E+02  0.74929352293E+03 -0.25670370781E+03  0.79236206279E+03  0.50400001928E-02 0.  1.
</event>
<event>
 5   0  0.1608627E-04  0.1798905E+04  0.7818609E-02  0.8706882E-01
        2   -1    0    0  501    0  0.00000000000E+00  0.00000000000E+00  0.10927315532E+04  0.10927315532E+04  0.25500000920E-02 0.  1.
       -2   -1    0    0    0  501  0.00000000000E+00  0.00000000000E+00 -0.74035984240E+03  0.74035984241E+03  0.25500000920E-02 0. -1.
    10030    2    1    2    0    0  0.00000000000E+00  0.00000000000E+00  0.35237171078E+03  0.18330913956E+04  0.17989047340E+04 0.  0.
        2    1    3    3  502    0 -0.13406722115E+03 -0.17922539725E+03  0.10639009593E+04  0.10871895024E+04  0.25500000920E-02 0.  1.
       -2    1    3    3    0  502  0.13406722115E+03  0.17922539725E+03 -0.71152924853E+03  0.74590189323E+03  0.25500000920E-02 0. -1.
</event>
<event>
 5   0  0.8254914E-05  0.1806467E+04  0.7818609E-02  0.8702868E-01
       -1   -1    0    0    0  501  0.00000000000E+00  0.00000000000E+00  0.59976332458E+03  0.59976332460E+03  0.50400001928E-02 0. -1.
        1   -1    0    0  501    0  0.00000000000E+00  0.00000000000E+00 -0.13602539121E+04  0.13602539121E+04  0.50400001928E-02 0.  1.
    10030    2    1    2    0    0  0.00000000000E+00  0.00000000000E+00 -0.76049058748E+03  0.19600172367E+04  0.18064666159E+04 0.  0.
        4    1    3    3  502    0  0.36178684745E+03 -0.12760647314E+03 -0.12674650692E+04  0.13242516564E+04  0.12699999809E+01 0.  1.
       -4    1    3    3    0  502 -0.36178684745E+03  0.12760647314E+03  0.50697448174E+03  0.63576558024E+03  0.12699999809E+01 0. -1.
</event>
<event>
 5   0  0.1549012E-04  0.1769519E+04  0.7818609E-02  0.8722679E-01
       -2   -1    0    0    0  501  0.00000000000E+00  0.00000000000E+00  0.84215674464E+03  0.84215674464E+03  0.25500000920E-02 0. -1.
        2   -1    0    0  501    0  0.00000000000E+00  0.00000000000E+00 -0.92951705019E+03  0.92951705019E+03  0.25500000920E-02 0.  1.
    10030    2    1    2    0    0  0.00000000000E+00  0.00000000000E+00 -0.87360305544E+02  0.17716737948E+04  0.17695186386E+04 0.  0.
        4    1    3    3  502    0  0.57242011646E+03 -0.65959070200E+03 -0.18553106266E+03  0.89283149138E+03  0.12699999809E+01 0.  1.
       -4    1    3    3    0  502 -0.57242011646E+03  0.65959070200E+03  0.98170757115E+02  0.87884230345E+03  0.12699999809E+01 0. -1.
</event>
<event>
 5   0  0.8430513E-05  0.1799435E+04  0.7818609E-02  0.8706600E-01
        1   -1    0    0  501    0  0.00000000000E+00  0.00000000000E+00  0.89211437049E+03  0.89211437050E+03  0.50400001928E-02 0.  1.
       -1   -1    0    0    0  501  0.00000000000E+00  0.00000000000E+00 -0.90738517855E+03  0.90738517856E+03  0.50400001928E-02 0. -1.
    10030    2    1    2    0    0  0.00000000000E+00  0.00000000000E+00 -0.15270808060E+02  0.17994995491E+04  0.17994347528E+04 0.  0.
        5    1    3    3  502    0 -0.66710082164E+03  0.50152809879E+03  0.32840545570E+03  0.89689808420E+03  0.46999998093E+01 0. -1.
       -5    1    3    3    0  502  0.66710082164E+03 -0.50152809879E+03 -0.34367626376E+03  0.90260146487E+03  0.46999998093E+01 0.  1.
</event>
<event>
 5   0  0.1628397E-04  0.1778071E+04  0.7818609E-02  0.8718049E-01
       -2   -1    0    0    0  501  0.00000000000E+00  0.00000000000E+00  0.59169041503E+03  0.59169041503E+03  0.25500000920E-02 0.  1.
        2   -1    0    0  501    0  0.00000000000E+00  0.00000000000E+00 -0.13358069275E+04  0.13358069275E+04  0.25500000920E-02 0. -1.
    10030    2    1    2    0    0  0.00000000000E+00  0.00000000000E+00 -0.74411651252E+03  0.19274973426E+04  0.17780710395E+04 0.  0.
        3    1    3    3  502    0 -0.35004021217E+03 -0.17443622520E+03 -0.12375446551E+04  0.12978724631E+04  0.10100000352E+00 0. -1.
       -3    1    3    3    0  502  0.35004021217E+03  0.17443622520E+03  0.49342814259E+03  0.62962487951E+03  0.10100000352E+00 0.  1.
</event>
<event>
 5   0  0.1573981E-04  0.1715074E+04  0.7818609E-02  0.8752813E-01
        2   -1    0    0  501    0  0.00000000000E+00  0.00000000000E+00  0.14869325852E+04  0.14869325852E+04  0.25500000920E-02 0. -1.
       -2   -1    0    0    0  501  0.00000000000E+00  0.00000000000E+00 -0.49455494800E+03  0.49455494801E+03  0.25500000920E-02 0.  1.
    10030    2    1    2    0    0  0.00000000000E+00  0.00000000000E+00  0.99237763724E+03  0.19814875333E+04  0.17150741878E+04 0.  0.
        1    1    3    3  502    0  0.56979614968E+03 -0.52091274476E+03  0.64902943167E+02  0.77474520450E+03  0.50400001928E-02 0.  1.
       -1    1    3    3    0  502 -0.56979614968E+03  0.52091274476E+03  0.92747469407E+03  0.12067423288E+04  0.50400001928E-02 0. -1.
</event>
<event>
 5   0  0.8132598E-05  0.1798956E+04  0.7818609E-02  0.8706855E-01
       -1   -1    0    0    0  501  0.00000000000E+00  0.00000000000E+00  0.38789311851E+03  0.38789311854E+03  0.50400001928E-02 0. -1.
        1   -1    0    0  501    0  0.00000000000E+00  0.00000000000E+00 -0.20857832213E+04  0.20857832213E+04  0.50400001928E-02 0.  1.
    10030    2    1    2    0    0  0.00000000000E+00  0.00000000000E+00 -0.16978901027E+04  0.24736763398E+04  0.17989563177E+04 0.  0.
        3    1    3    3  502    0 -0.75110597176E+03 -0.47746611566E+03 -0.67004492018E+03  0.11140441094E+04  0.10100000352E+00 0.  1.
       -3    1    3    3    0  502  0.75110597176E+03  0.47746611566E+03 -0.10278451826E+04  0.13596322304E+04  0.10100000352E+00 0. -1.
</event>
<event>
 5   0  0.8254914E-05  0.1810458E+04  0.7818609E-02  0.8700758E-01
        1   -1    0    0  501    0  0.00000000000E+00  0.00000000000E+00  0.12941376431E+04  0.12941376431E+04  0.50400001928E-02 0.  1.
       -1   -1    0    0    0  501  0.00000000000E+00  0.00000000000E+00 -0.63319366483E+03  0.63319366485E+03  0.50400001928E-02 0. -1.
    10030    2    1    2    0    0  0.00000000000E+00  0.00000000000E+00  0.66094397831E+03  0.19273313080E+04  0.18104582371E+04 0.  0.
        4    1    3    3  502    0 -0.14512936183E+02 -0.38644799912E+03 -0.54082886891E+03  0.66486852812E+03  0.12699999809E+01 0. -1.
       -4    1    3    3    0  502  0.14512936183E+02  0.38644799912E+03  0.12017728472E+04  0.12624627799E+04  0.12699999809E+01 0.  1.
</event>
<event>
 5   0  0.8254914E-05  0.1783484E+04  0.7818609E-02  0.8715132E-01
       -1   -1    0    0    0  501  0.00000000000E+00  0.00000000000E+00  0.95973968134E+03  0.95973968135E+03  0.50400001928E-02 0. -1.
        1   -1    0    0  501    0  0.00000000000E+00  0.00000000000E+00 -0.82856208254E+03  0.82856208256E+03  0.50400001928E-02 0.  1.
    10030    2    1    2    0    0  0.00000000000E+00  0.00000000000E+00  0.13117759880E+03  0.17883017639E+04  0.17834841284E+04 0.  0.
        4    1    3    3  502    0  0.23796848922E+03 -0.56591316606E+03  0.71410910333E+03  0.94172190043E+03  0.12699999809E+01 0. -1.
       -4    1    3    3    0  502 -0.23796848922E+03  0.56591316606E+03 -0.58293150454E+03  0.84657986348E+03  0.12699999809E+01 0.  1.
</event>
<event>
 5   0  0.8254914E-05  0.1804550E+04  0.7818609E-02  0.8703883E-01
       -1   -1    0    0    0  501  0.00000000000E+00  0.00000000000E+00  0.48885738056E+03  0.48885738059E+03  0.50400001928E-02 0.  1.
        1   -1    0    0  501    0  0.00000000000E+00  0.00000000000E+00 -0.16653126125E+04  0.16653126125E+04  0.50400001928E-02 0. -1.
    10030    2    1    2    0    0  0.00000000000E+00  0.00000000000E+00 -0.11764552319E+04  0.21541699931E+04  0.18045502061E+04 0.  0.
        4    1    3    3  502    0  0.66789784554E+03  0.56513313380E+03 -0.85149002164E+03  0.12208602954E+04  0.12699999809E+01 0.  1.
       -4    1    3    3    0  502 -0.66789784554E+03 -0.56513313380E+03 -0.32496521025E+03  0.93330969767E+03  0.12699999809E+01 0. -1.
</event>
<event>
 5   0  0.8132598E-05  0.1801514E+04  0.7818609E-02  0.8705495E-01
        1   -1    0    0  501    0  0.00000000000E+00  0.00000000000E+00  0.96132681739E+03  0.96132681741E+03  0.50400001928E-02 0. -1.
       -1   -1    0    0    0  501  0.00000000000E+00  0.00000000000E+00 -0.84400359375E+03  0.84400359377E+03  0.50400001928E-02 0.  1.
    10030    2    1    2    0    0  0.00000000000E+00  0.00000000000E+00  0.11732322364E+03  0.18053304112E+04  0.18015141284E+04 0.  0.
        3    1    3    3  502    0 -0.57140527294E+03 -0.47112868244E+03 -0.45515943297E+03  0.86927345581E+03  0.10100000352E+00 0.  1.
       -3    1    3    3    0  502  0.57140527294E+03  0.47112868244E+03  0.57248265661E+03  0.93605695536E+03  0.10100000352E+00 0. -1.
</event>
<event>
 5   0  0.1603564E-04  0.1806247E+04  0.7818609E-02  0.8702985E-01
        2   -1    0    0  501    0  0.00000000000E+00  0.00000000000E+00  0.10131794235E+04  0.10131794235E+04  0.25500000920E-02 0.  1.
       -2   -1    0    0    0  501  0.00000000000E+00  0.00000000000E+00 -0.80502220888E+03  0.80502220888E+03  0.25500000920E-02 0. -1.
    10030    2    1    2    0    0  0.00000000000E+00  0.00000000000E+00  0.20815721458E+03  0.18182016323E+04  0.18062468685E+04 0.  0.
        5    1    3    3  502    0 -0.30293718778E+01 -0.83118713549E+03  0.45958546952E+03  0.94980109764E+03  0.46999998093E+01 0.  1.
       -5    1    3    3    0  502  0.30293718778E+01  0.83118713549E+03 -0.25142825494E+03  0.86840053470E+03  0.46999998093E+01 0. -1.
</event>
<event>
 5   0  0.1608627E-04  0.1776317E+04  0.7818609E-02  0.8718996E-01
        2   -1    0    0  501    0  0.00000000000E+00  0.00000000000E+00  0.67797370356E+03  0.67797370357E+03  0.25500000920E-02 0.  1.
       -2   -1    0    0    0  501  0.00000000000E+00  0.00000000000E+00 -0.11635044579E+04  0.11635044579E+04  0.25500000920E-02 0. -1.
    10030    2    1    2    0    0  0.00000000000E+00  0.00000000000E+00 -0.48553075438E+03  0.18414781615E+04  0.17763168934E+04 0.  0.
        2    1    3    3  502    0 -0.49937287490E+03  0.68676105913E+03  0.27193430345E+02  0.84956077074E+03  0.25500000920E-02 0.  1.
       -2    1    3    3    0  502  0.49937287490E+03 -0.68676105913E+03 -0.51272418472E+03  0.99191739078E+03  0.25500000920E-02 0. -1.
</event>
<event>
 5   0  0.8492114E-05  0.1859077E+04  0.7818609E-02  0.8675499E-01
        1   -1    0    0  501    0  0.00000000000E+00  0.00000000000E+00  0.17791266574E+04  0.17791266574E+04  0.50400001928E-02 0. -1.
       -1   -1    0    0    0  501  0.00000000000E+00  0.00000000000E+00 -0.48565506354E+03  0.48565506356E+03  0.50400001928E-02 0.  1.
    10030    2    1    2    0    0  0.00000000000E+00  0.00000000000E+00  0.12934715939E+04  0.22647817210E+04  0.18590770504E+04 0.  0.
        2    1    3    3  502    0 -0.33354004442E+03  0.50937316972E+03 -0.20891892875E+03  0.64370576047E+03  0.25500000920E-02 0.  1.
       -2    1    3    3    0  502  0.33354004442E+03 -0.50937316972E+03  0.15023905226E+04  0.16210759605E+04  0.25500000920E-02 0. -1.
</event>
<event>
 5   0  0.8206783E-05  0.1801981E+04  0.7818609E-02  0.8705247E-01
       -1   -1    0    0    0  501  0.00000000000E+00  0.00000000000E+00  0.80927901440E+03  0.80927901442E+03  0.50400001928E-02 0. -1.
        1   -1    0    0  501    0  0.00000000000E+00  0.00000000000E+00 -0.10030949855E+04  0.10030949855E+04  0.50400001928E-02 0.  1.
    10030    2    1    2    0    0  0.00000000000E+00  0.00000000000E+00 -0.19381597105E+03  0.18123739999E+04  0.18019808225E+04 0.  0.
        1    1    3    3  502    0 -0.60088182232E+03 -0.37841236889E+03  0.46084330085E+03  0.84654086334E+03  0.50400001928E-02 0. -1.
       -1    1    3    3    0  502  0.60088182232E+03  0.37841236889E+03 -0.65465927191E+03  0.96583313654E+03  0.50400001928E-02 0.  1.
</event>
<event>
 5   0  0.8132598E-05  0.1785490E+04  0.7818609E-02  0.8714054E-01
        1   -1    0    0  501    0  0.00000000000E+00  0.00000000000E+00  0.58665919466E+03  0.58665919468E+03  0.50400001928E-02 0. -1.
       -1   -1    0    0    0  501  0.00000000000E+00  0.00000000000E+00 -0.13585286668E+04  0.13585286668E+04  0.50400001928E-02 0.  1.
    10030    2    1    2    0    0  0.00000000000E+00  0.00000000000E+00 -0.77186947210E+03  0.19451878615E+04  0.17854896624E+04 0.  0.
        3    1    3    3  502    0 -0.82813845065E+03 -0.23279520931E+03 -0.12586495036E+03  0.86939570902E+03  0.10100000352E+00 0.  1.
       -3    1    3    3    0  502  0.82813845065E+03  0.23279520931E+03 -0.64600452174E+03  0.10757921524E+04  0.10100000352E+00 0. -1.
</event>
<event>
 5   0  0.8206783E-05  0.1768638E+04  0.7818609E-02  0.8723157E-01
       -1   -1    0    0    0  501  0.00000000000E+00  0.00000000000E+00  0.61212755340E+03  0.61212755342E+03  0.50400001928E-02 0.  1.
        1   -1    0    0  501    0  0.00000000000E+00  0.00000000000E+00 -0.12775445202E+04  0.12775445203E+04  0.50400001928E-02 0. -1.
    10030    2    1    2    0    0  0.00000000000E+00  0.00000000000E+00 -0.66541696685E+03  0.18896720737E+04  0.17686381219E+04 0.  0.
        1    1    3    3  502    0  0.40504179117E+03 -0.77733101860E+03 -0.20757017672E+03  0.90077063859E+03  0.50400001928E-02 0.  1.
       -1    1    3    3    0  502 -0.40504179117E+03  0.77733101860E+03 -0.45784679012E+03  0.98890143509E+03  0.50400001928E-02 0. -1.
</event>
<event>
 5   0  0.8254914E-05  0.1822142E+04  0.7818609E-02  0.8694612E-01
       -1   -1    0    0    0  501  0.00000000000E+00  0.00000000000E+00  0.43328888993E+03  0.43328888996E+03  0.50400001928E-02 0.  1.
        1   -1    0    0  501    0  0.00000000000E+00  0.00000000000E+00 -0.19156978983E+04  0.19156978983E+04  0.50400001928E-02 0. -1.
    10030    2    1    2    0    0  0.00000000000E+00  0.00000000000E+00 -0.14824090084E+04  0.23489867883E+04  0.18221422731E+04 0.  0.
        4    1    3    3  502    0  0.30703327386E+03  0.83944171298E+03 -0.51380033550E+03  0.10309821620E+04  0.12699999809E+01 0.  1.
       -4    1    3    3    0  502 -0.30703327386E+03 -0.83944171298E+03 -0.96860867288E+03  0.13180046262E+04  0.12699999809E+01 0. -1.
</event>
<event>
 5   0  0.8254914E-05  0.1802240E+04  0.7818609E-02  0.8705109E-01
       -1   -1    0    0    0  501  0.00000000000E+00  0.00000000000E+00  0.10896551970E+04  0.10896551970E+04  0.50400001928E-02 0.  1.
        1   -1    0    0  501    0  0.00000000000E+00  0.00000000000E+00 -0.74520547743E+03  0.74520547745E+03  0.50400001928E-02 0. -1.
    10030    2    1    2    0    0  0.00000000000E+00  0.00000000000E+00  0.34444971959E+03  0.18348606745E+04  0.18022397414E+04 0.  0.
        4    1    3    3  502    0 -0.38382006261E+03 -0.61688530162E+03 -0.37048090102E+03  0.81555075056E+03  0.12699999809E+01 0. -1.
       -4    1    3    3    0  502  0.38382006261E+03  0.61688530162E+03  0.71493062061E+03  0.10193099239E+04  0.12699999809E+01 0.  1.
</event>
<event>
 5   0  0.8132598E-05  0.1803836E+04  0.7818609E-02  0.8704262E-01
        1   -1    0    0  501    0  0.00000000000E+00  0.00000000000E+00  0.79437457317E+03  0.79437457319E+03  0.50400001928E-02 0.  1.
       -1   -1    0    0    0  501  0.00000000000E+00  0.00000000000E+00 -0.10240202523E+04  0.10240202523E+04  0.50400001928E-02 0. -1.
    10030    2    1    2    0    0  0.00000000000E+00  0.00000000000E+00 -0.22964567914E+03  0.18183948255E+04  0.18038355256E+04 0.  0.
        3    1    3    3  502    0 -0.25609781260E+03 -0.85141972104E+03  0.37905816860E+02  0.88990926062E+03  0.10100000352E+00 0. -1.
       -3    1    3    3    0  502  0.25609781260E+03  0.85141972104E+03 -0.26755149600E+03  0.92848556488E+03  0.10100000352E+00 0.  1.
</event>
<event>
 5   0  0.1608627E-04  0.1804632E+04  0.7818609E-02  0.8703840E-01
        2   -1    0    0  501    0  0.00000000000E+00  0.00000000000E+00  0.19140216524E+04  0.19140216524E+04  0.25500000920E-02 0. -1.
       -2   -1    0    0    0  501  0.00000000000E+00  0.00000000000E+00 -0.42537333429E+03  0.42537333430E+03  0.25500000920E-02 0.  1.
    10030    2    1    2    0    0  0.00000000000E+00  0.00000000000E+00  0.14886483181E+04  0.23393949867E+04  0.18046315659E+04 0.  0.
        2    1    3    3  502    0  0.77805478195E+03 -0.15580058345E+03  0.13011883964E+04  0.15240519376E+04  0.25500000920E-02 0. -1.
       -2    1    3    3    0  502 -0.77805478195E+03  0.15580058345E+03  0.18745992174E+03  0.81534304914E+03  0.25500000920E-02 0.  1.
</event>
<event>
 5   0  0.5820500E-05  0.1789112E+04  0.7818609E-02  0.8712111E-01
        3   -1    0    0  501    0  0.00000000000E+00  0.00000000000E+00  0.55727180422E+03  0.55727181337E+03  0.10100000352E+00 0.  1.
       -3   -1    0    0    0  501  0.00000000000E+00  0.00000000000E+00 -0.14359788535E+04  0.14359788571E+04  0.10100000352E+00 0. -1.
    10030    2    1    2    0    0  0.00000000000E+00  0.00000000000E+00 -0.87870704931E+03  0.19932506704E+04  0.17891121141E+04 0.  0.
        2    1    3    3  502    0 -0.77166889907E+03 -0.32296442209E+03 -0.86249343773E+02  0.84096245876E+03  0.25500000920E-02 0.  1.
       -2    1    3    3    0  502  0.77166889907E+03  0.32296442209E+03 -0.79245770554E+03  0.11522882117E+04  0.25500000920E-02 0. -1.
</event>
<event>
 5   0  0.1573981E-04  0.1799110E+04  0.7818609E-02  0.8706773E-01
        2   -1    0    0  501    0  0.00000000000E+00  0.00000000000E+00  0.83548072621E+03  0.83548072622E+03  0.25500000920E-02 0. -1.
       -2   -1    0    0    0  501  0.00000000000E+00  0.00000000000E+00 -0.96854325089E+03  0.96854325089E+03  0.25500000920E-02 0.  1.
    10030    2    1    2    0    0  0.00000000000E+00  0.00000000000E+00 -0.13306252468E+03  0.18040239771E+04  0.17991100229E+04 0.  0.
        1    1    3    3  502    0 -0.51854236880E+03  0.57823146551E+03  0.38853800076E+03  0.86844665582E+03  0.50400001928E-02 0. -1.
       -1    1    3    3    0  502  0.51854236880E+03 -0.57823146551E+03 -0.52160052544E+03  0.93557732129E+03  0.50400001928E-02 0.  1.
</event>
<event>
 5   0  0.8132598E-05  0.1798827E+04  0.7818609E-02  0.8706924E-01
        1   -1    0    0  501    0  0.00000000000E+00  0.00000000000E+00  0.16510443209E+04  0.16510443209E+04  0.50400001928E-02 0.  1.
       -1   -1    0    0    0  501  0.00000000000E+00  0.00000000000E+00 -0.48995912885E+03  0.48995912888E+03  0.50400001928E-02 0. -1.
    10030    2    1    2    0    0  0.00000000000E+00  0.00000000000E+00  0.11610851920E+04  0.21410034498E+04  0.17988265477E+04 0.  0.
        3    1    3    3  502    0  0.62439028059E+03  0.21274201083E+03  0.13082560677E+04  0.14651472058E+04  0.10100000352E+00 0.  1.
       -3    1    3    3    0  502 -0.62439028059E+03 -0.21274201083E+03 -0.14717087570E+03  0.67585624398E+03  0.10100000352E+00 0. -1.
</event>
<event>
 5   0  0.1573981E-04  0.1703270E+04  0.7818609E-02  0.8759501E-01
       -2   -1    0    0    0  501  0.00000000000E+00  0.00000000000E+00  0.58894750324E+03  0.58894750324E+03  0.25500000920E-02 0. -1.
        2   -1    0    0  501    0  0.00000000000E+00  0.00000000000E+00 -0.12314892710E+04  0.12314892710E+04  0.25500000920E-02 0.  1.
    10030    2    1    2    0    0  0.00000000000E+00  0.00000000000E+00 -0.64254176777E+03  0.18204367743E+04  0.17032704206E+04 0.  0.
        1    1    3    3  502    0 -0.82048207658E+03 -0.20117485470E+03 -0.20605774807E+03  0.86955273315E+03  0.50400001928E-02 0.  1.
       -1    1    3    3    0  502  0.82048207658E+03  0.20117485470E+03 -0.43648401970E+03  0.95088404111E+03  0.50400001928E-02 0. -1.
</event>
<event>
 5   0  0.8206783E-05  0.1784594E+04  0.7818609E-02  0.8714535E-01
       -1   -1    0    0    0  501  0.00000000000E+00  0.00000000000E+00  0.53774325624E+03  0.53774325626E+03  0.50400001928E-02 0. -1.
        1   -1    0    0  501    0  0.00000000000E+00  0.00000000000E+00 -0.14806217673E+04  0.14806217673E+04  0.50400001928E-02 0.  1.
    10030    2    1    2    0    0  0.00000000000E+00  0.00000000000E+00 -0.94287851102E+03  0.20183650235E+04  0.17845944866E+04 0.  0.
        1    1    3    3  502    0  0.79268838039E+03  0.27317078353E+03 -0.12612997561E+03  0.84787140308E+03  0.50400001928E-02 0. -1.
       -1    1    3    3    0  502 -0.79268838039E+03 -0.27317078353E+03 -0.81674853541E+03  0.11704936204E+04  0.50400001928E-02 0.  1.
</event>
<event>
 5   0  0.1603564E-04  0.1798179E+04  0.7818609E-02  0.8707268E-01
        2   -1    0    0  501    0  0.00000000000E+00  0.00000000000E+00  0.12285677790E+04  0.12285677790E+04  0.25500000920E-02 0. -1.
       -2   -1    0    0    0  501  0.00000000000E+00  0.00000000000E+00 -0.65797092558E+03  0.65797092558E+03  0.25500000920E-02 0.  1.
    10030    2    1    2    0    0  0.00000000000E+00  0.00000000000E+00  0.57059685347E+03  0.18865387046E+04  0.17981789441E+04 0.  0.
        5    1    3    3  502    0  0.42863679967E+03 -0.14390061529E+03 -0.52999955597E+03  0.69667676324E+03  0.46999998093E+01 0.  1.
       -5    1    3    3    0  502 -0.42863679967E+03  0.14390061529E+03  0.11005964094E+04  0.11898619414E+04  0.46999998093E+01 0. -1.
</event>
<event>
 5   0  0.8492114E-05  0.1825300E+04  0.7818609E-02  0.8692960E-01
        1   -1    0    0  501    0  0.00000000000E+00  0.00000000000E+00  0.18931210425E+04  0.18931210425E+04  0.50400001928E-02 0. -1.
       -1   -1    0    0    0  501  0.00000000000E+00  0.00000000000E+00 -0.43997693708E+03  0.43997693710E+03  0.50400001928E-02 0.  1.
    10030    2    1    2    0    0  0.00000000000E+00  0.00000000000E+00  0.14531441054E+04  0.23330979796E+04  0.18252995347E+04 0.  0.
        2    1    3    3  502    0  0.74114117180E+03 -0.92320721978E+02  0.13970074758E+04  0.15841222301E+04  0.25500000920E-02 0. -1.
       -2    1    3    3    0  502 -0.74114117180E+03  0.92320721978E+02  0.56136629614E+02  0.74897574957E+03  0.25500000920E-02 0.  1.
</event>
<event>
 5   0  0.1628397E-04  0.1805661E+04  0.7818609E-02  0.8703295E-01
       -2   -1    0    0    0  501  0.00000000000E+00  0.00000000000E+00  0.54609196435E+03  0.54609196435E+03  0.25500000920E-02 0.  1.
        2   -1    0    0  501    0  0.00000000000E+00  0.00000000000E+00 -0.14926113628E+04  0.14926113628E+04  0.25500000920E-02 0. -1.
    10030    2    1    2    0    0  0.00000000000E+00  0.00000000000E+00 -0.94651939847E+03  0.20387033272E+04  0.18056611766E+04 0.  0.
        3    1    3    3  502    0 -0.42145625433E+03 -0.67001069712E+03 -0.96354222710E+03  0.12469776831E+04  0.10100000352E+00 0. -1.
       -3    1    3    3    0  502  0.42145625433E+03  0.67001069712E+03  0.17022828632E+02  0.79172564406E+03  0.10100000352E+00 0.  1.
</event>
<event>
 5   0  0.1608627E-04  0.1805158E+04  0.7818609E-02  0.8703561E-01
        2   -1    0    0  501    0  0.00000000000E+00  0.00000000000E+00  0.15202763444E+04  0.15202763444E+04  0.25500000920E-02 0.  1.
       -2   -1    0    0    0  501  0.00000000000E+00  0.00000000000E+00 -0.53585563079E+03  0.53585563080E+03  0.25500000920E-02 0. -1.
    10030    2    1    2    0    0  0.00000000000E+00  0.00000000000E+00  0.98442071363E+03  0.20561319752E+04  0.18051577654E+04 0.  0.
        2    1    3    3  502    0  0.41531437103E+03 -0.25371733401E+03 -0.37359622168E+03  0.61354107378E+03  0.25500000920E-02 0. -1.
       -2    1    3    3    0  502 -0.41531437103E+03  0.25371733401E+03  0.13580169353E+04  0.14425909015E+04  0.25500000920E-02 0.  1.
</event>
<event>
 5   0  0.8492114E-05  0.1781588E+04  0.7818609E-02  0.8716152E-01
       -1   -1    0    0    0  501  0.00000000000E+00  0.00000000000E+00  0.46315377419E+03  0.46315377422E+03  0.50400001928E-02 0.  1.
        1   -1    0    0  501    0  0.00000000000E+00  0.00000000000E+00 -0.17132843302E+04  0.17132843302E+04  0.50400001928E-02 0. -1.
    10030    2    1    2    0    0  0.00000000000E+00  0.00000000000E+00 -0.12501305560E+04  0.21764381044E+04  0.17815881722E+04 0.  0.
        2    1    3    3  502    0 -0.83412710095E+03  0.52354074582E+02 -0.24852404725E+03  0.87193644937E+03  0.25500000920E-02 0.  1.
       -2    1    3    3    0  502  0.83412710095E+03 -0.52354074582E+02 -0.10016065088E+04  0.13045016551E+04  0.25500000920E-02 0. -1.
</event>
<event>
 5   0  0.1603564E-04  0.1802653E+04  0.7818609E-02  0.8704890E-01
       -2   -1    0    0    0  501  0.00000000000E+00  0.00000000000E+00  0.60396037766E+03  0.60396037767E+03  0.25500000920E-02 0. -1.
        2   -1    0    0  501    0  0.00000000000E+00  0.00000000000E+00 -0.13451036367E+04  0.13451036367E+04  0.25500000920E-02 0.  1.
    10030    2    1    2    0    0  0.00000000000E+00  0.00000000000E+00 -0.74114325900E+03  0.19490640143E+04  0.18026528234E+04 0.  0.
        5    1    3    3  502    0 -0.77911815731E+03  0.19380115305E+03 -0.81345387770E+03  0.11429406332E+04  0.46999998093E+01 0. -1.
       -5    1    3    3    0  502  0.77911815731E+03 -0.19380115305E+03  0.72310618696E+02  0.80612338110E+03  0.46999998093E+01 0.  1.
</event>
<event>
 5   0  0.1603564E-04  0.1794953E+04  0.7818609E-02  0.8708988E-01
        2   -1    0    0  501    0  0.00000000000E+00  0.00000000000E+00  0.14992171216E+04  0.14992171216E+04  0.25500000920E-02 0. -1.
       -2   -1    0    0    0  501  0.00000000000E+00  0.00000000000E+00 -0.53725656313E+03  0.53725656313E+03  0.25500000920E-02 0.  1.
    10030    2    1    2    0    0  0.00000000000E+00  0.00000000000E+00  0.96196055846E+03  0.20364736847E+04  0.17949531895E+04 0.  0.
        5    1    3    3  502    0 -0.66380981468E+03 -0.60119495994E+03  0.54677762328E+03  0.10493172586E+04  0.46999998093E+01 0.  1.
       -5    1    3    3    0  502  0.66380981468E+03  0.60119495994E+03  0.41518293518E+03  0.98715642610E+03  0.46999998093E+01 0. -1.
</event>
<event>
 5   0  0.1628397E-04  0.1855308E+04  0.7818609E-02  0.8677428E-01
        2   -1    0    0  501    0  0.00000000000E+00  0.00000000000E+00  0.79314239436E+03  0.79314239437E+03  0.25500000920E-02 0. -1.
       -2   -1    0    0    0  501  0.00000000000E+00  0.00000000000E+00 -0.10849779749E+04  0.10849779749E+04  0.25500000920E-02 0.  1.
    10030    2    1    2    0    0  0.00000000000E+00  0.00000000000E+00 -0.29183558053E+03  0.18781203693E+04  0.18553080918E+04 0.  0.
        3    1    3    3  502    0 -0.85185937775E+03  0.27426845944E+03  0.10132790516E+03  0.90064140582E+03  0.10100000352E+00 0. -1.
       -3    1    3    3    0  502  0.85185937775E+03 -0.27426845944E+03 -0.39316348568E+03  0.97747896345E+03  0.10100000352E+00 0.  1.
</event>
<event>
 5   0  0.1573981E-04  0.1789168E+04  0.7818609E-02  0.8712081E-01
        2   -1    0    0  501    0  0.00000000000E+00  0.00000000000E+00  0.92216984662E+03  0.92216984663E+03  0.25500000920E-02 0. -1.
       -2   -1    0    0    0  501  0.00000000000E+00  0.00000000000E+00 -0.86782381967E+03  0.86782381967E+03  0.25500000920E-02 0.  1.
    10030    2    1    2    0    0  0.00000000000E+00  0.00000000000E+00  0.54346026953E+02  0.17899936663E+04  0.17891684758E+04 0.  0.
        1    1    3    3  502    0  0.16012959144E+03 -0.47337838847E+03 -0.71516136978E+03  0.87245880681E+03  0.50400001928E-02 0.  1.
       -1    1    3    3    0  502 -0.16012959144E+03  0.47337838847E+03  0.76950739674E+03  0.91753485949E+03  0.50400001928E-02 0. -1.
</event>
<event>
 5   0  0.8430513E-05  0.1782912E+04  0.7818609E-02  0.8715440E-01
        1   -1    0    0  501    0  0.00000000000E+00  0.00000000000E+00  0.11075721638E+04  0.11075721638E+04  0.50400001928E-02 0.  1.
       -1   -1    0    0    0  501  0.00000000000E+00  0.00000000000E+00 -0.71750985551E+03  0.71750985553E+03  0.50400001928E-02 0. -1.
    10030    2    1    2    0    0  0.00000000000E+00  0.00000000000E+00  0.39006230828E+03  0.18250820193E+04  0.17829121607E+04 0.  0.
        5    1    3    3  502    0 -0.34273242324E+03 -0.11426018464E+03 -0.63919891236E+03  0.73424671827E+03  0.46999998093E+01 0. -1.
       -5    1    3    3    0  502  0.34273242324E+03  0.11426018464E+03  0.10292612206E+04  0.10908353011E+04  0.46999998093E+01 0.  1.
</event>
<event>
 5   0  0.8206783E-05  0.1801715E+04  0.7818609E-02  0.8705388E-01
        1   -1    0    0  501    0  0.00000000000E+00  0.00000000000E+00  0.95911338942E+03  0.95911338944E+03  0.50400001928E-02 0.  1.
       -1   -1    0    0    0  501  0.00000000000E+00  0.00000000000E+00 -0.84613963018E+03  0.84613963020E+03  0.50400001928E-02 0. -1.
    10030    2    1    2    0    0  0.00000000000E+00  0.00000000000E+00  0.11297375924E+03  0.18052530196E+04  0.18017145708E+04 0.  0.
        1    1    3    3  502    0  0.33815239345E+03 -0.56335877922E+03  0.67399562917E+03  0.94127055807E+03  0.50400001928E-02 0.  1.
       -1    1    3    3    0  502 -0.33815239345E+03  0.56335877922E+03 -0.56102186993E+03  0.86398246156E+03  0.50400001928E-02 0. -1.
</event>
<event>
 5   0  0.1608627E-04  0.1812710E+04  0.7818609E-02  0.8699570E-01
        2   -1    0    0  501    0  0.00000000000E+00  0.00000000000E+00  0.20033396778E+04  0.20033396778E+04  0.25500000920E-02 0.  1.
       -2   -1    0    0    0  501  0.00000000000E+00  0.00000000000E+00 -0.41005475873E+03  0.41005475874E+03  0.25500000920E-02 0. -1.
    10030    2    1    2    0    0  0.00000000000E+00  0.00000000000E+00  0.15932849191E+04  0.24133944366E+04  0.18127095391E+04 0.  0.
        2    1    3    3  502    0  0.33491898851E+03  0.72924403013E+02 -0.32043532672E+03  0.46922009339E+03  0.25500000920E-02 0. -1.
       -2    1    3    3    0  502 -0.33491898851E+03 -0.72924403013E+02  0.19137202458E+04  0.19441743432E+04  0.25500000920E-02 0.  1.
</event>
<event>
 5   0  0.8492114E-05  0.1914652E+04  0.7818609E-02  0.8647597E-01
        1   -1    0    0  501    0  0.00000000000E+00  0.00000000000E+00  0.14010697948E+04  0.14010697948E+04  0.50400001928E-02 0.  1.
       -1   -1    0    0    0  501  0.00000000000E+00  0.00000000000E+00 -0.65412397195E+03  0.65412397197E+03  0.50400001928E-02 0. -1.
    10030    2    1    2    0    0  0.00000000000E+00  0.00000000000E+00  0.74694582281E+03  0.20551937667E+04  0.19146522809E+04 0.  0.
        2    1    3    3  502    0  0.84269743613E+03  0.15881467334E+03 -0.83338345460E+02  0.86157202204E+03  0.25500000920E-02 0. -1.
       -2    1    3    3    0  502 -0.84269743613E+03 -0.15881467334E+03  0.83028416827E+03  0.11936217447E+04  0.25500000920E-02 0.  1.
</event>
<event>
 5   0  0.1573981E-04  0.1793512E+04  0.7818609E-02  0.8709758E-01
       -2   -1    0    0    0  501  0.00000000000E+00  0.00000000000E+00  0.72854893091E+03  0.72854893091E+03  0.25500000920E-02 0.  1.
        2   -1    0    0  501    0  0.00000000000E+00  0.00000000000E+00 -0.11037980868E+04  0.11037980868E+04  0.25500000920E-02 0. -1.
    10030    2    1    2    0    0  0.00000000000E+00  0.00000000000E+00 -0.37524915586E+03  0.18323470177E+04  0.17935115456E+04 0.  0.
        1    1    3    3  502    0  0.57183115918E+03 -0.68634886566E+03 -0.10779640285E+03  0.89982537444E+03  0.50400001928E-02 0. -1.
       -1    1    3    3    0  502 -0.57183115918E+03  0.68634886566E+03 -0.26745275301E+03  0.93252164324E+03  0.50400001928E-02 0.  1.
</event>
<event>
 5   0  0.1603564E-04  0.1782600E+04  0.7818609E-02  0.8715608E-01
        2   -1    0    0  501    0  0.00000000000E+00  0.00000000000E+00  0.56894228481E+03  0.56894228482E+03  0.25500000920E-02 0. -1.
       -2   -1    0    0    0  501  0.00000000000E+00  0.00000000000E+00 -0.13963023924E+04  0.13963023924E+04  0.25500000920E-02 0.  1.
    10030    2    1    2    0    0  0.00000000000E+00  0.00000000000E+00 -0.82736010762E+03  0.19652446773E+04  0.17825997570E+04 0.  0.
        5    1    3    3  502    0 -0.65981805529E+03  0.56254794725E+03 -0.18620615686E+03  0.88685674260E+03  0.46999998093E+01 0. -1.
       -5    1    3    3    0  502  0.65981805529E+03 -0.56254794725E+03 -0.64115395076E+03  0.10783879347E+04  0.46999998093E+01 0.  1.
</event>
<event>
 5   0  0.8430513E-05  0.1795339E+04  0.7818609E-02  0.8708782E-01
        1   -1    0    0  501    0  0.00000000000E+00  0.00000000000E+00  0.14861512779E+04  0.14861512779E+04  0.50400001928E-02 0. -1.
       -1   -1    0    0    0  501  0.00000000000E+00  0.00000000000E+00 -0.54221276438E+03  0.54221276440E+03  0.50400001928E-02 0.  1.
    10030    2    1    2    0    0  0.00000000000E+00  0.00000000000E+00  0.94393851355E+03  0.20283640423E+04  0.17953386229E+04 0.  0.
        5    1    3    3  502    0 -0.17411165810E+03  0.51027449095E+03 -0.33888430317E+03  0.63683560401E+03  0.46999998093E+01 0.  1.
       -5    1    3    3    0  502  0.17411165810E+03 -0.51027449095E+03  0.12828228167E+04  0.13915284383E+04  0.46999998093E+01 0. -1.
</event>
<event>
 5   0  0.8430513E-05  0.1808455E+04  0.7818609E-02  0.8701816E-01
        1   -1    0    0  501    0  0.00000000000E+00  0.00000000000E+00  0.46953984234E+03  0.46953984237E+03  0.50400001928E-02 0. -1.
       -1   -1    0    0    0  501  0.00000000000E+00  0.00000000000E+00 -0.17413367804E+04  0.17413367804E+04  0.50400001928E-02 0.  1.
    10030    2    1    2    0    0  0.00000000000E+00  0.00000000000E+00 -0.12717969380E+04  0.22108766228E+04  0.18084545859E+04 0.  0.
        5    1    3    3  502    0  0.23231857877E+03 -0.34252780486E+03 -0.16187242983E+04  0.16708044957E+04  0.46999998093E+01 0.  1.
       -5    1    3    3    0  502 -0.23231857877E+03  0.34252780486E+03  0.34692736021E+03  0.54007212704E+03  0.46999998093E+01 0. -1.
</event>
<event>
 5   0  0.1573981E-04  0.1814177E+04  0.7818609E-02  0.8698796E-01
       -2   -1    0    0    0  501  0.00000000000E+00  0.00000000000E+00  0.50804157410E+03  0.50804157411E+03  0.25500000920E-02 0. -1.
        2   -1    0    0  501    0  0.00000000000E+00  0.00000000000E+00 -0.16195711387E+04  0.16195711387E+04  0.25500000920E-02 0.  1.
    10030    2    1    2    0    0  0.00000000000E+00  0.00000000000E+00 -0.11115295646E+04  0.21276127129E+04  0.18141769161E+04 0.  0.
        1    1    3    3  502    0 -0.27602041315E+03  0.43961414946E+03  0.31663881951E+03  0.60803619212E+03  0.50400001928E-02 0. -1.
       -1    1    3    3    0  502  0.27602041315E+03 -0.43961414946E+03 -0.14281683841E+04  0.15195765207E+04  0.50400001928E-02 0.  1.
</event>
<event>
 5   0  0.1549012E-04  0.1717774E+04  0.7818609E-02  0.8751291E-01
       -2   -1    0    0    0  501  0.00000000000E+00  0.00000000000E+00  0.62962963642E+03  0.62962963642E+03  0.25500000920E-02 0. -1.
        2   -1    0    0  501    0  0.00000000000E+00  0.00000000000E+00 -0.11716209806E+04  0.11716209806E+04  0.25500000920E-02 0.  1.
    10030    2    1    2    0    0  0.00000000000E+00  0.00000000000E+00 -0.54199134415E+03  0.18012506170E+04  0.17177744812E+04 0.  0.
        4    1    3    3  502    0  0.76576532082E+03 -0.20483510333E+03  0.75726098658E+02  0.79629768368E+03  0.12699999809E+01 0. -1.
       -4    1    3    3    0  502 -0.76576532082E+03  0.20483510333E+03 -0.61771744281E+03  0.10049529333E+04  0.12699999809E+01 0.  1.
</event>
<event>
 5   0  0.5820500E-05  0.1797702E+04  0.7818609E-02  0.8707522E-01
       -4   -1    0    0    0  501  0.00000000000E+00  0.00000000000E+00  0.12711608403E+04  0.12711614747E+04  0.12699999809E+01 0.  1.
        4   -1    0    0  501    0  0.00000000000E+00  0.00000000000E+00 -0.63558554593E+03  0.63558681475E+03  0.12699999809E+01 0. -1.
    10030    2    1    2    0    0  0.00000000000E+00  0.00000000000E+00  0.63557529434E+03  0.19067482894E+04  0.17977021679E+04 0.  0.
        5    1    3    3  502    0 -0.80747574187E+02 -0.65269790590E+03 -0.33205638810E+03  0.73676201176E+03  0.46999998093E+01 0. -1.
       -5    1    3    3    0  502  0.80747574187E+02  0.65269790590E+03  0.96763168244E+03  0.11699862777E+04  0.46999998093E+01 0.  1.
</event>
<event>
 5   0  0.8254914E-05  0.1782377E+04  0.7818609E-02  0.8715728E-01
        1   -1    0    0  501    0  0.00000000000E+00  0.00000000000E+00  0.12517215040E+04  0.12517215041E+04  0.50400001928E-02 0. -1.
       -1   -1    0    0    0  501  0.00000000000E+00  0.00000000000E+00 -0.63449989819E+03  0.63449989821E+03  0.50400001928E-02 0.  1.
    10030    2    1    2    0    0  0.00000000000E+00  0.00000000000E+00  0.61722160586E+03  0.18862214023E+04  0.17823772518E+04 0.  0.
        4    1    3    3  502    0 -0.43012937079E+03 -0.39737198478E+03  0.10195387722E+04  0.11757451640E+04  0.12699999809E+01 0. -1.
       -4    1    3    3    0  502  0.43012937079E+03  0.39737198478E+03 -0.40231716630E+03  0.71047623824E+03  0.12699999809E+01 0.  1.
</event>
<event>
 5   0  0.1628397E-04  0.1788002E+04  0.7818609E-02  0.8712706E-01
        2   -1    0    0  501    0  0.00000000000E+00  0.00000000000E+00  0.23026065926E+04  0.23026065926E+04  0.25500000920E-02 0.  1.
       -2   -1    0    0    0  501  0.00000000000E+00  0.00000000000E+00 -0.34710113654E+03  0.34710113654E+03  0.25500000920E-02 0. -1.
    10030    2    1    2    0    0  0.00000000000E+00  0.00000000000E+00  0.19555054561E+04  0.26497077292E+04  0.17880015272E+04 0.  0.
        3    1    3    3  502    0  0.38790112904E+03  0.76842552932E+03  0.61995663824E+03  0.10607974941E+04  0.10100000352E+00 0. -1.
       -3    1    3    3    0  502 -0.38790112904E+03 -0.76842552932E+03  0.13355488178E+04  0.15889102351E+04  0.10100000352E+00 0.  1.
</event>
<event>
 5   0  0.8206783E-05  0.1777705E+04  0.7818609E-02  0.8718246E-01
        1   -1    0    0  501    0  0.00000000000E+00  0.00000000000E+00  0.69180784943E+03  0.69180784945E+03  0.50400001928E-02 0.  1.
       -1   -1    0    0    0  501  0.00000000000E+00  0.00000000000E+00 -0.11420208184E+04  0.11420208184E+04  0.50400001928E-02 0. -1.
    10030    2    1    2    0    0  0.00000000000E+00  0.00000000000E+00 -0.45021296895E+03  0.18338286678E+04  0.17777052246E+04 0.  0.
        1    1    3    3  502    0 -0.19676617040E+03  0.65428532793E+03  0.36139636054E+03  0.77292531696E+03  0.50400001928E-02 0.  1.
       -1    1    3    3    0  502  0.19676617040E+03 -0.65428532793E+03 -0.81160932950E+03  0.10609033509E+04  0.50400001928E-02 0. -1.
</event>
<event>
 5   0  0.1603564E-04  0.1806511E+04  0.7818609E-02  0.8702845E-01
       -2   -1    0    0    0  501  0.00000000000E+00  0.00000000000E+00  0.37870817829E+03  0.37870817830E+03  0.25500000920E-02 0.  1.
        2   -1    0    0  501    0  0.00000000000E+00  0.00000000000E+00 -0.21543511495E+04  0.21543511495E+04  0.25500000920E-02 0. -1.
    10030    2    1    2    0    0  0.00000000000E+00  0.00000000000E+00 -0.17756429713E+04  0.25330593278E+04  0.18065108904E+04 0.  0.
        5    1    3    3  502    0  0.39693483830E+03 -0.79033235369E+03 -0.63054544806E+03  0.10861823729E+04  0.46999998093E+01 0. -1.
       -5    1    3    3    0  502 -0.39693483830E+03  0.79033235369E+03 -0.11450975232E+04  0.14468769549E+04  0.46999998093E+01 0.  1.
</event>
<event>
 5   0  0.8492114E-05  0.1971269E+04  0.7818609E-02  0.8620173E-01
        1   -1    0    0  501    0  0.00000000000E+00  0.00000000000E+00  0.16476000262E+04  0.16476000262E+04  0.50400001928E-02 0. -1.
       -1   -1    0    0    0  501  0.00000000000E+00  0.00000000000E+00 -0.58963037941E+03  0.58963037943E+03  0.50400001928E-02 0.  1.
    10030    2    1    2    0    0  0.00000000000E+00  0.00000000000E+00  0.10579696468E+04  0.22372304057E+04  0.19712686561E+04 0.  0.
        2    1    3    3  502    0 -0.68606490188E+03  0.45612742093E+03  0.11430355724E+04  0.14089952425E+04  0.25500000920E-02 0. -1.
       -2    1    3    3    0  502  0.68606490188E+03 -0.45612742093E+03 -0.85065925587E+02  0.82823516311E+03  0.25500000920E-02 0.  1.
</event>
<event>
 5   0  0.1573981E-04  0.1793141E+04  0.7818609E-02  0.8709955E-01
        2   -1    0    0  501    0  0.00000000000E+00  0.00000000000E+00  0.15419087100E+04  0.15419087101E+04  0.25500000920E-02 0. -1.
       -2   -1    0    0    0  501  0.00000000000E+00  0.00000000000E+00 -0.52132728740E+03  0.52132728740E+03  0.25500000920E-02 0.  1.
    10030    2    1    2    0    0  0.00000000000E+00  0.00000000000E+00  0.10205814227E+04  0.20632359975E+04  0.17931414726E+04 0.  0.
        1    1    3    3  502    0 -0.50334862872E+03 -0.61579316917E+03  0.98648607523E+03  0.12671684363E+04  0.50400001928E-02 0. -1.
       -1    1    3    3    0  502  0.50334862872E+03  0.61579316917E+03  0.34095347417E+02  0.79606756118E+03  0.50400001928E-02 0.  1.
</event>
<event>
 5   0  0.1608627E-04  0.1829016E+04  0.7818609E-02  0.8691020E-01
        2   -1    0    0  501    0  0.00000000000E+00  0.00000000000E+00  0.86432030466E+03  0.86432030466E+03  0.25500000920E-02 0.  1.
       -2   -1    0    0    0  501  0.00000000000E+00  0.00000000000E+00 -0.96760955277E+03  0.96760955277E+03  0.25500000920E-02 0. -1.
    10030    2    1    2    0    0  0.00000000000E+00  0.00000000000E+00 -0.10328924811E+03  0.18319298574E+04  0.18290156735E+04 0.  0.
        2    1    3    3  502    0  0.64620260244E+03 -0.37266587747E+02  0.59541719680E+03  0.87948180209E+03  0.25500000920E-02 0.  1.
       -2    1    3    3    0  502 -0.64620260244E+03  0.37266587747E+02 -0.69870644491E+03  0.95244805534E+03  0.25500000920E-02 0. -1.
</event>
<event>
 5   0  0.5820500E-05  0.1799313E+04  0.7818609E-02  0.8706665E-01
        3   -1    0    0  501    0  0.00000000000E+00  0.00000000000E+00  0.75394964373E+03  0.75394965050E+03  0.10100000352E+00 0.  1.
       -3   -1    0    0    0  501  0.00000000000E+00  0.00000000000E+00 -0.10735219537E+04  0.10735219585E+04  0.10100000352E+00 0. -1.
    10030    2    1    2    0    0  0.00000000000E+00  0.00000000000E+00 -0.31957230997E+03  0.18274716089E+04  0.17993126522E+04 0.  0.
        5    1    3    3  502    0 -0.44445946285E+03  0.11491789279E+03  0.62602041309E+03  0.77632079955E+03  0.46999998093E+01 0.  1.
       -5    1    3    3    0  502  0.44445946285E+03 -0.11491789279E+03 -0.94559272307E+03  0.10511508094E+04  0.46999998093E+01 0. -1.
</event>
<event>
 5   0  0.8254914E-05  0.1794904E+04  0.7818609E-02  0.8709014E-01
       -1   -1    0    0    0  501  0.00000000000E+00  0.00000000000E+00  0.37829429072E+03  0.37829429075E+03  0.50400001928E-02 0. -1.
        1   -1    0    0  501    0  0.00000000000E+00  0.00000000000E+00 -0.21290824483E+04  0.21290824483E+04  0.50400001928E-02 0.  1.
    10030    2    1    2    0    0  0.00000000000E+00  0.00000000000E+00 -0.17507881575E+04  0.25073767390E+04  0.17949036015E+04 0.  0.
        4    1    3    3  502    0  0.48444169792E+03 -0.16203222931E+03 -0.19061821819E+04  0.19734412394E+04  0.12699999809E+01 0.  1.
       -4    1    3    3    0  502 -0.48444169792E+03  0.16203222931E+03  0.15539402436E+03  0.53393549959E+03  0.12699999809E+01 0. -1.
</event>
<event>
 5   0  0.1549012E-04  0.1819484E+04  0.7818609E-02  0.8696006E-01
        2   -1    0    0  501    0  0.00000000000E+00  0.00000000000E+00  0.10509023077E+04  0.10509023077E+04  0.25500000920E-02 0.  1.
       -2   -1    0    0    0  501  0.00000000000E+00  0.00000000000E+00 -0.78754305426E+03  0.78754305427E+03  0.25500000920E-02 0. -1.
    10030    2    1    2    0    0  0.00000000000E+00  0.00000000000E+00  0.26335925348E+03  0.18384453620E+04  0.18194843370E+04 0.  0.
        4    1    3    3  502    0 -0.12282094987E+03 -0.25788903795E+03  0.10044152895E+04  0.10442429929E+04  0.12699999809E+01 0.  1.
       -4    1    3    3    0  502  0.12282094987E+03  0.25788903795E+03 -0.74105603602E+03  0.79420236907E+03  0.12699999809E+01 0. -1.
</event>
<event>
 5   0  0.1603564E-04  0.1808200E+04  0.7818609E-02  0.8701951E-01
       -2   -1    0    0    0  501  0.00000000000E+00  0.00000000000E+00  0.57815778246E+03  0.57815778246E+03  0.25500000920E-02 0. -1.
        2   -1    0    0  501    0  0.00000000000E+00  0.00000000000E+00 -0.14137953146E+04  0.14137953146E+04  0.25500000920E-02 0.  1.
    10030    2    1    2    0    0  0.00000000000E+00  0.00000000000E+00 -0.83563753215E+03  0.19919530971E+04  0.18081999491E+04 0.  0.
        5    1    3    3  502    0 -0.16036311742E+03  0.85967174101E+03 -0.16511029156E+03  0.88996366786E+03  0.46999998093E+01 0. -1.
       -5    1    3    3    0  502  0.16036311742E+03 -0.85967174101E+03 -0.67052724060E+03  0.11019894292E+04  0.46999998093E+01 0.  1.
</event>
<event>
 5   0  0.8206783E-05  0.1770493E+04  0.7818609E-02  0.8722150E-01
       -1   -1    0    0    0  501  0.00000000000E+00  0.00000000000E+00  0.85387548940E+03  0.85387548942E+03  0.50400001928E-02 0.  1.
        1   -1    0    0  501    0  0.00000000000E+00  0.00000000000E+00 -0.91776986101E+03  0.91776986102E+03  0.50400001928E-02 0. -1.
    10030    2    1    2    0    0  0.00000000000E+00  0.00000000000E+00 -0.63894371606E+02  0.17716453504E+04  0.17704928006E+04 0.  0.
        1    1    3    3  502    0 -0.60541663884E+03 -0.64525131203E+03 -0.39535035548E+01  0.88481308335E+03  0.50400001928E-02 0. -1.
       -1    1    3    3    0  502  0.60541663884E+03  0.64525131203E+03 -0.59940868051E+02  0.88683226708E+03  0.50400001928E-02 0.  1.
</event>
<event>
 5   0  0.1549012E-04  0.1804219E+04  0.7818609E-02  0.8704059E-01
       -2   -1    0    0    0  501  0.00000000000E+00  0.00000000000E+00  0.62400877501E+03  0.62400877501E+03  0.25500000920E-02 0. -1.
        2   -1    0    0  501    0  0.00000000000E+00  0.00000000000E+00 -0.13041504340E+04  0.13041504340E+04  0.25500000920E-02 0.  1.
    10030    2    1    2    0    0  0.00000000000E+00  0.00000000000E+00 -0.68014165897E+03  0.19281592090E+04  0.18042187392E+04 0.  0.
        4    1    3    3  502    0  0.35359566208E+03  0.81477563540E+03 -0.50874348933E+03  0.10235774417E+04  0.12699999809E+01 0.  1.
       -4    1    3    3    0  502 -0.35359566208E+03 -0.81477563540E+03 -0.17139816964E+03  0.90458176731E+03  0.12699999809E+01 0. -1.
</event>
<event>
 5   0  0.8132598E-05  0.1808677E+04  0.7818609E-02  0.8701699E-01
       -1   -1    0    0    0  501  0.00000000000E+00  0.00000000000E+00  0.10920971839E+04  0.10920971840E+04  0.50400001928E-02 0. -1.
        1   -1    0    0  501    0  0.00000000000E+00  0.00000000000E+00 -0.74886044301E+03  0.74886044303E+03  0.50400001928E-02 0.  1.
    10030    2    1    2    0    0  0.00000000000E+00  0.00000000000E+00  0.34323674094E+03  0.18409576270E+04  0.18086772858E+04 0.  0.
        3    1    3    3  502    0 -0.46936988115E+02 -0.15570761982E+03  0.10770910695E+04  0.10892993739E+04  0.10100000352E+00 0. -1.
       -3    1    3    3    0  502  0.46936988115E+02  0.15570761982E+03 -0.73385432856E+03  0.75165825311E+03  0.10100000352E+00 0.  1.
</event>
<event>
 5   0  0.8492114E-05  0.1597272E+04  0.7818609E-02  0.8822226E-01
        1   -1    0    0  501    0  0.00000000000E+00  0.00000000000E+00  0.94038153205E+03  0.94038153207E+03  0.50400001928E-02 0.  1.
       -1   -1    0    0    0  501  0.00000000000E+00  0.00000000000E+00 -0.67825570155E+03  0.67825570157E+03  0.50400001928E-02 0. -1.
    10030    2    1    2    0    0  0.00000000000E+00  0.00000000000E+00  0.26212583050E+03  0.16186372336E+04  0.15972715934E+04 0.  0.
        2    1    3    3  502    0  0.40727425828E+03  0.56470220100E+02 -0.56275429991E+03  0.69696026378E+03  0.25500000920E-02 0. -1.
       -2    1    3    3    0  502 -0.40727425828E+03 -0.56470220100E+02  0.82488013041E+03  0.92167696986E+03  0.25500000920E-02 0.  1.
</event>
<event>
 5   0  0.8492114E-05  0.1823451E+04  0.7818609E-02  0.8693927E-01
        1   -1    0    0  501    0  0.00000000000E+00  0.00000000000E+00  0.80649683457E+03  0.80649683459E+03  0.50400001928E-02 0. -1.
       -1   -1    0    0    0  501  0.00000000000E+00  0.00000000000E+00 -0.10306837505E+04  0.10306837506E+04  0.50400001928E-02 0.  1.
    10030    2    1    2    0    0  0.00000000000E+00  0.00000000000E+00 -0.22418691598E+03  0.18371805851E+04  0.18234507751E+04 0.  0.
        2    1    3    3  502    0  0.31400061207E+03  0.79086117014E+03  0.21776348904E+03  0.87833860895E+03  0.25500000920E-02 0. -1.
       -2    1    3    3    0  502 -0.31400061207E+03 -0.79086117014E+03 -0.44195040501E+03  0.95884197619E+03  0.25500000920E-02 0.  1.
</event>
<event>
 5   0  0.8206783E-05  0.1808187E+04  0.7818609E-02  0.8701958E-01
        1   -1    0    0  501    0  0.00000000000E+00  0.00000000000E+00  0.94653046969E+03  0.94653046970E+03  0.50400001928E-02 0.  1.
       -1   -1    0    0    0  501  0.00000000000E+00  0.00000000000E+00 -0.86355915852E+03  0.86355915853E+03  0.50400001928E-02 0. -1.
    10030    2    1    2    0    0  0.00000000000E+00  0.00000000000E+00  0.82971311166E+02  0.18100896282E+04  0.18081869991E+04 0.  0.
        1    1    3    3  502    0  0.56307653100E+03  0.23801595627E+03  0.70827833356E+03  0.93560941263E+03  0.50400001928E-02 0.  1.
       -1    1    3    3    0  502 -0.56307653100E+03 -0.23801595627E+03 -0.62530702239E+03  0.87448021560E+03  0.50400001928E-02 0. -1.
</event>
<event>
 5   0  0.8430513E-05  0.1797282E+04  0.7818609E-02  0.8707746E-01
       -1   -1    0    0    0  501  0.00000000000E+00  0.00000000000E+00  0.53164758434E+03  0.53164758437E+03  0.50400001928E-02 0.  1.
        1   -1    0    0  501    0  0.00000000000E+00  0.00000000000E+00 -0.15189682530E+04  0.15189682530E+04  0.50400001928E-02 0. -1.
    10030    2    1    2    0    0  0.00000000000E+00  0.00000000000E+00 -0.98732066863E+03  0.20506158373E+04  0.17972821731E+04 0.  0.
        5    1    3    3  502    0 -0.29192898589E+03  0.11167298883E+03 -0.14549369412E+04  0.14881387644E+04  0.46999998093E+01 0. -1.
       -5    1    3    3    0  502  0.29192898589E+03 -0.11167298883E+03  0.46761627257E+03  0.56247707296E+03  0.46999998093E+01 0.  1.
</event>
<event>
 5   0  0.8492114E-05  0.1807474E+04  0.7818609E-02  0.8702335E-01
       -1   -1    0    0    0  501  0.00000000000E+00  0.00000000000E+00  0.10408933820E+04  0.10408933820E+04  0.50400001928E-02 0. -1.
        1   -1    0    0  501    0  0.00000000000E+00  0.00000000000E+00 -0.78465332430E+03  0.78465332431E+03  0.50400001928E-02 0.  1.
    10030    2    1    2    0    0  0.00000000000E+00  0.00000000000E+00  0.25624005770E+03  0.18255467063E+04  0.18074738753E+04 0.  0.
        2    1    3    3  502    0 -0.48118091732E+03 -0.48693760867E+03 -0.46777690261E+03  0.82913119623E+03  0.25500000920E-02 0.  1.
       -2    1    3    3    0  502  0.48118091732E+03  0.48693760867E+03  0.72401696032E+03  0.99641551010E+03  0.25500000920E-02 0. -1.
</event>
<event>
 5   0  0.1549012E-04  0.1798950E+04  0.7818609E-02  0.8706858E-01
        2   -1    0    0  501    0  0.00000000000E+00  0.00000000000E+00  0.98801797711E+03  0.98801797711E+03  0.25500000920E-02 0.  1.
       -2   -1    0    0    0  501  0.00000000000E+00  0.00000000000E+00 -0.81886733118E+03  0.81886733119E+03  0.25500000920E-02 0. -1.
    10030    2    1    2    0    0  0.00000000000E+00  0.00000000000E+00  0.16915064593E+03  0.18068853083E+04  0.17989504096E+04 0.  0.
        4    1    3    3  502    0 -0.16677187529E+03 -0.63321908946E+02  0.97007130366E+03  0.98633790844E+03  0.12699999809E+01 0.  1.
       -4    1    3    3    0  502  0.16677187529E+03  0.63321908946E+02 -0.80092065773E+03  0.82054739986E+03  0.12699999809E+01 0. -1.
</event>
<event>
 5   0  0.1549012E-04  0.1803078E+04  0.7818609E-02  0.8704664E-01
       -2   -1    0    0    0  501  0.00000000000E+00  0.00000000000E+00  0.55836413300E+03  0.55836413301E+03  0.25500000920E-02 0. -1.
        2   -1    0    0  501    0  0.00000000000E+00  0.00000000000E+00 -0.14556319049E+04  0.14556319049E+04  0.25500000920E-02 0.  1.
    10030    2    1    2    0    0  0.00000000000E+00  0.00000000000E+00 -0.89726777186E+03  0.20139960379E+04  0.18030780865E+04 0.  0.
        4    1    3    3  502    0  0.58256197855E+03 -0.51816475261E+03 -0.95424055296E+03  0.12322539574E+04  0.12699999809E+01 0.  1.
       -4    1    3    3    0  502 -0.58256197855E+03  0.51816475261E+03  0.56972781100E+02  0.78174208048E+03  0.12699999809E+01 0. -1.
</event>
<event>
 5   0  0.1573981E-04  0.1811538E+04  0.7818609E-02  0.8700187E-01
        2   -1    0    0  501    0  0.00000000000E+00  0.00000000000E+00  0.96906893443E+03  0.96906893443E+03  0.25500000920E-02 0.  1.
       -2   -1    0    0    0  501  0.00000000000E+00  0.00000000000E+00 -0.84660426756E+03  0.84660426757E+03  0.25500000920E-02 0. -1.
    10030    2    1    2    0    0  0.00000000000E+00  0.00000000000E+00  0.12246466686E+03  0.18156732020E+04  0.18115384572E+04 0.  0.
        1    1    3    3  502    0  0.54858338883E+03  0.11237620496E+02 -0.66107047902E+03  0.85911826710E+03  0.50400001928E-02 0. -1.
       -1    1    3    3    0  502 -0.54858338883E+03 -0.11237620496E+02  0.78353514588E+03  0.95655493489E+03  0.50400001928E-02 0.  1.
</event>
<event>
 5   0  0.8254914E-05  0.1748331E+04  0.7818609E-02  0.8734270E-01
       -1   -1    0    0    0  501  0.00000000000E+00  0.00000000000E+00  0.14694863218E+04  0.14694863218E+04  0.50400001928E-02 0. -1.
        1   -1    0    0  501    0  0.00000000000E+00  0.00000000000E+00 -0.52002206801E+03  0.52002206803E+03  0.50400001928E-02 0.  1.
    10030    2    1    2    0    0  0.00000000000E+00  0.00000000000E+00  0.94946425377E+03  0.19895083898E+04  0.17483309938E+04 0.  0.
        4    1    3    3  502    0  0.82414738496E+03  0.65349989930E+02  0.15151871731E+03  0.84050524562E+03  0.12699999809E+01 0.  1.
       -4    1    3    3    0  502 -0.82414738496E+03 -0.65349989930E+02  0.79794553646E+03  0.11490031442E+04  0.12699999809E+01 0. -1.
</event>
<event>
 5   0  0.8254914E-05  0.1801044E+04  0.7818609E-02  0.8705744E-01
       -1   -1    0    0    0  501  0.00000000000E+00  0.00000000000E+00  0.40859721274E+03  0.40859721277E+03  0.50400001928E-02 0. -1.
        1   -1    0    0  501    0  0.00000000000E+00  0.00000000000E+00 -0.19846929637E+04  0.19846929637E+04  0.50400001928E-02 0.  1.
    10030    2    1    2    0    0  0.00000000000E+00  0.00000000000E+00 -0.15760957510E+04  0.23932901765E+04  0.18010441562E+04 0.  0.
        4    1    3    3  502    0 -0.32518662080E+03 -0.47197991395E+03 -0.17110162302E+04  0.18044637792E+04  0.12699999809E+01 0.  1.
       -4    1    3    3    0  502  0.32518662080E+03  0.47197991395E+03  0.13492047923E+03  0.58882639728E+03  0.12699999809E+01 0. -1.
</event>
<event>
 5   0  0.1603564E-04  0.1798329E+04  0.7818609E-02  0.8707189E-01
        2   -1    0    0  501    0  0.00000000000E+00  0.00000000000E+00  0.12111110065E+04  0.12111110065E+04  0.25500000920E-02 0. -1.
       -2   -1    0    0    0  501  0.00000000000E+00  0.00000000000E+00 -0.66756596096E+03  0.66756596097E+03  0.25500000920E-02 0.  1.
    10030    2    1    2    0    0  0.00000000000E+00  0.00000000000E+00  0.54354504549E+03  0.18786769674E+04  0.17983286495E+04 0.  0.
        5    1    3    3  502    0  0.26941855736E+03 -0.71187588447E+02  0.11648484169E+04  0.11977261607E+04  0.46999998093E+01 0. -1.
       -5    1    3    3    0  502 -0.26941855736E+03  0.71187588447E+02 -0.62130337140E+03  0.68095080668E+03  0.46999998093E+01 0.  1.
</event>
<event>
 5   0  0.8430513E-05  0.1816875E+04  0.7818609E-02  0.8697377E-01
        1   -1    0    0  501    0  0.00000000000E+00  0.00000000000E+00  0.49791404685E+03  0.49791404687E+03  0.50400001928E-02 0. -1.
       -1   -1    0    0    0  501  0.00000000000E+00  0.00000000000E+00 -0.16574311784E+04  0.16574311784E+04  0.50400001928E-02 0.  1.
    10030    2    1    2    0    0  0.00000000000E+00  0.00000000000E+00 -0.11595171315E+04  0.21553452253E+04  0.18168745311E+04 0.  0.
        5    1    3    3  502    0  0.40088915681E+03  0.15357730618E+03 -0.15294880897E+04  0.15886012752E+04  0.46999998093E+01 0.  1.
       -5    1    3    3    0  502 -0.40088915681E+03 -0.15357730618E+03  0.36997095819E+03  0.56674395005E+03  0.46999998093E+01 0. -1.
</event>
<event>
 5   0  0.5820500E-05  0.1806901E+04  0.7818609E-02  0.8702638E-01
       -3   -1    0    0    0  501  0.00000000000E+00  0.00000000000E+00  0.15266265655E+04  0.15266265688E+04  0.10100000352E+00 0. -1.
        3   -1    0    0  501    0  0.00000000000E+00  0.00000000000E+00 -0.53465784381E+03  0.53465785335E+03  0.10100000352E+00 0.  1.
    10030    2    1    2    0    0  0.00000000000E+00  0.00000000000E+00  0.99196872166E+03  0.20612844222E+04  0.18069010831E+04 0.  0.
        4    1    3    3  502    0  0.34064406349E+03  0.53441806999E+03 -0.23854275019E+03  0.67715973602E+03  0.12699999809E+01 0.  1.
       -4    1    3    3    0  502 -0.34064406349E+03 -0.53441806999E+03  0.12305114718E+04  0.13841246861E+04  0.12699999809E+01 0. -1.
</event>
<event>
 5   0  0.1608627E-04  0.1785054E+04  0.7818609E-02  0.8714288E-01
        2   -1    0    0  501    0  0.00000000000E+00  0.00000000000E+00  0.12625491341E+04  0.12625491341E+04  0.25500000920E-02 0. -1.
       -2   -1    0    0    0  501  0.00000000000E+00  0.00000000000E+00 -0.63094947847E+03  0.63094947848E+03  0.25500000920E-02 0.  1.
    10030    2    1    2    0    0  0.00000000000E+00  0.00000000000E+00  0.63159965566E+03  0.18934986126E+04  0.17850543048E+04 0.  0.
        2    1    3    3  502    0  0.87458208041E+03 -0.53934246694E+01  0.12699261819E+03  0.88377034884E+03  0.25500000920E-02 0.  1.
       -2    1    3    3    0  502 -0.87458208041E+03  0.53934246694E+01  0.50460703747E+03  0.10097282638E+04  0.25500000920E-02 0. -1.
</event>
<event>
 5   0  0.8132598E-05  0.1800327E+04  0.7818609E-02  0.8706126E-01
       -1   -1    0    0    0  501  0.00000000000E+00  0.00000000000E+00  0.71046370762E+03  0.71046370764E+03  0.50400001928E-02 0.  1.
        1   -1    0    0  501    0  0.00000000000E+00  0.00000000000E+00 -0.11405145471E+04  0.11405145471E+04  0.50400001928E-02 0. -1.
    10030    2    1    2    0    0  0.00000000000E+00  0.00000000000E+00 -0.43005083944E+03  0.18509782547E+04  0.18003268522E+04 0.  0.
        3    1    3    3  502    0  0.61318161529E+03  0.22669180613E+02  0.46213103734E+03  0.76816058930E+03  0.10100000352E+00 0.  1.
       -3    1    3    3    0  502 -0.61318161529E+03 -0.22669180613E+02 -0.89218187678E+03  0.10828176654E+04  0.10100000352E+00 0. -1.
</event>
<event>
 5   0  0.1628397E-04  0.1592636E+04  0.7818609E-02  0.8825085E-01
       -2   -1    0    0    0  501  0.00000000000E+00  0.00000000000E+00  0.12253453001E+04  0.12253453001E+04  0.25500000920E-02 0. -1.
        2   -1    0    0  501    0  0.00000000000E+00  0.00000000000E+00 -0.51750517294E+03  0.51750517294E+03  0.25500000920E-02 0.  1.
    10030    2    1    2    0    0  0.00000000000E+00  0.00000000000E+00  0.70784012711E+03  0.17428504730E+04  0.15926362189E+04 0.  0.
        3    1    3    3  502    0 -0.65679306858E+03  0.36120542482E+03  0.64811871486E+03  0.99091088026E+03  0.10100000352E+00 0. -1.
       -3    1    3    3    0  502  0.65679306858E+03 -0.36120542482E+03  0.59721412249E+02  0.75193959274E+03  0.10100000352E+00 0.  1.
</event>
<event>
 5   0  0.1549012E-04  0.1816521E+04  0.7818609E-02  0.8697563E-01
       -2   -1    0    0    0  501  0.00000000000E+00  0.00000000000E+00  0.39208199485E+03  0.39208199485E+03  0.25500000920E-02 0.  1.
        2   -1    0    0  501    0  0.00000000000E+00  0.00000000000E+00 -0.21039916278E+04  0.21039916278E+04  0.25500000920E-02 0. -1.
    10030    2    1    2    0    0  0.00000000000E+00  0.00000000000E+00 -0.17119096330E+04  0.24960736227E+04  0.18165211087E+04 0.  0.
        4    1    3    3  502    0 -0.34154447233E+03 -0.81870416253E+03 -0.58807140567E+03  0.10643113846E+04  0.12699999809E+01 0. -1.
       -4    1    3    3    0  502  0.34154447233E+03  0.81870416253E+03 -0.11238382273E+04  0.14317622381E+04  0.12699999809E+01 0.  1.
</event>
<event>
 5   0  0.1549012E-04  0.1781829E+04  0.7818609E-02  0.8716023E-01
       -2   -1    0    0    0  501  0.00000000000E+00  0.00000000000E+00  0.17198050269E+04  0.17198050269E+04  0.25500000920E-02 0.  1.
        2   -1    0    0  501    0  0.00000000000E+00  0.00000000000E+00 -0.46152235973E+03  0.46152235974E+03  0.25500000920E-02 0. -1.
    10030    2    1    2    0    0  0.00000000000E+00  0.00000000000E+00  0.12582826671E+04  0.21813273866E+04  0.17818288069E+04 0.  0.
        4    1    3    3  502    0  0.73057415729E+03  0.37013958232E+02  0.12517059627E+04  0.14497855229E+04  0.12699999809E+01 0.  1.
       -4    1    3    3    0  502 -0.73057415729E+03 -0.37013958232E+02  0.65767044060E+01  0.73154186370E+03  0.12699999809E+01 0. -1.
</event>
<event>
 5   0  0.8492114E-05  0.1824105E+04  0.7818609E-02  0.8693585E-01
       -1   -1    0    0    0  501  0.00000000000E+00  0.00000000000E+00  0.85486522702E+03  0.85486522703E+03  0.50400001928E-02 0.  1.
        1   -1    0    0  501    0  0.00000000000E+00  0.00000000000E+00 -0.97306563573E+03  0.97306563574E+03  0.50400001928E-02 0. -1.
    10030    2    1    2    0    0  0.00000000000E+00  0.00000000000E+00 -0.11820040871E+03  0.18279308628E+04  0.18241052334E+04 0.  0.
        2    1    3    3  502    0  0.70393373157E+03  0.57537102968E+03  0.13615437886E+02  0.90926338340E+03  0.25500000920E-02 0.  1.
       -2    1    3    3    0  502 -0.70393373157E+03 -0.57537102968E+03 -0.13181584660E+03  0.91866747938E+03  0.25500000920E-02 0. -1.
</event>
<event>
 5   0  0.1573981E-04  0.1804116E+04  0.7818609E-02  0.8704114E-01
       -2   -1    0    0    0  501  0.00000000000E+00  0.00000000000E+00  0.61477519459E+03  0.61477519459E+03  0.25500000920E-02 0.  1.
        2   -1    0    0  501    0  0.00000000000E+00  0.00000000000E+00 -0.13235865731E+04  0.13235865731E+04  0.25500000920E-02 0. -1.
    10030    2    1    2    0    0  0.00000000000E+00  0.00000000000E+00 -0.70881137851E+03  0.19383617677E+04  0.18041155096E+04 0.  0.
        1    1    3    3  502    0 -0.82947297331E+02  0.86145979302E+03 -0.62772659529E+03  0.10691276386E+04  0.50400001928E-02 0. -1.
       -1    1    3    3    0  502  0.82947297331E+02 -0.86145979302E+03 -0.81084783216E+02  0.86923412911E+03  0.50400001928E-02 0.  1.
</event>
<event>
 5   0  0.8206783E-05  0.1800211E+04  0.7818609E-02  0.8706187E-01
       -1   -1    0    0    0  501  0.00000000000E+00  0.00000000000E+00  0.98260348086E+03  0.98260348087E+03  0.50400001928E-02 0. -1.
        1   -1    0    0  501    0  0.00000000000E+00  0.00000000000E+00 -0.82453361456E+03  0.82453361458E+03  0.50400001928E-02 0.  1.
    10030    2    1    2    0    0  0.00000000000E+00  0.00000000000E+00  0.15806986629E+03  0.18071370954E+04  0.18002106541E+04 0.  0.
        1    1    3    3  502    0 -0.34491913604E+03 -0.10688888765E+03 -0.74863428892E+03  0.83117251114E+03  0.50400001928E-02 0.  1.
       -1    1    3    3    0  502  0.34491913604E+03  0.10688888765E+03  0.90670415521E+03  0.97596458430E+03  0.50400001928E-02 0. -1.
</event>
<event>
 5   0  0.8430513E-05  0.1795659E+04  0.7818609E-02  0.8708611E-01
        1   -1    0    0  501    0  0.00000000000E+00  0.00000000000E+00  0.14692633024E+04  0.14692633024E+04  0.50400001928E-02 0.  1.
       -1   -1    0    0    0  501  0.00000000000E+00  0.00000000000E+00 -0.54864109008E+03  0.54864109010E+03  0.50400001928E-02 0. -1.
    10030    2    1    2    0    0  0.00000000000E+00  0.00000000000E+00  0.92062221230E+03  0.20179043925E+04  0.17956594553E+04 0.  0.
        5    1    3    3  502    0  0.31618244482E+03 -0.60383281866E+03  0.11170096619E+04  0.13085557253E+04  0.46999998093E+01 0.  1.
       -5    1    3    3    0  502 -0.31618244482E+03  0.60383281866E+03 -0.19638744964E+03  0.70934866721E+03  0.46999998093E+01 0. -1.
</event>
<event>
 5   0  0.1573981E-04  0.1799552E+04  0.7818609E-02  0.8706538E-01
        2   -1    0    0  501    0  0.00000000000E+00  0.00000000000E+00  0.13337137194E+04  0.13337137194E+04  0.25500000920E-02 0. -1.
       -2   -1    0    0    0  501  0.00000000000E+00  0.00000000000E+00 -0.60702442975E+03  0.60702442975E+03  0.25500000920E-02 0.  1.
    10030    2    1    2    0    0  0.00000000000E+00  0.00000000000E+00  0.72668928968E+03  0.19407381492E+04  0.17995519553E+04 0.  0.
        1    1    3    3  502    0  0.53085264261E+02 -0.84165191414E+03  0.25044711605E+02  0.84369617011E+03  0.50400001928E-02 0.  1.
       -1    1    3    3    0  502 -0.53085264261E+02  0.84165191414E+03  0.70164457807E+03  0.10970419791E+04  0.50400001928E-02 0. -1.
</event>
<event>
 5   0  0.8430513E-05  0.1800638E+04  0.7818609E-02  0.8705961E-01
       -1   -1    0    0    0  501  0.00000000000E+00  0.00000000000E+00  0.98078451377E+03  0.98078451378E+03  0.50400001928E-02 0.  1.
        1   -1    0    0  501    0  0.00000000000E+00  0.00000000000E+00 -0.82645460909E+03  0.82645460911E+03  0.50400001928E-02 0. -1.
    10030    2    1    2    0    0  0.00000000000E+00  0.00000000000E+00  0.15432990467E+03  0.18072391229E+04  0.18006375337E+04 0.  0.
        5    1    3    3  502    0  0.56702764899E+03  0.31013389864E+03 -0.55190916435E+03  0.84989952671E+03  0.46999998093E+01 0. -1.
       -5    1    3    3    0  502 -0.56702764899E+03 -0.31013389864E+03  0.70623906902E+03  0.95733959618E+03  0.46999998093E+01 0.  1.
</event>
<event>
 5   0  0.8132598E-05  0.1804038E+04  0.7818609E-02  0.8704155E-01
       -1   -1    0    0    0  501  0.00000000000E+00  0.00000000000E+00  0.56780792086E+03  0.56780792089E+03  0.50400001928E-02 0.  1.
        1   -1    0    0  501    0  0.00000000000E+00  0.00000000000E+00 -0.14329458149E+04  0.14329458149E+04  0.50400001928E-02 0. -1.
    10030    2    1    2    0    0  0.00000000000E+00  0.00000000000E+00 -0.86513789400E+03  0.20007537358E+04  0.18040376757E+04 0.  0.
        3    1    3    3  502    0 -0.49277272537E+03  0.74048755542E+03 -0.26624518501E+03  0.92845747740E+03  0.10100000352E+00 0. -1.
       -3    1    3    3    0  502  0.49277272537E+03 -0.74048755542E+03 -0.59889270899E+03  0.10722962584E+04  0.10100000352E+00 0.  1.
</event>
<event>
 5   0  0.8254914E-05  0.1816535E+04  0.7818609E-02  0.8697555E-01
        1   -1    0    0  501    0  0.00000000000E+00  0.00000000000E+00  0.14777521294E+04  0.14777521294E+04  0.50400001928E-02 0. -1.
       -1   -1    0    0    0  501  0.00000000000E+00  0.00000000000E+00 -0.55824651145E+03  0.55824651148E+03  0.50400001928E-02 0.  1.
    10030    2    1    2    0    0  0.00000000000E+00  0.00000000000E+00  0.91950561792E+03  0.20359986409E+04  0.18165351316E+04 0.  0.
        4    1    3    3  502    0  0.37526776756E+03 -0.43681177462E+03 -0.32746903130E+03  0.66247113385E+03  0.12699999809E+01 0.  1.
       -4    1    3    3    0  502 -0.37526776756E+03  0.43681177462E+03  0.12469746492E+04  0.13735275070E+04  0.12699999809E+01 0. -1.
</event>
<event>
 5   0  0.1603564E-04  0.1793569E+04  0.7818609E-02  0.8709727E-01
       -2   -1    0    0    0  501  0.00000000000E+00  0.00000000000E+00  0.45809926222E+03  0.45809926223E+03  0.25500000920E-02 0. -1.
        2   -1    0    0  501    0  0.00000000000E+00  0.00000000000E+00 -0.17555643336E+04  0.17555643337E+04  0.25500000920E-02 0.  1.
    10030    2    1    2    0    0  0.00000000000E+00  0.00000000000E+00 -0.12974650714E+04  0.22136635959E+04  0.17935693196E+04 0.  0.
        5    1    3    3  502    0  0.30585125776E+03  0.52870368599E+03 -0.14591272504E+04  0.15818176261E+04  0.46999998093E+01 0.  1.
       -5    1    3    3    0  502 -0.30585125776E+03 -0.52870368599E+03  0.16166217893E+03  0.63184596979E+03  0.46999998093E+01 0. -1.
</event>
<event>
 5   0  0.1573981E-04  0.1800057E+04  0.7818609E-02  0.8706269E-01
       -2   -1    0    0    0  501  0.00000000000E+00  0.00000000000E+00  0.44107192197E+03  0.44107192198E+03  0.25500000920E-02 0. -1.
        2   -1    0    0  501    0  0.00000000000E+00  0.00000000000E+00 -0.18365525189E+04  0.18365525189E+04  0.25500000920E-02 0.  1.
    10030    2    1    2    0    0  0.00000000000E+00  0.00000000000E+00 -0.13954805969E+04  0.22776244409E+04  0.18000574983E+04 0.  0.
        1    1    3    3  502    0 -0.10000763342E+03  0.36580863079E+03 -0.17305236305E+04  0.17715895453E+04  0.50400001928E-02 0.  1.
       -1    1    3    3    0  502  0.10000763342E+03 -0.36580863079E+03  0.33504303364E+03  0.50603489556E+03  0.50400001928E-02 0. -1.
</event>
<event>
 5   0  0.8492114E-05  0.1792199E+04  0.7818609E-02  0.8710459E-01
       -1   -1    0    0    0  501  0.00000000000E+00  0.00000000000E+00  0.99843231983E+03  0.99843231985E+03  0.50400001928E-02 0. -1.
        1   -1    0    0  501    0  0.00000000000E+00  0.00000000000E+00 -0.80425500288E+03  0.80425500290E+03  0.50400001928E-02 0.  1.
    10030    2    1    2    0    0  0.00000000000E+00  0.00000000000E+00  0.19417731695E+03  0.18026873227E+04  0.17921988598E+04 0.  0.
        2    1    3    3  502    0 -0.46458304313E+03  0.53028425697E+03 -0.45928077605E+03  0.84141406478E+03  0.25500000920E-02 0.  1.
       -2    1    3    3    0  502  0.46458304313E+03 -0.53028425697E+03  0.65345809300E+03  0.96127325796E+03  0.25500000920E-02 0. -1.
</event>
<event>
 5   0  0.8430513E-05  0.1806870E+04  0.7818609E-02  0.8702655E-01
       -1   -1    0    0    0  501  0.00000000000E+00  0.00000000000E+00  0.53692181483E+03  0.53692181485E+03  0.50400001928E-02 0. -1.
        1   -1    0    0  501    0  0.00000000000E+00  0.00000000000E+00 -0.15201364060E+04  0.15201364060E+04  0.50400001928E-02 0.  1.
    10030    2    1    2    0    0  0.00000000000E+00  0.00000000000E+00 -0.98321459118E+03  0.20570582209E+04  0.18068695558E+04 0.  0.
        5    1    3    3  502    0  0.61678136925E+03 -0.64108518086E+03 -0.31245597210E+03  0.94289993693E+03  0.46999998093E+01 0.  1.
       -5    1    3    3    0  502 -0.61678136925E+03  0.64108518086E+03 -0.67075861908E+03  0.11141582839E+04  0.46999998093E+01 0. -1.
</event>
<event>
 5   0  0.1628397E-04  0.1804163E+04  0.7818609E-02  0.8704089E-01
       -2   -1    0    0    0  501  0.00000000000E+00  0.00000000000E+00  0.80582253974E+03  0.80582253974E+03  0.25500000920E-02 0.  1.
        2   -1    0    0  501    0  0.00000000000E+00  0.00000000000E+00 -0.10098394014E+04  0.10098394014E+04  0.25500000920E-02 0. -1.
    10030    2    1    2    0    0  0.00000000000E+00  0.00000000000E+00 -0.20401686163E+03  0.18156619411E+04  0.18041633531E+04 0.  0.
        3    1    3    3  502    0 -0.14484527186E+03 -0.88631036966E+03 -0.16466003593E+02  0.89821899536E+03  0.10100000352E+00 0.  1.
       -3    1    3    3    0  502  0.14484527186E+03  0.88631036966E+03 -0.18755085803E+03  0.91744294575E+03  0.10100000352E+00 0. -1.
</event>
<event>
 5   0  0.1573981E-04  0.1803327E+04  0.7818609E-02  0.8704532E-01
       -2   -1    0    0    0  501  0.00000000000E+00  0.00000000000E+00  0.64971235337E+03  0.64971235337E+03  0.25500000920E-02 0.  1.
        2   -1    0    0  501    0  0.00000000000E+00  0.00000000000E+00 -0.12513184930E+04  0.12513184930E+04  0.25500000920E-02 0. -1.
    10030    2    1    2    0    0  0.00000000000E+00  0.00000000000E+00 -0.60160613966E+03  0.19010308464E+04  0.18033270174E+04 0.  0.
        1    1    3    3  502    0  0.74332552276E+03 -0.43374570880E+03 -0.17291598851E+02  0.86079450051E+03  0.50400001928E-02 0.  1.
       -1    1    3    3    0  502 -0.74332552276E+03  0.43374570880E+03 -0.58431454081E+03  0.10402363459E+04  0.50400001928E-02 0. -1.
</event>
<event>
 5   0  0.5820500E-05  0.1796364E+04  0.7818609E-02  0.8708235E-01
       -3   -1    0    0    0  501  0.00000000000E+00  0.00000000000E+00  0.15405122200E+04  0.15405122233E+04  0.10100000352E+00 0. -1.
        3   -1    0    0  501    0  0.00000000000E+00  0.00000000000E+00 -0.52367710442E+03  0.52367711416E+03  0.10100000352E+00 0.  1.
    10030    2    1    2    0    0  0.00000000000E+00  0.00000000000E+00  0.10168351156E+04  0.20641893375E+04  0.17963640969E+04 0.  0.
        1    1    3    3  502    0 -0.31554606663E+03  0.14326667165E+03  0.14605964590E+04  0.15011451214E+04  0.50400001928E-02 0. -1.
       -1    1    3    3    0  502  0.31554606663E+03 -0.14326667165E+03 -0.44376134340E+03  0.56304421611E+03  0.50400001928E-02 0.  1.
</event>
<event>
 5   0  0.8492114E-05  0.1801222E+04  0.7818609E-02  0.8705650E-01
        1   -1    0    0  501    0  0.00000000000E+00  0.00000000000E+00  0.19293146914E+04  0.19293146914E+04  0.50400001928E-02 0.  1.
       -1   -1    0    0    0  501  0.00000000000E+00  0.00000000000E+00 -0.42040833515E+03  0.42040833518E+03  0.50400001928E-02 0. -1.
    10030    2    1    2    0    0  0.00000000000E+00  0.00000000000E+00  0.15089063562E+04  0.23497230266E+04  0.18012217825E+04 0.  0.
        2    1    3    3  502    0  0.14597429370E+03 -0.45121793181E+03 -0.24432746176E+03  0.53348104463E+03  0.25500000920E-02 0. -1.
       -2    1    3    3    0  502 -0.14597429370E+03  0.45121793181E+03  0.17532338180E+04  0.18162419819E+04  0.25500000920E-02 0.  1.
</event>
<event>
 5   0  0.8430513E-05  0.1794386E+04  0.7818609E-02  0.8709290E-01
       -1   -1    0    0    0  501  0.00000000000E+00  0.00000000000E+00  0.62080827017E+03  0.62080827019E+03  0.50400001928E-02 0.  1.
        1   -1    0    0  501    0  0.00000000000E+00  0.00000000000E+00 -0.12966251624E+04  0.12966251624E+04  0.50400001928E-02 0. -1.
    10030    2    1    2    0    0  0.00000000000E+00  0.00000000000E+00 -0.67581689226E+03  0.19174334326E+04  0.17943863845E+04 0.  0.
        5    1    3    3  502    0  0.63142960459E+03 -0.62166494536E+03 -0.18768784526E+03  0.90577009616E+03  0.46999998093E+01 0.  1.
       -5    1    3    3    0  502 -0.63142960459E+03  0.62166494536E+03 -0.48812904699E+03  0.10116633365E+04  0.46999998093E+01 0. -1.
</event>
<event>
 5   0  0.8492114E-05  0.1814625E+04  0.7818609E-02  0.8698561E-01
        1   -1    0    0  501    0  0.00000000000E+00  0.00000000000E+00  0.20626949306E+04  0.20626949306E+04  0.50400001928E-02 0. -1.
       -1   -1    0    0    0  501  0.00000000000E+00  0.00000000000E+00 -0.39909718041E+03  0.39909718044E+03  0.50400001928E-02 0.  1.
    10030    2    1    2    0    0  0.00000000000E+00  0.00000000000E+00  0.16635977502E+04  0.24617921111E+04  0.18146247336E+04 0.  0.
        2    1    3    3  502    0  0.19629238207E+03 -0.87178788159E+03  0.10448860112E+04  0.13748932999E+04  0.25500000920E-02 0.  1.
       -2    1    3    3    0  502 -0.19629238207E+03  0.87178788159E+03  0.61871173908E+03  0.10868988112E+04  0.25500000920E-02 0. -1.
</event>
<event>
 5   0  0.8430513E-05  0.1773837E+04  0.7818609E-02  0.8720338E-01
       -1   -1    0    0    0  501  0.00000000000E+00  0.00000000000E+00  0.70214651354E+03  0.70214651356E+03  0.50400001928E-02 0.  1.
        1   -1    0    0  501    0  0.00000000000E+00  0.00000000000E+00 -0.11203132810E+04  0.11203132810E+04  0.50400001928E-02 0. -1.
    10030    2    1    2    0    0  0.00000000000E+00  0.00000000000E+00 -0.41816676745E+03  0.18224597946E+04  0.17738365926E+04 0.  0.
        5    1    3    3  502    0  0.66033332938E+03 -0.40104060886E+03  0.23843450723E+03  0.80854609027E+03  0.46999998093E+01 0. -1.
       -5    1    3    3    0  502 -0.66033332938E+03  0.40104060886E+03 -0.65660127468E+03  0.10139137043E+04  0.46999998093E+01 0.  1.
</event>
<event>
 5   0  0.8492114E-05  0.1795935E+04  0.7818609E-02  0.8708464E-01
        1   -1    0    0  501    0  0.00000000000E+00  0.00000000000E+00  0.10764569099E+04  0.10764569099E+04  0.50400001928E-02 0.  1.
       -1   -1    0    0    0  501  0.00000000000E+00  0.00000000000E+00 -0.74907358821E+03  0.74907358823E+03  0.50400001928E-02 0. -1.
    10030    2    1    2    0    0  0.00000000000E+00  0.00000000000E+00  0.32738332171E+03  0.18255304982E+04  0.17959347873E+04 0.  0.
        2    1    3    3  502    0 -0.51064404095E+02 -0.88781975771E+03  0.37084098433E+02  0.89005995636E+03  0.25500000920E-02 0. -1.
       -2    1    3    3    0  502  0.51064404095E+02  0.88781975771E+03  0.29029922328E+03  0.93547054181E+03  0.25500000920E-02 0.  1.
</event>
<event>
 5   0  0.1628397E-04  0.1804989E+04  0.7818609E-02  0.8703651E-01
       -2   -1    0    0    0  501  0.00000000000E+00  0.00000000000E+00  0.51223372746E+03  0.51223372747E+03  0.25500000920E-02 0. -1.
        2   -1    0    0  501    0  0.00000000000E+00  0.00000000000E+00 -0.15900879743E+04  0.15900879743E+04  0.25500000920E-02 0.  1.
    10030    2    1    2    0    0  0.00000000000E+00  0.00000000000E+00 -0.10778542469E+04  0.21023217018E+04  0.18049894073E+04 0.  0.
        3    1    3    3  502    0 -0.17968488512E+03  0.25584154926E+03 -0.15250020569E+04  0.15567186130E+04  0.10100000352E+00 0.  1.
       -3    1    3    3    0  502  0.17968488512E+03 -0.25584154926E+03  0.44714781005E+03  0.54560308880E+03  0.10100000352E+00 0. -1.
</event>
<event>
 5   0  0.1608627E-04  0.1795830E+04  0.7818609E-02  0.8708520E-01
       -2   -1    0    0    0  501  0.00000000000E+00  0.00000000000E+00  0.57397207082E+03  0.57397207083E+03  0.25500000920E-02 0. -1.
        2   -1    0    0  501    0  0.00000000000E+00  0.00000000000E+00 -0.14046877365E+04  0.14046877365E+04  0.25500000920E-02 0.  1.
    10030    2    1    2    0    0  0.00000000000E+00  0.00000000000E+00 -0.83071566565E+03  0.19786598073E+04  0.17958302024E+04 0.  0.
        2    1    3    3  502    0 -0.25093277819E+03 -0.53325360335E+03 -0.11617664675E+04  0.13027002685E+04  0.25500000920E-02 0.  1.
       -2    1    3    3    0  502  0.25093277819E+03  0.53325360335E+03  0.33105080183E+03  0.67595953877E+03  0.25500000920E-02 0. -1.
</event>
<event>
 5   0  0.1573981E-04  0.1794550E+04  0.7818609E-02  0.8709203E-01
        2   -1    0    0  501    0  0.00000000000E+00  0.00000000000E+00  0.11815052656E+04  0.11815052656E+04  0.25500000920E-02 0.  1.
       -2   -1    0    0    0  501  0.00000000000E+00  0.00000000000E+00 -0.68142086771E+03  0.68142086772E+03  0.25500000920E-02 0. -1.
    10030    2    1    2    0    0  0.00000000000E+00  0.00000000000E+00  0.50008439791E+03  0.18629261333E+04  0.17945499083E+04 0.  0.
        1    1    3    3  502    0 -0.32227789419E+03  0.20139543943E+03  0.10938342006E+04  0.11579708211E+04  0.50400001928E-02 0.  1.
       -1    1    3    3    0  502  0.32227789419E+03 -0.20139543943E+03 -0.59374980266E+03  0.70495531227E+03  0.50400001928E-02 0. -1.
</event>
<event>
 5   0  0.8492114E-05  0.1847642E+04  0.7818609E-02  0.8681366E-01
        1   -1    0    0  501    0  0.00000000000E+00  0.00000000000E+00  0.13640101827E+04  0.13640101827E+04  0.50400001928E-02 0.  1.
       -1   -1    0    0    0  501  0.00000000000E+00  0.00000000000E+00 -0.62568822757E+03  0.62568822759E+03  0.50400001928E-02 0. -1.
    10030    2    1    2    0    0  0.00000000000E+00  0.00000000000E+00  0.73832195509E+03  0.19896984103E+04  0.18476418631E+04 0.  0.
        2    1    3    3  502    0  0.90823554183E+02  0.37550708978E+03  0.12728407836E+04  0.13301797445E+04  0.25500000920E-02 0.  1.
       -2    1    3    3    0  502 -0.90823554183E+02 -0.37550708978E+03 -0.53451882846E+03  0.65951866574E+03  0.25500000920E-02 0. -1.
</event>
<event>
 5   0  0.1549012E-04  0.1784077E+04  0.7818609E-02  0.8714813E-01
        2   -1    0    0  501    0  0.00000000000E+00  0.00000000000E+00  0.10303457401E+04  0.10303457401E+04  0.25500000920E-02 0. -1.
       -2   -1    0    0    0  501  0.00000000000E+00  0.00000000000E+00 -0.77229708416E+03  0.77229708416E+03  0.25500000920E-02 0.  1.
    10030    2    1    2    0    0  0.00000000000E+00  0.00000000000E+00  0.25804865598E+03  0.18026428243E+04  0.17840773647E+04 0.  0.
        4    1    3    3  502    0  0.85950678687E+03  0.70248319651E+02 -0.10148264473E+03  0.86832429608E+03  0.12699999809E+01 0. -1.
       -4    1    3    3    0  502 -0.85950678687E+03 -0.70248319651E+02  0.35953130071E+03  0.93431852822E+03  0.12699999809E+01 0.  1.
</event>
<event>
 5   0  0.8206783E-05  0.1788758E+04  0.7818609E-02  0.8712301E-01
       -1   -1    0    0    0  501  0.00000000000E+00  0.00000000000E+00  0.63803313008E+03  0.63803313010E+03  0.50400001928E-02 0.  1.
        1   -1    0    0  501    0  0.00000000000E+00  0.00000000000E+00 -0.12537182789E+04  0.12537182789E+04  0.50400001928E-02 0. -1.
    10030    2    1    2    0    0  0.00000000000E+00  0.00000000000E+00 -0.61568514879E+03  0.18917514090E+04  0.17887580023E+04 0.  0.
        1    1    3    3  502    0  0.62213629597E+03 -0.63570402934E+03 -0.40671688035E+03  0.97805511320E+03  0.50400001928E-02 0. -1.
       -1    1    3    3    0  502 -0.62213629597E+03  0.63570402934E+03 -0.20896826844E+03  0.91369629578E+03  0.50400001928E-02 0.  1.
</event>
<event>
 5   0  0.8254914E-05  0.1844573E+04  0.7818609E-02  0.8682949E-01
       -1   -1    0    0    0  501  0.00000000000E+00  0.00000000000E+00  0.39677942362E+03  0.39677942365E+03  0.50400001928E-02 0.  1.
        1   -1    0    0  501    0  0.00000000000E+00  0.00000000000E+00 -0.21437923650E+04  0.21437923650E+04  0.50400001928E-02 0. -1.
    10030    2    1    2    0    0  0.00000000000E+00  0.00000000000E+00 -0.17470129414E+04  0.25405717887E+04  0.18445733371E+04 0.  0.
        4    1    3    3  502    0  0.68294765053E+03 -0.41724020048E+03 -0.15048313722E+04  0.17044136675E+04  0.12699999809E+01 0. -1.
       -4    1    3    3    0  502 -0.68294765053E+03  0.41724020048E+03 -0.24218156919E+03  0.83615812118E+03  0.12699999809E+01 0.  1.
</event>
<event>
 5   0  0.1628397E-04  0.1818400E+04  0.7818609E-02  0.8696575E-01
        2   -1    0    0  501    0  0.00000000000E+00  0.00000000000E+00  0.13837935344E+04  0.13837935344E+04  0.25500000920E-02 0.  1.
       -2   -1    0    0    0  501  0.00000000000E+00  0.00000000000E+00 -0.59737573103E+03  0.59737573104E+03  0.25500000920E-02 0. -1.
    10030    2    1    2    0    0  0.00000000000E+00  0.00000000000E+00  0.78641780338E+03  0.19811692654E+04  0.18184000376E+04 0.  0.
        3    1    3    3  502    0 -0.22737384011E+03  0.32957336521E+03 -0.49614767407E+03  0.63755783339E+03  0.10100000352E+00 0. -1.
       -3    1    3    3    0  502  0.22737384011E+03 -0.32957336521E+03  0.12825654774E+04  0.13436114321E+04  0.10100000352E+00 0.  1.
</event>
<event>
 5   0  0.8430513E-05  0.1806251E+04  0.7818609E-02  0.8702982E-01
        1   -1    0    0  501    0  0.00000000000E+00  0.00000000000E+00  0.15750401682E+04  0.15750401683E+04  0.50400001928E-02 0.  1.
       -1   -1    0    0    0  501  0.00000000000E+00  0.00000000000E+00 -0.51785091189E+03  0.51785091191E+03  0.50400001928E-02 0. -1.
    10030    2    1    2    0    0  0.00000000000E+00  0.00000000000E+00  0.10571892564E+04  0.20928910802E+04  0.18062513529E+04 0.  0.
        5    1    3    3  502    0 -0.60125629689E+03  0.66543617222E+03  0.65176247658E+03  0.11086617382E+04  0.46999998093E+01 0.  1.
       -5    1    3    3    0  502  0.60125629689E+03 -0.66543617222E+03  0.40542677978E+03  0.98422934198E+03  0.46999998093E+01 0. -1.
</event>
<event>
 5   0  0.1628397E-04  0.1771855E+04  0.7818609E-02  0.8721412E-01
        2   -1    0    0  501    0  0.00000000000E+00  0.00000000000E+00  0.84435642899E+03  0.84435642900E+03  0.25500000920E-02 0.  1.
       -2   -1    0    0    0  501  0.00000000000E+00  0.00000000000E+00 -0.92954495850E+03  0.92954495850E+03  0.25500000920E-02 0. -1.
    10030    2    1    2    0    0  0.00000000000E+00  0.00000000000E+00 -0.85188529505E+02  0.17739013875E+04  0.17718546913E+04 0.  0.
        3    1    3    3  502    0 -0.51676260676E+03  0.32541663705E+03  0.59996302419E+03  0.85609299729E+03  0.10100000352E+00 0.  1.
       -3    1    3    3    0  502  0.51676260676E+03 -0.32541663705E+03 -0.68515155369E+03  0.91780839021E+03  0.10100000352E+00 0. -1.
</event>
<event>
 5   0  0.8254914E-05  0.1804475E+04  0.7818609E-02  0.8703923E-01
        1   -1    0    0  501    0  0.00000000000E+00  0.00000000000E+00  0.18367973196E+04  0.18367973196E+04  0.50400001928E-02 0.  1.
       -1   -1    0    0    0  501  0.00000000000E+00  0.00000000000E+00 -0.44318030050E+03  0.44318030053E+03  0.50400001928E-02 0. -1.
    10030    2    1    2    0    0  0.00000000000E+00  0.00000000000E+00  0.13936170191E+04  0.22799776202E+04  0.18044748689E+04 0.  0.
        4    1    3    3  502    0  0.59791928140E+03 -0.45160277504E+02 -0.15499412170E+03  0.61933166268E+03  0.12699999809E+01 0. -1.
       -4    1    3    3    0  502 -0.59791928140E+03  0.45160277504E+02  0.15486111408E+04  0.16606459575E+04  0.12699999809E+01 0.  1.
</event>
<event>
 5   0  0.8430513E-05  0.1670940E+04  0.7818609E-02  0.8778114E-01
        1   -1    0    0  501    0  0.00000000000E+00  0.00000000000E+00  0.22912599202E+04  0.22912599202E+04  0.50400001928E-02 0.  1.
       -1   -1    0    0    0  501  0.00000000000E+00  0.00000000000E+00 -0.30464022517E+03  0.30464022521E+03  0.50400001928E-02 0. -1.
    10030    2    1    2    0    0  0.00000000000E+00  0.00000000000E+00  0.19866196950E+04  0.25959001454E+04  0.16709397811E+04 0.  0.
        5    1    3    3  502    0  0.40413130941E+02  0.81938545309E+03  0.12387625381E+04  0.14857928717E+04  0.46999998093E+01 0.  1.
       -5    1    3    3    0  502 -0.40413130941E+02 -0.81938545309E+03  0.74785715689E+03  0.11101072736E+04  0.46999998093E+01 0. -1.
</event>
<event>
 5   0  0.1603564E-04  0.1796637E+04  0.7818609E-02  0.8708090E-01
       -2   -1    0    0    0  501  0.00000000000E+00  0.00000000000E+00  0.36380677733E+03  0.36380677734E+03  0.25500000920E-02 0. -1.
        2   -1    0    0  501    0  0.00000000000E+00  0.00000000000E+00 -0.22181436792E+04  0.22181436792E+04  0.25500000920E-02 0.  1.
    10030    2    1    2    0    0  0.00000000000E+00  0.00000000000E+00 -0.18543369018E+04  0.25819504565E+04  0.17966365282E+04 0.  0.
        5    1    3    3  502    0 -0.28804592922E+03 -0.29748921777E+03 -0.20727862639E+04  0.21137491047E+04  0.46999998093E+01 0.  1.
       -5    1    3    3    0  502  0.28804592922E+03  0.29748921777E+03  0.21844936204E+03  0.46820135177E+03  0.46999998093E+01 0. -1.
</event>
<event>
 5   0  0.8206783E-05  0.1793777E+04  0.7818609E-02  0.8709616E-01
        1   -1    0    0  501    0  0.00000000000E+00  0.00000000000E+00  0.12037056921E+04  0.12037056921E+04  0.50400001928E-02 0.  1.
       -1   -1    0    0    0  501  0.00000000000E+00  0.00000000000E+00 -0.66827748244E+03  0.66827748246E+03  0.50400001928E-02 0. -1.
    10030    2    1    2    0    0  0.00000000000E+00  0.00000000000E+00  0.53542820966E+03  0.18719831746E+04  0.17937774773E+04 0.  0.
        1    1    3    3  502    0  0.58156351696E+03  0.18732392344E+03 -0.41749624375E+03  0.74000641222E+03  0.50400001928E-02 0. -1.
       -1    1    3    3    0  502 -0.58156351696E+03 -0.18732392344E+03  0.95292445341E+03  0.11319767623E+04  0.50400001928E-02 0.  1.
</event>
<event>
 5   0  0.1603564E-04  0.1599899E+04  0.7818609E-02  0.8820610E-01
       -2   -1    0    0    0  501  0.00000000000E+00  0.00000000000E+00  0.12451173476E+04  0.12451173476E+04  0.25500000920E-02 0. -1.
        2   -1    0    0  501    0  0.00000000000E+00  0.00000000000E+00 -0.51394305446E+03  0.51394305447E+03  0.25500000920E-02 0.  1.
    10030    2    1    2    0    0  0.00000000000E+00  0.00000000000E+00  0.73117429312E+03  0.17590604021E+04  0.15998992628E+04 0.  0.
        5    1    3    3  502    0  0.77356595224E+03  0.20343894449E+03  0.35428672938E+03  0.87483304877E+03  0.46999998093E+01 0.  1.
       -5    1    3    3    0  502 -0.77356595224E+03 -0.20343894449E+03  0.37688756374E+03  0.88422735329E+03  0.46999998093E+01 0. -1.
</event>
<event>
 5   0  0.8492114E-05  0.1797574E+04  0.7818609E-02  0.8707590E-01
        1   -1    0    0  501    0  0.00000000000E+00  0.00000000000E+00  0.87109417042E+03  0.87109417044E+03  0.50400001928E-02 0. -1.
       -1   -1    0    0    0  501  0.00000000000E+00  0.00000000000E+00 -0.92736066058E+03  0.92736066059E+03  0.50400001928E-02 0.  1.
    10030    2    1    2    0    0  0.00000000000E+00  0.00000000000E+00 -0.56266490153E+02  0.17984548310E+04  0.17975744383E+04 0.  0.
        2    1    3    3  502    0  0.32155351912E+03  0.66194586050E+03  0.48811315126E+03  0.88307612148E+03  0.25500000920E-02 0. -1.
       -2    1    3    3    0  502 -0.32155351912E+03 -0.66194586050E+03 -0.54437964141E+03  0.91537870954E+03  0.25500000920E-02 0.  1.
</event>
<event>
 5   0  0.8132598E-05  0.1781210E+04  0.7818609E-02  0.8716356E-01
        1   -1    0    0  501    0  0.00000000000E+00  0.00000000000E+00  0.97704689350E+03  0.97704689351E+03  0.50400001928E-02 0. -1.
       -1   -1    0    0    0  501  0.00000000000E+00  0.00000000000E+00 -0.81181057358E+03  0.81181057360E+03  0.50400001928E-02 0.  1.
    10030    2    1    2    0    0  0.00000000000E+00  0.00000000000E+00  0.16523631992E+03  0.17888574671E+04  0.17812097002E+04 0.  0.
        3    1    3    3  502    0 -0.14772277704E+03 -0.80920956987E+02 -0.79566902903E+03  0.81330156406E+03  0.10100000352E+00 0.  1.
       -3    1    3    3    0  502  0.14772277704E+03  0.80920956987E+02  0.96090534895E+03  0.97555590305E+03  0.10100000352E+00 0. -1.
</event>
<event>
 5   0  0.8430513E-05  0.1798588E+04  0.7818609E-02  0.8707051E-01
       -1   -1    0    0    0  501  0.00000000000E+00  0.00000000000E+00  0.10654264498E+04  0.10654264498E+04  0.50400001928E-02 0. -1.
        1   -1    0    0  501    0  0.00000000000E+00  0.00000000000E+00 -0.75906683263E+03  0.75906683265E+03  0.50400001928E-02 0.  1.
    10030    2    1    2    0    0  0.00000000000E+00  0.00000000000E+00  0.30635961717E+03  0.18244932825E+04  0.17985882026E+04 0.  0.
        5    1    3    3  502    0 -0.34935330642E+03  0.14454610437E+03 -0.67451740192E+03  0.77326394232E+03  0.46999998093E+01 0.  1.
       -5    1    3    3    0  502  0.34935330642E+03 -0.14454610437E+03  0.98087701909E+03  0.10512293401E+04  0.46999998093E+01 0. -1.
</event>
<event>
 5   0  0.1608627E-04  0.1796844E+04  0.7818609E-02  0.8707980E-01
        2   -1    0    0  501    0  0.00000000000E+00  0.00000000000E+00  0.10582435225E+04  0.10582435225E+04  0.25500000920E-02 0. -1.
       -2   -1    0    0    0  501  0.00000000000E+00  0.00000000000E+00 -0.76273721470E+03  0.76273721470E+03  0.25500000920E-02 0.  1.
    10030    2    1    2    0    0  0.00000000000E+00  0.00000000000E+00  0.29550630775E+03  0.18209807372E+04  0.17968435845E+04 0.  0.
        2    1    3    3  502    0  0.24448851937E+03  0.71138041749E+03  0.64560052694E+03  0.99128037148E+03  0.25500000920E-02 0. -1.
       -2    1    3    3    0  502 -0.24448851937E+03 -0.71138041749E+03 -0.35009421919E+03  0.82970036568E+03  0.25500000920E-02 0.  1.
</event>
<event>
 5   0  0.1573981E-04  0.1799481E+04  0.7818609E-02  0.8706575E-01
       -2   -1    0    0    0  501  0.00000000000E+00  0.00000000000E+00  0.73682118283E+03  0.73682118283E+03  0.25500000920E-02 0.  1.
        2   -1    0    0  501    0  0.00000000000E+00  0.00000000000E+00 -0.10986834965E+04  0.10986834965E+04  0.25500000920E-02 0. -1.
    10030    2    1    2    0    0  0.00000000000E+00  0.00000000000E+00 -0.36186231371E+03  0.18355046794E+04  0.17994813403E+04 0.  0.
        1    1    3    3  502    0 -0.49549593497E+03 -0.19814234651E+03 -0.91983364505E+03  0.10634239727E+04  0.50400001928E-02 0. -1.
       -1    1    3    3    0  502  0.49549593497E+03  0.19814234651E+03  0.55797133133E+03  0.77208070671E+03  0.50400001928E-02 0.  1.
</event>
<event>
 5   0  0.8206783E-05  0.1809636E+04  0.7818609E-02  0.8701192E-01
       -1   -1    0    0    0  501  0.00000000000E+00  0.00000000000E+00  0.74188757343E+03  0.74188757345E+03  0.50400001928E-02 0. -1.
        1   -1    0    0  501    0  0.00000000000E+00  0.00000000000E+00 -0.11035300756E+04  0.11035300756E+04  0.50400001928E-02 0.  1.
    10030    2    1    2    0    0  0.00000000000E+00  0.00000000000E+00 -0.36164250219E+03  0.18454176491E+04  0.18096355987E+04 0.  0.
        1    1    3    3  502    0 -0.41246211154E+03  0.54054232036E+03  0.42796213799E+03  0.80340686152E+03  0.50400001928E-02 0. -1.
       -1    1    3    3    0  502  0.41246211154E+03 -0.54054232036E+03 -0.78960464018E+03  0.10420107876E+04  0.50400001928E-02 0.  1.
</event>
<event>
 5   0  0.8132598E-05  0.1797101E+04  0.7818609E-02  0.8707843E-01
       -1   -1    0    0    0  501  0.00000000000E+00  0.00000000000E+00  0.47717010348E+03  0.47717010351E+03  0.50400001928E-02 0.  1.
        1   -1    0    0  501    0  0.00000000000E+00  0.00000000000E+00 -0.16920435171E+04  0.16920435171E+04  0.50400001928E-02 0. -1.
    10030    2    1    2    0    0  0.00000000000E+00  0.00000000000E+00 -0.12148734136E+04  0.21692136206E+04  0.17971005316E+04 0.  0.
        3    1    3    3  502    0 -0.37631371353E+03  0.81347437497E+03 -0.53071457774E+03  0.10416383936E+04  0.10100000352E+00 0. -1.
       -3    1    3    3    0  502  0.37631371353E+03 -0.81347437497E+03 -0.68415883586E+03  0.11275752270E+04  0.10100000352E+00 0.  1.
</event>
<event>
 5   0  0.8132598E-05  0.1795858E+04  0.7818609E-02  0.8708505E-01
        1   -1    0    0  501    0  0.00000000000E+00  0.00000000000E+00  0.10249572355E+04  0.10249572356E+04  0.50400001928E-02 0.  1.
       -1   -1    0    0    0  501  0.00000000000E+00  0.00000000000E+00 -0.78664432008E+03  0.78664432010E+03  0.50400001928E-02 0. -1.
    10030    2    1    2    0    0  0.00000000000E+00  0.00000000000E+00  0.23831291546E+03  0.18116015557E+04  0.17958583326E+04 0.  0.
        3    1    3    3  502    0  0.42872861628E+03  0.76804261296E+03  0.30123556859E+03  0.92975295629E+03  0.10100000352E+00 0.  1.
       -3    1    3    3    0  502 -0.42872861628E+03 -0.76804261296E+03 -0.62922653127E+02  0.88184859937E+03  0.10100000352E+00 0. -1.
</event>
<event>
 5   0  0.8492114E-05  0.1807359E+04  0.7818609E-02  0.8702396E-01
       -1   -1    0    0    0  501  0.00000000000E+00  0.00000000000E+00  0.55488109700E+03  0.55488109702E+03  0.50400001928E-02 0.  1.
        1   -1    0    0  501    0  0.00000000000E+00  0.00000000000E+00 -0.14717321390E+04  0.14717321391E+04  0.50400001928E-02 0. -1.
    10030    2    1    2    0    0  0.00000000000E+00  0.00000000000E+00 -0.91685104204E+03  0.20266132361E+04  0.18073586737E+04 0.  0.
        2    1    3    3  502    0 -0.50838124093E+02  0.27483243843E+03 -0.14220489525E+04  0.14492551905E+04  0.25500000920E-02 0. -1.
       -2    1    3    3    0  502  0.50838124093E+02 -0.27483243843E+03  0.50519791041E+03  0.57735804556E+03  0.25500000920E-02 0.  1.
</event>
<event>
 5   0  0.1573981E-04  0.1800573E+04  0.7818609E-02  0.8705995E-01
       -2   -1    0    0    0  501  0.00000000000E+00  0.00000000000E+00  0.57569140492E+03  0.57569140492E+03  0.25500000920E-02 0. -1.
        2   -1    0    0  501    0  0.00000000000E+00  0.00000000000E+00 -0.14078993030E+04  0.14078993030E+04  0.25500000920E-02 0.  1.
    10030    2    1    2    0    0  0.00000000000E+00  0.00000000000E+00 -0.83220789812E+03  0.19835907080E+04  0.18005727175E+04 0.  0.
        1    1    3    3  502    0 -0.35116424654E+03 -0.34312772956E+03 -0.12474349735E+04  0.13405771070E+04  0.50400001928E-02 0.  1.
       -1    1    3    3    0  502  0.35116424654E+03  0.34312772956E+03  0.41522707535E+03  0.64301360092E+03  0.50400001928E-02 0. -1.
</event>
<event>
 5   0  0.1628397E-04  0.1797679E+04  0.7818609E-02  0.8707535E-01
        2   -1    0    0  501    0  0.00000000000E+00  0.00000000000E+00  0.20827934747E+04  0.20827934747E+04  0.25500000920E-02 0.  1.
       -2   -1    0    0    0  501  0.00000000000E+00  0.00000000000E+00 -0.38789836897E+03  0.38789836897E+03  0.25500000920E-02 0. -1.
    10030    2    1    2    0    0  0.00000000000E+00  0.00000000000E+00  0.16948951058E+04  0.24706918437E+04  0.17976787163E+04 0.  0.
        3    1    3    3  502    0  0.31068847135E+03  0.29258800424E+03  0.19346648253E+04  0.19811771912E+04  0.10100000352E+00 0.  1.
       -3    1    3    3    0  502 -0.31068847135E+03 -0.29258800424E+03 -0.23976971951E+03  0.48951465254E+03  0.10100000352E+00 0. -1.
</event>
<event>
 5   0  0.8132598E-05  0.1795459E+04  0.7818609E-02  0.8708718E-01
       -1   -1    0    0    0  501  0.00000000000E+00  0.00000000000E+00  0.59588331946E+03  0.59588331948E+03  0.50400001928E-02 0. -1.
        1   -1    0    0  501    0  0.00000000000E+00  0.00000000000E+00 -0.13524770282E+04  0.13524770282E+04  0.50400001928E-02 0.  1.
    10030    2    1    2    0    0  0.00000000000E+00  0.00000000000E+00 -0.75659370871E+03  0.19483603477E+04  0.17954592739E+04 0.  0.
        3    1    3    3  502    0  0.29702360086E+03  0.53426521982E+03  0.33515441087E+03  0.69713042819E+03  0.10100000352E+00 0. -1.
       -3    1    3    3    0  502 -0.29702360086E+03 -0.53426521982E+03 -0.10917481196E+04  0.12512299195E+04  0.10100000352E+00 0.  1.
</event>
<event>
 5   0  0.1549012E-04  0.1795775E+04  0.7818609E-02  0.8708549E-01
        2   -1    0    0  501    0  0.00000000000E+00  0.00000000000E+00  0.13310972403E+04  0.13310972403E+04  0.25500000920E-02 0.  1.
       -2   -1    0    0    0  501  0.00000000000E+00  0.00000000000E+00 -0.60566728178E+03  0.60566728178E+03  0.25500000920E-02 0. -1.
    10030    2    1    2    0    0  0.00000000000E+00  0.00000000000E+00  0.72542995854E+03  0.19367645221E+04  0.17957750943E+04 0.  0.
        4    1    3    3  502    0 -0.28188771266E+03  0.80973182910E+03  0.65024329010E+03  0.10760781881E+04  0.12699999809E+01 0.  1.
       -4    1    3    3    0  502  0.28188771266E+03 -0.80973182910E+03  0.75186668443E+02  0.86068633404E+03  0.12699999809E+01 0. -1.
</event>
<event>
 5   0  0.8132598E-05  0.1802662E+04  0.7818609E-02  0.8704885E-01
       -1   -1    0    0    0  501  0.00000000000E+00  0.00000000000E+00  0.42558899554E+03  0.42558899557E+03  0.50400001928E-02 0.  1.
        1   -1    0    0  501    0  0.00000000000E+00  0.00000000000E+00 -0.19088778608E+04  0.19088778608E+04  0.50400001928E-02 0. -1.
    10030    2    1    2    0    0  0.00000000000E+00  0.00000000000E+00 -0.14832888653E+04  0.23344668564E+04  0.18026618224E+04 0.  0.
        3    1    3    3  502    0 -0.27841150335E+02  0.54064976894E+03 -0.16748794298E+04  0.17601984027E+04  0.10100000352E+00 0. -1.
       -3    1    3    3    0  502  0.27841150335E+02 -0.54064976894E+03  0.19159056452E+03  0.57426845370E+03  0.10100000352E+00 0.  1.
</event>
<event>
 5   0  0.8132598E-05  0.1794231E+04  0.7818609E-02  0.8709373E-01
       -1   -1    0    0    0  501  0.00000000000E+00  0.00000000000E+00  0.41394497906E+03  0.41394497909E+03  0.50400001928E-02 0.  1.
        1   -1    0    0  501    0  0.00000000000E+00  0.00000000000E+00 -0.19442594386E+04  0.19442594386E+04  0.50400001928E-02 0. -1.
    10030    2    1    2    0    0  0.00000000000E+00  0.00000000000E+00 -0.15303144595E+04  0.23582044177E+04  0.17942312366E+04 0.  0.
        3    1    3    3  502    0 -0.54459030193E+03 -0.21169549891E+03 -0.16598867225E+04  0.17597208651E+04  0.10100000352E+00 0. -1.
       -3    1    3    3    0  502  0.54459030193E+03  0.21169549891E+03  0.12957226297E+03  0.59848355261E+03  0.10100000352E+00 0.  1.
</event>
<event>
 5   0  0.1628397E-04  0.1796496E+04  0.7818609E-02  0.8708165E-01
        2   -1    0    0  501    0  0.00000000000E+00  0.00000000000E+00  0.61077469671E+03  0.61077469672E+03  0.25500000920E-02 0.  1.
       -2   -1    0    0    0  501  0.00000000000E+00  0.00000000000E+00 -0.13210264453E+04  0.13210264453E+04  0.25500000920E-02 0. -1.
    10030    2    1    2    0    0  0.00000000000E+00  0.00000000000E+00 -0.71025174856E+03  0.19318011420E+04  0.17964960634E+04 0.  0.
        3    1    3    3  502    0 -0.43984054570E+03  0.66913761807E+03 -0.79277379229E+03  0.11268075051E+04  0.10100000352E+00 0. -1.
       -3    1    3    3    0  502  0.43984054570E+03 -0.66913761807E+03  0.82522043731E+02  0.80499363691E+03  0.10100000352E+00 0.  1.
</event>
<event>
 5   0  0.8254914E-05  0.1797132E+04  0.7818609E-02  0.8707826E-01
        1   -1    0    0  501    0  0.00000000000E+00  0.00000000000E+00  0.11779952232E+04  0.11779952232E+04  0.50400001928E-02 0.  1.
       -1   -1    0    0    0  501  0.00000000000E+00  0.00000000000E+00 -0.68541983169E+03  0.68541983171E+03  0.50400001928E-02 0. -1.
    10030    2    1    2    0    0  0.00000000000E+00  0.00000000000E+00  0.49257539151E+03  0.18634150549E+04  0.17971324800E+04 0.  0.
        4    1    3    3  502    0 -0.41926753165E+02 -0.49343110598E+03  0.10237335007E+04  0.11372176583E+04  0.12699999809E+01 0.  1.
       -4    1    3    3    0  502  0.41926753165E+02  0.49343110598E+03 -0.53115810920E+03  0.72619739662E+03  0.12699999809E+01 0. -1.
</event>
<event>
 5   0  0.8132598E-05  0.1829650E+04  0.7818609E-02  0.8690689E-01
       -1   -1    0    0    0  501  0.00000000000E+00  0.00000000000E+00  0.86294962359E+03  0.86294962360E+03  0.50400001928E-02 0.  1.
        1   -1    0    0  501    0  0.00000000000E+00  0.00000000000E+00 -0.96981840515E+03  0.96981840517E+03  0.50400001928E-02 0. -1.
    10030    2    1    2    0    0  0.00000000000E+00  0.00000000000E+00 -0.10686878156E+03  0.18327680288E+04  0.18296496142E+04 0.  0.
        3    1    3    3  502    0  0.31754350125E+03  0.48462416486E+01 -0.91282847921E+03  0.96649532016E+03  0.10100000352E+00 0. -1.
       -3    1    3    3    0  502 -0.31754350125E+03 -0.48462416486E+01  0.80595969765E+03  0.86627270861E+03  0.10100000352E+00 0.  1.
</event>
<event>
 5   0  0.1608627E-04  0.1762432E+04  0.7818609E-02  0.8726537E-01
       -2   -1    0    0    0  501  0.00000000000E+00  0.00000000000E+00  0.99125910179E+03  0.99125910179E+03  0.25500000920E-02 0.  1.
        2   -1    0    0  501    0  0.00000000000E+00  0.00000000000E+00 -0.78338957819E+03  0.78338957819E+03  0.25500000920E-02 0. -1.
    10030    2    1    2    0    0  0.00000000000E+00  0.00000000000E+00  0.20786952360E+03  0.17746486800E+04  0.17624324664E+04 0.  0.
        2    1    3    3  502    0  0.31246655181E+01 -0.69348749587E+03 -0.44353172806E+03  0.82319807110E+03  0.25500000920E-02 0. -1.
       -2    1    3    3    0  502 -0.31246655181E+01  0.69348749587E+03  0.65140125167E+03  0.95145060888E+03  0.25500000920E-02 0.  1.
</event>
<event>
 5   0  0.8254914E-05  0.1804299E+04  0.7818609E-02  0.8704017E-01
       -1   -1    0    0    0  501  0.00000000000E+00  0.00000000000E+00  0.37361260294E+03  0.37361260298E+03  0.50400001928E-02 0. -1.
        1   -1    0    0  501    0  0.00000000000E+00  0.00000000000E+00 -0.21783885032E+04  0.21783885032E+04  0.50400001928E-02 0.  1.
    10030    2    1    2    0    0  0.00000000000E+00  0.00000000000E+00 -0.18047759002E+04  0.25520011061E+04  0.18042986437E+04 0.  0.
        4    1    3    3  502    0  0.80827494878E+03  0.12917849875E+03 -0.36589122032E+03  0.89658991483E+03  0.12699999809E+01 0.  1.
       -4    1    3    3    0  502 -0.80827494878E+03 -0.12917849875E+03 -0.14388846799E+04  0.16554111913E+04  0.12699999809E+01 0. -1.
</event>
<event>
 5   0  0.1573981E-04  0.1807768E+04  0.7818609E-02  0.8702180E-01
        2   -1    0    0  501    0  0.00000000000E+00  0.00000000000E+00  0.12691820705E+04  0.12691820705E+04  0.25500000920E-02 0. -1.
       -2   -1    0    0    0  501  0.00000000000E+00  0.00000000000E+00 -0.64372629223E+03  0.64372629223E+03  0.25500000920E-02 0.  1.
    10030    2    1    2    0    0  0.00000000000E+00  0.00000000000E+00  0.62545577826E+03  0.19129083627E+04  0.18077675386E+04 0.  0.
        1    1    3    3  502    0  0.49729611744E+03  0.75044147272E+03  0.22715392499E+03  0.92847441433E+03  0.50400001928E-02 0. -1.
       -1    1    3    3    0  502 -0.49729611744E+03 -0.75044147272E+03  0.39830185327E+03  0.98443394839E+03  0.50400001928E-02 0.  1.
</event>
<event>
 5   0  0.8492114E-05  0.1812883E+04  0.7818609E-02  0.8699478E-01
       -1   -1    0    0    0  501  0.00000000000E+00  0.00000000000E+00  0.66779270385E+03  0.66779270387E+03  0.50400001928E-02 0. -1.
        1   -1    0    0  501    0  0.00000000000E+00  0.00000000000E+00 -0.12303767780E+04  0.12303767781E+04  0.50400001928E-02 0.  1.
    10030    2    1    2    0    0  0.00000000000E+00  0.00000000000E+00 -0.56258407419E+03  0.18981694819E+04  0.18128834881E+04 0.  0.
        2    1    3    3  502    0 -0.46593388946E+03 -0.77328478088E+03 -0.19640460468E+03  0.92392559789E+03  0.25500000920E-02 0. -1.
       -2    1    3    3    0  502  0.46593388946E+03  0.77328478088E+03 -0.36617946951E+03  0.97424388404E+03  0.25500000920E-02 0.  1.
</event>
<event>
 5   0  0.8254914E-05  0.1800856E+04  0.7818609E-02  0.8705845E-01
       -1   -1    0    0    0  501  0.00000000000E+00  0.00000000000E+00  0.85909986965E+03  0.85909986966E+03  0.50400001928E-02 0. -1.
        1   -1    0    0  501    0  0.00000000000E+00  0.00000000000E+00 -0.94374387938E+03  0.94374387940E+03  0.50400001928E-02 0.  1.
    10030    2    1    2    0    0  0.00000000000E+00  0.00000000000E+00 -0.84644009735E+02  0.18028437491E+04  0.18008556231E+04 0.  0.
        4    1    3    3  502    0  0.58904070538E+03 -0.30611841870E+03  0.56670081637E+03  0.87282808561E+03  0.12699999809E+01 0. -1.
       -4    1    3    3    0  502 -0.58904070538E+03  0.30611841870E+03 -0.65134482610E+03  0.93001566344E+03  0.12699999809E+01 0.  1.
</event>
<event>
 5   0  0.1628397E-04  0.1806298E+04  0.7818609E-02  0.8702957E-01
       -2   -1    0    0    0  501  0.00000000000E+00  0.00000000000E+00  0.47197936106E+03  0.47197936106E+03  0.25500000920E-02 0. -1.
        2   -1    0    0  501    0  0.00000000000E+00  0.00000000000E+00 -0.17282074952E+04  0.17282074953E+04  0.25500000920E-02 0.  1.
    10030    2    1    2    0    0  0.00000000000E+00  0.00000000000E+00 -0.12562281342E+04  0.22001868563E+04  0.18062981696E+04 0.  0.
        3    1    3    3  502    0 -0.31473317996E+03  0.79917523320E+03 -0.28805765437E+03  0.90593335868E+03  0.10100000352E+00 0. -1.
       -3    1    3    3    0  502  0.31473317996E+03 -0.79917523320E+03 -0.96817047982E+03  0.12942534976E+04  0.10100000352E+00 0.  1.
</event>
<event>
 5   0  0.8132598E-05  0.1803056E+04  0.7818609E-02  0.8704676E-01
        1   -1    0    0  501    0  0.00000000000E+00  0.00000000000E+00  0.86105779050E+03  0.86105779051E+03  0.50400001928E-02 0. -1.
       -1   -1    0    0    0  501  0.00000000000E+00  0.00000000000E+00 -0.94390025464E+03  0.94390025465E+03  0.50400001928E-02 0.  1.
    10030    2    1    2    0    0  0.00000000000E+00  0.00000000000E+00 -0.82842464139E+02  0.18049580452E+04  0.18030559256E+04 0.  0.
        3    1    3    3  502    0 -0.16918004801E+02  0.70025391282E+03 -0.60956810689E+03  0.92855535562E+03  0.10100000352E+00 0.  1.
       -3    1    3    3    0  502  0.16918004801E+02 -0.70025391282E+03  0.52672564275E+03  0.87640268954E+03  0.10100000352E+00 0. -1.
</event>
<event>
 5   0  0.1608627E-04  0.1805299E+04  0.7818609E-02  0.8703487E-01
       -2   -1    0    0    0  501  0.00000000000E+00  0.00000000000E+00  0.68737669171E+03  0.68737669172E+03  0.25500000920E-02 0.  1.
        2   -1    0    0  501    0  0.00000000000E+00  0.00000000000E+00 -0.11853410088E+04  0.11853410088E+04  0.25500000920E-02 0. -1.
    10030    2    1    2    0    0  0.00000000000E+00  0.00000000000E+00 -0.49796431709E+03  0.18727177005E+04  0.18052986248E+04 0.  0.
        2    1    3    3  502    0  0.84813576753E+03 -0.19196088273E+03  0.21164779493E+01  0.86959055891E+03  0.25500000920E-02 0.  1.
       -2    1    3    3    0  502 -0.84813576753E+03  0.19196088273E+03 -0.50008079503E+03  0.10031271416E+04  0.25500000920E-02 0. -1.
</event>
<event>
 5   0  0.1628397E-04  0.1795698E+04  0.7818609E-02  0.8708591E-01
        2   -1    0    0  501    0  0.00000000000E+00  0.00000000000E+00  0.18280761625E+04  0.18280761625E+04  0.25500000920E-02 0. -1.
       -2   -1    0    0    0  501  0.00000000000E+00  0.00000000000E+00 -0.44097338635E+03  0.44097338636E+03  0.25500000920E-02 0.  1.
    10030    2    1    2    0    0  0.00000000000E+00  0.00000000000E+00  0.13871027761E+04  0.22690495489E+04  0.17956981215E+04 0.  0.
        3    1    3    3  502    0 -0.68153838487E+03 -0.24244823324E+02  0.14314896427E+04  0.15856370924E+04  0.10100000352E+00 0. -1.
       -3    1    3    3    0  502  0.68153838487E+03  0.24244823324E+02 -0.44386866540E+02  0.68341245645E+03  0.10100000352E+00 0.  1.
</event>
<event>
 5   0  0.1608627E-04  0.1790319E+04  0.7818609E-02  0.8711465E-01
       -2   -1    0    0    0  501  0.00000000000E+00  0.00000000000E+00  0.96430903358E+03  0.96430903358E+03  0.25500000920E-02 0. -1.
        2   -1    0    0  501    0  0.00000000000E+00  0.00000000000E+00 -0.83096823029E+03  0.83096823030E+03  0.25500000920E-02 0.  1.
    10030    2    1    2    0    0  0.00000000000E+00  0.00000000000E+00  0.13334080329E+03  0.17952772639E+04  0.17903185986E+04 0.  0.
        2    1    3    3  502    0 -0.27170813630E+02 -0.41407753968E+03  0.86203286655E+03  0.95671266585E+03  0.25500000920E-02 0. -1.
       -2    1    3    3    0  502  0.27170813630E+02  0.41407753968E+03 -0.72869206327E+03  0.83856459802E+03  0.25500000920E-02 0.  1.
</event>
<event>
 5   0  0.1608627E-04  0.1791302E+04  0.7818609E-02  0.8710939E-01
       -2   -1    0    0    0  501  0.00000000000E+00  0.00000000000E+00  0.68593172798E+03  0.68593172798E+03  0.25500000920E-02 0. -1.
        2   -1    0    0  501    0  0.00000000000E+00  0.00000000000E+00 -0.11694908314E+04  0.11694908314E+04  0.25500000920E-02 0.  1.
    10030    2    1    2    0    0  0.00000000000E+00  0.00000000000E+00 -0.48355910345E+03  0.18554225594E+04  0.17913021709E+04 0.  0.
        2    1    3    3  502    0  0.48746682568E+03 -0.48798544035E+02  0.53484991312E+03  0.72530657905E+03  0.25500000920E-02 0.  1.
       -2    1    3    3    0  502 -0.48746682568E+03  0.48798544035E+02 -0.10184090166E+04  0.11301159804E+04  0.25500000920E-02 0. -1.
</event>
<event>
 5   0  0.8430513E-05  0.1784925E+04  0.7818609E-02  0.8714357E-01
       -1   -1    0    0    0  501  0.00000000000E+00  0.00000000000E+00  0.12154760990E+04  0.12154760990E+04  0.50400001928E-02 0.  1.
        1   -1    0    0  501    0  0.00000000000E+00  0.00000000000E+00 -0.65529033248E+03  0.65529033250E+03  0.50400001928E-02 0. -1.
    10030    2    1    2    0    0  0.00000000000E+00  0.00000000000E+00  0.56018576654E+03  0.18707664315E+04  0.17849254742E+04 0.  0.
        5    1    3    3  502    0 -0.10173360650E+03 -0.88339659402E+03  0.20076692680E+03  0.91162970439E+03  0.46999998093E+01 0. -1.
       -5    1    3    3    0  502  0.10173360650E+03  0.88339659402E+03  0.35941883974E+03  0.95913672716E+03  0.46999998093E+01 0.  1.
</event>
<event>
 5   0  0.8206783E-05  0.1788960E+04  0.7818609E-02  0.8712193E-01
       -1   -1    0    0    0  501  0.00000000000E+00  0.00000000000E+00  0.18643691573E+04  0.18643691573E+04  0.50400001928E-02 0. -1.
        1   -1    0    0  501    0  0.00000000000E+00  0.00000000000E+00 -0.42915023397E+03  0.42915023400E+03  0.50400001928E-02 0.  1.
    10030    2    1    2    0    0  0.00000000000E+00  0.00000000000E+00  0.14352189234E+04  0.22935193913E+04  0.17889599885E+04 0.  0.
        1    1    3    3  502    0 -0.67483508822E+03 -0.45213977324E+03  0.11977532576E+04  0.14472199684E+04  0.50400001928E-02 0. -1.
       -1    1    3    3    0  502  0.67483508822E+03  0.45213977324E+03  0.23746566577E+03  0.84629942295E+03  0.50400001928E-02 0.  1.
</event>
<event>
 5   0  0.1608627E-04  0.1803210E+04  0.7818609E-02  0.8704595E-01
        2   -1    0    0  501    0  0.00000000000E+00  0.00000000000E+00  0.26894171167E+04  0.26894171167E+04  0.25500000920E-02 0. -1.
       -2   -1    0    0    0  501  0.00000000000E+00  0.00000000000E+00 -0.30225554146E+03  0.30225554147E+03  0.25500000920E-02 0.  1.
    10030    2    1    2    0    0  0.00000000000E+00  0.00000000000E+00  0.23871615752E+04  0.29916726581E+04  0.18032096127E+04 0.  0.
        2    1    3    3  502    0  0.59942071824E+02  0.64079459659E+03  0.14601734631E+03  0.65994835588E+03  0.25500000920E-02 0.  1.
       -2    1    3    3    0  502 -0.59942071824E+02 -0.64079459659E+03  0.22411442289E+04  0.23317243022E+04  0.25500000920E-02 0. -1.
</event>
<event>
 5   0  0.1608627E-04  0.1796536E+04  0.7818609E-02  0.8708144E-01
        2   -1    0    0  501    0  0.00000000000E+00  0.00000000000E+00  0.99321556256E+03  0.99321556256E+03  0.25500000920E-02 0.  1.
       -2   -1    0    0    0  501  0.00000000000E+00  0.00000000000E+00 -0.81239743357E+03  0.81239743357E+03  0.25500000920E-02 0. -1.
    10030    2    1    2    0    0  0.00000000000E+00  0.00000000000E+00  0.18081812899E+03  0.18056129961E+04  0.17965364166E+04 0.  0.
        2    1    3    3  502    0 -0.31844258777E+03 -0.58490351482E+03 -0.51543655027E+03  0.84213576145E+03  0.25500000920E-02 0. -1.
       -2    1    3    3    0  502  0.31844258777E+03  0.58490351482E+03  0.69625467926E+03  0.96347723468E+03  0.25500000920E-02 0.  1.
</event>
<event>
 5   0  0.1628397E-04  0.1807535E+04  0.7818609E-02  0.8702303E-01
        2   -1    0    0  501    0  0.00000000000E+00  0.00000000000E+00  0.74215223797E+03  0.74215223798E+03  0.25500000920E-02 0. -1.
       -2   -1    0    0    0  501  0.00000000000E+00  0.00000000000E+00 -0.11005767144E+04  0.11005767144E+04  0.25500000920E-02 0.  1.
    10030    2    1    2    0    0  0.00000000000E+00  0.00000000000E+00 -0.35842447641E+03  0.18427289524E+04  0.18075347539E+04 0.  0.
        3    1    3    3  502    0  0.30037174108E+03 -0.47276457572E+03  0.54386927457E+03  0.78071974800E+03  0.10100000352E+00 0. -1.
       -3    1    3    3    0  502 -0.30037174108E+03  0.47276457572E+03 -0.90229375098E+03  0.10620092044E+04  0.10100000352E+00 0.  1.
</event>
<event>
 5   0  0.5820500E-05  0.1795883E+04  0.7818609E-02  0.8708492E-01
        4   -1    0    0  501    0  0.00000000000E+00  0.00000000000E+00  0.12353556875E+04  0.12353563403E+04  0.12699999809E+01 0.  1.
       -4   -1    0    0    0  501  0.00000000000E+00  0.00000000000E+00 -0.65268448182E+03  0.65268571740E+03  0.12699999809E+01 0. -1.
    10030    2    1    2    0    0  0.00000000000E+00  0.00000000000E+00  0.58267120566E+03  0.18880420577E+04  0.17958833697E+04 0.  0.
        5    1    3    3  502    0  0.24784903676E+03  0.47524019587E+03  0.10487176995E+04  0.11777577391E+04  0.46999998093E+01 0.  1.
       -5    1    3    3    0  502 -0.24784903676E+03 -0.47524019587E+03 -0.46604649384E+03  0.71028431858E+03  0.46999998093E+01 0. -1.
</event>
<event>
 5   0  0.8206783E-05  0.1840241E+04  0.7818609E-02  0.8685188E-01
       -1   -1    0    0    0  501  0.00000000000E+00  0.00000000000E+00  0.10768513323E+04  0.10768513323E+04  0.50400001928E-02 0.  1.
        1   -1    0    0  501    0  0.00000000000E+00  0.00000000000E+00 -0.78620147860E+03  0.78620147862E+03  0.50400001928E-02 0. -1.
    10030    2    1    2    0    0  0.00000000000E+00  0.00000000000E+00  0.29064985370E+03  0.18630528109E+04  0.18402414078E+04 0.  0.
        1    1    3    3  502    0  0.42935870823E+02 -0.82286185823E+03 -0.26923478392E+03  0.86685206098E+03  0.50400001928E-02 0. -1.
       -1    1    3    3    0  502 -0.42935870823E+02  0.82286185823E+03  0.55988463762E+03  0.99620074995E+03  0.50400001928E-02 0.  1.
</event>
<event>
 5   0  0.1608627E-04  0.1804447E+04  0.7818609E-02  0.8703938E-01
       -2   -1    0    0    0  501  0.00000000000E+00  0.00000000000E+00  0.67812268809E+03  0.67812268810E+03  0.25500000920E-02 0. -1.
        2   -1    0    0  501    0  0.00000000000E+00  0.00000000000E+00 -0.12003833264E+04  0.12003833264E+04  0.25500000920E-02 0.  1.
    10030    2    1    2    0    0  0.00000000000E+00  0.00000000000E+00 -0.52226063833E+03  0.18785060145E+04  0.18044469159E+04 0.  0.
        2    1    3    3  502    0  0.18831634519E+03 -0.76433924901E+03 -0.72005138828E+03  0.10668418511E+04  0.25500000920E-02 0.  1.
       -2    1    3    3    0  502 -0.18831634519E+03  0.76433924901E+03  0.19779074995E+03  0.81166416344E+03  0.25500000920E-02 0. -1.
</event>
<event>
 5   0  0.1603564E-04  0.1791112E+04  0.7818609E-02  0.8711040E-01
        2   -1    0    0  501    0  0.00000000000E+00  0.00000000000E+00  0.13652903249E+04  0.13652903249E+04  0.25500000920E-02 0.  1.
       -2   -1    0    0    0  501  0.00000000000E+00  0.00000000000E+00 -0.58743610672E+03  0.58743610673E+03  0.25500000920E-02 0. -1.
    10030    2    1    2    0    0  0.00000000000E+00  0.00000000000E+00  0.77785421815E+03  0.19527264316E+04  0.17911123170E+04 0.  0.
        5    1    3    3  502    0 -0.81329031203E+03  0.27138561690E+03  0.10692273119E+03  0.86402884509E+03  0.46999998093E+01 0. -1.
       -5    1    3    3    0  502  0.81329031203E+03 -0.27138561690E+03  0.67093148696E+03  0.10886975865E+04  0.46999998093E+01 0.  1.
</event>
<event>
 5   0  0.5820500E-05  0.1789821E+04  0.7818609E-02  0.8711731E-01
       -4   -1    0    0    0  501  0.00000000000E+00  0.00000000000E+00  0.14644953043E+04  0.14644958550E+04  0.12699999809E+01 0. -1.
        4   -1    0    0  501    0  0.00000000000E+00  0.00000000000E+00 -0.54685230390E+03  0.54685377861E+03  0.12699999809E+01 0.  1.
    10030    2    1    2    0    0  0.00000000000E+00  0.00000000000E+00  0.91764300041E+03  0.20113496336E+04  0.17898208492E+04 0.  0.
        3    1    3    3  502    0 -0.18353105129E+03  0.87535123669E+03  0.42434490311E+03  0.98994547393E+03  0.10100000352E+00 0. -1.
       -3    1    3    3    0  502  0.18353105129E+03 -0.87535123669E+03  0.49329809730E+03  0.10214041597E+04  0.10100000352E+00 0.  1.
</event>
<event>
 5   0  0.8430513E-05  0.1800848E+04  0.7818609E-02  0.8705849E-01
        1   -1    0    0  501    0  0.00000000000E+00  0.00000000000E+00  0.11101445744E+04  0.11101445744E+04  0.50400001928E-02 0.  1.
       -1   -1    0    0    0  501  0.00000000000E+00  0.00000000000E+00 -0.73032204668E+03  0.73032204670E+03  0.50400001928E-02 0. -1.
    10030    2    1    2    0    0  0.00000000000E+00  0.00000000000E+00  0.37982252770E+03  0.18404666211E+04  0.18008476423E+04 0.  0.
        5    1    3    3  502    0 -0.36431015148E+03  0.93455615419E+02  0.10260080645E+04  0.10927810746E+04  0.46999998093E+01 0.  1.
       -5    1    3    3    0  502  0.36431015148E+03 -0.93455615419E+02 -0.64618553680E+03  0.74768554653E+03  0.46999998093E+01 0. -1.
</event>
<event>
 5   0  0.1549012E-04  0.1804508E+04  0.7818609E-02  0.8703906E-01
        2   -1    0    0  501    0  0.00000000000E+00  0.00000000000E+00  0.17914157368E+04  0.17914157368E+04  0.25500000920E-02 0. -1.
       -2   -1    0    0    0  501  0.00000000000E+00  0.00000000000E+00 -0.45442412431E+03  0.45442412432E+03  0.25500000920E-02 0.  1.
    10030    2    1    2    0    0  0.00000000000E+00  0.00000000000E+00  0.13369916124E+04  0.22458398611E+04  0.18045082737E+04 0.  0.
        4    1    3    3  502    0  0.28833934504E+03 -0.85387104060E+03  0.72167241806E+03  0.11545769891E+04  0.12699999809E+01 0. -1.
       -4    1    3    3    0  502 -0.28833934504E+03  0.85387104060E+03  0.61531919439E+03  0.10912628720E+04  0.12699999809E+01 0.  1.
</event>
<event>
 5   0  0.8132598E-05  0.1781600E+04  0.7818609E-02  0.8716146E-01
       -1   -1    0    0    0  501  0.00000000000E+00  0.00000000000E+00  0.61470790197E+03  0.61470790199E+03  0.50400001928E-02 0.  1.
        1   -1    0    0  501    0  0.00000000000E+00  0.00000000000E+00 -0.12908970835E+04  0.12908970835E+04  0.50400001928E-02 0. -1.
    10030    2    1    2    0    0  0.00000000000E+00  0.00000000000E+00 -0.67618918150E+03  0.19056049855E+04  0.17815999976E+04 0.  0.
        3    1    3    3  502    0 -0.13514060850E+03  0.16819657422E+03  0.58633685298E+03  0.62477514916E+03  0.10100000352E+00 0.  1.
       -3    1    3    3    0  502  0.13514060850E+03 -0.16819657422E+03 -0.12625260345E+04  0.12808298363E+04  0.10100000352E+00 0. -1.
</event>
<event>
 5   0  0.8492114E-05  0.1797719E+04  0.7818609E-02  0.8707514E-01
        1   -1    0    0  501    0  0.00000000000E+00  0.00000000000E+00  0.24860555195E+04  0.24860555195E+04  0.50400001928E-02 0.  1.
       -1   -1    0    0    0  501  0.00000000000E+00  0.00000000000E+00 -0.32499200053E+03  0.32499200056E+03  0.50400001928E-02 0. -1.
    10030    2    1    2    0    0  0.00000000000E+00  0.00000000000E+00  0.21610635190E+04  0.28110475201E+04  0.17977187286E+04 0.  0.
        2    1    3    3  502    0  0.11027447620E+03 -0.64855871863E+03  0.20382864647E+04  0.21418217908E+04  0.25500000920E-02 0. -1.
       -2    1    3    3    0  502 -0.11027447620E+03  0.64855871863E+03  0.12277705431E+03  0.66922572924E+03  0.25500000920E-02 0.  1.
</event>
<event>
 5   0  0.1608627E-04  0.1807416E+04  0.7818609E-02  0.8702366E-01
        2   -1    0    0  501    0  0.00000000000E+00  0.00000000000E+00  0.13825369491E+04  0.13825369491E+04  0.25500000920E-02 0. -1.
       -2   -1    0    0    0  501  0.00000000000E+00  0.00000000000E+00 -0.59071689670E+03  0.59071689670E+03  0.25500000920E-02 0.  1.
    10030    2    1    2    0    0  0.00000000000E+00  0.00000000000E+00  0.79182005245E+03  0.19732538459E+04  0.18074157642E+04 0.  0.
        2    1    3    3  502    0 -0.68324312751E+03 -0.58101372805E+03  0.27487877472E+03  0.93805994705E+03  0.25500000920E-02 0. -1.
       -2    1    3    3    0  502  0.68324312751E+03  0.58101372805E+03  0.51694127773E+03  0.10351938988E+04  0.25500000920E-02 0.  1.
</event>
<event>
 5   0  0.1628397E-04  0.1803457E+04  0.7818609E-02  0.8704463E-01
        2   -1    0    0  501    0  0.00000000000E+00  0.00000000000E+00  0.81352163397E+03  0.81352163397E+03  0.25500000920E-02 0. -1.
       -2   -1    0    0    0  501  0.00000000000E+00  0.00000000000E+00 -0.99949942869E+03  0.99949942870E+03  0.25500000920E-02 0.  1.
    10030    2    1    2    0    0  0.00000000000E+00  0.00000000000E+00 -0.18597779473E+03  0.18130210627E+04  0.18034571338E+04 0.  0.
        3    1    3    3  502    0  0.39303482598E+03  0.25274318720E+03  0.68230702902E+03  0.82698149021E+03  0.10100000352E+00 0. -1.
       -3    1    3    3    0  502 -0.39303482598E+03 -0.25274318720E+03 -0.86828482374E+03  0.98603957246E+03  0.10100000352E+00 0.  1.
</event>
<event>
 5   0  0.8254914E-05  0.1796462E+04  0.7818609E-02  0.8708183E-01
       -1   -1    0    0    0  501  0.00000000000E+00  0.00000000000E+00  0.12856642597E+04  0.12856642597E+04  0.50400001928E-02 0.  1.
        1   -1    0    0  501    0  0.00000000000E+00  0.00000000000E+00 -0.62755043007E+03  0.62755043009E+03  0.50400001928E-02 0. -1.
    10030    2    1    2    0    0  0.00000000000E+00  0.00000000000E+00  0.65811382962E+03  0.19132146898E+04  0.17964622558E+04 0.  0.
        4    1    3    3  502    0 -0.35510004892E+03  0.55966274442E+03 -0.31655830206E+03  0.73452651670E+03  0.12699999809E+01 0. -1.
       -4    1    3    3    0  502  0.35510004892E+03 -0.55966274442E+03  0.97467213168E+03  0.11786881731E+04  0.12699999809E+01 0.  1.
</event>
<event>
 5   0  0.1628397E-04  0.1782056E+04  0.7818609E-02  0.8715900E-01
        2   -1    0    0  501    0  0.00000000000E+00  0.00000000000E+00  0.96309686356E+03  0.96309686356E+03  0.25500000920E-02 0. -1.
       -2   -1    0    0    0  501  0.00000000000E+00  0.00000000000E+00 -0.82435239790E+03  0.82435239790E+03  0.25500000920E-02 0.  1.
    10030    2    1    2    0    0  0.00000000000E+00  0.00000000000E+00  0.13874446566E+03  0.17874492615E+04  0.17820563503E+04 0.  0.
        3    1    3    3  502    0  0.42104468357E+03 -0.12930638670E+03  0.84626926072E+03  0.95402853157E+03  0.10100000352E+00 0. -1.
       -3    1    3    3    0  502 -0.42104468357E+03  0.12930638670E+03 -0.70752479506E+03  0.83342072990E+03  0.10100000352E+00 0.  1.
</event>
<event>
 5   0  0.8132598E-05  0.1804416E+04  0.7818609E-02  0.8703955E-01
       -1   -1    0    0    0  501  0.00000000000E+00  0.00000000000E+00  0.97694277467E+03  0.97694277468E+03  0.50400001928E-02 0.  1.
        1   -1    0    0  501    0  0.00000000000E+00  0.00000000000E+00 -0.83318997073E+03  0.83318997074E+03  0.50400001928E-02 0. -1.
    10030    2    1    2    0    0  0.00000000000E+00  0.00000000000E+00  0.14375280395E+03  0.18101327454E+04  0.18044156083E+04 0.  0.
        3    1    3    3  502    0 -0.40998852157E+03  0.78874646351E+03  0.22653146435E+03  0.91734839950E+03  0.10100000352E+00 0.  1.
       -3    1    3    3    0  502  0.40998852157E+03 -0.78874646351E+03 -0.82778660402E+02  0.89278434593E+03  0.10100000352E+00 0. -1.
</event>
<event>
 5   0  0.1608627E-04  0.1797760E+04  0.7818609E-02  0.8707492E-01
        2   -1    0    0  501    0  0.00000000000E+00  0.00000000000E+00  0.14483211567E+04  0.14483211567E+04  0.25500000920E-02 0. -1.
       -2   -1    0    0    0  501  0.00000000000E+00  0.00000000000E+00 -0.55787691632E+03  0.55787691633E+03  0.25500000920E-02 0.  1.
    10030    2    1    2    0    0  0.00000000000E+00  0.00000000000E+00  0.89044424038E+03  0.20061980730E+04  0.17977596511E+04 0.  0.
        2    1    3    3  502    0  0.78077801302E+03  0.42951215184E+03  0.31370191812E+03  0.94472423893E+03  0.25500000920E-02 0.  1.
       -2    1    3    3    0  502 -0.78077801302E+03 -0.42951215184E+03  0.57674232226E+03  0.10614738341E+04  0.25500000920E-02 0. -1.
</event>
<event>
 5   0  0.1628397E-04  0.1785514E+04  0.7818609E-02  0.8714041E-01
       -2   -1    0    0    0  501  0.00000000000E+00  0.00000000000E+00  0.37591654509E+03  0.37591654510E+03  0.25500000920E-02 0.  1.
        2   -1    0    0  501    0  0.00000000000E+00  0.00000000000E+00 -0.21201923038E+04  0.21201923038E+04  0.25500000920E-02 0. -1.
    10030    2    1    2    0    0  0.00000000000E+00  0.00000000000E+00 -0.17442757587E+04  0.24961088489E+04  0.17855143413E+04 0.  0.
        3    1    3    3  502    0  0.43000135151E+02 -0.44175706016E+03  0.21074620446E+03  0.49133724133E+03  0.10100000352E+00 0.  1.
       -3    1    3    3    0  502 -0.43000135151E+02  0.44175706016E+03 -0.19550219632E+04  0.20047716076E+04  0.10100000352E+00 0. -1.
</event>
<event>
 5   0  0.1573981E-04  0.1811455E+04  0.7818609E-02  0.8700231E-01
       -2   -1    0    0    0  501  0.00000000000E+00  0.00000000000E+00  0.52497615571E+03  0.52497615571E+03  0.25500000920E-02 0. -1.
        2   -1    0    0  501    0  0.00000000000E+00  0.00000000000E+00 -0.15626276183E+04  0.15626276183E+04  0.25500000920E-02 0.  1.
    10030    2    1    2    0    0  0.00000000000E+00  0.00000000000E+00 -0.10376514626E+04  0.20876037740E+04  0.18114549289E+04 0.  0.
        1    1    3    3  502    0  0.11879965917E+03 -0.89237502718E+03 -0.40418376718E+03  0.98681865904E+03  0.50400001928E-02 0.  1.
       -1    1    3    3    0  502 -0.11879965917E+03  0.89237502718E+03 -0.63346769537E+03  0.11007851149E+04  0.50400001928E-02 0. -1.
</event>
<event>
 5   0  0.8206783E-05  0.1803548E+04  0.7818609E-02  0.8704415E-01
       -1   -1    0    0    0  501  0.00000000000E+00  0.00000000000E+00  0.92124385527E+03  0.92124385529E+03  0.50400001928E-02 0. -1.
        1   -1    0    0  501    0  0.00000000000E+00  0.00000000000E+00 -0.88271608368E+03  0.88271608370E+03  0.50400001928E-02 0.  1.
    10030    2    1    2    0    0  0.00000000000E+00  0.00000000000E+00  0.38527771591E+02  0.18039599390E+04  0.18035484669E+04 0.  0.
        1    1    3    3  502    0  0.55557326246E+03  0.15694664546E+02 -0.69103107029E+03  0.88680996420E+03  0.50400001928E-02 0.  1.
       -1    1    3    3    0  502 -0.55557326246E+03 -0.15694664546E+02  0.72955884188E+03  0.91714997479E+03  0.50400001928E-02 0. -1.
</event>
<event>
 5   0  0.1628397E-04  0.1799902E+04  0.7818609E-02  0.8706352E-01
       -2   -1    0    0    0  501  0.00000000000E+00  0.00000000000E+00  0.77174891103E+03  0.77174891103E+03  0.25500000920E-02 0.  1.
        2   -1    0    0  501    0  0.00000000000E+00  0.00000000000E+00 -0.10494499413E+04  0.10494499414E+04  0.25500000920E-02 0. -1.
    10030    2    1    2    0    0  0.00000000000E+00  0.00000000000E+00 -0.27770103032E+03  0.18211988524E+04  0.17999020522E+04 0.  0.
        3    1    3    3  502    0  0.44696999473E+03  0.10506666336E+03  0.64431718905E+03  0.79118002392E+03  0.10100000352E+00 0.  1.
       -3    1    3    3    0  502 -0.44696999473E+03 -0.10506666336E+03 -0.92201821937E+03  0.10300188285E+04  0.10100000352E+00 0. -1.
</event>
<event>
 5   0  0.8254914E-05  0.1802806E+04  0.7818609E-02  0.8704809E-01
        1   -1    0    0  501    0  0.00000000000E+00  0.00000000000E+00  0.97292592717E+03  0.97292592718E+03  0.50400001928E-02 0. -1.
       -1   -1    0    0    0  501  0.00000000000E+00  0.00000000000E+00 -0.83513826606E+03  0.83513826607E+03  0.50400001928E-02 0.  1.
    10030    2    1    2    0    0  0.00000000000E+00  0.00000000000E+00  0.13778766111E+03  0.18080641933E+04  0.18028063366E+04 0.  0.
        4    1    3    3  502    0  0.76063700306E+02 -0.82363464755E+03  0.42822124188E+03  0.93141546264E+03  0.12699999809E+01 0. -1.
       -4    1    3    3    0  502 -0.76063700306E+02  0.82363464755E+03 -0.29043358077E+03  0.87664873062E+03  0.12699999809E+01 0.  1.
</event>
<event>
 5   0  0.1603564E-04  0.1797628E+04  0.7818609E-02  0.8707562E-01
       -2   -1    0    0    0  501  0.00000000000E+00  0.00000000000E+00  0.83872429702E+03  0.83872429702E+03  0.25500000920E-02 0.  1.
        2   -1    0    0  501    0  0.00000000000E+00  0.00000000000E+00 -0.96320907031E+03  0.96320907032E+03  0.25500000920E-02 0. -1.
    10030    2    1    2    0    0  0.00000000000E+00  0.00000000000E+00 -0.12448477330E+03  0.18019333673E+04  0.17976282712E+04 0.  0.
        5    1    3    3  502    0  0.48187227330E+03 -0.58361945230E+03  0.42371985604E+03  0.86739446579E+03  0.46999998093E+01 0.  1.
       -5    1    3    3    0  502 -0.48187227330E+03  0.58361945230E+03 -0.54820462934E+03  0.93453890155E+03  0.46999998093E+01 0. -1.
</event>
<event>
 5   0  0.8254914E-05  0.1800985E+04  0.7818609E-02  0.8705776E-01
        1   -1    0    0  501    0  0.00000000000E+00  0.00000000000E+00  0.96203205676E+03  0.96203205678E+03  0.50400001928E-02 0. -1.
       -1   -1    0    0    0  501  0.00000000000E+00  0.00000000000E+00 -0.84288938273E+03  0.84288938274E+03  0.50400001928E-02 0.  1.
    10030    2    1    2    0    0  0.00000000000E+00  0.00000000000E+00  0.11914267403E+03  0.18049214395E+04  0.18009848489E+04 0.  0.
        4    1    3    3  502    0  0.29002148889E+03  0.61829974350E+03  0.64777667670E+03  0.94128809225E+03  0.12699999809E+01 0. -1.
       -4    1    3    3    0  502 -0.29002148889E+03 -0.61829974350E+03 -0.52863400267E+03  0.86363334727E+03  0.12699999809E+01 0.  1.
</event>
<event>
 5   0  0.8430513E-05  0.1797778E+04  0.7818609E-02  0.8707482E-01
        1   -1    0    0  501    0  0.00000000000E+00  0.00000000000E+00  0.14290738754E+04  0.14290738754E+04  0.50400001928E-02 0.  1.
       -1   -1    0    0    0  501  0.00000000000E+00  0.00000000000E+00 -0.56540218014E+03  0.56540218016E+03  0.50400001928E-02 0. -1.
    10030    2    1    2    0    0  0.00000000000E+00  0.00000000000E+00  0.86367169526E+03  0.19944760556E+04  0.17977780561E+04 0.  0.
        5    1    3    3  502    0  0.35961034442E+03 -0.53458620940E+03  0.11272143559E+04  0.12983590833E+04  0.46999998093E+01 0.  1.
       -5    1    3    3    0  502 -0.35961034442E+03  0.53458620940E+03 -0.26354266064E+03  0.69611697226E+03  0.46999998093E+01 0. -1.
</event>
<event>
 5   0  0.1573981E-04  0.1798600E+04  0.7818609E-02  0.8707044E-01
        2   -1    0    0  501    0  0.00000000000E+00  0.00000000000E+00  0.96522743315E+03  0.96522743315E+03  0.25500000920E-02 0. -1.
       -2   -1    0    0    0  501  0.00000000000E+00  0.00000000000E+00 -0.83787537719E+03  0.83787537719E+03  0.25500000920E-02 0.  1.
    10030    2    1    2    0    0  0.00000000000E+00  0.00000000000E+00  0.12735205597E+03  0.18031028103E+04  0.17985997883E+04 0.  0.
        1    1    3    3  502    0 -0.53969507731E+01 -0.36842519860E+03  0.88607983094E+03  0.95963728610E+03  0.50400001928E-02 0. -1.
       -1    1    3    3    0  502  0.53969507731E+01  0.36842519860E+03 -0.75872777498E+03  0.84346552424E+03  0.50400001928E-02 0.  1.
</event>
<event>
 5   0  0.1549012E-04  0.1785922E+04  0.7818609E-02  0.8713822E-01
       -2   -1    0    0    0  501  0.00000000000E+00  0.00000000000E+00  0.68547788773E+03  0.68547788773E+03  0.25500000920E-02 0. -1.
        2   -1    0    0  501    0  0.00000000000E+00  0.00000000000E+00 -0.11632456719E+04  0.11632456719E+04  0.25500000920E-02 0.  1.
    10030    2    1    2    0    0  0.00000000000E+00  0.00000000000E+00 -0.47776778415E+03  0.18487235596E+04  0.17859218192E+04 0.  0.
        4    1    3    3  502    0 -0.30454091552E+03 -0.38693535294E+03  0.53223643772E+03  0.72508025426E+03  0.12699999809E+01 0. -1.
       -4    1    3    3    0  502  0.30454091552E+03  0.38693535294E+03 -0.10100042219E+04  0.11236433054E+04  0.12699999809E+01 0.  1.
</event>
<event>
 5   0  0.1628397E-04  0.1790728E+04  0.7818609E-02  0.8711246E-01
       -2   -1    0    0    0  501  0.00000000000E+00  0.00000000000E+00  0.28005007679E+03  0.28005007680E+03  0.25500000920E-02 0. -1.
        2   -1    0    0  501    0  0.00000000000E+00  0.00000000000E+00 -0.28626202813E+04  0.28626202813E+04  0.25500000920E-02 0.  1.
    10030    2    1    2    0    0  0.00000000000E+00  0.00000000000E+00 -0.25825702045E+04  0.31426703581E+04  0.17907283765E+04 0.  0.
        3    1    3    3  502    0 -0.34434363498E+03 -0.15798389688E+03  0.13245295598E+03  0.40134180741E+03  0.10100000352E+00 0. -1.
       -3    1    3    3    0  502  0.34434363498E+03  0.15798389688E+03 -0.27150231604E+04  0.27413285506E+04  0.10100000352E+00 0.  1.
</event>
<event>
 5   0  0.8254914E-05  0.1741484E+04  0.7818609E-02  0.8738052E-01
       -1   -1    0    0    0  501  0.00000000000E+00  0.00000000000E+00  0.36853658015E+03  0.36853658019E+03  0.50400001928E-02 0. -1.
        1   -1    0    0  501    0  0.00000000000E+00  0.00000000000E+00 -0.20573025319E+04  0.20573025319E+04  0.50400001928E-02 0.  1.
    10030    2    1    2    0    0  0.00000000000E+00  0.00000000000E+00 -0.16887659517E+04  0.24258391121E+04  0.17414835509E+04 0.  0.
        4    1    3    3  502    0  0.60535821447E+03  0.62586335143E+03 -0.85150270386E+03  0.12178760077E+04  0.12699999809E+01 0. -1.
       -4    1    3    3    0  502 -0.60535821447E+03 -0.62586335143E+03 -0.83726324788E+03  0.12079631044E+04  0.12699999809E+01 0.  1.
</event>
<event>
 5   0  0.8492114E-05  0.1814105E+04  0.7818609E-02  0.8698835E-01
        1   -1    0    0  501    0  0.00000000000E+00  0.00000000000E+00  0.98023377448E+03  0.98023377449E+03  0.50400001928E-02 0. -1.
       -1   -1    0    0    0  501  0.00000000000E+00  0.00000000000E+00 -0.83933430648E+03  0.83933430650E+03  0.50400001928E-02 0.  1.
    10030    2    1    2    0    0  0.00000000000E+00  0.00000000000E+00  0.14089946799E+03  0.18195680810E+04  0.18141045563E+04 0.  0.
        2    1    3    3  502    0  0.85294740937E+03 -0.46094901036E+00 -0.23906403988E+03  0.88581663497E+03  0.25500000920E-02 0.  1.
       -2    1    3    3    0  502 -0.85294740937E+03  0.46094901036E+00  0.37996350787E+03  0.93375144602E+03  0.25500000920E-02 0. -1.
</event>
<event>
 5   0  0.1603564E-04  0.1803236E+04  0.7818609E-02  0.8704581E-01
        2   -1    0    0  501    0  0.00000000000E+00  0.00000000000E+00  0.14154181885E+04  0.14154181885E+04  0.25500000920E-02 0. -1.
       -2   -1    0    0    0  501  0.00000000000E+00  0.00000000000E+00 -0.57432832655E+03  0.57432832656E+03  0.25500000920E-02 0.  1.
    10030    2    1    2    0    0  0.00000000000E+00  0.00000000000E+00  0.84108986197E+03  0.19897465151E+04  0.18032357135E+04 0.  0.
        5    1    3    3  502    0 -0.61297311491E+03  0.22657991238E+03 -0.26484322131E+03  0.70515141506E+03  0.46999998093E+01 0.  1.
       -5    1    3    3    0  502  0.61297311491E+03 -0.22657991238E+03  0.11059330833E+04  0.12845951000E+04  0.46999998093E+01 0. -1.
</event>
<event>
 5   0  0.8206783E-05  0.1805896E+04  0.7818609E-02  0.8703171E-01
       -1   -1    0    0    0  501  0.00000000000E+00  0.00000000000E+00  0.65171088511E+03  0.65171088513E+03  0.50400001928E-02 0. -1.
        1   -1    0    0  501    0  0.00000000000E+00  0.00000000000E+00 -0.12510373759E+04  0.12510373760E+04  0.50400001928E-02 0.  1.
    10030    2    1    2    0    0  0.00000000000E+00  0.00000000000E+00 -0.59932649084E+03  0.19027482611E+04  0.18058955403E+04 0.  0.
        1    1    3    3  502    0  0.48768536862E+03  0.55108969537E+03 -0.85096303461E+03  0.11250222031E+04  0.50400001928E-02 0.  1.
       -1    1    3    3    0  502 -0.48768536862E+03 -0.55108969537E+03  0.25163654377E+03  0.77772605801E+03  0.50400001928E-02 0. -1.
</event>
<event>
 5   0  0.1628397E-04  0.1889400E+04  0.7818609E-02  0.8660151E-01
       -2   -1    0    0    0  501  0.00000000000E+00  0.00000000000E+00  0.52454141550E+03  0.52454141551E+03  0.25500000920E-02 0.  1.
        2   -1    0    0  501    0  0.00000000000E+00  0.00000000000E+00 -0.17014058237E+04  0.17014058237E+04  0.25500000920E-02 0. -1.
    10030    2    1    2    0    0  0.00000000000E+00  0.00000000000E+00 -0.11768644082E+04  0.22259472392E+04  0.18893997132E+04 0.  0.
        3    1    3    3  502    0 -0.75440713258E+03 -0.54047226071E+03 -0.38027591211E+03  0.10029208173E+04  0.10100000352E+00 0.  1.
       -3    1    3    3    0  502  0.75440713258E+03  0.54047226071E+03 -0.79658849605E+03  0.12230264218E+04  0.10100000352E+00 0. -1.
</event>
<event>
 5   0  0.8492114E-05  0.1797467E+04  0.7818609E-02  0.8707648E-01
        1   -1    0    0  501    0  0.00000000000E+00  0.00000000000E+00  0.19811610644E+04  0.19811610644E+04  0.50400001928E-02 0. -1.
       -1   -1    0    0    0  501  0.00000000000E+00  0.00000000000E+00 -0.40770109096E+03  0.40770109100E+03  0.50400001928E-02 0.  1.
    10030    2    1    2    0    0  0.00000000000E+00  0.00000000000E+00  0.15734599735E+04  0.23888621554E+04  0.17974665809E+04 0.  0.
        2    1    3    3  502    0 -0.55517793235E+03  0.38505168629E+03 -0.91163531922E+00  0.67563908174E+03  0.25500000920E-02 0.  1.
       -2    1    3    3    0  502  0.55517793235E+03 -0.38505168629E+03  0.15743716088E+04  0.17132230737E+04  0.25500000920E-02 0. -1.
</event>
<event>
 5   0  0.8254914E-05  0.1804563E+04  0.7818609E-02  0.8703877E-01
       -1   -1    0    0    0  501  0.00000000000E+00  0.00000000000E+00  0.27347724265E+03  0.27347724269E+03  0.50400001928E-02 0. -1.
        1   -1    0    0  501    0  0.00000000000E+00  0.00000000000E+00 -0.29768917895E+04  0.29768917895E+04  0.50400001928E-02 0.  1.
    10030    2    1    2    0    0  0.00000000000E+00  0.00000000000E+00 -0.27034145468E+04  0.32503690322E+04  0.18045632805E+04 0.  0.
        4    1    3    3  502    0  0.11621732371E+03  0.83356223022E+03 -0.19375194717E+04  0.21124194125E+04  0.12699999809E+01 0.  1.
       -4    1    3    3    0  502 -0.11621732371E+03 -0.83356223022E+03 -0.76589507508E+03  0.11379496197E+04  0.12699999809E+01 0. -1.
</event>
<event>
 5   0  0.5820500E-05  0.1834707E+04  0.7818609E-02  0.8688057E-01
       -3   -1    0    0    0  501  0.00000000000E+00  0.00000000000E+00  0.10885200069E+04  0.10885200116E+04  0.10100000352E+00 0. -1.
        3   -1    0    0  501    0  0.00000000000E+00  0.00000000000E+00 -0.77310273506E+03  0.77310274166E+03  0.10100000352E+00 0.  1.
    10030    2    1    2    0    0  0.00000000000E+00  0.00000000000E+00  0.31541727184E+03  0.18616227532E+04  0.18347073936E+04 0.  0.
        3    1    3    3  502    0 -0.34797347989E+03  0.74493334180E+03 -0.25510945684E+03  0.86086704641E+03  0.10100000352E+00 0.  1.
       -3    1    3    3    0  502  0.34797347989E+03 -0.74493334180E+03  0.57052672868E+03  0.10007557068E+04  0.10100000352E+00 0. -1.
</event>
<event>
 5   0  0.1549012E-04  0.1750176E+04  0.7818609E-02  0.8733253E-01
        2   -1    0    0  501    0  0.00000000000E+00  0.00000000000E+00  0.10853242437E+04  0.10853242437E+04  0.25500000920E-02 0.  1.
       -2   -1    0    0    0  501  0.00000000000E+00  0.00000000000E+00 -0.70557651647E+03  0.70557651648E+03  0.25500000920E-02 0. -1.
    10030    2    1    2    0    0  0.00000000000E+00  0.00000000000E+00  0.37974772718E+03  0.17909007601E+04  0.17501763329E+04 0.  0.
        4    1    3    3  502    0  0.64274338736E+03 -0.48362270141E+03 -0.16277208578E+03  0.82067432281E+03  0.12699999809E+01 0. -1.
       -4    1    3    3    0  502 -0.64274338736E+03  0.48362270141E+03  0.54251981296E+03  0.97022643732E+03  0.12699999809E+01 0.  1.
</event>
<event>
 5   0  0.8430513E-05  0.1814962E+04  0.7818609E-02  0.8698383E-01
       -1   -1    0    0    0  501  0.00000000000E+00  0.00000000000E+00  0.59058158410E+03  0.59058158412E+03  0.50400001928E-02 0.  1.
        1   -1    0    0  501    0  0.00000000000E+00  0.00000000000E+00 -0.13944258097E+04  0.13944258098E+04  0.50400001928E-02 0. -1.
    10030    2    1    2    0    0  0.00000000000E+00  0.00000000000E+00 -0.80384422565E+03  0.19850073939E+04  0.18149624830E+04 0.  0.
        5    1    3    3  502    0 -0.91108748478E+02  0.26452812224E+03  0.54222125367E+03  0.61016547709E+03  0.46999998093E+01 0.  1.
       -5    1    3    3    0  502  0.91108748478E+02 -0.26452812224E+03 -0.13460654793E+04  0.13748419168E+04  0.46999998093E+01 0. -1.
</event>
<event>
 5   0  0.1608627E-04  0.1800141E+04  0.7818609E-02  0.8706224E-01
       -2   -1    0    0    0  501  0.00000000000E+00  0.00000000000E+00  0.60744574008E+03  0.60744574009E+03  0.25500000920E-02 0.  1.
        2   -1    0    0  501    0  0.00000000000E+00  0.00000000000E+00 -0.13336613641E+04  0.13336613641E+04  0.25500000920E-02 0. -1.
    10030    2    1    2    0    0  0.00000000000E+00  0.00000000000E+00 -0.72621562400E+03  0.19411071042E+04  0.18001410104E+04 0.  0.
        2    1    3    3  502    0  0.15656339911E+03  0.86300107983E+03 -0.14518291233E+03  0.88902251927E+03  0.25500000920E-02 0. -1.
       -2    1    3    3    0  502 -0.15656339911E+03 -0.86300107983E+03 -0.58103271168E+03  0.10520845849E+04  0.25500000920E-02 0.  1.
</event>
<event>
 5   0  0.8254914E-05  0.1783888E+04  0.7818609E-02  0.8714915E-01
        1   -1    0    0  501    0  0.00000000000E+00  0.00000000000E+00  0.66460101585E+03  0.66460101587E+03  0.50400001928E-02 0.  1.
       -1   -1    0    0    0  501  0.00000000000E+00  0.00000000000E+00 -0.11970557754E+04  0.11970557754E+04  0.50400001928E-02 0. -1.
    10030    2    1    2    0    0  0.00000000000E+00  0.00000000000E+00 -0.53245475956E+03  0.18616567913E+04  0.17838884319E+04 0.  0.
        4    1    3    3  502    0  0.51963253020E+03 -0.33611434986E+03 -0.93654684461E+03  0.11225472942E+04  0.12699999809E+01 0. -1.
       -4    1    3    3    0  502 -0.51963253020E+03  0.33611434986E+03  0.40409208505E+03  0.73910949711E+03  0.12699999809E+01 0.  1.
</event>
<event>
 5   0  0.8206783E-05  0.1801956E+04  0.7818609E-02  0.8705260E-01
       -1   -1    0    0    0  501  0.00000000000E+00  0.00000000000E+00  0.11703278397E+04  0.11703278397E+04  0.50400001928E-02 0.  1.
        1   -1    0    0  501    0  0.00000000000E+00  0.00000000000E+00 -0.69361863045E+03  0.69361863047E+03  0.50400001928E-02 0. -1.
    10030    2    1    2    0    0  0.00000000000E+00  0.00000000000E+00  0.47670920927E+03  0.18639464702E+04  0.18019558190E+04 0.  0.
        1    1    3    3  502    0 -0.54912748969E+03 -0.59304103467E+03 -0.17349133387E+03  0.82664255376E+03  0.50400001928E-02 0. -1.
       -1    1    3    3    0  502  0.54912748969E+03  0.59304103467E+03  0.65020054314E+03  0.10373039164E+04  0.50400001928E-02 0.  1.
</event>
<event>
 5   0  0.1608627E-04  0.1729247E+04  0.7818609E-02  0.8744857E-01
        2   -1    0    0  501    0  0.00000000000E+00  0.00000000000E+00  0.14944130028E+04  0.14944130028E+04  0.25500000920E-02 0. -1.
       -2   -1    0    0    0  501  0.00000000000E+00  0.00000000000E+00 -0.50024588022E+03  0.50024588022E+03  0.25500000920E-02 0.  1.
    10030    2    1    2    0    0  0.00000000000E+00  0.00000000000E+00  0.99416712254E+03  0.19946588830E+04  0.17292471749E+04 0.  0.
        2    1    3    3  502    0 -0.71542386940E+03 -0.12932434640E+03  0.10369064747E+04  0.12663850665E+04  0.25500000920E-02 0. -1.
       -2    1    3    3    0  502  0.71542386940E+03  0.12932434640E+03 -0.42739352160E+02  0.72827381644E+03  0.25500000920E-02 0.  1.
</event>
<event>
 5   0  0.1549012E-04  0.1797169E+04  0.7818609E-02  0.8707806E-01
       -2   -1    0    0    0  501  0.00000000000E+00  0.00000000000E+00  0.48848047391E+03  0.48848047392E+03  0.25500000920E-02 0. -1.
        2   -1    0    0  501    0  0.00000000000E+00  0.00000000000E+00 -0.16529921687E+04  0.16529921687E+04  0.25500000920E-02 0.  1.
    10030    2    1    2    0    0  0.00000000000E+00  0.00000000000E+00 -0.11645116948E+04  0.21414726427E+04  0.17971693275E+04 0.  0.
        4    1    3    3  502    0  0.76427486570E+03 -0.40865919942E+03 -0.86507594454E+03  0.12245310998E+04  0.12699999809E+01 0.  1.
       -4    1    3    3    0  502 -0.76427486570E+03  0.40865919942E+03 -0.29943575028E+03  0.91694154287E+03  0.12699999809E+01 0. -1.
</event>
<event>
 5   0  0.8492114E-05  0.1742043E+04  0.7818609E-02  0.8737743E-01
       -1   -1    0    0    0  501  0.00000000000E+00  0.00000000000E+00  0.11464569906E+04  0.11464569906E+04  0.50400001928E-02 0.  1.
        1   -1    0    0  501    0  0.00000000000E+00  0.00000000000E+00 -0.66175903086E+03  0.66175903088E+03  0.50400001928E-02 0. -1.
    10030    2    1    2    0    0  0.00000000000E+00  0.00000000000E+00  0.48469795971E+03  0.18082160215E+04  0.17420427860E+04 0.  0.
        2    1    3    3  502    0  0.20178874718E+03  0.24688685740E+03 -0.59900026931E+03  0.67858171319E+03  0.25500000920E-02 0. -1.
       -2    1    3    3    0  502 -0.20178874718E+03 -0.24688685740E+03  0.10836982290E+04  0.11296343083E+04  0.25500000920E-02 0.  1.
</event>
<event>
 5   0  0.8206783E-05  0.1700846E+04  0.7818609E-02  0.8760882E-01
        1   -1    0    0  501    0  0.00000000000E+00  0.00000000000E+00  0.12366722738E+04  0.12366722738E+04  0.50400001928E-02 0.  1.
       -1   -1    0    0    0  501  0.00000000000E+00  0.00000000000E+00 -0.58481065471E+03  0.58481065473E+03  0.50400001928E-02 0. -1.
    10030    2    1    2    0    0  0.00000000000E+00  0.00000000000E+00  0.65186161910E+03  0.18214829285E+04  0.17008458156E+04 0.  0.
        1    1    3    3  502    0  0.62018621892E+01  0.23708001801E+03  0.12005409771E+04  0.12237418174E+04  0.50400001928E-02 0.  1.
       -1    1    3    3    0  502 -0.62018621892E+01 -0.23708001801E+03 -0.54867935798E+03  0.59774111113E+03  0.50400001928E-02 0. -1.
</event>
<event>
 5   0  0.8206783E-05  0.1802920E+04  0.7818609E-02  0.8704748E-01
       -1   -1    0    0    0  501  0.00000000000E+00  0.00000000000E+00  0.65400557152E+03  0.65400557154E+03  0.50400001928E-02 0.  1.
        1   -1    0    0  501    0  0.00000000000E+00  0.00000000000E+00 -0.12425426221E+04  0.12425426221E+04  0.50400001928E-02 0. -1.
    10030    2    1    2    0    0  0.00000000000E+00  0.00000000000E+00 -0.58853705055E+03  0.18965481936E+04  0.18029196296E+04 0.  0.
        1    1    3    3  502    0  0.31752148940E+03 -0.42214439402E+03  0.47414864228E+03  0.70981879422E+03  0.50400001928E-02 0.  1.
       -1    1    3    3    0  502 -0.31752148940E+03  0.42214439402E+03 -0.10626856928E+04  0.11867293994E+04  0.50400001928E-02 0. -1.
</event>
<event>
 5   0  0.1549012E-04  0.1797229E+04  0.7818609E-02  0.8707775E-01
        2   -1    0    0  501    0  0.00000000000E+00  0.00000000000E+00  0.13039379422E+04  0.13039379422E+04  0.25500000920E-02 0.  1.
       -2   -1    0    0    0  501  0.00000000000E+00  0.00000000000E+00 -0.61928397954E+03  0.61928397955E+03  0.25500000920E-02 0. -1.
    10030    2    1    2    0    0  0.00000000000E+00  0.00000000000E+00  0.68465396264E+03  0.19232219217E+04  0.17972288423E+04 0.  0.
        4    1    3    3  502    0  0.27528198607E+03 -0.77480027183E+03  0.73024617902E+03  0.10997075647E+04  0.12699999809E+01 0. -1.
       -4    1    3    3    0  502 -0.27528198607E+03  0.77480027183E+03 -0.45592216381E+02  0.82351435699E+03  0.12699999809E+01 0.  1.
</event>
<event>
 5   0  0.8132598E-05  0.1813265E+04  0.7818609E-02  0.8699277E-01
        1   -1    0    0  501    0  0.00000000000E+00  0.00000000000E+00  0.18114042245E+04  0.18114042245E+04  0.50400001928E-02 0. -1.
       -1   -1    0    0    0  501  0.00000000000E+00  0.00000000000E+00 -0.45378211546E+03  0.45378211549E+03  0.50400001928E-02 0.  1.
    10030    2    1    2    0    0  0.00000000000E+00  0.00000000000E+00  0.13576221090E+04  0.22651863400E+04  0.18132653871E+04 0.  0.
        3    1    3    3  502    0  0.82057816490E+03 -0.32851096525E+03  0.42674231395E+03  0.98151769812E+03  0.10100000352E+00 0.  1.
       -3    1    3    3    0  502 -0.82057816490E+03  0.32851096525E+03  0.93087979504E+03  0.12836686418E+04  0.10100000352E+00 0. -1.
</event>
<event>
 5   0  0.8206783E-05  0.1803315E+04  0.7818609E-02  0.8704539E-01
        1   -1    0    0  501    0  0.00000000000E+00  0.00000000000E+00  0.17797898246E+04  0.17797898246E+04  0.50400001928E-02 0.  1.
       -1   -1    0    0    0  501  0.00000000000E+00  0.00000000000E+00 -0.45678762596E+03  0.45678762599E+03  0.50400001928E-02 0. -1.
    10030    2    1    2    0    0  0.00000000000E+00  0.00000000000E+00  0.13230021986E+04  0.22365774506E+04  0.18033146910E+04 0.  0.
        1    1    3    3  502    0  0.66292761111E+03  0.59235154954E+03  0.47491487489E+03  0.10079174144E+04  0.50400001928E-02 0. -1.
       -1    1    3    3    0  502 -0.66292761111E+03 -0.59235154954E+03  0.84808732371E+03  0.12286600362E+04  0.50400001928E-02 0.  1.
</event>
<event>
 5   0  0.8206783E-05  0.1767983E+04  0.7818609E-02  0.8723513E-01
       -1   -1    0    0    0  501  0.00000000000E+00  0.00000000000E+00  0.34785846824E+03  0.34785846828E+03  0.50400001928E-02 0.  1.
        1   -1    0    0  501    0  0.00000000000E+00  0.00000000000E+00 -0.22464336596E+04  0.22464336596E+04  0.50400001928E-02 0. -1.
    10030    2    1    2    0    0  0.00000000000E+00  0.00000000000E+00 -0.18985751914E+04  0.25942921279E+04  0.17679829998E+04 0.  0.
        1    1    3    3  502    0 -0.28296756324E+03  0.23142708488E+03  0.23175410443E+03  0.43282687348E+03  0.50400001928E-02 0.  1.
       -1    1    3    3    0  502  0.28296756324E+03 -0.23142708488E+03 -0.21303292958E+04  0.21614652544E+04  0.50400001928E-02 0. -1.
</event>
<event>
 5   0  0.1549012E-04  0.1785265E+04  0.7818609E-02  0.8714175E-01
       -2   -1    0    0    0  501  0.00000000000E+00  0.00000000000E+00  0.94054316228E+03  0.94054316228E+03  0.25500000920E-02 0. -1.
        2   -1    0    0  501    0  0.00000000000E+00  0.00000000000E+00 -0.84716271684E+03  0.84716271684E+03  0.25500000920E-02 0.  1.
    10030    2    1    2    0    0  0.00000000000E+00  0.00000000000E+00  0.93380445438E+02  0.17877058791E+04  0.17852653592E+04 0.  0.
        4    1    3    3  502    0  0.73115340765E+03 -0.42343043716E+03  0.33502976490E+03  0.90891429568E+03  0.12699999809E+01 0. -1.
       -4    1    3    3    0  502 -0.73115340765E+03  0.42343043716E+03 -0.24164931946E+03  0.87879158344E+03  0.12699999809E+01 0.  1.
</event>
<event>
 5   0  0.1628397E-04  0.1662778E+04  0.7818609E-02  0.8782883E-01
       -2   -1    0    0    0  501  0.00000000000E+00  0.00000000000E+00  0.74024927799E+03  0.74024927800E+03  0.25500000920E-02 0.  1.
        2   -1    0    0  501    0  0.00000000000E+00  0.00000000000E+00 -0.93375028550E+03  0.93375028550E+03  0.25500000920E-02 0. -1.
    10030    2    1    2    0    0  0.00000000000E+00  0.00000000000E+00 -0.19350100751E+03  0.16739995635E+04  0.16627783673E+04 0.  0.
        3    1    3    3  502    0  0.56076860993E+03 -0.13855857359E+03 -0.69873898732E+03  0.90658485251E+03  0.10100000352E+00 0. -1.
       -3    1    3    3    0  502 -0.56076860993E+03  0.13855857359E+03  0.50523797981E+03  0.76741471099E+03  0.10100000352E+00 0.  1.
</event>
<event>
 5   0  0.1603564E-04  0.1771898E+04  0.7818609E-02  0.8721388E-01
       -2   -1    0    0    0  501  0.00000000000E+00  0.00000000000E+00  0.67041000646E+03  0.67041000646E+03  0.25500000920E-02 0.  1.
        2   -1    0    0  501    0  0.00000000000E+00  0.00000000000E+00 -0.11707847996E+04  0.11707847996E+04  0.25500000920E-02 0. -1.
    10030    2    1    2    0    0  0.00000000000E+00  0.00000000000E+00 -0.50037479311E+03  0.18411948060E+04  0.17718982420E+04 0.  0.
        5    1    3    3  502    0 -0.40617456048E+03  0.33907493534E+03 -0.98856470963E+03  0.11212635107E+04  0.46999998093E+01 0. -1.
       -5    1    3    3    0  502  0.40617456048E+03 -0.33907493534E+03  0.48818991652E+03  0.71993129530E+03  0.46999998093E+01 0.  1.
</event>
<event>
 5   0  0.1628397E-04  0.1838176E+04  0.7818609E-02  0.8686257E-01
       -2   -1    0    0    0  501  0.00000000000E+00  0.00000000000E+00  0.10296456705E+04  0.10296456705E+04  0.25500000920E-02 0.  1.
        2   -1    0    0  501    0  0.00000000000E+00  0.00000000000E+00 -0.82040132563E+03  0.82040132564E+03  0.25500000920E-02 0. -1.
    10030    2    1    2    0    0  0.00000000000E+00  0.00000000000E+00  0.20924434490E+03  0.18500469962E+04  0.18381759144E+04 0.  0.
        3    1    3    3  502    0  0.51247045221E+03 -0.26007940857E+03 -0.61726538199E+03  0.84337644332E+03  0.10100000352E+00 0. -1.
       -3    1    3    3    0  502 -0.51247045221E+03  0.26007940857E+03  0.82650972689E+03  0.10066705529E+04  0.10100000352E+00 0.  1.
</event>
<event>
 5   0  0.8430513E-05  0.1790770E+04  0.7818609E-02  0.8711224E-01
        1   -1    0    0  501    0  0.00000000000E+00  0.00000000000E+00  0.11594713608E+04  0.11594713608E+04  0.50400001928E-02 0. -1.
       -1   -1    0    0    0  501  0.00000000000E+00  0.00000000000E+00 -0.69144780712E+03  0.69144780713E+03  0.50400001928E-02 0.  1.
    10030    2    1    2    0    0  0.00000000000E+00  0.00000000000E+00  0.46802355364E+03  0.18509191679E+04  0.17907695886E+04 0.  0.
        5    1    3    3  502    0 -0.48991038949E+03 -0.52359158906E+02 -0.53872152009E+03  0.73006618703E+03  0.46999998093E+01 0.  1.
       -5    1    3    3    0  502  0.48991038949E+03  0.52359158906E+02  0.10067450737E+04  0.11208529809E+04  0.46999998093E+01 0. -1.
</event>
<event>
 5   0  0.1603564E-04  0.1804354E+04  0.7818609E-02  0.8703988E-01
       -2   -1    0    0    0  501  0.00000000000E+00  0.00000000000E+00  0.53640103248E+03  0.53640103248E+03  0.25500000920E-02 0.  1.
        2   -1    0    0  501    0  0.00000000000E+00  0.00000000000E+00 -0.15173779765E+04  0.15173779765E+04  0.25500000920E-02 0. -1.
    10030    2    1    2    0    0  0.00000000000E+00  0.00000000000E+00 -0.98097694404E+03  0.20537790090E+04  0.18043537494E+04 0.  0.
        5    1    3    3  502    0 -0.21509790350E+03 -0.86068739061E+03 -0.67700327880E+03  0.11159773394E+04  0.46999998093E+01 0.  1.
       -5    1    3    3    0  502  0.21509790350E+03  0.86068739061E+03 -0.30397366524E+03  0.93780166965E+03  0.46999998093E+01 0. -1.
</event>
<event>
 5   0  0.1608627E-04  0.1801316E+04  0.7818609E-02  0.8705600E-01
        2   -1    0    0  501    0  0.00000000000E+00  0.00000000000E+00  0.10136775036E+04  0.10136775036E+04  0.25500000920E-02 0.  1.
       -2   -1    0    0    0  501  0.00000000000E+00  0.00000000000E+00 -0.80023995246E+03  0.80023995246E+03  0.25500000920E-02 0. -1.
    10030    2    1    2    0    0  0.00000000000E+00  0.00000000000E+00  0.21343755113E+03  0.18139174561E+04  0.18013164489E+04 0.  0.
        2    1    3    3  502    0 -0.88100903997E+02 -0.74133222590E+03  0.61407861618E+03  0.96665804983E+03  0.25500000920E-02 0.  1.
       -2    1    3    3    0  502  0.88100903997E+02  0.74133222590E+03 -0.40064106504E+03  0.84725940623E+03  0.25500000920E-02 0. -1.
</event>
<event>
 5   0  0.1603564E-04  0.1778166E+04  0.7818609E-02  0.8717998E-01
       -2   -1    0    0    0  501  0.00000000000E+00  0.00000000000E+00  0.83999345146E+03  0.83999345146E+03  0.25500000920E-02 0. -1.
        2   -1    0    0  501    0  0.00000000000E+00  0.00000000000E+00 -0.94104097791E+03  0.94104097791E+03  0.25500000920E-02 0.  1.
    10030    2    1    2    0    0  0.00000000000E+00  0.00000000000E+00 -0.10104752645E+03  0.17810344294E+04  0.17781656380E+04 0.  0.
        5    1    3    3  502    0 -0.27553645218E+03  0.13854877359E+03 -0.88573361217E+03  0.93790309781E+03  0.46999998093E+01 0.  1.
       -5    1    3    3    0  502  0.27553645218E+03 -0.13854877359E+03  0.78468608572E+03  0.84313133156E+03  0.46999998093E+01 0. -1.
</event>
<event>
 5   0  0.8206783E-05  0.1798265E+04  0.7818609E-02  0.8707223E-01
        1   -1    0    0  501    0  0.00000000000E+00  0.00000000000E+00  0.54910355243E+03  0.54910355246E+03  0.50400001928E-02 0.  1.
       -1   -1    0    0    0  501  0.00000000000E+00  0.00000000000E+00 -0.14722886302E+04  0.14722886302E+04  0.50400001928E-02 0. -1.
    10030    2    1    2    0    0  0.00000000000E+00  0.00000000000E+00 -0.92318507778E+03  0.20213921827E+04  0.17982646269E+04 0.  0.
        1    1    3    3  502    0  0.11884782348E+02 -0.21651238309E+03  0.51927223224E+03  0.56272774171E+03  0.50400001928E-02 0.  1.
       -1    1    3    3    0  502 -0.11884782348E+02  0.21651238309E+03 -0.14424573100E+04  0.14586644410E+04  0.50400001928E-02 0. -1.
</event>
<event>
 5   0  0.1608627E-04  0.1794186E+04  0.7818609E-02  0.8709397E-01
        2   -1    0    0  501    0  0.00000000000E+00  0.00000000000E+00  0.18336174972E+04  0.18336174972E+04  0.25500000920E-02 0.  1.
       -2   -1    0    0    0  501  0.00000000000E+00  0.00000000000E+00 -0.43890054097E+03  0.43890054098E+03  0.25500000920E-02 0. -1.
    10030    2    1    2    0    0  0.00000000000E+00  0.00000000000E+00  0.13947169563E+04  0.22725180382E+04  0.17941858449E+04 0.  0.
        2    1    3    3  502    0  0.42819711277E+03 -0.67234962521E+03  0.17609562194E+03  0.81634334320E+03  0.25500000920E-02 0. -1.
       -2    1    3    3    0  502 -0.42819711277E+03  0.67234962521E+03  0.12186213343E+04  0.14561746950E+04  0.25500000920E-02 0.  1.
</event>
<event>
 5   0  0.8430513E-05  0.1750987E+04  0.7818609E-02  0.8732807E-01
       -1   -1    0    0    0  501  0.00000000000E+00  0.00000000000E+00  0.67154797419E+03  0.67154797421E+03  0.50400001928E-02 0. -1.
        1   -1    0    0  501    0  0.00000000000E+00  0.00000000000E+00 -0.11413758361E+04  0.11413758361E+04  0.50400001928E-02 0.  1.
    10030    2    1    2    0    0  0.00000000000E+00  0.00000000000E+00 -0.46982786187E+03  0.18129238103E+04  0.17509867281E+04 0.  0.
        5    1    3    3  502    0 -0.34738232826E+03  0.62785827078E+02 -0.10644083547E+04  0.11214293458E+04  0.46999998093E+01 0.  1.
       -5    1    3    3    0  502  0.34738232826E+03 -0.62785827078E+02  0.59458049279E+03  0.69149446453E+03  0.46999998093E+01 0. -1.
</event>
<event>
 5   0  0.8132598E-05  0.1809813E+04  0.7818609E-02  0.8701099E-01
        1   -1    0    0  501    0  0.00000000000E+00  0.00000000000E+00  0.91052320185E+03  0.91052320186E+03  0.50400001928E-02 0.  1.
       -1   -1    0    0    0  501  0.00000000000E+00  0.00000000000E+00 -0.89932400828E+03  0.89932400829E+03  0.50400001928E-02 0. -1.
    10030    2    1    2    0    0  0.00000000000E+00  0.00000000000E+00  0.11199193566E+02  0.18098472102E+04  0.18098125600E+04 0.  0.
        3    1    3    3  502    0 -0.38019143443E+03  0.82110931880E+03 -0.38517806380E+01  0.90486512069E+03  0.10100000352E+00 0. -1.
       -3    1    3    3    0  502  0.38019143443E+03 -0.82110931880E+03  0.15050974204E+02  0.90498208946E+03  0.10100000352E+00 0.  1.
</event>
<event>
 5   0  0.1549012E-04  0.1807086E+04  0.7818609E-02  0.8702540E-01
        2   -1    0    0  501    0  0.00000000000E+00  0.00000000000E+00  0.18956290102E+04  0.18956290102E+04  0.25500000920E-02 0.  1.
       -2   -1    0    0    0  501  0.00000000000E+00  0.00000000000E+00 -0.43066958503E+03  0.43066958504E+03  0.25500000920E-02 0. -1.
    10030    2    1    2    0    0  0.00000000000E+00  0.00000000000E+00  0.14649594252E+04  0.23262985953E+04  0.18070857857E+04 0.  0.
        4    1    3    3  502    0 -0.26474324644E+03  0.19467529367E+02 -0.37933614889E+03  0.46299621811E+03  0.12699999809E+01 0. -1.
       -4    1    3    3    0  502  0.26474324644E+03 -0.19467529367E+02  0.18442955741E+04  0.18633023772E+04  0.12699999809E+01 0.  1.
</event>
<event>
 5   0  0.8430513E-05  0.1789179E+04  0.7818609E-02  0.8712075E-01
       -1   -1    0    0    0  501  0.00000000000E+00  0.00000000000E+00  0.35349026385E+03  0.35349026388E+03  0.50400001928E-02 0. -1.
        1   -1    0    0  501    0  0.00000000000E+00  0.00000000000E+00 -0.22639665084E+04  0.22639665084E+04  0.50400001928E-02 0.  1.
    10030    2    1    2    0    0  0.00000000000E+00  0.00000000000E+00 -0.19104762446E+04  0.26174567723E+04  0.17891787149E+04 0.  0.
        5    1    3    3  502    0  0.56582021490E+03  0.11003468648E+02 -0.19687851325E+04  0.20485142372E+04  0.46999998093E+01 0.  1.
       -5    1    3    3    0  502 -0.56582021490E+03 -0.11003468648E+02  0.58308887905E+02  0.56894253517E+03  0.46999998093E+01 0. -1.
</event>
<event>
 5   0  0.8206783E-05  0.1807104E+04  0.7818609E-02  0.8702531E-01
       -1   -1    0    0    0  501  0.00000000000E+00  0.00000000000E+00  0.99601252236E+03  0.99601252237E+03  0.50400001928E-02 0. -1.
        1   -1    0    0  501    0  0.00000000000E+00  0.00000000000E+00 -0.81967466894E+03  0.81967466895E+03  0.50400001928E-02 0.  1.
    10030    2    1    2    0    0  0.00000000000E+00  0.00000000000E+00  0.17633785342E+03  0.18156871913E+04  0.18071040198E+04 0.  0.
        1    1    3    3  502    0 -0.64540612292E+03  0.62565080708E+03  0.18035567450E+03  0.91679668698E+03  0.50400001928E-02 0.  1.
       -1    1    3    3    0  502  0.64540612292E+03 -0.62565080708E+03 -0.40178210780E+01  0.89889050435E+03  0.50400001928E-02 0. -1.
</event>
<event>
 5   0  0.8430513E-05  0.1786945E+04  0.7818609E-02  0.8713273E-01
        1   -1    0    0  501    0  0.00000000000E+00  0.00000000000E+00  0.22238447957E+04  0.22238447957E+04  0.50400001928E-02 0. -1.
       -1   -1    0    0    0  501  0.00000000000E+00  0.00000000000E+00 -0.35896989373E+03  0.35896989376E+03  0.50400001928E-02 0.  1.
    10030    2    1    2    0    0  0.00000000000E+00  0.00000000000E+00  0.18648749020E+04  0.25828146895E+04  0.17869452482E+04 0.  0.
        5    1    3    3  502    0  0.66056584197E+03 -0.32114853546E+03  0.19715575373E+03  0.76051041718E+03  0.46999998093E+01 0.  1.
       -5    1    3    3    0  502 -0.66056584197E+03  0.32114853546E+03  0.16677191482E+04  0.18223042723E+04  0.46999998093E+01 0. -1.
</event>
<event>
 5   0  0.1603564E-04  0.1804106E+04  0.7818609E-02  0.8704119E-01
        2   -1    0    0  501    0  0.00000000000E+00  0.00000000000E+00  0.12944235669E+04  0.12944235669E+04  0.25500000920E-02 0. -1.
       -2   -1    0    0    0  501  0.00000000000E+00  0.00000000000E+00 -0.62861901398E+03  0.62861901399E+03  0.25500000920E-02 0.  1.
    10030    2    1    2    0    0  0.00000000000E+00  0.00000000000E+00  0.66580455288E+03  0.19230425809E+04  0.18041056136E+04 0.  0.
        5    1    3    3  502    0  0.72822286770E+03  0.39103306492E+03 -0.52104684513E+02  0.82822242848E+03  0.46999998093E+01 0.  1.
       -5    1    3    3    0  502 -0.72822286770E+03 -0.39103306492E+03  0.71790923739E+03  0.10948201524E+04  0.46999998093E+01 0. -1.
</event>
<event>
 5   0  0.8254914E-05  0.1796951E+04  0.7818609E-02  0.8707923E-01
        1   -1    0    0  501    0  0.00000000000E+00  0.00000000000E+00  0.84875243461E+03  0.84875243462E+03  0.50400001928E-02 0. -1.
       -1   -1    0    0    0  501  0.00000000000E+00  0.00000000000E+00 -0.95111121616E+03  0.95111121617E+03  0.50400001928E-02 0.  1.
    10030    2    1    2    0    0  0.00000000000E+00  0.00000000000E+00 -0.10235878155E+03  0.17998636508E+04  0.17969507064E+04 0.  0.
        4    1    3    3  502    0 -0.16635920033E+03  0.65928220908E+03  0.53707831546E+03  0.86647743455E+03  0.12699999809E+01 0. -1.
       -4    1    3    3    0  502  0.16635920033E+03 -0.65928220908E+03 -0.63943709701E+03  0.93338621625E+03  0.12699999809E+01 0.  1.
</event>
<event>
 5   0  0.5820500E-05  0.1779384E+04  0.7818609E-02  0.8717340E-01
        3   -1    0    0  501    0  0.00000000000E+00  0.00000000000E+00  0.13902898516E+04  0.13902898553E+04  0.10100000352E+00 0.  1.
       -3   -1    0    0    0  501  0.00000000000E+00  0.00000000000E+00 -0.56934302579E+03  0.56934303475E+03  0.10100000352E+00 0. -1.
    10030    2    1    2    0    0  0.00000000000E+00  0.00000000000E+00  0.82094682580E+03  0.19596328900E+04  0.17793839869E+04 0.  0.
        4    1    3    3  502    0 -0.66795013204E+03  0.53417912894E+03  0.14060919151E+03  0.86676252706E+03  0.12699999809E+01 0.  1.
       -4    1    3    3    0  502  0.66795013204E+03 -0.53417912894E+03  0.68033763429E+03  0.10928703630E+04  0.12699999809E+01 0. -1.
</event>
<event>
 5   0  0.1603564E-04  0.1797588E+04  0.7818609E-02  0.8707583E-01
       -2   -1    0    0    0  501  0.00000000000E+00  0.00000000000E+00  0.49976350584E+03  0.49976350585E+03  0.25500000920E-02 0. -1.
        2   -1    0    0  501    0  0.00000000000E+00  0.00000000000E+00 -0.16164259767E+04  0.16164259767E+04  0.25500000920E-02 0.  1.
    10030    2    1    2    0    0  0.00000000000E+00  0.00000000000E+00 -0.11166624708E+04  0.21161894825E+04  0.17975880652E+04 0.  0.
        5    1    3    3  502    0  0.64618043616E+03 -0.60936468249E+03 -0.72032089419E+03  0.11435728018E+04  0.46999998093E+01 0. -1.
       -5    1    3    3    0  502 -0.64618043616E+03  0.60936468249E+03 -0.39634157666E+03  0.97261668078E+03  0.46999998093E+01 0.  1.
</event>
<event>
 5   0  0.8430513E-05  0.1817936E+04  0.7818609E-02  0.8696819E-01
        1   -1    0    0  501    0  0.00000000000E+00  0.00000000000E+00  0.17990569821E+04  0.17990569821E+04  0.50400001928E-02 0. -1.
       -1   -1    0    0    0  501  0.00000000000E+00  0.00000000000E+00 -0.45925326000E+03  0.45925326002E+03  0.50400001928E-02 0.  1.
    10030    2    1    2    0    0  0.00000000000E+00  0.00000000000E+00  0.13398037221E+04  0.22583102421E+04  0.18179359548E+04 0.  0.
        5    1    3    3  502    0  0.58149603821E+03  0.78911498735E+02  0.15321944620E+04  0.16407335635E+04  0.46999998093E+01 0. -1.
       -5    1    3    3    0  502 -0.58149603821E+03 -0.78911498735E+02 -0.19239073995E+03  0.61757667856E+03  0.46999998093E+01 0.  1.
</event>
<event>
 5   0  0.1549012E-04  0.1797169E+04  0.7818609E-02  0.8707807E-01
       -2   -1    0    0    0  501  0.00000000000E+00  0.00000000000E+00  0.85478904988E+03  0.85478904988E+03  0.25500000920E-02 0.  1.
        2   -1    0    0  501    0  0.00000000000E+00  0.00000000000E+00 -0.94462363737E+03  0.94462363737E+03  0.25500000920E-02 0. -1.
    10030    2    1    2    0    0  0.00000000000E+00  0.00000000000E+00 -0.89834587491E+02  0.17994126873E+04  0.17971688195E+04 0.  0.
        4    1    3    3  502    0 -0.44251077718E+03 -0.46567243005E+03  0.58418696546E+03  0.86829869489E+03  0.12699999809E+01 0.  1.
       -4    1    3    3    0  502  0.44251077718E+03  0.46567243005E+03 -0.67402155295E+03  0.93111399236E+03  0.12699999809E+01 0. -1.
</event>
<event>
 5   0  0.8254914E-05  0.1780810E+04  0.7818609E-02  0.8716572E-01
        1   -1    0    0  501    0  0.00000000000E+00  0.00000000000E+00  0.84918633442E+03  0.84918633444E+03  0.50400001928E-02 0.  1.
       -1   -1    0    0    0  501  0.00000000000E+00  0.00000000000E+00 -0.93362434602E+03  0.93362434604E+03  0.50400001928E-02 0. -1.
    10030    2    1    2    0    0  0.00000000000E+00  0.00000000000E+00 -0.84438011602E+02  0.17828106805E+04  0.17808099687E+04 0.  0.
        4    1    3    3  502    0 -0.88729910107E+03 -0.45360243036E+02 -0.10112537734E+03  0.89419528139E+03  0.12699999809E+01 0. -1.
       -4    1    3    3    0  502  0.88729910107E+03  0.45360243036E+02  0.16687365738E+02  0.88861539908E+03  0.12699999809E+01 0.  1.
</event>
<event>
 5   0  0.8492114E-05  0.1788974E+04  0.7818609E-02  0.8712185E-01
       -1   -1    0    0    0  501  0.00000000000E+00  0.00000000000E+00  0.90723368563E+03  0.90723368564E+03  0.50400001928E-02 0. -1.
        1   -1    0    0  501    0  0.00000000000E+00  0.00000000000E+00 -0.88191957121E+03  0.88191957122E+03  0.50400001928E-02 0.  1.
    10030    2    1    2    0    0  0.00000000000E+00  0.00000000000E+00  0.25314114422E+02  0.17891532569E+04  0.17889741675E+04 0.  0.
        2    1    3    3  502    0 -0.76496220805E+02  0.77595527294E+03  0.45104884381E+03  0.90077928313E+03  0.25500000920E-02 0. -1.
       -2    1    3    3    0  502  0.76496220805E+02 -0.77595527294E+03 -0.42573472939E+03  0.88837397374E+03  0.25500000920E-02 0.  1.
</event>
<event>
 5   0  0.8132598E-05  0.1784748E+04  0.7818609E-02  0.8714452E-01
        1   -1    0    0  501    0  0.00000000000E+00  0.00000000000E+00  0.18244784331E+04  0.18244784331E+04  0.50400001928E-02 0. -1.
       -1   -1    0    0    0  501  0.00000000000E+00  0.00000000000E+00 -0.43647078221E+03  0.43647078224E+03  0.50400001928E-02 0.  1.
    10030    2    1    2    0    0  0.00000000000E+00  0.00000000000E+00  0.13880076509E+04  0.22609492153E+04  0.17847481938E+04 0.  0.
        3    1    3    3  502    0  0.20761779993E+03 -0.38362778583E+03 -0.29220813699E+03  0.52503431738E+03  0.10100000352E+00 0.  1.
       -3    1    3    3    0  502 -0.20761779993E+03  0.38362778583E+03  0.16802157879E+04  0.17359148979E+04  0.10100000352E+00 0. -1.
</event>
<event>
 5   0  0.1628397E-04  0.1793496E+04  0.7818609E-02  0.8709766E-01
       -2   -1    0    0    0  501  0.00000000000E+00  0.00000000000E+00  0.90179122711E+03  0.90179122711E+03  0.25500000920E-02 0. -1.
        2   -1    0    0  501    0  0.00000000000E+00  0.00000000000E+00 -0.89173329039E+03  0.89173329040E+03  0.25500000920E-02 0.  1.
    10030    2    1    2    0    0  0.00000000000E+00  0.00000000000E+00  0.10057936717E+02  0.17935245175E+04  0.17934963152E+04 0.  0.
        3    1    3    3  502    0 -0.58933613538E+03 -0.57030604274E+03  0.36778966587E+03  0.89879659065E+03  0.10100000352E+00 0. -1.
       -3    1    3    3    0  502  0.58933613538E+03  0.57030604274E+03 -0.35773172916E+03  0.89472792685E+03  0.10100000352E+00 0.  1.
</event>
<event>
 5   0  0.8492114E-05  0.1817683E+04  0.7818609E-02  0.8696952E-01
        1   -1    0    0  501    0  0.00000000000E+00  0.00000000000E+00  0.11436227054E+04  0.11436227054E+04  0.50400001928E-02 0.  1.
       -1   -1    0    0    0  501  0.00000000000E+00  0.00000000000E+00 -0.72226000819E+03  0.72226000821E+03  0.50400001928E-02 0. -1.
    10030    2    1    2    0    0  0.00000000000E+00  0.00000000000E+00  0.42136269722E+03  0.18658827136E+04  0.18176830797E+04 0.  0.
        2    1    3    3  502    0  0.12950942451E+03  0.56611319649E+03 -0.50695328048E+03  0.77088161923E+03  0.25500000920E-02 0. -1.
       -2    1    3    3    0  502 -0.12950942451E+03 -0.56611319649E+03  0.92831597770E+03  0.10950010944E+04  0.25500000920E-02 0.  1.
</event>
<event>
 5   0  0.8492114E-05  0.1800541E+04  0.7818609E-02  0.8706012E-01
        1   -1    0    0  501    0  0.00000000000E+00  0.00000000000E+00  0.19205148004E+04  0.19205148004E+04  0.50400001928E-02 0.  1.
       -1   -1    0    0    0  501  0.00000000000E+00  0.00000000000E+00 -0.42201537493E+03  0.42201537496E+03  0.50400001928E-02 0. -1.
    10030    2    1    2    0    0  0.00000000000E+00  0.00000000000E+00  0.14984994254E+04  0.23425301753E+04  0.18005407783E+04 0.  0.
        2    1    3    3  502    0 -0.64172806850E+02 -0.75471761877E+03  0.13823106475E+04  0.15762295389E+04  0.25500000920E-02 0.  1.
       -2    1    3    3    0  502  0.64172806850E+02  0.75471761877E+03  0.11618877795E+03  0.76630063640E+03  0.25500000920E-02 0. -1.
</event>
<event>
 5   0  0.1603564E-04  0.1784030E+04  0.7818609E-02  0.8714839E-01
        2   -1    0    0  501    0  0.00000000000E+00  0.00000000000E+00  0.12699063222E+04  0.12699063222E+04  0.25500000920E-02 0.  1.
       -2   -1    0    0    0  501  0.00000000000E+00  0.00000000000E+00 -0.62657420988E+03  0.62657420989E+03  0.25500000920E-02 0. -1.
    10030    2    1    2    0    0  0.00000000000E+00  0.00000000000E+00  0.64333211230E+03  0.18964805321E+04  0.17840297648E+04 0.  0.
        5    1    3    3  502    0  0.15314945182E+03 -0.85848230628E+03  0.12216174438E+03  0.88056357327E+03  0.46999998093E+01 0.  1.
       -5    1    3    3    0  502 -0.15314945182E+03  0.85848230628E+03  0.52117036792E+03  0.10159169588E+04  0.46999998093E+01 0. -1.
</event>
<event>
 5   0  0.1549012E-04  0.1790282E+04  0.7818609E-02  0.8711485E-01
        2   -1    0    0  501    0  0.00000000000E+00  0.00000000000E+00  0.23680700095E+04  0.23680700095E+04  0.25500000920E-02 0.  1.
       -2   -1    0    0    0  501  0.00000000000E+00  0.00000000000E+00 -0.33836717211E+03  0.33836717212E+03  0.25500000920E-02 0. -1.
    10030    2    1    2    0    0  0.00000000000E+00  0.00000000000E+00  0.20297028373E+04  0.27064371816E+04  0.17902817125E+04 0.  0.
        4    1    3    3  502    0  0.12171807338E+03 -0.14604721767E+03  0.23371950313E+04  0.23449152024E+04  0.12699999809E+01 0.  1.
       -4    1    3    3    0  502 -0.12171807338E+03  0.14604721767E+03 -0.30749219397E+03  0.36152197918E+03  0.12699999809E+01 0. -1.
</event>
<event>
 5   0  0.8492114E-05  0.1812270E+04  0.7818609E-02  0.8699802E-01
        1   -1    0    0  501    0  0.00000000000E+00  0.00000000000E+00  0.14281415844E+04  0.14281415844E+04  0.50400001928E-02 0. -1.
       -1   -1    0    0    0  501  0.00000000000E+00  0.00000000000E+00 -0.57492928597E+03  0.57492928599E+03  0.50400001928E-02 0.  1.
    10030    2    1    2    0    0  0.00000000000E+00  0.00000000000E+00  0.85321229844E+03  0.20030708704E+04  0.18122697607E+04 0.  0.
        2    1    3    3  502    0  0.44774108920E+03  0.39717495885E+03  0.11785726264E+04  0.13218371558E+04  0.25500000920E-02 0. -1.
       -2    1    3    3    0  502 -0.44774108920E+03 -0.39717495885E+03 -0.32536032792E+03  0.68123371459E+03  0.25500000920E-02 0.  1.
</event>
<event>
 5   0  0.8132598E-05  0.1801657E+04  0.7818609E-02  0.8705419E-01
        1   -1    0    0  501    0  0.00000000000E+00  0.00000000000E+00  0.11916618781E+04  0.11916618781E+04  0.50400001928E-02 0. -1.
       -1   -1    0    0    0  501  0.00000000000E+00  0.00000000000E+00 -0.68097537934E+03  0.68097537936E+03  0.50400001928E-02 0.  1.
    10030    2    1    2    0    0  0.00000000000E+00  0.00000000000E+00  0.51068649874E+03  0.18726372575E+04  0.18016574586E+04 0.  0.
        3    1    3    3  502    0 -0.80874522968E+03  0.34373487367E+03  0.49369810654E+02  0.88014765711E+03  0.10100000352E+00 0. -1.
       -3    1    3    3    0  502  0.80874522968E+03 -0.34373487367E+03  0.46131668809E+03  0.99248960036E+03  0.10100000352E+00 0.  1.
</event>
<event>
 5   0  0.8132598E-05  0.1845855E+04  0.7818609E-02  0.8682287E-01
       -1   -1    0    0    0  501  0.00000000000E+00  0.00000000000E+00  0.99908381299E+03  0.99908381300E+03  0.50400001928E-02 0. -1.
        1   -1    0    0  501    0  0.00000000000E+00  0.00000000000E+00 -0.85257614229E+03  0.85257614230E+03  0.50400001928E-02 0.  1.
    10030    2    1    2    0    0  0.00000000000E+00  0.00000000000E+00  0.14650767070E+03  0.18516599553E+04  0.18458548406E+04 0.  0.
        3    1    3    3  502    0  0.74070707660E+02  0.78808370220E+03 -0.40282550500E+03  0.88816146567E+03  0.10100000352E+00 0.  1.
       -3    1    3    3    0  502 -0.74070707660E+02 -0.78808370220E+03  0.54933317569E+03  0.96349848964E+03  0.10100000352E+00 0. -1.
</event>
<event>
 5   0  0.1608627E-04  0.1743844E+04  0.7818609E-02  0.8736746E-01
       -2   -1    0    0    0  501  0.00000000000E+00  0.00000000000E+00  0.58914201877E+03  0.58914201877E+03  0.25500000920E-02 0.  1.
        2   -1    0    0  501    0  0.00000000000E+00  0.00000000000E+00 -0.12904329895E+04  0.12904329895E+04  0.25500000920E-02 0. -1.
    10030    2    1    2    0    0  0.00000000000E+00  0.00000000000E+00 -0.70129097073E+03  0.18795750083E+04  0.17438443698E+04 0.  0.
        2    1    3    3  502    0 -0.40240677310E+03 -0.25609101014E+03  0.43605123832E+03  0.64626194299E+03  0.25500000920E-02 0.  1.
       -2    1    3    3    0  502  0.40240677310E+03  0.25609101014E+03 -0.11373422091E+04  0.12333130653E+04  0.25500000920E-02 0. -1.
</event>
<event>
 5   0  0.8206783E-05  0.1801961E+04  0.7818609E-02  0.8705257E-01
        1   -1    0    0  501    0  0.00000000000E+00  0.00000000000E+00  0.68433946692E+03  0.68433946694E+03  0.50400001928E-02 0.  1.
       -1   -1    0    0    0  501  0.00000000000E+00  0.00000000000E+00 -0.11862033914E+04  0.11862033914E+04  0.50400001928E-02 0. -1.
    10030    2    1    2    0    0  0.00000000000E+00  0.00000000000E+00 -0.50186392445E+03  0.18705428583E+04  0.18019609280E+04 0.  0.
        1    1    3    3  502    0 -0.73895195291E+03  0.51229041945E+03 -0.31033159742E+03  0.95120826476E+03  0.50400001928E-02 0. -1.
       -1    1    3    3    0  502  0.73895195291E+03 -0.51229041945E+03 -0.19153232703E+03  0.91933459355E+03  0.50400001928E-02 0.  1.
</event>
<event>
 5   0  0.1603564E-04  0.1793312E+04  0.7818609E-02  0.8709864E-01
        2   -1    0    0  501    0  0.00000000000E+00  0.00000000000E+00  0.11401023813E+04  0.11401023813E+04  0.25500000920E-02 0. -1.
       -2   -1    0    0    0  501  0.00000000000E+00  0.00000000000E+00 -0.70519293699E+03  0.70519293699E+03  0.25500000920E-02 0.  1.
    10030    2    1    2    0    0  0.00000000000E+00  0.00000000000E+00  0.43490944435E+03  0.18452953183E+04  0.17933121834E+04 0.  0.
        5    1    3    3  502    0 -0.16828215951E+03 -0.28571630512E+03 -0.63977091150E+03  0.72061196314E+03  0.46999998093E+01 0.  1.
       -5    1    3    3    0  502  0.16828215951E+03  0.28571630512E+03  0.10746803558E+04  0.11246833552E+04  0.46999998093E+01 0. -1.
</event>
<event>
 5   0  0.8132598E-05  0.1799900E+04  0.7818609E-02  0.8706352E-01
       -1   -1    0    0    0  501  0.00000000000E+00  0.00000000000E+00  0.14586923522E+04  0.14586923523E+04  0.50400001928E-02 0. -1.
        1   -1    0    0  501    0  0.00000000000E+00  0.00000000000E+00 -0.55523046360E+03  0.55523046362E+03  0.50400001928E-02 0.  1.
    10030    2    1    2    0    0  0.00000000000E+00  0.00000000000E+00  0.90346188865E+03  0.20139228159E+04  0.17999004762E+04 0.  0.
        3    1    3    3  502    0  0.82423439808E+03 -0.42007526757E+02  0.50195071926E+02  0.82682920288E+03  0.10100000352E+00 0.  1.
       -3    1    3    3    0  502 -0.82423439808E+03  0.42007526757E+02  0.85326681672E+03  0.11870936130E+04  0.10100000352E+00 0. -1.
</event>
<event>
 5   0  0.1608627E-04  0.1781737E+04  0.7818609E-02  0.8716072E-01
       -2   -1    0    0    0  501  0.00000000000E+00  0.00000000000E+00  0.87794544436E+03  0.87794544437E+03  0.25500000920E-02 0. -1.
        2   -1    0    0  501    0  0.00000000000E+00  0.00000000000E+00 -0.90398192232E+03  0.90398192232E+03  0.25500000920E-02 0.  1.
    10030    2    1    2    0    0  0.00000000000E+00  0.00000000000E+00 -0.26036477956E+02  0.17819273667E+04  0.17817371417E+04 0.  0.
        2    1    3    3  502    0  0.19903485848E+03  0.84488032327E+03 -0.21356190300E+03  0.89389390979E+03  0.25500000920E-02 0.  1.
       -2    1    3    3    0  502 -0.19903485848E+03 -0.84488032327E+03  0.18752542505E+03  0.88803345690E+03  0.25500000920E-02 0. -1.
</event>
<event>
 5   0  0.1603564E-04  0.1788252E+04  0.7818609E-02  0.8712572E-01
       -2   -1    0    0    0  501  0.00000000000E+00  0.00000000000E+00  0.14009164270E+04  0.14009164270E+04  0.25500000920E-02 0.  1.
        2   -1    0    0  501    0  0.00000000000E+00  0.00000000000E+00 -0.57067024259E+03  0.57067024260E+03  0.25500000920E-02 0. -1.
    10030    2    1    2    0    0  0.00000000000E+00  0.00000000000E+00  0.83024618442E+03  0.19715866696E+04  0.17882520150E+04 0.  0.
        5    1    3    3  502    0 -0.18682239881E+03  0.31870907185E+03  0.13128230161E+04  0.13638197985E+04  0.46999998093E+01 0.  1.
       -5    1    3    3    0  502  0.18682239881E+03 -0.31870907185E+03 -0.48257683167E+03  0.60776687112E+03  0.46999998093E+01 0. -1.
</event>
<event>
 5   0  0.8206783E-05  0.1793382E+04  0.7818609E-02  0.8709827E-01
       -1   -1    0    0    0  501  0.00000000000E+00  0.00000000000E+00  0.16506566517E+04  0.16506566517E+04  0.50400001928E-02 0.  1.
        1   -1    0    0  501    0  0.00000000000E+00  0.00000000000E+00 -0.48711197856E+03  0.48711197858E+03  0.50400001928E-02 0. -1.
    10030    2    1    2    0    0  0.00000000000E+00  0.00000000000E+00  0.11635446731E+04  0.21377686303E+04  0.17933818640E+04 0.  0.
        1    1    3    3  502    0 -0.30839610122E+03 -0.69926640109E+03  0.11408505751E+04  0.13731794092E+04  0.50400001928E-02 0.  1.
       -1    1    3    3    0  502  0.30839610122E+03  0.69926640109E+03  0.22694098012E+02  0.76458922112E+03  0.50400001928E-02 0. -1.
</event>
<event>
 5   0  0.8254914E-05  0.1801928E+04  0.7818609E-02  0.8705275E-01
       -1   -1    0    0    0  501  0.00000000000E+00  0.00000000000E+00  0.11867076864E+04  0.11867076864E+04  0.50400001928E-02 0. -1.
        1   -1    0    0  501    0  0.00000000000E+00  0.00000000000E+00 -0.68402392125E+03  0.68402392127E+03  0.50400001928E-02 0.  1.
    10030    2    1    2    0    0  0.00000000000E+00  0.00000000000E+00  0.50268376515E+03  0.18707316077E+04  0.18019283505E+04 0.  0.
        4    1    3    3  502    0 -0.18626314121E+03  0.78396628276E+03 -0.16708293706E+03  0.82293098802E+03  0.12699999809E+01 0.  1.
       -4    1    3    3    0  502  0.18626314121E+03 -0.78396628276E+03  0.66976670222E+03  0.10478006197E+04  0.12699999809E+01 0. -1.
</event>
<event>
 5   0  0.1628397E-04  0.1787464E+04  0.7818609E-02  0.8712995E-01
       -2   -1    0    0    0  501  0.00000000000E+00  0.00000000000E+00  0.11120925766E+04  0.11120925767E+04  0.25500000920E-02 0. -1.
        2   -1    0    0  501    0  0.00000000000E+00  0.00000000000E+00 -0.71824658734E+03  0.71824658734E+03  0.25500000920E-02 0.  1.
    10030    2    1    2    0    0  0.00000000000E+00  0.00000000000E+00  0.39384598931E+03  0.18303391640E+04  0.17874637876E+04 0.  0.
        3    1    3    3  502    0 -0.49137786962E+02 -0.13899309882E+03 -0.70571015867E+03  0.72094413228E+03  0.10100000352E+00 0.  1.
       -3    1    3    3    0  502  0.49137786962E+02  0.13899309882E+03  0.10995561480E+04  0.11093950317E+04  0.10100000352E+00 0. -1.
</event>
<event>
 5   0  0.8430513E-05  0.1806810E+04  0.7818609E-02  0.8702686E-01
       -1   -1    0    0    0  501  0.00000000000E+00  0.00000000000E+00  0.10616706372E+04  0.10616706372E+04  0.50400001928E-02 0. -1.
        1   -1    0    0  501    0  0.00000000000E+00  0.00000000000E+00 -0.76873225852E+03  0.76873225853E+03  0.50400001928E-02 0.  1.
    10030    2    1    2    0    0  0.00000000000E+00  0.00000000000E+00  0.29293837871E+03  0.18304028958E+04  0.18068098592E+04 0.  0.
        5    1    3    3  502    0  0.88797689785E+03 -0.16608206657E+03  0.14072480045E+03  0.91428211369E+03  0.46999998093E+01 0.  1.
       -5    1    3    3    0  502 -0.88797689785E+03  0.16608206657E+03  0.15221357826E+03  0.91612078208E+03  0.46999998093E+01 0. -1.
</event>
<event>
 5   0  0.1573981E-04  0.1806153E+04  0.7818609E-02  0.8703034E-01
       -2   -1    0    0    0  501  0.00000000000E+00  0.00000000000E+00  0.91812094638E+03  0.91812094638E+03  0.25500000920E-02 0.  1.
        2   -1    0    0  501    0  0.00000000000E+00  0.00000000000E+00 -0.88827859410E+03  0.88827859411E+03  0.25500000920E-02 0. -1.
    10030    2    1    2    0    0  0.00000000000E+00  0.00000000000E+00  0.29842352277E+02  0.18063995405E+04  0.18061530206E+04 0.  0.
        1    1    3    3  502    0  0.22534643444E+03 -0.67589535858E+03 -0.54007044221E+03  0.89403111458E+03  0.50400001928E-02 0. -1.
       -1    1    3    3    0  502 -0.22534643444E+03  0.67589535858E+03  0.56991279448E+03  0.91236842591E+03  0.50400001928E-02 0.  1.
</event>
<event>
 5   0  0.8206783E-05  0.1799201E+04  0.7818609E-02  0.8706725E-01
        1   -1    0    0  501    0  0.00000000000E+00  0.00000000000E+00  0.10227607112E+04  0.10227607113E+04  0.50400001928E-02 0. -1.
       -1   -1    0    0    0  501  0.00000000000E+00  0.00000000000E+00 -0.79127075168E+03  0.79127075169E+03  0.50400001928E-02 0.  1.
    10030    2    1    2    0    0  0.00000000000E+00  0.00000000000E+00  0.23148995956E+03  0.18140314629E+04  0.17992005300E+04 0.  0.
        1    1    3    3  502    0 -0.80509367022E+03  0.26211338716E+03 -0.19073668637E+03  0.86790536875E+03  0.50400001928E-02 0.  1.
       -1    1    3    3    0  502  0.80509367022E+03 -0.26211338716E+03  0.42222664593E+03  0.94612609420E+03  0.50400001928E-02 0. -1.
</event>
<event>
 5   0  0.1608627E-04  0.1795410E+04  0.7818609E-02  0.8708744E-01
       -2   -1    0    0    0  501  0.00000000000E+00  0.00000000000E+00  0.34220389873E+03  0.34220389873E+03  0.25500000920E-02 0. -1.
        2   -1    0    0  501    0  0.00000000000E+00  0.00000000000E+00 -0.23549536682E+04  0.23549536682E+04  0.25500000920E-02 0.  1.
    10030    2    1    2    0    0  0.00000000000E+00  0.00000000000E+00 -0.20127497695E+04  0.26971575669E+04  0.17954100663E+04 0.  0.
        2    1    3    3  502    0  0.48098618113E+03  0.66394510256E+03 -0.45706921115E+03  0.93866025240E+03  0.25500000920E-02 0.  1.
       -2    1    3    3    0  502 -0.48098618113E+03 -0.66394510256E+03 -0.15556805583E+04  0.17584973145E+04  0.25500000920E-02 0. -1.
</event>
<event>
 5   0  0.8132598E-05  0.1786432E+04  0.7818609E-02  0.8713548E-01
        1   -1    0    0  501    0  0.00000000000E+00  0.00000000000E+00  0.19593058812E+04  0.19593058812E+04  0.50400001928E-02 0.  1.
       -1   -1    0    0    0  501  0.00000000000E+00  0.00000000000E+00 -0.40720296107E+03  0.40720296110E+03  0.50400001928E-02 0. -1.
    10030    2    1    2    0    0  0.00000000000E+00  0.00000000000E+00  0.15521029201E+04  0.23665088423E+04  0.17864323738E+04 0.  0.
        3    1    3    3  502    0  0.48646806741E+03  0.11427821202E+03 -0.20470491754E+03  0.54001370707E+03  0.10100000352E+00 0. -1.
       -3    1    3    3    0  502 -0.48646806741E+03 -0.11427821202E+03  0.17568078377E+04  0.18264951352E+04  0.10100000352E+00 0.  1.
</event>
<event>
 5   0  0.1549012E-04  0.1804449E+04  0.7818609E-02  0.8703937E-01
       -2   -1    0    0    0  501  0.00000000000E+00  0.00000000000E+00  0.16893641184E+04  0.16893641184E+04  0.25500000920E-02 0.  1.
        2   -1    0    0  501    0  0.00000000000E+00  0.00000000000E+00 -0.48184338760E+03  0.48184338761E+03  0.25500000920E-02 0. -1.
    10030    2    1    2    0    0  0.00000000000E+00  0.00000000000E+00  0.12075207308E+04  0.21712075060E+04  0.18044488685E+04 0.  0.
        4    1    3    3  502    0  0.62933480222E+03 -0.23937468117E+03  0.13263580740E+04  0.14874776922E+04  0.12699999809E+01 0.  1.
       -4    1    3    3    0  502 -0.62933480222E+03  0.23937468117E+03 -0.11883734324E+03  0.68372981383E+03  0.12699999809E+01 0. -1.
</event>
<event>
 5   0  0.1573981E-04  0.1794133E+04  0.7818609E-02  0.8709425E-01
       -2   -1    0    0    0  501  0.00000000000E+00  0.00000000000E+00  0.44526912262E+03  0.44526912263E+03  0.25500000920E-02 0. -1.
        2   -1    0    0  501    0  0.00000000000E+00  0.00000000000E+00 -0.18072861272E+04  0.18072861272E+04  0.25500000920E-02 0.  1.
    10030    2    1    2    0    0  0.00000000000E+00  0.00000000000E+00 -0.13620170046E+04  0.22525552498E+04  0.17941334490E+04 0.  0.
        1    1    3    3  502    0  0.60207744267E+03  0.64249437780E+03 -0.89640260609E+03  0.12565165756E+04  0.50400001928E-02 0.  1.
       -1    1    3    3    0  502 -0.60207744267E+03 -0.64249437780E+03 -0.46561439847E+03  0.99603867423E+03  0.50400001928E-02 0. -1.
</event>
<event>
 5   0  0.8132598E-05  0.1807182E+04  0.7818609E-02  0.8702489E-01
        1   -1    0    0  501    0  0.00000000000E+00  0.00000000000E+00  0.86276675595E+03  0.86276675596E+03  0.50400001928E-02 0.  1.
       -1   -1    0    0    0  501  0.00000000000E+00  0.00000000000E+00 -0.94634703491E+03  0.94634703493E+03  0.50400001928E-02 0. -1.
    10030    2    1    2    0    0  0.00000000000E+00  0.00000000000E+00 -0.83580278962E+02  0.18091137909E+04  0.18071820731E+04 0.  0.
        3    1    3    3  502    0  0.30682012203E+03 -0.65781769726E+03  0.49694311131E+03  0.87966765099E+03  0.10100000352E+00 0.  1.
       -3    1    3    3    0  502 -0.30682012203E+03  0.65781769726E+03 -0.58052339027E+03  0.92944613990E+03  0.10100000352E+00 0. -1.
</event>
<event>
 5   0  0.8430513E-05  0.1801505E+04  0.7818609E-02  0.8705500E-01
       -1   -1    0    0    0  501  0.00000000000E+00  0.00000000000E+00  0.59950056079E+03  0.59950056081E+03  0.50400001928E-02 0.  1.
        1   -1    0    0  501    0  0.00000000000E+00  0.00000000000E+00 -0.13533846555E+04  0.13533846555E+04  0.50400001928E-02 0. -1.
    10030    2    1    2    0    0  0.00000000000E+00  0.00000000000E+00 -0.75388409472E+03  0.19528852163E+04  0.18015047710E+04 0.  0.
        5    1    3    3  502    0 -0.64298591702E+03 -0.37325516168E+03  0.17429809539E+03  0.76364404094E+03  0.46999998093E+01 0.  1.
       -5    1    3    3    0  502  0.64298591702E+03  0.37325516168E+03 -0.92818219011E+03  0.11892411754E+04  0.46999998093E+01 0. -1.
</event>
<event>
 5   0  0.8132598E-05  0.1851220E+04  0.7818609E-02  0.8679526E-01
        1   -1    0    0  501    0  0.00000000000E+00  0.00000000000E+00  0.15977925562E+04  0.15977925563E+04  0.50400001928E-02 0.  1.
       -1   -1    0    0    0  501  0.00000000000E+00  0.00000000000E+00 -0.53621079293E+03  0.53621079295E+03  0.50400001928E-02 0. -1.
    10030    2    1    2    0    0  0.00000000000E+00  0.00000000000E+00  0.10615817633E+04  0.21340033492E+04  0.18512197207E+04 0.  0.
        3    1    3    3  502    0 -0.59117490618E+03  0.66493912964E+03  0.82496217174E+03  0.12133401876E+04  0.10100000352E+00 0.  1.
       -3    1    3    3    0  502  0.59117490618E+03 -0.66493912964E+03  0.23661959158E+03  0.92066316161E+03  0.10100000352E+00 0. -1.
</event>
<event>
 5   0  0.5820500E-05  0.1797771E+04  0.7818609E-02  0.8707485E-01
       -3   -1    0    0    0  501  0.00000000000E+00  0.00000000000E+00  0.83312644378E+03  0.83312644990E+03  0.10100000352E+00 0.  1.
        3   -1    0    0  501    0  0.00000000000E+00  0.00000000000E+00 -0.96983544650E+03  0.96983545176E+03  0.10100000352E+00 0. -1.
    10030    2    1    2    0    0  0.00000000000E+00  0.00000000000E+00 -0.13670900272E+03  0.18029619017E+04  0.17977714725E+04 0.  0.
        4    1    3    3  502    0  0.16089454453E+03 -0.24111719263E+03  0.78496598046E+03  0.83677820144E+03  0.12699999809E+01 0.  1.
       -4    1    3    3    0  502 -0.16089454453E+03  0.24111719263E+03 -0.92167498318E+03  0.96618370021E+03  0.12699999809E+01 0. -1.
</event>
<event>
 5   0  0.1608627E-04  0.1802059E+04  0.7818609E-02  0.8705205E-01
       -2   -1    0    0    0  501  0.00000000000E+00  0.00000000000E+00  0.50963048431E+03  0.50963048432E+03  0.25500000920E-02 0.  1.
        2   -1    0    0  501    0  0.00000000000E+00  0.00000000000E+00 -0.15930245483E+04  0.15930245484E+04  0.25500000920E-02 0. -1.
    10030    2    1    2    0    0  0.00000000000E+00  0.00000000000E+00 -0.10833940640E+04  0.21026550327E+04  0.18020586806E+04 0.  0.
        2    1    3    3  502    0  0.69646829795E+03  0.46525091588E+02 -0.12064917132E+04  0.13938633105E+04  0.25500000920E-02 0. -1.
       -2    1    3    3    0  502 -0.69646829795E+03 -0.46525091588E+02  0.12309764920E+03  0.70879172219E+03  0.25500000920E-02 0.  1.
</event>
<event>
 5   0  0.8132598E-05  0.1815755E+04  0.7818609E-02  0.8697966E-01
        1   -1    0    0  501    0  0.00000000000E+00  0.00000000000E+00  0.18805303121E+04  0.18805303121E+04  0.50400001928E-02 0.  1.
       -1   -1    0    0    0  501  0.00000000000E+00  0.00000000000E+00 -0.43830271707E+03  0.43830271710E+03  0.50400001928E-02 0. -1.
    10030    2    1    2    0    0  0.00000000000E+00  0.00000000000E+00  0.14422275950E+04  0.23188330292E+04  0.18157549894E+04 0.  0.
        3    1    3    3  502    0 -0.56658543571E+03 -0.62618654453E+03  0.11468047840E+04  0.14241804195E+04  0.10100000352E+00 0.  1.
       -3    1    3    3    0  502  0.56658543571E+03  0.62618654453E+03  0.29542281098E+03  0.89465260965E+03  0.10100000352E+00 0. -1.
</event>
<event>
 5   0  0.1573981E-04  0.1797148E+04  0.7818609E-02  0.8707818E-01
        2   -1    0    0  501    0  0.00000000000E+00  0.00000000000E+00  0.12080409834E+04  0.12080409834E+04  0.25500000920E-02 0. -1.
       -2   -1    0    0    0  501  0.00000000000E+00  0.00000000000E+00 -0.66838390992E+03  0.66838390992E+03  0.25500000920E-02 0.  1.
    10030    2    1    2    0    0  0.00000000000E+00  0.00000000000E+00  0.53965707348E+03  0.18764248933E+04  0.17971479136E+04 0.  0.
        1    1    3    3  502    0  0.74890124601E+03 -0.33239425594E+03 -0.11535725918E+03  0.82743357131E+03  0.50400001928E-02 0.  1.
       -1    1    3    3    0  502 -0.74890124601E+03  0.33239425594E+03  0.65501433267E+03  0.10489913220E+04  0.50400001928E-02 0. -1.
</event>
<event>
 5   0  0.1549012E-04  0.1797679E+04  0.7818609E-02  0.8707535E-01
       -2   -1    0    0    0  501  0.00000000000E+00  0.00000000000E+00  0.48108371722E+03  0.48108371723E+03  0.25500000920E-02 0. -1.
        2   -1    0    0  501    0  0.00000000000E+00  0.00000000000E+00 -0.16793590228E+04  0.16793590228E+04  0.25500000920E-02 0.  1.
    10030    2    1    2    0    0  0.00000000000E+00  0.00000000000E+00 -0.11982753056E+04  0.21604427401E+04  0.17976788159E+04 0.  0.
        4    1    3    3  502    0  0.60872935380E+03 -0.32907641930E+03 -0.12885411055E+04  0.14625944446E+04  0.12699999809E+01 0.  1.
       -4    1    3    3    0  502 -0.60872935380E+03  0.32907641930E+03  0.90265799916E+02  0.69784829544E+03  0.12699999809E+01 0. -1.
</event>
<event>
 5   0  0.8430513E-05  0.1791616E+04  0.7818609E-02  0.8710771E-01
       -1   -1    0    0    0  501  0.00000000000E+00  0.00000000000E+00  0.40520349337E+03  0.40520349340E+03  0.50400001928E-02 0.  1.
        1   -1    0    0  501    0  0.00000000000E+00  0.00000000000E+00 -0.19804161360E+04  0.19804161360E+04  0.50400001928E-02 0. -1.
    10030    2    1    2    0    0  0.00000000000E+00  0.00000000000E+00 -0.15752126426E+04  0.23856196294E+04  0.17916155131E+04 0.  0.
        5    1    3    3  502    0  0.43180702459E+03 -0.36487509338E+03  0.13765890102E+03  0.58186184209E+03  0.46999998093E+01 0.  1.
       -5    1    3    3    0  502 -0.43180702459E+03  0.36487509338E+03 -0.17128715437E+04  0.18037577873E+04  0.46999998093E+01 0. -1.
</event>
<event>
 5   0  0.1628397E-04  0.1765373E+04  0.7818609E-02  0.8724933E-01
        2   -1    0    0  501    0  0.00000000000E+00  0.00000000000E+00  0.19055803692E+04  0.19055803692E+04  0.25500000920E-02 0.  1.
       -2   -1    0    0    0  501  0.00000000000E+00  0.00000000000E+00 -0.40887048576E+03  0.40887048577E+03  0.25500000920E-02 0. -1.
    10030    2    1    2    0    0  0.00000000000E+00  0.00000000000E+00  0.14967098834E+04  0.23144508549E+04  0.17653731291E+04 0.  0.
        3    1    3    3  502    0 -0.38327694592E+03  0.64962424506E+03  0.14724869690E+03  0.76850183213E+03  0.10100000352E+00 0. -1.
       -3    1    3    3    0  502  0.38327694592E+03 -0.64962424506E+03  0.13494611865E+04  0.15459490228E+04  0.10100000352E+00 0.  1.
</event>
<event>
 5   0  0.1573981E-04  0.1831313E+04  0.7818609E-02  0.8689823E-01
        2   -1    0    0  501    0  0.00000000000E+00  0.00000000000E+00  0.88211744100E+03  0.88211744101E+03  0.25500000920E-02 0.  1.
       -2   -1    0    0    0  501  0.00000000000E+00  0.00000000000E+00 -0.95047070184E+03  0.95047070184E+03  0.25500000920E-02 0. -1.
    10030    2    1    2    0    0  0.00000000000E+00  0.00000000000E+00 -0.68353260834E+02  0.18325881428E+04  0.18313129533E+04 0.  0.
        1    1    3    3  502    0 -0.57915482397E+03 -0.33073927928E+03 -0.66200333058E+03  0.93971122730E+03  0.50400001928E-02 0. -1.
       -1    1    3    3    0  502  0.57915482397E+03  0.33073927928E+03  0.59365006974E+03  0.89287691555E+03  0.50400001928E-02 0.  1.
</event>
<event>
 5   0  0.8492114E-05  0.1797934E+04  0.7818609E-02  0.8707399E-01
       -1   -1    0    0    0  501  0.00000000000E+00  0.00000000000E+00  0.86003555330E+03  0.86003555332E+03  0.50400001928E-02 0. -1.
        1   -1    0    0  501    0  0.00000000000E+00  0.00000000000E+00 -0.93966115416E+03  0.93966115418E+03  0.50400001928E-02 0.  1.
    10030    2    1    2    0    0  0.00000000000E+00  0.00000000000E+00 -0.79625600861E+02  0.17996967075E+04  0.17979343711E+04 0.  0.
        2    1    3    3  502    0  0.85455286378E+03  0.23670552221E+03  0.10815597637E+03  0.89330163801E+03  0.25500000920E-02 0. -1.
       -2    1    3    3    0  502 -0.85455286378E+03 -0.23670552221E+03 -0.18778157723E+03  0.90639506949E+03  0.25500000920E-02 0.  1.
</event>
<event>
 5   0  0.8430513E-05  0.1800774E+04  0.7818609E-02  0.8705888E-01
       -1   -1    0    0    0  501  0.00000000000E+00  0.00000000000E+00  0.11032479969E+04  0.11032479969E+04  0.50400001928E-02 0.  1.
        1   -1    0    0  501    0  0.00000000000E+00  0.00000000000E+00 -0.73482730981E+03  0.73482730983E+03  0.50400001928E-02 0. -1.
    10030    2    1    2    0    0  0.00000000000E+00  0.00000000000E+00  0.36842068712E+03  0.18380753068E+04  0.18007740088E+04 0.  0.
        5    1    3    3  502    0  0.42818261624E+03  0.72053334961E+03 -0.15148822214E+03  0.85175080404E+03  0.46999998093E+01 0. -1.
       -5    1    3    3    0  502 -0.42818261624E+03 -0.72053334961E+03  0.51990890926E+03  0.98632450272E+03  0.46999998093E+01 0.  1.
</event>
<event>
 5   0  0.8206783E-05  0.1926605E+04  0.7818609E-02  0.8641725E-01
        1   -1    0    0  501    0  0.00000000000E+00  0.00000000000E+00  0.14234274334E+04  0.14234274334E+04  0.50400001928E-02 0. -1.
       -1   -1    0    0    0  501  0.00000000000E+00  0.00000000000E+00 -0.65191391812E+03  0.65191391814E+03  0.50400001928E-02 0.  1.
    10030    2    1    2    0    0  0.00000000000E+00  0.00000000000E+00  0.77151351526E+03  0.20753413515E+04  0.19266054659E+04 0.  0.
        1    1    3    3  502    0  0.61196955773E+03 -0.26014820428E+03 -0.36502091557E+03  0.75856713388E+03  0.50400001928E-02 0.  1.
       -1    1    3    3    0  502 -0.61196955773E+03  0.26014820428E+03  0.11365344308E+04  0.13167742176E+04  0.50400001928E-02 0. -1.
</event>
<event>
 5   0  0.1603564E-04  0.1782613E+04  0.7818609E-02  0.8715601E-01
        2   -1    0    0  501    0  0.00000000000E+00  0.00000000000E+00  0.15436912887E+04  0.15436912887E+04  0.25500000920E-02 0.  1.
       -2   -1    0    0    0  501  0.00000000000E+00  0.00000000000E+00 -0.51462820081E+03  0.51462820082E+03  0.25500000920E-02 0. -1.
    10030    2    1    2    0    0  0.00000000000E+00  0.00000000000E+00  0.10290630879E+04  0.20583194895E+04  0.17826127684E+04 0.  0.
        5    1    3    3  502    0 -0.32461043774E+03  0.75294885177E+03  0.11105758496E+03  0.82744171205E+03  0.46999998093E+01 0. -1.
       -5    1    3    3    0  502  0.32461043774E+03 -0.75294885177E+03  0.91800550295E+03  0.12308777775E+04  0.46999998093E+01 0.  1.
</event>
<event>
 5   0  0.1628397E-04  0.1802227E+04  0.7818609E-02  0.8705116E-01
        2   -1    0    0  501    0  0.00000000000E+00  0.00000000000E+00  0.47983937442E+03  0.47983937442E+03  0.25500000920E-02 0.  1.
       -2   -1    0    0    0  501  0.00000000000E+00  0.00000000000E+00 -0.16922448726E+04  0.16922448726E+04  0.25500000920E-02 0. -1.
    10030    2    1    2    0    0  0.00000000000E+00  0.00000000000E+00 -0.12124054982E+04  0.21720842470E+04  0.18022272010E+04 0.  0.
        3    1    3    3  502    0  0.82769330905E+03 -0.16768725942E+03 -0.98505391684E+03  0.12975077881E+04  0.10100000352E+00 0. -1.
       -3    1    3    3    0  502 -0.82769330905E+03  0.16768725942E+03 -0.22735158134E+03  0.87457645895E+03  0.10100000352E+00 0.  1.
</event>
<event>
 5   0  0.1549012E-04  0.1853000E+04  0.7818609E-02  0.8678611E-01
        2   -1    0    0  501    0  0.00000000000E+00  0.00000000000E+00  0.79658819698E+03  0.79658819698E+03  0.25500000920E-02 0.  1.
       -2   -1    0    0    0  501  0.00000000000E+00  0.00000000000E+00 -0.10775989717E+04  0.10775989717E+04  0.25500000920E-02 0. -1.
    10030    2    1    2    0    0  0.00000000000E+00  0.00000000000E+00 -0.28101077475E+03  0.18741871687E+04  0.18530004015E+04 0.  0.
        4    1    3    3  502    0  0.11745783668E+02 -0.77471443414E+02 -0.10742407586E+04  0.10770954499E+04  0.12699999809E+01 0. -1.
       -4    1    3    3    0  502 -0.11745783668E+02  0.77471443414E+02  0.79322998383E+03  0.79709171877E+03  0.12699999809E+01 0.  1.
</event>
<event>
 5   0  0.1628397E-04  0.1825643E+04  0.7818609E-02  0.8692781E-01
        2   -1    0    0  501    0  0.00000000000E+00  0.00000000000E+00  0.15152397928E+04  0.15152397928E+04  0.25500000920E-02 0. -1.
       -2   -1    0    0    0  501  0.00000000000E+00  0.00000000000E+00 -0.54990828617E+03  0.54990828618E+03  0.25500000920E-02 0.  1.
    10030    2    1    2    0    0  0.00000000000E+00  0.00000000000E+00  0.96533150667E+03  0.20651480790E+04  0.18256428102E+04 0.  0.
        3    1    3    3  502    0  0.24644367430E+03 -0.25451039744E+03 -0.46896851588E+03  0.58774272101E+03  0.10100000352E+00 0.  1.
       -3    1    3    3    0  502 -0.24644367430E+03  0.25451039744E+03  0.14343000225E+04  0.14774053580E+04  0.10100000352E+00 0. -1.
</event>
<event>
 5   0  0.8430513E-05  0.1785580E+04  0.7818609E-02  0.8714006E-01
        1   -1    0    0  501    0  0.00000000000E+00  0.00000000000E+00  0.16074869254E+04  0.16074869254E+04  0.50400001928E-02 0. -1.
       -1   -1    0    0    0  501  0.00000000000E+00  0.00000000000E+00 -0.49585086894E+03  0.49585086897E+03  0.50400001928E-02 0.  1.
    10030    2    1    2    0    0  0.00000000000E+00  0.00000000000E+00  0.11116360564E+04  0.21033377943E+04  0.17855797812E+04 0.  0.
        5    1    3    3  502    0 -0.76927788102E+03 -0.17687503773E+03  0.10471528101E+04  0.13113444760E+04  0.46999998093E+01 0.  1.
       -5    1    3    3    0  502  0.76927788102E+03  0.17687503773E+03  0.64483246376E+02  0.79199331832E+03  0.46999998093E+01 0. -1.
</event>
<event>
 5   0  0.8254914E-05  0.1799971E+04  0.7818609E-02  0.8706315E-01
       -1   -1    0    0    0  501  0.00000000000E+00  0.00000000000E+00  0.40903724916E+03  0.40903724919E+03  0.50400001928E-02 0.  1.
        1   -1    0    0  501    0  0.00000000000E+00  0.00000000000E+00 -0.19801963049E+04  0.19801963049E+04  0.50400001928E-02 0. -1.
    10030    2    1    2    0    0  0.00000000000E+00  0.00000000000E+00 -0.15711590558E+04  0.23892335541E+04  0.17999711658E+04 0.  0.
        4    1    3    3  502    0 -0.20977808887E+03 -0.32162680663E+03  0.29484177727E+03  0.48413214708E+03  0.12699999809E+01 0.  1.
       -4    1    3    3    0  502  0.20977808887E+03  0.32162680663E+03 -0.18660008330E+04  0.19051014071E+04  0.12699999809E+01 0. -1.
</event>
<event>
 5   0  0.8430513E-05  0.1806648E+04  0.7818609E-02  0.8702772E-01
        1   -1    0    0  501    0  0.00000000000E+00  0.00000000000E+00  0.86127293838E+03  0.86127293839E+03  0.50400001928E-02 0. -1.
       -1   -1    0    0    0  501  0.00000000000E+00  0.00000000000E+00 -0.94742845578E+03  0.94742845579E+03  0.50400001928E-02 0.  1.
    10030    2    1    2    0    0  0.00000000000E+00  0.00000000000E+00 -0.86155517403E+02  0.18087013942E+04  0.18066482669E+04 0.  0.
        5    1    3    3  502    0 -0.70770868142E+02 -0.68492401960E+03  0.54226006989E+03  0.87646876830E+03  0.46999998093E+01 0.  1.
       -5    1    3    3    0  502  0.70770868142E+02  0.68492401960E+03 -0.62841558730E+03  0.93223262589E+03  0.46999998093E+01 0. -1.
</event>
<event>
 5   0  0.8254914E-05  0.1797342E+04  0.7818609E-02  0.8707714E-01
       -1   -1    0    0    0  501  0.00000000000E+00  0.00000000000E+00  0.91030086537E+03  0.91030086538E+03  0.50400001928E-02 0. -1.
        1   -1    0    0  501    0  0.00000000000E+00  0.00000000000E+00 -0.88719010330E+03  0.88719010331E+03  0.50400001928E-02 0.  1.
    10030    2    1    2    0    0  0.00000000000E+00  0.00000000000E+00  0.23110762071E+02  0.17974909687E+04  0.17973423923E+04 0.  0.
        4    1    3    3  502    0  0.26952505938E+02  0.83304215099E+03  0.34762280455E+03  0.90306638186E+03  0.12699999809E+01 0.  1.
       -4    1    3    3    0  502 -0.26952505938E+02 -0.83304215099E+03 -0.32451204248E+03  0.89442458683E+03  0.12699999809E+01 0. -1.
</event>
<event>
 5   0  0.1628397E-04  0.1801293E+04  0.7818609E-02  0.8705612E-01
       -2   -1    0    0    0  501  0.00000000000E+00  0.00000000000E+00  0.42450499458E+03  0.42450499458E+03  0.25500000920E-02 0. -1.
        2   -1    0    0  501    0  0.00000000000E+00  0.00000000000E+00 -0.19108472925E+04  0.19108472925E+04  0.25500000920E-02 0.  1.
    10030    2    1    2    0    0  0.00000000000E+00  0.00000000000E+00 -0.14863422979E+04  0.23353522871E+04  0.18012931128E+04 0.  0.
        3    1    3    3  502    0 -0.47459023996E+03 -0.59916739564E+02 -0.17325342086E+04  0.17973593702E+04  0.10100000352E+00 0.  1.
       -3    1    3    3    0  502  0.47459023996E+03  0.59916739564E+02  0.24619191066E+03  0.53799291688E+03  0.10100000352E+00 0. -1.
</event>
<event>
 5   0  0.8132598E-05  0.1790639E+04  0.7818609E-02  0.8711293E-01
        1   -1    0    0  501    0  0.00000000000E+00  0.00000000000E+00  0.47161343255E+03  0.47161343258E+03  0.50400001928E-02 0.  1.
       -1   -1    0    0    0  501  0.00000000000E+00  0.00000000000E+00 -0.16996907274E+04  0.16996907274E+04  0.50400001928E-02 0. -1.
    10030    2    1    2    0    0  0.00000000000E+00  0.00000000000E+00 -0.12280772949E+04  0.21713041600E+04  0.17906389678E+04 0.  0.
        3    1    3    3  502    0  0.71959926936E+03  0.52455860492E+03 -0.50150875302E+03  0.10220058111E+04  0.10100000352E+00 0. -1.
       -3    1    3    3    0  502 -0.71959926936E+03 -0.52455860492E+03 -0.72656854185E+03  0.11492983488E+04  0.10100000352E+00 0.  1.
</event>
<event>
 5   0  0.1603564E-04  0.1797668E+04  0.7818609E-02  0.8707541E-01
       -2   -1    0    0    0  501  0.00000000000E+00  0.00000000000E+00  0.69079891148E+03  0.69079891149E+03  0.25500000920E-02 0.  1.
        2   -1    0    0  501    0  0.00000000000E+00  0.00000000000E+00 -0.11695192997E+04  0.11695192997E+04  0.25500000920E-02 0. -1.
    10030    2    1    2    0    0  0.00000000000E+00  0.00000000000E+00 -0.47872038819E+03  0.18603182112E+04  0.17976681108E+04 0.  0.
        5    1    3    3  502    0  0.37051992924E+03 -0.74629688341E+03 -0.58820854352E+03  0.10199291332E+04  0.46999998093E+01 0. -1.
       -5    1    3    3    0  502 -0.37051992924E+03  0.74629688341E+03  0.10948815533E+03  0.84038907793E+03  0.46999998093E+01 0.  1.
</event>
<event>
 5   0  0.1628397E-04  0.1802035E+04  0.7818609E-02  0.8705218E-01
       -2   -1    0    0    0  501  0.00000000000E+00  0.00000000000E+00  0.76952208451E+03  0.76952208451E+03  0.25500000920E-02 0.  1.
        2   -1    0    0  501    0  0.00000000000E+00  0.00000000000E+00 -0.10549824883E+04  0.10549824883E+04  0.25500000920E-02 0. -1.
    10030    2    1    2    0    0  0.00000000000E+00  0.00000000000E+00 -0.28546040378E+03  0.18245045728E+04  0.18020347649E+04 0.  0.
        3    1    3    3  502    0  0.26429510831E+03 -0.16244059524E+03  0.71374535495E+03  0.77824886327E+03  0.10100000352E+00 0.  1.
       -3    1    3    3    0  502 -0.26429510831E+03  0.16244059524E+03 -0.99920575873E+03  0.10462557095E+04  0.10100000352E+00 0. -1.
</event>
<event>
 5   0  0.8132598E-05  0.1810814E+04  0.7818609E-02  0.8700570E-01
       -1   -1    0    0    0  501  0.00000000000E+00  0.00000000000E+00  0.11731344316E+04  0.11731344316E+04  0.50400001928E-02 0.  1.
        1   -1    0    0  501    0  0.00000000000E+00  0.00000000000E+00 -0.69877910641E+03  0.69877910643E+03  0.50400001928E-02 0. -1.
    10030    2    1    2    0    0  0.00000000000E+00  0.00000000000E+00  0.47435532520E+03  0.18719135381E+04  0.18108139936E+04 0.  0.
        3    1    3    3  502    0 -0.24394937536E+02 -0.34566924201E+03  0.11018698048E+04  0.11550755018E+04  0.10100000352E+00 0.  1.
       -3    1    3    3    0  502  0.24394937536E+02  0.34566924201E+03 -0.62751447964E+03  0.71683803624E+03  0.10100000352E+00 0. -1.
</event>
<event>
 5   0  0.1549012E-04  0.1806759E+04  0.7818609E-02  0.8702713E-01
       -2   -1    0    0    0  501  0.00000000000E+00  0.00000000000E+00  0.68926487008E+03  0.68926487008E+03  0.25500000920E-02 0. -1.
        2   -1    0    0  501    0  0.00000000000E+00  0.00000000000E+00 -0.11840070684E+04  0.11840070684E+04  0.25500000920E-02 0.  1.
    10030    2    1    2    0    0  0.00000000000E+00  0.00000000000E+00 -0.49474219830E+03  0.18732719385E+04  0.18067589526E+04 0.  0.
        4    1    3    3  502    0  0.30320979886E+03 -0.60957134558E+03  0.36827214053E+03  0.77404094845E+03  0.12699999809E+01 0. -1.
       -4    1    3    3    0  502 -0.30320979886E+03  0.60957134558E+03 -0.86301433884E+03  0.10992309900E+04  0.12699999809E+01 0.  1.
</event>
<event>
 5   0  0.1603564E-04  0.1810446E+04  0.7818609E-02  0.8700764E-01
        2   -1    0    0  501    0  0.00000000000E+00  0.00000000000E+00  0.20960118112E+04  0.20960118112E+04  0.25500000920E-02 0. -1.
       -2   -1    0    0    0  501  0.00000000000E+00  0.00000000000E+00 -0.39094669631E+03  0.39094669632E+03  0.25500000920E-02 0.  1.
    10030    2    1    2    0    0  0.00000000000E+00  0.00000000000E+00  0.17050651149E+04  0.24869585076E+04  0.18104462357E+04 0.  0.
        5    1    3    3  502    0  0.13287541002E+03  0.37245865551E+03  0.19710635345E+04  0.20103469531E+04  0.46999998093E+01 0. -1.
       -5    1    3    3    0  502 -0.13287541002E+03 -0.37245865551E+03 -0.26599841959E+03  0.47661155449E+03  0.46999998093E+01 0.  1.
</event>
<event>
 5   0  0.8492114E-05  0.1838220E+04  0.7818609E-02  0.8686235E-01
        1   -1    0    0  501    0  0.00000000000E+00  0.00000000000E+00  0.69892133932E+03  0.69892133934E+03  0.50400001928E-02 0. -1.
       -1   -1    0    0    0  501  0.00000000000E+00  0.00000000000E+00 -0.12086664843E+04  0.12086664843E+04  0.50400001928E-02 0.  1.
    10030    2    1    2    0    0  0.00000000000E+00  0.00000000000E+00 -0.50974514501E+03  0.19075878237E+04  0.18382195713E+04 0.  0.
        2    1    3    3  502    0 -0.19827070507E+03  0.56623964929E+03  0.46769637548E+03  0.76070921682E+03  0.25500000920E-02 0. -1.
       -2    1    3    3    0  502  0.19827070507E+03 -0.56623964929E+03 -0.97744152048E+03  0.11468786069E+04  0.25500000920E-02 0.  1.
</event>
<event>
 5   0  0.8254914E-05  0.1795612E+04  0.7818609E-02  0.8708637E-01
       -1   -1    0    0    0  501  0.00000000000E+00  0.00000000000E+00  0.10147561566E+04  0.10147561566E+04  0.50400001928E-02 0.  1.
        1   -1    0    0  501    0  0.00000000000E+00  0.00000000000E+00 -0.79433406858E+03  0.79433406860E+03  0.50400001928E-02 0. -1.
    10030    2    1    2    0    0  0.00000000000E+00  0.00000000000E+00  0.22042208804E+03  0.18090902252E+04  0.17956117470E+04 0.  0.
        4    1    3    3  502    0 -0.77205267495E+03 -0.12103001457E+03  0.55550169474E+03  0.95879994946E+03  0.12699999809E+01 0.  1.
       -4    1    3    3    0  502  0.77205267495E+03  0.12103001457E+03 -0.33507960671E+03  0.85029027577E+03  0.12699999809E+01 0. -1.
</event>
<event>
 5   0  0.8132598E-05  0.1765099E+04  0.7818609E-02  0.8725083E-01
        1   -1    0    0  501    0  0.00000000000E+00  0.00000000000E+00  0.20284692674E+04  0.20284692674E+04  0.50400001928E-02 0.  1.
       -1   -1    0    0    0  501  0.00000000000E+00  0.00000000000E+00 -0.38398106733E+03  0.38398106736E+03  0.50400001928E-02 0. -1.
    10030    2    1    2    0    0  0.00000000000E+00  0.00000000000E+00  0.16444882000E+04  0.24124503347E+04  0.17650991976E+04 0.  0.
        3    1    3    3  502    0  0.28993275964E+03  0.77397030478E+03  0.12452809926E+04  0.14945955300E+04  0.10100000352E+00 0.  1.
       -3    1    3    3    0  502 -0.28993275964E+03 -0.77397030478E+03  0.39920720748E+03  0.91785480470E+03  0.10100000352E+00 0. -1.
</event>
<event>
 5   0  0.8430513E-05  0.1800658E+04  0.7818609E-02  0.8705949E-01
        1   -1    0    0  501    0  0.00000000000E+00  0.00000000000E+00  0.79163066113E+03  0.79163066115E+03  0.50400001928E-02 0.  1.
       -1   -1    0    0    0  501  0.00000000000E+00  0.00000000000E+00 -0.10239530730E+04  0.10239530731E+04  0.50400001928E-02 0. -1.
    10030    2    1    2    0    0  0.00000000000E+00  0.00000000000E+00 -0.23232241191E+03  0.18155837342E+04  0.18006583776E+04 0.  0.
        5    1    3    3  502    0  0.89572143455E+03  0.47926704558E+02 -0.19398060157E+03  0.91774965056E+03  0.46999998093E+01 0. -1.
       -5    1    3    3    0  502 -0.89572143455E+03 -0.47926704558E+02 -0.38341810337E+02  0.89783408364E+03  0.46999998093E+01 0.  1.
</event>
<event>
 5   0  0.1573981E-04  0.1795643E+04  0.7818609E-02  0.8708620E-01
        2   -1    0    0  501    0  0.00000000000E+00  0.00000000000E+00  0.25886354521E+04  0.25886354521E+04  0.25500000920E-02 0.  1.
       -2   -1    0    0    0  501  0.00000000000E+00  0.00000000000E+00 -0.31139317374E+03  0.31139317375E+03  0.25500000920E-02 0. -1.
    10030    2    1    2    0    0  0.00000000000E+00  0.00000000000E+00  0.22772422783E+04  0.29000286258E+04  0.17956429590E+04 0.  0.
        1    1    3    3  502    0 -0.16742877612E+03  0.24306852969E+03  0.25080431089E+04  0.25253504591E+04  0.50400001928E-02 0.  1.
       -1    1    3    3    0  502  0.16742877612E+03 -0.24306852969E+03 -0.23080083057E+03  0.37467816671E+03  0.50400001928E-02 0. -1.
</event>
<event>
 5   0  0.8206783E-05  0.1786125E+04  0.7818609E-02  0.8713713E-01
        1   -1    0    0  501    0  0.00000000000E+00  0.00000000000E+00  0.12911150582E+04  0.12911150582E+04  0.50400001928E-02 0. -1.
       -1   -1    0    0    0  501  0.00000000000E+00  0.00000000000E+00 -0.61773015337E+03  0.61773015339E+03  0.50400001928E-02 0.  1.
    10030    2    1    2    0    0  0.00000000000E+00  0.00000000000E+00  0.67338490485E+03  0.19088452116E+04  0.17861250829E+04 0.  0.
        1    1    3    3  502    0  0.19679016251E+03 -0.85239637092E+03  0.52862815309E+03  0.10221319218E+04  0.50400001928E-02 0.  1.
       -1    1    3    3    0  502 -0.19679016251E+03  0.85239637092E+03  0.14475675176E+03  0.88671328986E+03  0.50400001928E-02 0. -1.
</event>
<event>
 5   0  0.1573981E-04  0.1792653E+04  0.7818609E-02  0.8710216E-01
        2   -1    0    0  501    0  0.00000000000E+00  0.00000000000E+00  0.10038734897E+04  0.10038734897E+04  0.25500000920E-02 0.  1.
       -2   -1    0    0    0  501  0.00000000000E+00  0.00000000000E+00 -0.80030104397E+03  0.80030104398E+03  0.25500000920E-02 0. -1.
    10030    2    1    2    0    0  0.00000000000E+00  0.00000000000E+00  0.20357244575E+03  0.18041745337E+04  0.17926527849E+04 0.  0.
        1    1    3    3  502    0 -0.17128644170E+03 -0.59013117936E+02  0.98525472015E+03  0.10017726572E+04  0.50400001928E-02 0.  1.
       -1    1    3    3    0  502  0.17128644170E+03  0.59013117936E+02 -0.78168227440E+03  0.80240187645E+03  0.50400001928E-02 0. -1.
</event>
<event>
 5   0  0.8132598E-05  0.1812110E+04  0.7818609E-02  0.8699886E-01
       -1   -1    0    0    0  501  0.00000000000E+00  0.00000000000E+00  0.14997411757E+04  0.14997411757E+04  0.50400001928E-02 0. -1.
        1   -1    0    0  501    0  0.00000000000E+00  0.00000000000E+00 -0.54738498387E+03  0.54738498390E+03  0.50400001928E-02 0.  1.
    10030    2    1    2    0    0  0.00000000000E+00  0.00000000000E+00  0.95235619182E+03  0.20471261596E+04  0.18121101504E+04 0.  0.
        3    1    3    3  502    0 -0.87199991954E+03  0.24470672307E+03  0.50543142583E+03  0.10371722019E+04  0.10100000352E+00 0.  1.
       -3    1    3    3    0  502  0.87199991954E+03 -0.24470672307E+03  0.44692476598E+03  0.10099539577E+04  0.10100000352E+00 0. -1.
</event>
<event>
 5   0  0.8492114E-05  0.1800376E+04  0.7818609E-02  0.8706100E-01
       -1   -1    0    0    0  501  0.00000000000E+00  0.00000000000E+00  0.64308519071E+03  0.64308519073E+03  0.50400001928E-02 0. -1.
        1   -1    0    0  501    0  0.00000000000E+00  0.00000000000E+00 -0.12600794685E+04  0.12600794685E+04  0.50400001928E-02 0.  1.
    10030    2    1    2    0    0  0.00000000000E+00  0.00000000000E+00 -0.61699427783E+03  0.19031646593E+04  0.18003760111E+04 0.  0.
        2    1    3    3  502    0 -0.37304567573E+03 -0.18453450538E+03  0.53527383056E+03  0.67803697063E+03  0.25500000920E-02 0. -1.
       -2    1    3    3    0  502  0.37304567573E+03  0.18453450538E+03 -0.11522681084E+04  0.12251276886E+04  0.25500000920E-02 0.  1.
</event>
<event>
 5   0  0.8430513E-05  0.1801126E+04  0.7818609E-02  0.8705701E-01
       -1   -1    0    0    0  501  0.00000000000E+00  0.00000000000E+00  0.12310379661E+04  0.12310379661E+04  0.50400001928E-02 0.  1.
        1   -1    0    0  501    0  0.00000000000E+00  0.00000000000E+00 -0.65880446561E+03  0.65880446563E+03  0.50400001928E-02 0. -1.
    10030    2    1    2    0    0  0.00000000000E+00  0.00000000000E+00  0.57223350045E+03  0.18898424317E+04  0.18011255474E+04 0.  0.
        5    1    3    3  502    0 -0.52472532686E+03 -0.47513175438E+03  0.87022784748E+03  0.11217867218E+04  0.46999998093E+01 0.  1.
       -5    1    3    3    0  502  0.52472532686E+03  0.47513175438E+03 -0.29799434703E+03  0.76805570991E+03  0.46999998093E+01 0. -1.
</event>
<event>
 5   0  0.1603564E-04  0.1799694E+04  0.7818609E-02  0.8706462E-01
       -2   -1    0    0    0  501  0.00000000000E+00  0.00000000000E+00  0.35551484581E+03  0.35551484582E+03  0.25500000920E-02 0.  1.
        2   -1    0    0  501    0  0.00000000000E+00  0.00000000000E+00 -0.22776103073E+04  0.22776103073E+04  0.25500000920E-02 0. -1.
    10030    2    1    2    0    0  0.00000000000E+00  0.00000000000E+00 -0.19220954615E+04  0.26331251532E+04  0.17996936153E+04 0.  0.
        5    1    3    3  502    0 -0.31768325153E+03  0.14284033249E+03 -0.21749559228E+04  0.22026759555E+04  0.46999998093E+01 0. -1.
       -5    1    3    3    0  502  0.31768325153E+03 -0.14284033249E+03  0.25286046126E+03  0.43044919765E+03  0.46999998093E+01 0.  1.
</event>
<event>
 5   0  0.1603564E-04  0.1869134E+04  0.7818609E-02  0.8670375E-01
       -2   -1    0    0    0  501  0.00000000000E+00  0.00000000000E+00  0.49221963949E+03  0.49221963949E+03  0.25500000920E-02 0. -1.
        2   -1    0    0  501    0  0.00000000000E+00  0.00000000000E+00 -0.17744416597E+04  0.17744416597E+04  0.25500000920E-02 0.  1.
    10030    2    1    2    0    0  0.00000000000E+00  0.00000000000E+00 -0.12822220202E+04  0.22666612992E+04  0.18691335255E+04 0.  0.
        5    1    3    3  502    0  0.56943201003E+03 -0.56466641943E+02  0.25492072832E+03  0.62645667322E+03  0.46999998093E+01 0. -1.
       -5    1    3    3    0  502 -0.56943201003E+03  0.56466641943E+02 -0.15371427485E+04  0.16402046260E+04  0.46999998093E+01 0.  1.
</event>
<event>
 5   0  0.1603564E-04  0.1686833E+04  0.7818609E-02  0.8768910E-01
       -2   -1    0    0    0  501  0.00000000000E+00  0.00000000000E+00  0.81315952149E+03  0.81315952150E+03  0.25500000920E-02 0. -1.
        2   -1    0    0  501    0  0.00000000000E+00  0.00000000000E+00 -0.87479977976E+03  0.87479977976E+03  0.25500000920E-02 0.  1.
    10030    2    1    2    0    0  0.00000000000E+00  0.00000000000E+00 -0.61640258268E+02  0.16879593013E+04  0.16868334480E+04 0.  0.
        5    1    3    3  502    0 -0.22587052992E+03  0.59192698399E+03 -0.58790943145E+03  0.86432322671E+03  0.46999998093E+01 0.  1.
       -5    1    3    3    0  502  0.22587052992E+03 -0.59192698399E+03  0.52626917318E+03  0.82363607455E+03  0.46999998093E+01 0. -1.
</event>
<event>
 5   0  0.8254914E-05  0.1803319E+04  0.7818609E-02  0.8704536E-01
       -1   -1    0    0    0  501  0.00000000000E+00  0.00000000000E+00  0.52804636515E+03  0.52804636517E+03  0.50400001928E-02 0.  1.
        1   -1    0    0  501    0  0.00000000000E+00  0.00000000000E+00 -0.15396182541E+04  0.15396182541E+04  0.50400001928E-02 0. -1.
    10030    2    1    2    0    0  0.00000000000E+00  0.00000000000E+00 -0.10115718890E+04  0.20676646193E+04  0.18033189655E+04 0.  0.
        4    1    3    3  502    0  0.86610676880E+02  0.79027901813E+03 -0.18053227834E+02  0.79521686840E+03  0.12699999809E+01 0. -1.
       -4    1    3    3    0  502 -0.86610676880E+02 -0.79027901813E+03 -0.99351866113E+03  0.12724477509E+04  0.12699999809E+01 0.  1.
</event>
<event>
 5   0  0.1608627E-04  0.1798007E+04  0.7818609E-02  0.8707360E-01
       -2   -1    0    0    0  501  0.00000000000E+00  0.00000000000E+00  0.66040390112E+03  0.66040390112E+03  0.25500000920E-02 0.  1.
        2   -1    0    0  501    0  0.00000000000E+00  0.00000000000E+00 -0.12238071872E+04  0.12238071872E+04  0.25500000920E-02 0. -1.
    10030    2    1    2    0    0  0.00000000000E+00  0.00000000000E+00 -0.56340328611E+03  0.18842110884E+04  0.17980067193E+04 0.  0.
        2    1    3    3  502    0  0.67343318468E+03  0.45678328749E+03 -0.68218071790E+03  0.10618539249E+04  0.25500000920E-02 0. -1.
       -2    1    3    3    0  502 -0.67343318468E+03 -0.45678328749E+03  0.11877743179E+03  0.82235716345E+03  0.25500000920E-02 0.  1.
</event>
<event>
 5   0  0.1628397E-04  0.1671026E+04  0.7818609E-02  0.8778064E-01
        2   -1    0    0  501    0  0.00000000000E+00  0.00000000000E+00  0.22552087331E+04  0.22552087331E+04  0.25500000920E-02 0.  1.
       -2   -1    0    0    0  501  0.00000000000E+00  0.00000000000E+00 -0.30954224028E+03  0.30954224029E+03  0.25500000920E-02 0. -1.
    10030    2    1    2    0    0  0.00000000000E+00  0.00000000000E+00  0.19456664928E+04  0.25647509734E+04  0.16710264673E+04 0.  0.
        3    1    3    3  502    0  0.12329223909E+03 -0.78710444067E+03  0.13591363956E+04  0.15754320451E+04  0.10100000352E+00 0.  1.
       -3    1    3    3    0  502 -0.12329223909E+03  0.78710444067E+03  0.58653009726E+03  0.98931892832E+03  0.10100000352E+00 0. -1.
</event>
<event>
 5   0  0.8132598E-05  0.1795128E+04  0.7818609E-02  0.8708895E-01
       -1   -1    0    0    0  501  0.00000000000E+00  0.00000000000E+00  0.11030254745E+04  0.11030254745E+04  0.50400001928E-02 0. -1.
        1   -1    0    0  501    0  0.00000000000E+00  0.00000000000E+00 -0.73037401958E+03  0.73037401960E+03  0.50400001928E-02 0.  1.
    10030    2    1    2    0    0  0.00000000000E+00  0.00000000000E+00  0.37265145495E+03  0.18333994941E+04  0.17951280172E+04 0.  0.
        3    1    3    3  502    0 -0.28929961175E+01 -0.14070443212E+03 -0.71903540963E+03  0.73267867251E+03  0.10100000352E+00 0.  1.
       -3    1    3    3    0  502  0.28929961175E+01  0.14070443212E+03  0.10916868646E+04  0.11007208216E+04  0.10100000352E+00 0. -1.
</event>
<event>
 5   0  0.1628397E-04  0.1800797E+04  0.7818609E-02  0.8705876E-01
       -2   -1    0    0    0  501  0.00000000000E+00  0.00000000000E+00  0.38232958218E+03  0.38232958218E+03  0.25500000920E-02 0. -1.
        2   -1    0    0  501    0  0.00000000000E+00  0.00000000000E+00 -0.21204674907E+04  0.21204674907E+04  0.25500000920E-02 0.  1.
    10030    2    1    2    0    0  0.00000000000E+00  0.00000000000E+00 -0.17381379086E+04  0.25027970729E+04  0.18007969900E+04 0.  0.
        3    1    3    3  502    0  0.16366830497E+03 -0.57249732713E+03  0.69632615692E+02  0.59949079642E+03  0.10100000352E+00 0. -1.
       -3    1    3    3    0  502 -0.16366830497E+03  0.57249732713E+03 -0.18077705242E+04  0.19033062765E+04  0.10100000352E+00 0.  1.
</event>
<event>
 5   0  0.8254914E-05  0.1802785E+04  0.7818609E-02  0.8704820E-01
        1   -1    0    0  501    0  0.00000000000E+00  0.00000000000E+00  0.21145421018E+04  0.21145421018E+04  0.50400001928E-02 0.  1.
       -1   -1    0    0    0  501  0.00000000000E+00  0.00000000000E+00 -0.38424796635E+03  0.38424796638E+03  0.50400001928E-02 0. -1.
    10030    2    1    2    0    0  0.00000000000E+00  0.00000000000E+00  0.17302941355E+04  0.24987900682E+04  0.18027850703E+04 0.  0.
        4    1    3    3  502    0 -0.89071498601E+03 -0.19399725585E+01  0.67343801583E+03  0.11166455677E+04  0.12699999809E+01 0. -1.
       -4    1    3    3    0  502  0.89071498601E+03  0.19399725585E+01  0.10568561196E+04  0.13821445005E+04  0.12699999809E+01 0.  1.
</event>
<event>
 5   0  0.1603564E-04  0.1735769E+04  0.7818609E-02  0.8741223E-01
        2   -1    0    0  501    0  0.00000000000E+00  0.00000000000E+00  0.22843432289E+04  0.22843432289E+04  0.25500000920E-02 0. -1.
       -2   -1    0    0    0  501  0.00000000000E+00  0.00000000000E+00 -0.32973298019E+03  0.32973298020E+03  0.25500000920E-02 0.  1.
    10030    2    1    2    0    0  0.00000000000E+00  0.00000000000E+00  0.19546102487E+04  0.26140762091E+04  0.17357687642E+04 0.  0.
        5    1    3    3  502    0  0.60904248968E+03 -0.40052147737E+03  0.26796084011E+03  0.77664361834E+03  0.46999998093E+01 0.  1.
       -5    1    3    3    0  502 -0.60904248968E+03  0.40052147737E+03  0.16866494086E+04  0.18374325908E+04  0.46999998093E+01 0. -1.
</event>
<event>
 5   0  0.8132598E-05  0.1798015E+04  0.7818609E-02  0.8707356E-01
       -1   -1    0    0    0  501  0.00000000000E+00  0.00000000000E+00  0.61260075380E+03  0.61260075382E+03  0.50400001928E-02 0. -1.
        1   -1    0    0  501    0  0.00000000000E+00  0.00000000000E+00 -0.13193163773E+04  0.13193163773E+04  0.50400001928E-02 0.  1.
    10030    2    1    2    0    0  0.00000000000E+00  0.00000000000E+00 -0.70671562350E+03  0.19319171311E+04  0.17980146910E+04 0.  0.
        3    1    3    3  502    0  0.50776274637E+02 -0.36125253480E+03  0.52949801698E+03  0.64300060976E+03  0.10100000352E+00 0. -1.
       -3    1    3    3    0  502 -0.50776274637E+02  0.36125253480E+03 -0.12362136405E+04  0.12889165214E+04  0.10100000352E+00 0.  1.
</event>
<event>
 5   0  0.1608627E-04  0.1807358E+04  0.7818609E-02  0.8702396E-01
        2   -1    0    0  501    0  0.00000000000E+00  0.00000000000E+00  0.14990584522E+04  0.14990584522E+04  0.25500000920E-02 0.  1.
       -2   -1    0    0    0  501  0.00000000000E+00  0.00000000000E+00 -0.54476573394E+03  0.54476573394E+03  0.25500000920E-02 0. -1.
    10030    2    1    2    0    0  0.00000000000E+00  0.00000000000E+00  0.95429271825E+03  0.20438241861E+04  0.18073579368E+04 0.  0.
        2    1    3    3  502    0 -0.89910775475E+03  0.86462061383E+02  0.44586419187E+03  0.10073059715E+04  0.25500000920E-02 0.  1.
       -2    1    3    3    0  502  0.89910775475E+03 -0.86462061383E+02  0.50842852638E+03  0.10365182146E+04  0.25500000920E-02 0. -1.
</event>
<event>
 5   0  0.8430513E-05  0.1795384E+04  0.7818609E-02  0.8708758E-01
        1   -1    0    0  501    0  0.00000000000E+00  0.00000000000E+00  0.57709001085E+03  0.57709001087E+03  0.50400001928E-02 0. -1.
       -1   -1    0    0    0  501  0.00000000000E+00  0.00000000000E+00 -0.13964041584E+04  0.13964041584E+04  0.50400001928E-02 0.  1.
    10030    2    1    2    0    0  0.00000000000E+00  0.00000000000E+00 -0.81931414753E+03  0.19734941693E+04  0.17953839600E+04 0.  0.
        5    1    3    3  502    0  0.55552539729E+03 -0.23300955944E+03 -0.11412079333E+04  0.12904571123E+04  0.46999998093E+01 0.  1.
       -5    1    3    3    0  502 -0.55552539729E+03  0.23300955944E+03  0.32189378575E+03  0.68303705692E+03  0.46999998093E+01 0. -1.
</event>
<event>
 5   0  0.8492114E-05  0.1795889E+04  0.7818609E-02  0.8708489E-01
       -1   -1    0    0    0  501  0.00000000000E+00  0.00000000000E+00  0.41962686744E+03  0.41962686747E+03  0.50400001928E-02 0.  1.
        1   -1    0    0  501    0  0.00000000000E+00  0.00000000000E+00 -0.19214793008E+04  0.19214793008E+04  0.50400001928E-02 0. -1.
    10030    2    1    2    0    0  0.00000000000E+00  0.00000000000E+00 -0.15018524334E+04  0.23411061683E+04  0.17958890165E+04 0.  0.
        2    1    3    3  502    0 -0.40912622704E+03  0.79897691427E+03 -0.78166337137E+03  0.11902713999E+04  0.25500000920E-02 0.  1.
       -2    1    3    3    0  502  0.40912622704E+03 -0.79897691427E+03 -0.72018906203E+03  0.11508347684E+04  0.25500000920E-02 0. -1.
</event>
<event>
 5   0  0.8430513E-05  0.1800157E+04  0.7818609E-02  0.8706216E-01
        1   -1    0    0  501    0  0.00000000000E+00  0.00000000000E+00  0.40986062171E+03  0.40986062174E+03  0.50400001928E-02 0. -1.
       -1   -1    0    0    0  501  0.00000000000E+00  0.00000000000E+00 -0.19766262027E+04  0.19766262027E+04  0.50400001928E-02 0.  1.
    10030    2    1    2    0    0  0.00000000000E+00  0.00000000000E+00 -0.15667655810E+04  0.23864868245E+04  0.18001569313E+04 0.  0.
        5    1    3    3  502    0  0.78512609604E+02  0.59649043684E+02 -0.19694283649E+04  0.19719007106E+04  0.46999998093E+01 0.  1.
       -5    1    3    3    0  502 -0.78512609604E+02 -0.59649043684E+02  0.40266278385E+03  0.41458611383E+03  0.46999998093E+01 0. -1.
</event>
<event>
 5   0  0.1603564E-04  0.1816462E+04  0.7818609E-02  0.8697594E-01
       -2   -1    0    0    0  501  0.00000000000E+00  0.00000000000E+00  0.10943229091E+04  0.10943229091E+04  0.25500000920E-02 0. -1.
        2   -1    0    0  501    0  0.00000000000E+00  0.00000000000E+00 -0.75378468098E+03  0.75378468098E+03  0.25500000920E-02 0.  1.
    10030    2    1    2    0    0  0.00000000000E+00  0.00000000000E+00  0.34053822816E+03  0.18481075901E+04  0.18164623255E+04 0.  0.
        5    1    3    3  502    0  0.84610564715E+03  0.32026701991E+03  0.25163754185E+03  0.93904700236E+03  0.46999998093E+01 0. -1.
       -5    1    3    3    0  502 -0.84610564715E+03 -0.32026701991E+03  0.88900686309E+02  0.90906058775E+03  0.46999998093E+01 0.  1.
</event>
<event>
 5   0  0.8430513E-05  0.1799294E+04  0.7818609E-02  0.8706675E-01
       -1   -1    0    0    0  501  0.00000000000E+00  0.00000000000E+00  0.15544126302E+04  0.15544126302E+04  0.50400001928E-02 0.  1.
        1   -1    0    0  501    0  0.00000000000E+00  0.00000000000E+00 -0.52068818450E+03  0.52068818453E+03  0.50400001928E-02 0. -1.
    10030    2    1    2    0    0  0.00000000000E+00  0.00000000000E+00  0.10337244457E+04  0.20751008147E+04  0.17992935174E+04 0.  0.
        5    1    3    3  502    0 -0.17196857234E+03 -0.72077228786E+03 -0.71490581221E+02  0.74445877927E+03  0.46999998093E+01 0. -1.
       -5    1    3    3    0  502  0.17196857234E+03  0.72077228786E+03  0.11052150269E+04  0.13306420354E+04  0.46999998093E+01 0.  1.
</event>
<event>
 5   0  0.1573981E-04  0.1792914E+04  0.7818609E-02  0.8710077E-01
       -2   -1    0    0    0  501  0.00000000000E+00  0.00000000000E+00  0.60912537371E+03  0.60912537372E+03  0.25500000920E-02 0. -1.
        2   -1    0    0  501    0  0.00000000000E+00  0.00000000000E+00 -0.13193267701E+04  0.13193267701E+04  0.25500000920E-02 0.  1.
    10030    2    1    2    0    0  0.00000000000E+00  0.00000000000E+00 -0.71020139635E+03  0.19284521438E+04  0.17929142889E+04 0.  0.
        1    1    3    3  502    0  0.43543507897E+03  0.42671083126E+03  0.35181212662E+03  0.70388750093E+03  0.50400001928E-02 0. -1.
       -1    1    3    3    0  502 -0.43543507897E+03 -0.42671083126E+03 -0.10620135230E+04  0.12245646428E+04  0.50400001928E-02 0.  1.
</event>
<event>
 5   0  0.1603564E-04  0.1807961E+04  0.7818609E-02  0.8702077E-01
        2   -1    0    0  501    0  0.00000000000E+00  0.00000000000E+00  0.21511675521E+04  0.21511675521E+04  0.25500000920E-02 0.  1.
       -2   -1    0    0    0  501  0.00000000000E+00  0.00000000000E+00 -0.37987797297E+03  0.37987797298E+03  0.25500000920E-02 0. -1.
    10030    2    1    2    0    0  0.00000000000E+00  0.00000000000E+00  0.17712895792E+04  0.25310455251E+04  0.18079614700E+04 0.  0.
        5    1    3    3  502    0  0.38087518605E+03 -0.70359795126E+03  0.29659733680E+03  0.85329247891E+03  0.46999998093E+01 0. -1.
       -5    1    3    3    0  502 -0.38087518605E+03  0.70359795126E+03  0.14746922424E+04  0.16777530462E+04  0.46999998093E+01 0.  1.
</event>
<event>
 5   0  0.1603564E-04  0.1771794E+04  0.7818609E-02  0.8721445E-01
       -2   -1    0    0    0  501  0.00000000000E+00  0.00000000000E+00  0.56949911114E+03  0.56949911114E+03  0.25500000920E-02 0.  1.
        2   -1    0    0  501    0  0.00000000000E+00  0.00000000000E+00 -0.13780768215E+04  0.13780768215E+04  0.25500000920E-02 0. -1.
    10030    2    1    2    0    0  0.00000000000E+00  0.00000000000E+00 -0.80857771031E+03  0.19475759326E+04  0.17717940342E+04 0.  0.
        5    1    3    3  502    0  0.45703868725E+03  0.30544865588E+03  0.35933327985E+03  0.65675394101E+03  0.46999998093E+01 0.  1.
       -5    1    3    3    0  502 -0.45703868725E+03 -0.30544865588E+03 -0.11679109902E+04  0.12908219916E+04  0.46999998093E+01 0. -1.
</event>
<event>
 5   0  0.8430513E-05  0.1796800E+04  0.7818609E-02  0.8708003E-01
       -1   -1    0    0    0  501  0.00000000000E+00  0.00000000000E+00  0.48377458419E+03  0.48377458422E+03  0.50400001928E-02 0.  1.
        1   -1    0    0  501    0  0.00000000000E+00  0.00000000000E+00 -0.16683858595E+04  0.16683858595E+04  0.50400001928E-02 0. -1.
    10030    2    1    2    0    0  0.00000000000E+00  0.00000000000E+00 -0.11846112753E+04  0.21521604437E+04  0.17968001286E+04 0.  0.
        5    1    3    3  502    0 -0.53274988665E+03  0.48310854413E+03 -0.12371979593E+04  0.14310475840E+04  0.46999998093E+01 0. -1.
       -5    1    3    3    0  502  0.53274988665E+03 -0.48310854413E+03  0.52586683998E+02  0.72111285973E+03  0.46999998093E+01 0.  1.
</event>
<event>
 5   0  0.8430513E-05  0.1767932E+04  0.7818609E-02  0.8723541E-01
        1   -1    0    0  501    0  0.00000000000E+00  0.00000000000E+00  0.78623553800E+03  0.78623553802E+03  0.50400001928E-02 0.  1.
       -1   -1    0    0    0  501  0.00000000000E+00  0.00000000000E+00 -0.99384451439E+03  0.99384451440E+03  0.50400001928E-02 0. -1.
    10030    2    1    2    0    0  0.00000000000E+00  0.00000000000E+00 -0.20760897639E+03  0.17800800524E+04  0.17679319857E+04 0.  0.
        5    1    3    3  502    0 -0.55195943210E+03  0.49629721304E+03 -0.58710655898E+03  0.94640706884E+03  0.46999998093E+01 0.  1.
       -5    1    3    3    0  502  0.55195943210E+03 -0.49629721304E+03  0.37949758260E+03  0.83367298358E+03  0.46999998093E+01 0. -1.
</event>
<event>
 5   0  0.1603564E-04  0.1804622E+04  0.7818609E-02  0.8703845E-01
       -2   -1    0    0    0  501  0.00000000000E+00  0.00000000000E+00  0.13717735518E+04  0.13717735518E+04  0.25500000920E-02 0. -1.
        2   -1    0    0  501    0  0.00000000000E+00  0.00000000000E+00 -0.59351297387E+03  0.59351297387E+03  0.25500000920E-02 0.  1.
    10030    2    1    2    0    0  0.00000000000E+00  0.00000000000E+00  0.77826057789E+03  0.19652865256E+04  0.18046222876E+04 0.  0.
        5    1    3    3  502    0  0.41035597974E+03  0.65651528924E+03  0.89378575037E+03  0.11824886522E+04  0.46999998093E+01 0. -1.
       -5    1    3    3    0  502 -0.41035597974E+03 -0.65651528924E+03 -0.11552517248E+03  0.78279787340E+03  0.46999998093E+01 0.  1.
</event>
<event>
 5   0  0.8254914E-05  0.1802465E+04  0.7818609E-02  0.8704990E-01
        1   -1    0    0  501    0  0.00000000000E+00  0.00000000000E+00  0.56470656242E+03  0.56470656244E+03  0.50400001928E-02 0.  1.
       -1   -1    0    0    0  501  0.00000000000E+00  0.00000000000E+00 -0.14383038793E+04  0.14383038793E+04  0.50400001928E-02 0. -1.
    10030    2    1    2    0    0  0.00000000000E+00  0.00000000000E+00 -0.87359731684E+03  0.20030104417E+04  0.18024645787E+04 0.  0.
        4    1    3    3  502    0  0.24741280355E+03 -0.23047248407E+03 -0.13651431018E+04  0.14063953792E+04  0.12699999809E+01 0. -1.
       -4    1    3    3    0  502 -0.24741280355E+03  0.23047248407E+03  0.49154578494E+03  0.59661506255E+03  0.12699999809E+01 0.  1.
</event>
<event>
 5   0  0.1573981E-04  0.1791404E+04  0.7818609E-02  0.8710884E-01
       -2   -1    0    0    0  501  0.00000000000E+00  0.00000000000E+00  0.10162719715E+04  0.10162719715E+04  0.25500000920E-02 0. -1.
        2   -1    0    0  501    0  0.00000000000E+00  0.00000000000E+00 -0.78943601564E+03  0.78943601565E+03  0.25500000920E-02 0.  1.
    10030    2    1    2    0    0  0.00000000000E+00  0.00000000000E+00  0.22683595582E+03  0.18057079871E+04  0.17914035793E+04 0.  0.
        1    1    3    3  502    0 -0.80902716886E+03 -0.29601923666E+03 -0.13375291530E+03  0.87180398646E+03  0.50400001928E-02 0.  1.
       -1    1    3    3    0  502  0.80902716886E+03  0.29601923666E+03  0.36058887112E+03  0.93390400065E+03  0.50400001928E-02 0. -1.
</event>
<event>
 5   0  0.8430513E-05  0.1792126E+04  0.7818609E-02  0.8710498E-01
       -1   -1    0    0    0  501  0.00000000000E+00  0.00000000000E+00  0.55354413897E+03  0.55354413899E+03  0.50400001928E-02 0.  1.
        1   -1    0    0  501    0  0.00000000000E+00  0.00000000000E+00 -0.14505229655E+04  0.14505229655E+04  0.50400001928E-02 0. -1.
    10030    2    1    2    0    0  0.00000000000E+00  0.00000000000E+00 -0.89697882657E+03  0.20040671045E+04  0.17921255381E+04 0.  0.
        5    1    3    3  502    0 -0.80731616384E+03  0.38777981013E+03 -0.47959695032E+03  0.10159566400E+04  0.46999998093E+01 0. -1.
       -5    1    3    3    0  502  0.80731616384E+03 -0.38777981013E+03 -0.41738187624E+03  0.98811046456E+03  0.46999998093E+01 0.  1.
</event>
<event>
 5   0  0.8206783E-05  0.1804768E+04  0.7818609E-02  0.8703768E-01
        1   -1    0    0  501    0  0.00000000000E+00  0.00000000000E+00  0.25522079551E+04  0.25522079551E+04  0.50400001928E-02 0.  1.
       -1   -1    0    0    0  501  0.00000000000E+00  0.00000000000E+00 -0.31905570410E+03  0.31905570414E+03  0.50400001928E-02 0. -1.
    10030    2    1    2    0    0  0.00000000000E+00  0.00000000000E+00  0.22331522510E+04  0.28712636592E+04  0.18047675819E+04 0.  0.
        1    1    3    3  502    0 -0.22213715190E+03 -0.47192136953E+03 -0.54940064010E+02  0.52447412132E+03  0.50400001928E-02 0. -1.
       -1    1    3    3    0  502  0.22213715190E+03  0.47192136953E+03  0.22880923150E+04  0.23467895379E+04  0.50400001928E-02 0.  1.
</event>
<event>
 5   0  0.8206783E-05  0.1807270E+04  0.7818609E-02  0.8702443E-01
        1   -1    0    0  501    0  0.00000000000E+00  0.00000000000E+00  0.12501962532E+04  0.12501962532E+04  0.50400001928E-02 0.  1.
       -1   -1    0    0    0  501  0.00000000000E+00  0.00000000000E+00 -0.65314272126E+03  0.65314272128E+03  0.50400001928E-02 0. -1.
    10030    2    1    2    0    0  0.00000000000E+00  0.00000000000E+00  0.59705353193E+03  0.19033389745E+04  0.18072704091E+04 0.  0.
        1    1    3    3  502    0  0.35653409771E+03 -0.59502313207E+03 -0.31138418902E+03  0.76034808063E+03  0.50400001928E-02 0. -1.
       -1    1    3    3    0  502 -0.35653409771E+03  0.59502313207E+03  0.90843772095E+03  0.11429908938E+04  0.50400001928E-02 0.  1.
</event>
<event>
 5   0  0.8254914E-05  0.1801107E+04  0.7818609E-02  0.8705711E-01
       -1   -1    0    0    0  501  0.00000000000E+00  0.00000000000E+00  0.50387770070E+03  0.50387770073E+03  0.50400001928E-02 0.  1.
        1   -1    0    0  501    0  0.00000000000E+00  0.00000000000E+00 -0.16095109369E+04  0.16095109369E+04  0.50400001928E-02 0. -1.
    10030    2    1    2    0    0  0.00000000000E+00  0.00000000000E+00 -0.11056332362E+04  0.21133886377E+04  0.18011070709E+04 0.  0.
        4    1    3    3  502    0  0.29042388070E+03 -0.55015443248E+03  0.21121630847E+03  0.65698544270E+03  0.12699999809E+01 0.  1.
       -4    1    3    3    0  502 -0.29042388070E+03  0.55015443248E+03 -0.13168495447E+04  0.14564031950E+04  0.12699999809E+01 0. -1.
</event>
<event>
 5   0  0.1549012E-04  0.1798247E+04  0.7818609E-02  0.8707232E-01
        2   -1    0    0  501    0  0.00000000000E+00  0.00000000000E+00  0.94320941931E+03  0.94320941931E+03  0.25500000920E-02 0.  1.
       -2   -1    0    0    0  501  0.00000000000E+00  0.00000000000E+00 -0.85709797765E+03  0.85709797765E+03  0.25500000920E-02 0. -1.
    10030    2    1    2    0    0  0.00000000000E+00  0.00000000000E+00  0.86111441656E+02  0.18003073970E+04  0.17982467971E+04 0.  0.
        4    1    3    3  502    0 -0.36989326157E+02  0.28705844003E+02 -0.85587575684E+03  0.85715643834E+03  0.12699999809E+01 0. -1.
       -4    1    3    3    0  502  0.36989326157E+02 -0.28705844003E+02  0.94198719850E+03  0.94315095863E+03  0.12699999809E+01 0.  1.
</event>
<event>
 5   0  0.1573981E-04  0.1803781E+04  0.7818609E-02  0.8704291E-01
        2   -1    0    0  501    0  0.00000000000E+00  0.00000000000E+00  0.15375801289E+04  0.15375801289E+04  0.25500000920E-02 0.  1.
       -2   -1    0    0    0  501  0.00000000000E+00  0.00000000000E+00 -0.52901752206E+03  0.52901752207E+03  0.25500000920E-02 0. -1.
    10030    2    1    2    0    0  0.00000000000E+00  0.00000000000E+00  0.10085626068E+04  0.20665976509E+04  0.18037813945E+04 0.  0.
        1    1    3    3  502    0 -0.64769452442E+03  0.22881578941E+03 -0.16528573542E+03  0.70652971403E+03  0.50400001928E-02 0. -1.
       -1    1    3    3    0  502  0.64769452442E+03 -0.22881578941E+03  0.11738483422E+04  0.13600679369E+04  0.50400001928E-02 0.  1.
</event>
<event>
 5   0  0.8254914E-05  0.1769768E+04  0.7818609E-02  0.8722544E-01
        1   -1    0    0  501    0  0.00000000000E+00  0.00000000000E+00  0.10533359846E+04  0.10533359846E+04  0.50400001928E-02 0. -1.
       -1   -1    0    0    0  501  0.00000000000E+00  0.00000000000E+00 -0.74337151171E+03  0.74337151173E+03  0.50400001928E-02 0.  1.
    10030    2    1    2    0    0  0.00000000000E+00  0.00000000000E+00  0.30996447287E+03  0.17967074963E+04  0.17697683049E+04 0.  0.
        4    1    3    3  502    0  0.41005043536E+03 -0.67262981586E+03 -0.25419893407E+03  0.82776261071E+03  0.12699999809E+01 0.  1.
       -4    1    3    3    0  502 -0.41005043536E+03  0.67262981586E+03  0.56416340693E+03  0.96894488560E+03  0.12699999809E+01 0. -1.
</event>
<event>
 5   0  0.1603564E-04  0.1799647E+04  0.7818609E-02  0.8706487E-01
       -2   -1    0    0    0  501  0.00000000000E+00  0.00000000000E+00  0.56431542009E+03  0.56431542010E+03  0.25500000920E-02 0.  1.
        2   -1    0    0  501    0  0.00000000000E+00  0.00000000000E+00 -0.14348039135E+04  0.14348039135E+04  0.25500000920E-02 0. -1.
    10030    2    1    2    0    0  0.00000000000E+00  0.00000000000E+00 -0.87048849340E+03  0.19991193336E+04  0.17996466022E+04 0.  0.
        5    1    3    3  502    0 -0.71726935162E+03 -0.46481421780E+03 -0.12275981006E+03  0.86349269876E+03  0.46999998093E+01 0.  1.
       -5    1    3    3    0  502  0.71726935162E+03  0.46481421780E+03 -0.74772868334E+03  0.11356266348E+04  0.46999998093E+01 0. -1.
</event>
<event>
 5   0  0.1628397E-04  0.1807509E+04  0.7818609E-02  0.8702317E-01
        2   -1    0    0  501    0  0.00000000000E+00  0.00000000000E+00  0.98705020518E+03  0.98705020518E+03  0.25500000920E-02 0. -1.
       -2   -1    0    0    0  501  0.00000000000E+00  0.00000000000E+00 -0.82748761816E+03  0.82748761816E+03  0.25500000920E-02 0.  1.
    10030    2    1    2    0    0  0.00000000000E+00  0.00000000000E+00  0.15956258702E+03  0.18145378233E+04  0.18075085873E+04 0.  0.
        3    1    3    3  502    0 -0.62527573132E+03  0.28391233133E+02  0.73423372090E+03  0.96481861995E+03  0.10100000352E+00 0.  1.
       -3    1    3    3    0  502  0.62527573132E+03 -0.28391233133E+02 -0.57467113388E+03  0.84971920339E+03  0.10100000352E+00 0. -1.
</event>
<event>
 5   0  0.1549012E-04  0.1786956E+04  0.7818609E-02  0.8713267E-01
        2   -1    0    0  501    0  0.00000000000E+00  0.00000000000E+00  0.22896459717E+04  0.22896459717E+04  0.25500000920E-02 0. -1.
       -2   -1    0    0    0  501  0.00000000000E+00  0.00000000000E+00 -0.34865769270E+03  0.34865769271E+03  0.25500000920E-02 0.  1.
    10030    2    1    2    0    0  0.00000000000E+00  0.00000000000E+00  0.19409882790E+04  0.26383036644E+04  0.17869557147E+04 0.  0.
        4    1    3    3  502    0 -0.31368805006E+03  0.51132913012E+03 -0.71206381070E+01  0.59992498568E+03  0.12699999809E+01 0.  1.
       -4    1    3    3    0  502  0.31368805006E+03 -0.51132913012E+03  0.19481089171E+04  0.20383786787E+04  0.12699999809E+01 0. -1.
</event>
<event>
 5   0  0.1608627E-04  0.1793159E+04  0.7818609E-02  0.8709946E-01
        2   -1    0    0  501    0  0.00000000000E+00  0.00000000000E+00  0.57432460731E+03  0.57432460731E+03  0.25500000920E-02 0. -1.
       -2   -1    0    0    0  501  0.00000000000E+00  0.00000000000E+00 -0.13996517770E+04  0.13996517770E+04  0.25500000920E-02 0.  1.
    10030    2    1    2    0    0  0.00000000000E+00  0.00000000000E+00 -0.82532716972E+03  0.19739763843E+04  0.17931586179E+04 0.  0.
        2    1    3    3  502    0 -0.84040024326E+03  0.12235786058E+03 -0.96260493088E+02  0.85469883436E+03  0.25500000920E-02 0. -1.
       -2    1    3    3    0  502  0.84040024326E+03 -0.12235786058E+03 -0.72906667663E+03  0.11192775500E+04  0.25500000920E-02 0.  1.
</event>
<event>
 5   0  0.1608627E-04  0.1795554E+04  0.7818609E-02  0.8708667E-01
       -2   -1    0    0    0  501  0.00000000000E+00  0.00000000000E+00  0.94927267314E+03  0.94927267315E+03  0.25500000920E-02 0. -1.
        2   -1    0    0  501    0  0.00000000000E+00  0.00000000000E+00 -0.84907498027E+03  0.84907498027E+03  0.25500000920E-02 0.  1.
    10030    2    1    2    0    0  0.00000000000E+00  0.00000000000E+00  0.10019769288E+03  0.17983476534E+04  0.17955541498E+04 0.  0.
        2    1    3    3  502    0  0.22629556148E+03 -0.79464801619E+03  0.40182682415E+03  0.91877088950E+03  0.25500000920E-02 0.  1.
       -2    1    3    3    0  502 -0.22629556148E+03  0.79464801619E+03 -0.30162913127E+03  0.87957676392E+03  0.25500000920E-02 0. -1.
</event>
<event>
 5   0  0.1608627E-04  0.1802236E+04  0.7818609E-02  0.8705111E-01
        2   -1    0    0  501    0  0.00000000000E+00  0.00000000000E+00  0.82690768757E+03  0.82690768757E+03  0.25500000920E-02 0. -1.
       -2   -1    0    0    0  501  0.00000000000E+00  0.00000000000E+00 -0.98198859020E+03  0.98198859020E+03  0.25500000920E-02 0.  1.
    10030    2    1    2    0    0  0.00000000000E+00  0.00000000000E+00 -0.15508090263E+03  0.18088962778E+04  0.18022362934E+04 0.  0.
        2    1    3    3  502    0 -0.26521270898E+03  0.52034640766E+03  0.61122846820E+03  0.84539837078E+03  0.25500000920E-02 0. -1.
       -2    1    3    3    0  502  0.26521270898E+03 -0.52034640766E+03 -0.76630937082E+03  0.96349790700E+03  0.25500000920E-02 0.  1.
</event>
<event>
 5   0  0.1628397E-04  0.1796287E+04  0.7818609E-02  0.8708276E-01
       -2   -1    0    0    0  501  0.00000000000E+00  0.00000000000E+00  0.76102024010E+03  0.76102024010E+03  0.25500000920E-02 0.  1.
        2   -1    0    0  501    0  0.00000000000E+00  0.00000000000E+00 -0.10599746660E+04  0.10599746660E+04  0.25500000920E-02 0. -1.
    10030    2    1    2    0    0  0.00000000000E+00  0.00000000000E+00 -0.29895442590E+03  0.18209949061E+04  0.17962874768E+04 0.  0.
        3    1    3    3  502    0 -0.49414244705E+03 -0.54233440920E+00  0.61082876466E+03  0.78567731419E+03  0.10100000352E+00 0.  1.
       -3    1    3    3    0  502  0.49414244705E+03  0.54233440920E+00 -0.90978319056E+03  0.10353175919E+04  0.10100000352E+00 0. -1.
</event>
<event>
 5   0  0.1549012E-04  0.1776631E+04  0.7818609E-02  0.8718827E-01
       -2   -1    0    0    0  501  0.00000000000E+00  0.00000000000E+00  0.90342801478E+03  0.90342801478E+03  0.25500000920E-02 0.  1.
        2   -1    0    0  501    0  0.00000000000E+00  0.00000000000E+00 -0.87345562516E+03  0.87345562516E+03  0.25500000920E-02 0. -1.
    10030    2    1    2    0    0  0.00000000000E+00  0.00000000000E+00  0.29972389618E+02  0.17768836399E+04  0.17766308355E+04 0.  0.
        4    1    3    3  502    0 -0.85289872090E+03 -0.81210012084E+02  0.24969249675E+03  0.89240083483E+03  0.12699999809E+01 0.  1.
       -4    1    3    3    0  502  0.85289872090E+03  0.81210012084E+02 -0.21972010714E+03  0.88448280512E+03  0.12699999809E+01 0. -1.
</event>
<event>
 5   0  0.1573981E-04  0.1798739E+04  0.7818609E-02  0.8706971E-01
        2   -1    0    0  501    0  0.00000000000E+00  0.00000000000E+00  0.13228091613E+04  0.13228091613E+04  0.25500000920E-02 0.  1.
       -2   -1    0    0    0  501  0.00000000000E+00  0.00000000000E+00 -0.61147529380E+03  0.61147529380E+03  0.25500000920E-02 0. -1.
    10030    2    1    2    0    0  0.00000000000E+00  0.00000000000E+00  0.71133386754E+03  0.19342844551E+04  0.17987385809E+04 0.  0.
        1    1    3    3  502    0  0.55829345927E+03 -0.37977336825E+03  0.99452775187E+03  0.12020835442E+04  0.50400001928E-02 0.  1.
       -1    1    3    3    0  502 -0.55829345927E+03  0.37977336825E+03 -0.28319388433E+03  0.73220091098E+03  0.50400001928E-02 0. -1.
</event>
<event>
 5   0  0.8206783E-05  0.1789627E+04  0.7818609E-02  0.8711835E-01
        1   -1    0    0  501    0  0.00000000000E+00  0.00000000000E+00  0.79007546338E+03  0.79007546340E+03  0.50400001928E-02 0.  1.
       -1   -1    0    0    0  501  0.00000000000E+00  0.00000000000E+00 -0.10134362015E+04  0.10134362015E+04  0.50400001928E-02 0. -1.
    10030    2    1    2    0    0  0.00000000000E+00  0.00000000000E+00 -0.22336073815E+03  0.18035116649E+04  0.17896268623E+04 0.  0.
        1    1    3    3  502    0  0.45762311224E+03  0.40018322027E+03  0.55001538578E+03  0.81980634742E+03  0.50400001928E-02 0.  1.
       -1    1    3    3    0  502 -0.45762311224E+03 -0.40018322027E+03 -0.77337612393E+03  0.98370531753E+03  0.50400001928E-02 0. -1.
</event>
<event>
 5   0  0.8132598E-05  0.1811916E+04  0.7818609E-02  0.8699988E-01
        1   -1    0    0  501    0  0.00000000000E+00  0.00000000000E+00  0.10270182823E+04  0.10270182823E+04  0.50400001928E-02 0. -1.
       -1   -1    0    0    0  501  0.00000000000E+00  0.00000000000E+00 -0.79916794336E+03  0.79916794337E+03  0.50400001928E-02 0.  1.
    10030    2    1    2    0    0  0.00000000000E+00  0.00000000000E+00  0.22785033898E+03  0.18261862257E+04  0.18119162105E+04 0.  0.
        3    1    3    3  502    0  0.12619906275E+03 -0.17674978667E+03  0.10003937080E+04  0.10236963767E+04  0.10100000352E+00 0. -1.
       -3    1    3    3    0  502 -0.12619906275E+03  0.17674978667E+03 -0.77254336902E+03  0.80248984899E+03  0.10100000352E+00 0.  1.
</event>
<event>
 5   0  0.8206783E-05  0.1813548E+04  0.7818609E-02  0.8699128E-01
       -1   -1    0    0    0  501  0.00000000000E+00  0.00000000000E+00  0.63485833726E+03  0.63485833728E+03  0.50400001928E-02 0. -1.
        1   -1    0    0  501    0  0.00000000000E+00  0.00000000000E+00 -0.12951535697E+04  0.12951535698E+04  0.50400001928E-02 0.  1.
    10030    2    1    2    0    0  0.00000000000E+00  0.00000000000E+00 -0.66029523249E+03  0.19300119070E+04  0.18135479501E+04 0.  0.
        1    1    3    3  502    0  0.27766214219E+03 -0.30098737874E+03  0.53085040159E+03  0.67044150845E+03  0.50400001928E-02 0. -1.
       -1    1    3    3    0  502 -0.27766214219E+03  0.30098737874E+03 -0.11911456341E+04  0.12595703986E+04  0.50400001928E-02 0.  1.
</event>
<event>
 5   0  0.1549012E-04  0.1798276E+04  0.7818609E-02  0.8707217E-01
        2   -1    0    0  501    0  0.00000000000E+00  0.00000000000E+00  0.10005930651E+04  0.10005930651E+04  0.25500000920E-02 0. -1.
       -2   -1    0    0    0  501  0.00000000000E+00  0.00000000000E+00 -0.80797035814E+03  0.80797035815E+03  0.25500000920E-02 0.  1.
    10030    2    1    2    0    0  0.00000000000E+00  0.00000000000E+00  0.19262270695E+03  0.18085634232E+04  0.17982764383E+04 0.  0.
        4    1    3    3  502    0 -0.67210684407E+03 -0.39224158592E+03 -0.35667261799E+03  0.85603623808E+03  0.12699999809E+01 0.  1.
       -4    1    3    3    0  502  0.67210684407E+03  0.39224158592E+03  0.54929532494E+03  0.95252718517E+03  0.12699999809E+01 0. -1.
</event>
<event>
 5   0  0.1608627E-04  0.1800064E+04  0.7818609E-02  0.8706266E-01
       -2   -1    0    0    0  501  0.00000000000E+00  0.00000000000E+00  0.58841747183E+03  0.58841747183E+03  0.25500000920E-02 0. -1.
        2   -1    0    0  501    0  0.00000000000E+00  0.00000000000E+00 -0.13766710712E+04  0.13766710712E+04  0.25500000920E-02 0.  1.
    10030    2    1    2    0    0  0.00000000000E+00  0.00000000000E+00 -0.78825359940E+03  0.19650885431E+04  0.18000636781E+04 0.  0.
        2    1    3    3  502    0  0.88331792184E+03  0.11138576786E+03 -0.25012480214E+03  0.92478092377E+03  0.25500000920E-02 0. -1.
       -2    1    3    3    0  502 -0.88331792184E+03 -0.11138576786E+03 -0.53812879726E+03  0.10403076193E+04  0.25500000920E-02 0.  1.
</event>
<event>
 5   0  0.1608627E-04  0.1821550E+04  0.7818609E-02  0.8694923E-01
        2   -1    0    0  501    0  0.00000000000E+00  0.00000000000E+00  0.10261256828E+04  0.10261256828E+04  0.25500000920E-02 0. -1.
       -2   -1    0    0    0  501  0.00000000000E+00  0.00000000000E+00 -0.80839105888E+03  0.80839105889E+03  0.25500000920E-02 0.  1.
    10030    2    1    2    0    0  0.00000000000E+00  0.00000000000E+00  0.21773462393E+03  0.18345167417E+04  0.18215496999E+04 0.  0.
        2    1    3    3  502    0  0.25516345907E+03  0.60513508878E+03  0.74440146642E+03  0.99268847567E+03  0.25500000920E-02 0. -1.
       -2    1    3    3    0  502 -0.25516345907E+03 -0.60513508878E+03 -0.52666684249E+03  0.84182826604E+03  0.25500000920E-02 0.  1.
</event>
<event>
 5   0  0.1573981E-04  0.1802706E+04  0.7818609E-02  0.8704862E-01
       -2   -1    0    0    0  501  0.00000000000E+00  0.00000000000E+00  0.88141561608E+03  0.88141561609E+03  0.25500000920E-02 0. -1.
        2   -1    0    0  501    0  0.00000000000E+00  0.00000000000E+00 -0.92174171531E+03  0.92174171531E+03  0.25500000920E-02 0.  1.
    10030    2    1    2    0    0  0.00000000000E+00  0.00000000000E+00 -0.40326099228E+02  0.18031573314E+04  0.18027063453E+04 0.  0.
        1    1    3    3  502    0 -0.53551854833E+03  0.39132077001E+03  0.59033829778E+03  0.88792531583E+03  0.50400001928E-02 0. -1.
       -1    1    3    3    0  502  0.53551854833E+03 -0.39132077001E+03 -0.63066439701E+03  0.91523201557E+03  0.50400001928E-02 0.  1.
</event>
<event>
 5   0  0.1603564E-04  0.1806131E+04  0.7818609E-02  0.8703046E-01
        2   -1    0    0  501    0  0.00000000000E+00  0.00000000000E+00  0.12038008572E+04  0.12038008572E+04  0.25500000920E-02 0. -1.
       -2   -1    0    0    0  501  0.00000000000E+00  0.00000000000E+00 -0.67746039854E+03  0.67746039854E+03  0.25500000920E-02 0.  1.
    10030    2    1    2    0    0  0.00000000000E+00  0.00000000000E+00  0.52634045868E+03  0.18812612558E+04  0.18061311232E+04 0.  0.
        5    1    3    3  502    0  0.19441186404E+03 -0.63523261055E+03  0.90032548717E+03  0.11188943271E+04  0.46999998093E+01 0. -1.
       -5    1    3    3    0  502 -0.19441186404E+03  0.63523261055E+03 -0.37398502849E+03  0.76236692866E+03  0.46999998093E+01 0.  1.
</event>
<event>
 5   0  0.8492114E-05  0.1771374E+04  0.7818609E-02  0.8721672E-01
        1   -1    0    0  501    0  0.00000000000E+00  0.00000000000E+00  0.72915668215E+03  0.72915668216E+03  0.50400001928E-02 0.  1.
       -1   -1    0    0    0  501  0.00000000000E+00  0.00000000000E+00 -0.10758202953E+04  0.10758202953E+04  0.50400001928E-02 0. -1.
    10030    2    1    2    0    0  0.00000000000E+00  0.00000000000E+00 -0.34666361318E+03  0.18049769775E+04  0.17713741075E+04 0.  0.
        2    1    3    3  502    0  0.37454047317E+03 -0.19003922607E+03  0.62123354401E+03  0.74988438422E+03  0.25500000920E-02 0.  1.
       -2    1    3    3    0  502 -0.37454047317E+03  0.19003922607E+03 -0.96789715719E+03  0.10550925933E+04  0.25500000920E-02 0. -1.
</event>
<event>
 5   0  0.8132598E-05  0.1817416E+04  0.7818609E-02  0.8697092E-01
       -1   -1    0    0    0  501  0.00000000000E+00  0.00000000000E+00  0.67845130245E+03  0.67845130247E+03  0.50400001928E-02 0.  1.
        1   -1    0    0  501    0  0.00000000000E+00  0.00000000000E+00 -0.12171109468E+04  0.12171109469E+04  0.50400001928E-02 0. -1.
    10030    2    1    2    0    0  0.00000000000E+00  0.00000000000E+00 -0.53865964440E+03  0.18955622493E+04  0.18174163058E+04 0.  0.
        3    1    3    3  502    0 -0.63391550487E+03  0.55046146423E+03  0.93318486198E+02  0.84472779106E+03  0.10100000352E+00 0.  1.
       -3    1    3    3    0  502  0.63391550487E+03 -0.55046146423E+03 -0.63197813060E+03  0.10508344583E+04  0.10100000352E+00 0. -1.
</event>
<event>
 5   0  0.8206783E-05  0.1806146E+04  0.7818609E-02  0.8703038E-01
        1   -1    0    0  501    0  0.00000000000E+00  0.00000000000E+00  0.60391033305E+03  0.60391033307E+03  0.50400001928E-02 0. -1.
       -1   -1    0    0    0  501  0.00000000000E+00  0.00000000000E+00 -0.13504338439E+04  0.13504338439E+04  0.50400001928E-02 0.  1.
    10030    2    1    2    0    0  0.00000000000E+00  0.00000000000E+00 -0.74652351081E+03  0.19543441769E+04  0.18061461208E+04 0.  0.
        1    1    3    3  502    0 -0.26726057385E+03 -0.10727304849E+03 -0.12994156859E+04  0.13309458464E+04  0.50400001928E-02 0.  1.
       -1    1    3    3    0  502  0.26726057385E+03  0.10727304849E+03  0.55289217506E+03  0.62339833056E+03  0.50400001928E-02 0. -1.
</event>
<event>
 5   0  0.8492114E-05  0.1850330E+04  0.7818609E-02  0.8679983E-01
       -1   -1    0    0    0  501  0.00000000000E+00  0.00000000000E+00  0.39371343922E+03  0.39371343925E+03  0.50400001928E-02 0.  1.
        1   -1    0    0  501    0  0.00000000000E+00  0.00000000000E+00 -0.21739932210E+04  0.21739932210E+04  0.50400001928E-02 0. -1.
    10030    2    1    2    0    0  0.00000000000E+00  0.00000000000E+00 -0.17802797818E+04  0.25677066603E+04  0.18503300764E+04 0.  0.
        2    1    3    3  502    0  0.52807321763E+03  0.24229899519E+03 -0.18892469625E+04  0.19765687975E+04  0.25500000920E-02 0. -1.
       -2    1    3    3    0  502 -0.52807321763E+03 -0.24229899519E+03  0.10896718068E+03  0.59113786271E+03  0.25500000920E-02 0.  1.
</event>
<event>
 5   0  0.1628397E-04  0.1785772E+04  0.7818609E-02  0.8713902E-01
       -2   -1    0    0    0  501  0.00000000000E+00  0.00000000000E+00  0.48171646146E+03  0.48171646147E+03  0.25500000920E-02 0.  1.
        2   -1    0    0  501    0  0.00000000000E+00  0.00000000000E+00 -0.16550099948E+04  0.16550099948E+04  0.25500000920E-02 0. -1.
    10030    2    1    2    0    0  0.00000000000E+00  0.00000000000E+00 -0.11732935334E+04  0.21367264563E+04  0.17857721673E+04 0.  0.
        3    1    3    3  502    0 -0.10541973657E+03  0.75768265435E+02  0.47036327734E+03  0.48795058539E+03  0.10100000352E+00 0.  1.
       -3    1    3    3    0  502  0.10541973657E+03 -0.75768265435E+02 -0.16436568107E+04  0.16487758709E+04  0.10100000352E+00 0. -1.
</event>
<event>
 5   0  0.8492114E-05  0.1798396E+04  0.7818609E-02  0.8707153E-01
        1   -1    0    0  501    0  0.00000000000E+00  0.00000000000E+00  0.10025337270E+04  0.10025337270E+04  0.50400001928E-02 0. -1.
       -1   -1    0    0    0  501  0.00000000000E+00  0.00000000000E+00 -0.80651311849E+03  0.80651311851E+03  0.50400001928E-02 0.  1.
    10030    2    1    2    0    0  0.00000000000E+00  0.00000000000E+00  0.19602060851E+03  0.18090468455E+04  0.17983955100E+04 0.  0.
        2    1    3    3  502    0  0.72467909308E+03 -0.26942790706E+03 -0.36384452321E+03  0.85447880145E+03  0.25500000920E-02 0.  1.
       -2    1    3    3    0  502 -0.72467909308E+03  0.26942790706E+03  0.55986513172E+03  0.95456804408E+03  0.25500000920E-02 0. -1.
</event>
<event>
 5   0  0.1603564E-04  0.1790580E+04  0.7818609E-02  0.8711325E-01
        2   -1    0    0  501    0  0.00000000000E+00  0.00000000000E+00  0.14549068061E+04  0.14549068061E+04  0.25500000920E-02 0. -1.
       -2   -1    0    0    0  501  0.00000000000E+00  0.00000000000E+00 -0.55092446126E+03  0.55092446127E+03  0.25500000920E-02 0.  1.
    10030    2    1    2    0    0  0.00000000000E+00  0.00000000000E+00  0.90398234481E+03  0.20058312673E+04  0.17905795133E+04 0.  0.
        5    1    3    3  502    0  0.81506702273E+03  0.35277944966E+03  0.57840202062E+03  0.10598861161E+04  0.46999998093E+01 0.  1.
       -5    1    3    3    0  502 -0.81506702273E+03 -0.35277944966E+03  0.32558032418E+03  0.94594515124E+03  0.46999998093E+01 0. -1.
</event>
<event>
 5   0  0.1549012E-04  0.1760676E+04  0.7818609E-02  0.8727496E-01
        2   -1    0    0  501    0  0.00000000000E+00  0.00000000000E+00  0.96466086783E+03  0.96466086784E+03  0.25500000920E-02 0. -1.
       -2   -1    0    0    0  501  0.00000000000E+00  0.00000000000E+00 -0.80338590917E+03  0.80338590918E+03  0.25500000920E-02 0.  1.
    10030    2    1    2    0    0  0.00000000000E+00  0.00000000000E+00  0.16127495866E+03  0.17680467770E+04  0.17606759479E+04 0.  0.
        4    1    3    3  502    0  0.59928836888E+03  0.49105636286E+03  0.50037108471E+03  0.92230999989E+03  0.12699999809E+01 0. -1.
       -4    1    3    3    0  502 -0.59928836888E+03 -0.49105636286E+03 -0.33909612605E+03  0.84573677712E+03  0.12699999809E+01 0.  1.
</event>
<event>
 5   0  0.8430513E-05  0.1810313E+04  0.7818609E-02  0.8700834E-01
       -1   -1    0    0    0  501  0.00000000000E+00  0.00000000000E+00  0.78005683145E+03  0.78005683146E+03  0.50400001928E-02 0. -1.
        1   -1    0    0  501    0  0.00000000000E+00  0.00000000000E+00 -0.10503187618E+04  0.10503187618E+04  0.50400001928E-02 0.  1.
    10030    2    1    2    0    0  0.00000000000E+00  0.00000000000E+00 -0.27026193033E+03  0.18303755932E+04  0.18103130396E+04 0.  0.
        5    1    3    3  502    0 -0.77138156282E+03  0.38166784950E+03 -0.41857032460E+03  0.95703869799E+03  0.46999998093E+01 0.  1.
       -5    1    3    3    0  502  0.77138156282E+03 -0.38166784950E+03  0.14830839427E+03  0.87333689526E+03  0.46999998093E+01 0. -1.
</event>
<event>
 5   0  0.8132598E-05  0.1790927E+04  0.7818609E-02  0.8711140E-01
       -1   -1    0    0    0  501  0.00000000000E+00  0.00000000000E+00  0.88370582106E+03  0.88370582108E+03  0.50400001928E-02 0. -1.
        1   -1    0    0  501    0  0.00000000000E+00  0.00000000000E+00 -0.90737722725E+03  0.90737722726E+03  0.50400001928E-02 0.  1.
    10030    2    1    2    0    0  0.00000000000E+00  0.00000000000E+00 -0.23671406189E+02  0.17910830483E+04  0.17909266179E+04 0.  0.
        3    1    3    3  502    0 -0.44316684685E+03 -0.17595307917E+02 -0.78981629264E+03  0.90582351224E+03  0.10100000352E+00 0.  1.
       -3    1    3    3    0  502  0.44316684685E+03  0.17595307917E+02  0.76614488645E+03  0.88525953610E+03  0.10100000352E+00 0. -1.
</event>
<event>
 5   0  0.8206783E-05  0.1800171E+04  0.7818609E-02  0.8706209E-01
        1   -1    0    0  501    0  0.00000000000E+00  0.00000000000E+00  0.84642633212E+03  0.84642633214E+03  0.50400001928E-02 0. -1.
       -1   -1    0    0    0  501  0.00000000000E+00  0.00000000000E+00 -0.95714599740E+03  0.95714599741E+03  0.50400001928E-02 0.  1.
    10030    2    1    2    0    0  0.00000000000E+00  0.00000000000E+00 -0.11071966528E+03  0.18035723295E+04  0.18001706318E+04 0.  0.
        1    1    3    3  502    0 -0.66053643723E+03  0.31102348499E+03  0.47204689289E+03  0.86940914548E+03  0.50400001928E-02 0. -1.
       -1    1    3    3    0  502  0.66053643723E+03 -0.31102348499E+03 -0.58276655816E+03  0.93416318407E+03  0.50400001928E-02 0.  1.
</event>
<event>
 5   0  0.8430513E-05  0.1795726E+04  0.7818609E-02  0.8708576E-01
       -1   -1    0    0    0  501  0.00000000000E+00  0.00000000000E+00  0.54796202636E+03  0.54796202639E+03  0.50400001928E-02 0. -1.
        1   -1    0    0  501    0  0.00000000000E+00  0.00000000000E+00 -0.14711923384E+04  0.14711923384E+04  0.50400001928E-02 0.  1.
    10030    2    1    2    0    0  0.00000000000E+00  0.00000000000E+00 -0.92323031204E+03  0.20191543648E+04  0.17957255191E+04 0.  0.
        5    1    3    3  502    0 -0.47751650744E+03  0.51466462595E+03  0.16769370164E+03  0.72183444061E+03  0.46999998093E+01 0.  1.
       -5    1    3    3    0  502  0.47751650744E+03 -0.51466462595E+03 -0.10909240137E+04  0.12973199242E+04  0.46999998093E+01 0. -1.
</event>
<event>
 5   0  0.1608627E-04  0.1854590E+04  0.7818609E-02  0.8677796E-01
        2   -1    0    0  501    0  0.00000000000E+00  0.00000000000E+00  0.11649974638E+04  0.11649974638E+04  0.25500000920E-02 0. -1.
       -2   -1    0    0    0  501  0.00000000000E+00  0.00000000000E+00 -0.73809263774E+03  0.73809263775E+03  0.25500000920E-02 0.  1.
    10030    2    1    2    0    0  0.00000000000E+00  0.00000000000E+00  0.42690482608E+03  0.19030901016E+04  0.18545900367E+04 0.  0.
        2    1    3    3  502    0 -0.40728823841E+03 -0.79775012661E+03 -0.32796287334E+02  0.89630606945E+03  0.25500000920E-02 0.  1.
       -2    1    3    3    0  502  0.40728823841E+03  0.79775012661E+03  0.45970111341E+03  0.10067840321E+04  0.25500000920E-02 0. -1.
</event>
<event>
 5   0  0.8492114E-05  0.1797339E+04  0.7818609E-02  0.8707716E-01
        1   -1    0    0  501    0  0.00000000000E+00  0.00000000000E+00  0.64512412841E+03  0.64512412843E+03  0.50400001928E-02 0. -1.
       -1   -1    0    0    0  501  0.00000000000E+00  0.00000000000E+00 -0.12518624114E+04  0.12518624114E+04  0.50400001928E-02 0.  1.
    10030    2    1    2    0    0  0.00000000000E+00  0.00000000000E+00 -0.60673828302E+03  0.18969865399E+04  0.17973387517E+04 0.  0.
        2    1    3    3  502    0 -0.11063162314E+03 -0.51309753744E+03  0.46652357225E+03  0.70224830539E+03  0.25500000920E-02 0. -1.
       -2    1    3    3    0  502  0.11063162314E+03  0.51309753744E+03 -0.10732618553E+04  0.11947382345E+04  0.25500000920E-02 0.  1.
</event>
<event>
 5   0  0.1603564E-04  0.1718742E+04  0.7818609E-02  0.8750747E-01
        2   -1    0    0  501    0  0.00000000000E+00  0.00000000000E+00  0.83563884416E+03  0.83563884416E+03  0.25500000920E-02 0. -1.
       -2   -1    0    0    0  501  0.00000000000E+00  0.00000000000E+00 -0.88377714216E+03  0.88377714216E+03  0.25500000920E-02 0.  1.
    10030    2    1    2    0    0  0.00000000000E+00  0.00000000000E+00 -0.48138297999E+02  0.17194159863E+04  0.17187419929E+04 0.  0.
        5    1    3    3  502    0  0.68718907704E+03  0.49776418398E+03  0.11199304271E+03  0.85589867512E+03  0.46999998093E+01 0.  1.
       -5    1    3    3    0  502 -0.68718907704E+03 -0.49776418398E+03 -0.16013134071E+03  0.86351731120E+03  0.46999998093E+01 0. -1.
</event>
<event>
 5   0  0.8206783E-05  0.1790137E+04  0.7818609E-02  0.8711562E-01
        1   -1    0    0  501    0  0.00000000000E+00  0.00000000000E+00  0.11002641020E+04  0.11002641021E+04  0.50400001928E-02 0. -1.
       -1   -1    0    0    0  501  0.00000000000E+00  0.00000000000E+00 -0.72814090349E+03  0.72814090351E+03  0.50400001928E-02 0.  1.
    10030    2    1    2    0    0  0.00000000000E+00  0.00000000000E+00  0.37212319855E+03  0.18284050056E+04  0.17901366399E+04 0.  0.
        1    1    3    3  502    0 -0.54789461108E+03  0.56404821758E+03  0.62276270807E+03  0.10030813961E+04  0.50400001928E-02 0. -1.
       -1    1    3    3    0  502  0.54789461108E+03 -0.56404821758E+03 -0.25063950952E+03  0.82532360947E+03  0.50400001928E-02 0.  1.
</event>
<event>
 5   0  0.1628397E-04  0.1788266E+04  0.7818609E-02  0.8712564E-01
        2   -1    0    0  501    0  0.00000000000E+00  0.00000000000E+00  0.38517438908E+03  0.38517438909E+03  0.25500000920E-02 0.  1.
       -2   -1    0    0    0  501  0.00000000000E+00  0.00000000000E+00 -0.20756156766E+04  0.20756156766E+04  0.25500000920E-02 0. -1.
    10030    2    1    2    0    0  0.00000000000E+00  0.00000000000E+00 -0.16904412875E+04  0.24607900657E+04  0.17882661997E+04 0.  0.
        3    1    3    3  502    0  0.33708241273E+03 -0.68142562639E+03 -0.14928665828E+04  0.16752958191E+04  0.10100000352E+00 0. -1.
       -3    1    3    3    0  502 -0.33708241273E+03  0.68142562639E+03 -0.19757470473E+03  0.78549424659E+03  0.10100000352E+00 0.  1.
</event>
<event>
 5   0  0.1603564E-04  0.1810647E+04  0.7818609E-02  0.8700658E-01
        2   -1    0    0  501    0  0.00000000000E+00  0.00000000000E+00  0.16402825136E+04  0.16402825136E+04  0.25500000920E-02 0. -1.
       -2   -1    0    0    0  501  0.00000000000E+00  0.00000000000E+00 -0.49967639162E+03  0.49967639162E+03  0.25500000920E-02 0.  1.
    10030    2    1    2    0    0  0.00000000000E+00  0.00000000000E+00  0.11406061220E+04  0.21399589053E+04  0.18106467879E+04 0.  0.
        5    1    3    3  502    0  0.30639814647E+03  0.80489946187E+03  0.90005559660E+03  0.12457387908E+04  0.46999998093E+01 0. -1.
       -5    1    3    3    0  502 -0.30639814647E+03 -0.80489946187E+03  0.24055052542E+03  0.89422011449E+03  0.46999998093E+01 0.  1.
</event>
<event>
 5   0  0.1603564E-04  0.1798997E+04  0.7818609E-02  0.8706833E-01
       -2   -1    0    0    0  501  0.00000000000E+00  0.00000000000E+00  0.49754797139E+03  0.49754797140E+03  0.25500000920E-02 0.  1.
        2   -1    0    0  501    0  0.00000000000E+00  0.00000000000E+00 -0.16261706878E+04  0.16261706878E+04  0.25500000920E-02 0. -1.
    10030    2    1    2    0    0  0.00000000000E+00  0.00000000000E+00 -0.11286227164E+04  0.21237186592E+04  0.17989974173E+04 0.  0.
        5    1    3    3  502    0 -0.36839063479E+03  0.20845446376E+03  0.37261619175E+03  0.56394134412E+03  0.46999998093E+01 0.  1.
       -5    1    3    3    0  502  0.36839063479E+03 -0.20845446376E+03 -0.15012389082E+04  0.15597773151E+04  0.46999998093E+01 0. -1.
</event>
<event>
 5   0  0.1628397E-04  0.1779677E+04  0.7818609E-02  0.8717182E-01
        2   -1    0    0  501    0  0.00000000000E+00  0.00000000000E+00  0.92117336915E+03  0.92117336916E+03  0.25500000920E-02 0. -1.
       -2   -1    0    0    0  501  0.00000000000E+00  0.00000000000E+00 -0.85956943429E+03  0.85956943429E+03  0.25500000920E-02 0.  1.
    10030    2    1    2    0    0  0.00000000000E+00  0.00000000000E+00  0.61603934867E+02  0.17807428034E+04  0.17796769053E+04 0.  0.
        3    1    3    3  502    0 -0.64365404205E+03  0.44009309994E+03  0.45982443644E+03  0.90521322626E+03  0.10100000352E+00 0. -1.
       -3    1    3    3    0  502  0.64365404205E+03 -0.44009309994E+03 -0.39822050157E+03  0.87552957719E+03  0.10100000352E+00 0.  1.
</event>
<event>
 5   0  0.8206783E-05  0.1807406E+04  0.7818609E-02  0.8702371E-01
        1   -1    0    0  501    0  0.00000000000E+00  0.00000000000E+00  0.18908412976E+04  0.18908412976E+04  0.50400001928E-02 0. -1.
       -1   -1    0    0    0  501  0.00000000000E+00  0.00000000000E+00 -0.43191331250E+03  0.43191331253E+03  0.50400001928E-02 0.  1.
    10030    2    1    2    0    0  0.00000000000E+00  0.00000000000E+00  0.14589279851E+04  0.23227546101E+04  0.18074064604E+04 0.  0.
        1    1    3    3  502    0 -0.56227187415E+02 -0.90179815905E+03  0.70803225604E+03  0.11479159777E+04  0.50400001928E-02 0.  1.
       -1    1    3    3    0  502  0.56227187415E+02  0.90179815905E+03  0.75089572902E+03  0.11748386324E+04  0.50400001928E-02 0. -1.
</event>
<event>
 5   0  0.8254914E-05  0.1807549E+04  0.7818609E-02  0.8702295E-01
        1   -1    0    0  501    0  0.00000000000E+00  0.00000000000E+00  0.76765099376E+03  0.76765099378E+03  0.50400001928E-02 0.  1.
       -1   -1    0    0    0  501  0.00000000000E+00  0.00000000000E+00 -0.10640364868E+04  0.10640364868E+04  0.50400001928E-02 0. -1.
    10030    2    1    2    0    0  0.00000000000E+00  0.00000000000E+00 -0.29638549303E+03  0.18316874806E+04  0.18075493537E+04 0.  0.
        4    1    3    3  502    0 -0.29861193223E+02  0.55080778590E+03  0.57727686506E+03  0.79845544628E+03  0.12699999809E+01 0.  1.
       -4    1    3    3    0  502  0.29861193223E+02 -0.55080778590E+03 -0.87366235809E+03  0.10332320343E+04  0.12699999809E+01 0. -1.
</event>
<event>
 5   0  0.8430513E-05  0.1805238E+04  0.7818609E-02  0.8703519E-01
        1   -1    0    0  501    0  0.00000000000E+00  0.00000000000E+00  0.11042582284E+04  0.11042582284E+04  0.50400001928E-02 0.  1.
       -1   -1    0    0    0  501  0.00000000000E+00  0.00000000000E+00 -0.73779908092E+03  0.73779908094E+03  0.50400001928E-02 0. -1.
    10030    2    1    2    0    0  0.00000000000E+00  0.00000000000E+00  0.36645914751E+03  0.18420573094E+04  0.18052376088E+04 0.  0.
        5    1    3    3  502    0 -0.63679765844E+03  0.53195492255E+03 -0.17927869493E+03  0.84891120730E+03  0.46999998093E+01 0. -1.
       -5    1    3    3    0  502  0.63679765844E+03 -0.53195492255E+03  0.54573784244E+03  0.99314610209E+03  0.46999998093E+01 0.  1.
</event>
<event>
 5   0  0.1608627E-04  0.1802328E+04  0.7818609E-02  0.8705063E-01
       -2   -1    0    0    0  501  0.00000000000E+00  0.00000000000E+00  0.68708889783E+03  0.68708889783E+03  0.25500000920E-02 0. -1.
        2   -1    0    0  501    0  0.00000000000E+00  0.00000000000E+00 -0.11819377866E+04  0.11819377866E+04  0.25500000920E-02 0.  1.
    10030    2    1    2    0    0  0.00000000000E+00  0.00000000000E+00 -0.49484888882E+03  0.18690266845E+04  0.18023277517E+04 0.  0.
        2    1    3    3  502    0  0.18411559117E+03  0.32263138241E+03 -0.10988488147E+04  0.11599389111E+04  0.25500000920E-02 0.  1.
       -2    1    3    3    0  502 -0.18411559117E+03 -0.32263138241E+03  0.60399992592E+03  0.70908777337E+03  0.25500000920E-02 0. -1.
</event>
<event>
 5   0  0.8132598E-05  0.1798218E+04  0.7818609E-02  0.8707248E-01
       -1   -1    0    0    0  501  0.00000000000E+00  0.00000000000E+00  0.11771971048E+04  0.11771971048E+04  0.50400001928E-02 0.  1.
        1   -1    0    0  501    0  0.00000000000E+00  0.00000000000E+00 -0.68671310565E+03  0.68671310567E+03  0.50400001928E-02 0. -1.
    10030    2    1    2    0    0  0.00000000000E+00  0.00000000000E+00  0.49048399914E+03  0.18639102105E+04  0.17982176507E+04 0.  0.
        3    1    3    3  502    0 -0.43164589941E+03  0.25974653400E+03 -0.52668577471E+03  0.72882395672E+03  0.10100000352E+00 0. -1.
       -3    1    3    3    0  502  0.43164589941E+03 -0.25974653400E+03  0.10171697738E+04  0.11350862537E+04  0.10100000352E+00 0.  1.
</event>
<event>
 5   0  0.8254914E-05  0.1789862E+04  0.7818609E-02  0.8711709E-01
       -1   -1    0    0    0  501  0.00000000000E+00  0.00000000000E+00  0.44230022221E+03  0.44230022224E+03  0.50400001928E-02 0. -1.
        1   -1    0    0  501    0  0.00000000000E+00  0.00000000000E+00 -0.18107642284E+04  0.18107642284E+04  0.50400001928E-02 0.  1.
    10030    2    1    2    0    0  0.00000000000E+00  0.00000000000E+00 -0.13684640062E+04  0.22530644507E+04  0.17898619172E+04 0.  0.
        4    1    3    3  502    0  0.30431708506E+03 -0.41676635978E+03  0.23614812406E+03  0.56751267501E+03  0.12699999809E+01 0. -1.
       -4    1    3    3    0  502 -0.30431708506E+03  0.41676635978E+03 -0.16046121303E+04  0.16855517757E+04  0.12699999809E+01 0.  1.
</event>
<event>
 5   0  0.1549012E-04  0.1630849E+04  0.7818609E-02  0.8801817E-01
        2   -1    0    0  501    0  0.00000000000E+00  0.00000000000E+00  0.15607121869E+04  0.15607121869E+04  0.25500000920E-02 0. -1.
       -2   -1    0    0    0  501  0.00000000000E+00  0.00000000000E+00 -0.42603449086E+03  0.42603449086E+03  0.25500000920E-02 0.  1.
    10030    2    1    2    0    0  0.00000000000E+00  0.00000000000E+00  0.11346776961E+04  0.19867466778E+04  0.16308491309E+04 0.  0.
        4    1    3    3  502    0  0.53521284056E+03  0.44355229562E+03  0.48018817075E+02  0.69677747046E+03  0.12699999809E+01 0.  1.
       -4    1    3    3    0  502 -0.53521284056E+03 -0.44355229562E+03  0.10866588790E+04  0.12899692073E+04  0.12699999809E+01 0. -1.
</event>
<event>
 5   0  0.8254914E-05  0.1791498E+04  0.7818609E-02  0.8710834E-01
        1   -1    0    0  501    0  0.00000000000E+00  0.00000000000E+00  0.16060449338E+04  0.16060449338E+04  0.50400001928E-02 0. -1.
       -1   -1    0    0    0  501  0.00000000000E+00  0.00000000000E+00 -0.49959145631E+03  0.49959145634E+03  0.50400001928E-02 0.  1.
    10030    2    1    2    0    0  0.00000000000E+00  0.00000000000E+00  0.11064534775E+04  0.21056363902E+04  0.17914980630E+04 0.  0.
        4    1    3    3  502    0 -0.33870698589E+03  0.23434922676E+03 -0.38169176121E+03  0.56154447361E+03  0.12699999809E+01 0.  1.
       -4    1    3    3    0  502  0.33870698589E+03 -0.23434922676E+03  0.14881452387E+04  0.15440919166E+04  0.12699999809E+01 0. -1.
</event>
<event>
 5   0  0.8254914E-05  0.1802594E+04  0.7818609E-02  0.8704921E-01
        1   -1    0    0  501    0  0.00000000000E+00  0.00000000000E+00  0.94858516832E+03  0.94858516834E+03  0.50400001928E-02 0.  1.
       -1   -1    0    0    0  501  0.00000000000E+00  0.00000000000E+00 -0.85636601357E+03  0.85636601358E+03  0.50400001928E-02 0. -1.
    10030    2    1    2    0    0  0.00000000000E+00  0.00000000000E+00  0.92219154758E+02  0.18049511819E+04  0.18025937969E+04 0.  0.
        4    1    3    3  502    0 -0.26215080121E+03  0.36524028476E+03  0.82829117880E+03  0.94243906857E+03  0.12699999809E+01 0.  1.
       -4    1    3    3    0  502  0.26215080121E+03 -0.36524028476E+03 -0.73607202405E+03  0.86251211335E+03  0.12699999809E+01 0. -1.
</event>
<event>
 5   0  0.8206783E-05  0.1800447E+04  0.7818609E-02  0.8706062E-01
       -1   -1    0    0    0  501  0.00000000000E+00  0.00000000000E+00  0.12535999488E+04  0.12535999488E+04  0.50400001928E-02 0. -1.
        1   -1    0    0  501    0  0.00000000000E+00  0.00000000000E+00 -0.64645985986E+03  0.64645985988E+03  0.50400001928E-02 0.  1.
    10030    2    1    2    0    0  0.00000000000E+00  0.00000000000E+00  0.60714008892E+03  0.19000598087E+04  0.18004466637E+04 0.  0.
        1    1    3    3  502    0  0.81458927393E+03 -0.29460312688E+03  0.56219051480E+03  0.10326688058E+04  0.50400001928E-02 0. -1.
       -1    1    3    3    0  502 -0.81458927393E+03  0.29460312688E+03  0.44949574116E+02  0.86739100284E+03  0.50400001928E-02 0.  1.
</event>
<event>
 5   0  0.1573981E-04  0.1796540E+04  0.7818609E-02  0.8708142E-01
        2   -1    0    0  501    0  0.00000000000E+00  0.00000000000E+00  0.95040912839E+03  0.95040912840E+03  0.25500000920E-02 0.  1.
       -2   -1    0    0    0  501  0.00000000000E+00  0.00000000000E+00 -0.84899111155E+03  0.84899111156E+03  0.25500000920E-02 0. -1.
    10030    2    1    2    0    0  0.00000000000E+00  0.00000000000E+00  0.10141801684E+03  0.17994002400E+04  0.17965398992E+04 0.  0.
        1    1    3    3  502    0 -0.70528331490E+02  0.59579643508E+03  0.72031007076E+03  0.93744025711E+03  0.50400001928E-02 0.  1.
       -1    1    3    3    0  502  0.70528331490E+02 -0.59579643508E+03 -0.61889205392E+03  0.86195998284E+03  0.50400001928E-02 0. -1.
</event>
<event>
 5   0  0.8132598E-05  0.1791913E+04  0.7818609E-02  0.8710612E-01
       -1   -1    0    0    0  501  0.00000000000E+00  0.00000000000E+00  0.95423921148E+03  0.95423921149E+03  0.50400001928E-02 0. -1.
        1   -1    0    0  501    0  0.00000000000E+00  0.00000000000E+00 -0.84123353189E+03  0.84123353190E+03  0.50400001928E-02 0.  1.
    10030    2    1    2    0    0  0.00000000000E+00  0.00000000000E+00  0.11300567959E+03  0.17954727434E+04  0.17919129691E+04 0.  0.
        3    1    3    3  502    0  0.86091372946E+03  0.23093421183E+03  0.14742975248E+03  0.90345924196E+03  0.10100000352E+00 0. -1.
       -3    1    3    3    0  502 -0.86091372946E+03 -0.23093421183E+03 -0.34424072884E+02  0.89201350144E+03  0.10100000352E+00 0.  1.
</event>
<event>
 5   0  0.1608627E-04  0.1794754E+04  0.7818609E-02  0.8709094E-01
        2   -1    0    0  501    0  0.00000000000E+00  0.00000000000E+00  0.13013140527E+04  0.13013140527E+04  0.25500000920E-02 0. -1.
       -2   -1    0    0    0  501  0.00000000000E+00  0.00000000000E+00 -0.61882500632E+03  0.61882500632E+03  0.25500000920E-02 0.  1.
    10030    2    1    2    0    0  0.00000000000E+00  0.00000000000E+00  0.68248904640E+03  0.19201390590E+04  0.17947542193E+04 0.  0.
        2    1    3    3  502    0  0.26426476683E+03 -0.85655735323E+03  0.38611895380E+03  0.97601957606E+03  0.25500000920E-02 0. -1.
       -2    1    3    3    0  502 -0.26426476683E+03  0.85655735323E+03  0.29637009260E+03  0.94411948298E+03  0.25500000920E-02 0.  1.
</event>
<event>
 5   0  0.1628397E-04  0.1800600E+04  0.7818609E-02  0.8705980E-01
       -2   -1    0    0    0  501  0.00000000000E+00  0.00000000000E+00  0.69536539481E+03  0.69536539482E+03  0.25500000920E-02 0.  1.
        2   -1    0    0  501    0  0.00000000000E+00  0.00000000000E+00 -0.11656323206E+04  0.11656323206E+04  0.25500000920E-02 0. -1.
    10030    2    1    2    0    0  0.00000000000E+00  0.00000000000E+00 -0.47026692579E+03  0.18609977154E+04  0.18006003208E+04 0.  0.
        3    1    3    3  502    0  0.19625356575E+03 -0.29041730124E+03  0.62194891441E+03  0.71391745550E+03  0.10100000352E+00 0.  1.
       -3    1    3    3    0  502 -0.19625356575E+03  0.29041730124E+03 -0.10922158402E+04  0.11470802599E+04  0.10100000352E+00 0. -1.
</event>
<event>
 5   0  0.8430513E-05  0.1782253E+04  0.7818609E-02  0.8715794E-01
        1   -1    0    0  501    0  0.00000000000E+00  0.00000000000E+00  0.20807470677E+04  0.20807470677E+04  0.50400001928E-02 0.  1.
       -1   -1    0    0    0  501  0.00000000000E+00  0.00000000000E+00 -0.38164490136E+03  0.38164490139E+03  0.50400001928E-02 0. -1.
    10030    2    1    2    0    0  0.00000000000E+00  0.00000000000E+00  0.16991021663E+04  0.24623919691E+04  0.17822530790E+04 0.  0.
        5    1    3    3  502    0 -0.56349056591E+03  0.68781286476E+03  0.76809111655E+03  0.11749868970E+04  0.46999998093E+01 0.  1.
       -5    1    3    3    0  502  0.56349056591E+03 -0.68781286476E+03  0.93101104975E+03  0.12874050721E+04  0.46999998093E+01 0. -1.
</event>
<event>
 5   0  0.1549012E-04  0.1810284E+04  0.7818609E-02  0.8700850E-01
       -2   -1    0    0    0  501  0.00000000000E+00  0.00000000000E+00  0.98844863434E+03  0.98844863434E+03  0.25500000920E-02 0. -1.
        2   -1    0    0  501    0  0.00000000000E+00  0.00000000000E+00 -0.82885630667E+03  0.82885630667E+03  0.25500000920E-02 0.  1.
    10030    2    1    2    0    0  0.00000000000E+00  0.00000000000E+00  0.15959232767E+03  0.18173049410E+04  0.18102838279E+04 0.  0.
        4    1    3    3  502    0 -0.59640079331E+03  0.67687553048E+03  0.15374243633E+03  0.91514629413E+03  0.12699999809E+01 0.  1.
       -4    1    3    3    0  502  0.59640079331E+03 -0.67687553048E+03  0.58498913409E+01  0.90215864689E+03  0.12699999809E+01 0. -1.
</event>
<event>
 5   0  0.1549012E-04  0.1803931E+04  0.7818609E-02  0.8704212E-01
       -2   -1    0    0    0  501  0.00000000000E+00  0.00000000000E+00  0.34162136542E+03  0.34162136543E+03  0.25500000920E-02 0.  1.
        2   -1    0    0  501    0  0.00000000000E+00  0.00000000000E+00 -0.23814126370E+04  0.23814126370E+04  0.25500000920E-02 0. -1.
    10030    2    1    2    0    0  0.00000000000E+00  0.00000000000E+00 -0.20397912716E+04  0.27230340024E+04  0.18039306380E+04 0.  0.
        4    1    3    3  502    0  0.37060788894E+03 -0.74379545081E+03 -0.49058389699E+03  0.96501608944E+03  0.12699999809E+01 0.  1.
       -4    1    3    3    0  502 -0.37060788894E+03  0.74379545081E+03 -0.15492073746E+04  0.17580179130E+04  0.12699999809E+01 0. -1.
</event>
<event>
 5   0  0.1608627E-04  0.1777188E+04  0.7818609E-02  0.8718526E-01
       -2   -1    0    0    0  501  0.00000000000E+00  0.00000000000E+00  0.10989098360E+04  0.10989098360E+04  0.25500000920E-02 0.  1.
        2   -1    0    0  501    0  0.00000000000E+00  0.00000000000E+00 -0.71852966281E+03  0.71852966281E+03  0.25500000920E-02 0. -1.
    10030    2    1    2    0    0  0.00000000000E+00  0.00000000000E+00  0.38038017323E+03  0.18174394989E+04  0.17771880193E+04 0.  0.
        2    1    3    3  502    0 -0.35068800885E+03  0.46909003493E+03 -0.49320557931E+03  0.76568876438E+03  0.25500000920E-02 0.  1.
       -2    1    3    3    0  502  0.35068800885E+03 -0.46909003493E+03  0.87358575254E+03  0.10517507345E+04  0.25500000920E-02 0. -1.
</event>
<event>
 5   0  0.8430513E-05  0.1776636E+04  0.7818609E-02  0.8718824E-01
       -1   -1    0    0    0  501  0.00000000000E+00  0.00000000000E+00  0.68244071273E+03  0.68244071275E+03  0.50400001928E-02 0. -1.
        1   -1    0    0  501    0  0.00000000000E+00  0.00000000000E+00 -0.11563041370E+04  0.11563041370E+04  0.50400001928E-02 0.  1.
    10030    2    1    2    0    0  0.00000000000E+00  0.00000000000E+00 -0.47386342423E+03  0.18387448497E+04  0.17766361692E+04 0.  0.
        5    1    3    3  502    0 -0.74881015525E+03 -0.87156362888E+02  0.24936012715E+03  0.79405002563E+03  0.46999998093E+01 0. -1.
       -5    1    3    3    0  502  0.74881015525E+03  0.87156362888E+02 -0.72322355138E+03  0.10446948241E+04  0.46999998093E+01 0.  1.
</event>
<event>
 5   0  0.1628397E-04  0.1798008E+04  0.7818609E-02  0.8707359E-01
        2   -1    0    0  501    0  0.00000000000E+00  0.00000000000E+00  0.11721741351E+04  0.11721741351E+04  0.25500000920E-02 0.  1.
       -2   -1    0    0    0  501  0.00000000000E+00  0.00000000000E+00 -0.68949529698E+03  0.68949529699E+03  0.25500000920E-02 0. -1.
    10030    2    1    2    0    0  0.00000000000E+00  0.00000000000E+00  0.48267883812E+03  0.18616694321E+04  0.17980084020E+04 0.  0.
        3    1    3    3  502    0  0.89883189965E+03  0.80152986794E+01  0.22511574135E+03  0.92662836997E+03  0.10100000352E+00 0. -1.
       -3    1    3    3    0  502 -0.89883189965E+03 -0.80152986794E+01  0.25756309677E+03  0.93504106212E+03  0.10100000352E+00 0.  1.
</event>
<event>
 5   0  0.5820500E-05  0.1731161E+04  0.7818609E-02  0.8743789E-01
       -3   -1    0    0    0  501  0.00000000000E+00  0.00000000000E+00  0.82777015403E+03  0.82777016019E+03  0.10100000352E+00 0.  1.
        3   -1    0    0  501    0  0.00000000000E+00  0.00000000000E+00 -0.90511755297E+03  0.90511755861E+03  0.10100000352E+00 0. -1.
    10030    2    1    2    0    0  0.00000000000E+00  0.00000000000E+00 -0.77347398940E+02  0.17328877188E+04  0.17311606586E+04 0.  0.
        3    1    3    3  502    0  0.15718187020E+03 -0.53618456464E+03  0.62306770907E+03  0.83690704858E+03  0.10100000352E+00 0.  1.
       -3    1    3    3    0  502 -0.15718187020E+03  0.53618456464E+03 -0.70041510801E+03  0.89598067022E+03  0.10100000352E+00 0. -1.
</event>
<event>
 5   0  0.8132598E-05  0.1824485E+04  0.7818609E-02  0.8693386E-01
        1   -1    0    0  501    0  0.00000000000E+00  0.00000000000E+00  0.17597996126E+04  0.17597996126E+04  0.50400001928E-02 0.  1.
       -1   -1    0    0    0  501  0.00000000000E+00  0.00000000000E+00 -0.47288695699E+03  0.47288695701E+03  0.50400001928E-02 0. -1.
    10030    2    1    2    0    0  0.00000000000E+00  0.00000000000E+00  0.12869126556E+04  0.22326865696E+04  0.18244848958E+04 0.  0.
        3    1    3    3  502    0 -0.82523999383E+03  0.18922601806E+03  0.10590919290E+04  0.13559141778E+04  0.10100000352E+00 0.  1.
       -3    1    3    3    0  502  0.82523999383E+03 -0.18922601806E+03  0.22782072658E+03  0.87677239178E+03  0.10100000352E+00 0. -1.
</event>
<event>
 5   0  0.5820500E-05  0.1795830E+04  0.7818609E-02  0.8708520E-01
        3   -1    0    0  501    0  0.00000000000E+00  0.00000000000E+00  0.65924916420E+03  0.65924917194E+03  0.10100000352E+00 0. -1.
       -3   -1    0    0    0  501  0.00000000000E+00  0.00000000000E+00 -0.12229839773E+04  0.12229839815E+04  0.10100000352E+00 0.  1.
    10030    2    1    2    0    0  0.00000000000E+00  0.00000000000E+00 -0.56373481309E+03  0.18822331534E+04  0.17958298094E+04 0.  0.
        5    1    3    3  502    0  0.31479224504E+03  0.19152883032E+03  0.57633943002E+03  0.68408090090E+03  0.46999998093E+01 0. -1.
       -5    1    3    3    0  502 -0.31479224504E+03 -0.19152883032E+03 -0.11400742431E+04  0.11981522525E+04  0.46999998093E+01 0.  1.
</event>
<event>
 5   0  0.1549012E-04  0.1810227E+04  0.7818609E-02  0.8700880E-01
        2   -1    0    0  501    0  0.00000000000E+00  0.00000000000E+00  0.18039469010E+04  0.18039469010E+04  0.25500000920E-02 0.  1.
       -2   -1    0    0    0  501  0.00000000000E+00  0.00000000000E+00 -0.45413237263E+03  0.45413237263E+03  0.25500000920E-02 0. -1.
    10030    2    1    2    0    0  0.00000000000E+00  0.00000000000E+00  0.13498145283E+04  0.22580792736E+04  0.18102272633E+04 0.  0.
        4    1    3    3  502    0 -0.45876813458E+03  0.11079932166E+03 -0.28849047239E+03  0.55314831333E+03  0.12699999809E+01 0. -1.
       -4    1    3    3    0  502  0.45876813458E+03 -0.11079932166E+03  0.16383050007E+04  0.17049309603E+04  0.12699999809E+01 0.  1.
</event>
<event>
 5   0  0.8254914E-05  0.1801335E+04  0.7818609E-02  0.8705590E-01
       -1   -1    0    0    0  501  0.00000000000E+00  0.00000000000E+00  0.56542951569E+03  0.56542951571E+03  0.50400001928E-02 0.  1.
        1   -1    0    0  501    0  0.00000000000E+00  0.00000000000E+00 -0.14346647282E+04  0.14346647282E+04  0.50400001928E-02 0. -1.
    10030    2    1    2    0    0  0.00000000000E+00  0.00000000000E+00 -0.86923521248E+03  0.20000942439E+04  0.18013348189E+04 0.  0.
        4    1    3    3  502    0  0.30140626257E+03 -0.83711906561E+03 -0.59001010456E+03  0.10675802553E+04  0.12699999809E+01 0. -1.
       -4    1    3    3    0  502 -0.30140626257E+03  0.83711906561E+03 -0.27922510791E+03  0.93251398859E+03  0.12699999809E+01 0.  1.
</event>
<event>
 5   0  0.8132598E-05  0.1806852E+04  0.7818609E-02  0.8702664E-01
       -1   -1    0    0    0  501  0.00000000000E+00  0.00000000000E+00  0.51736316258E+03  0.51736316260E+03  0.50400001928E-02 0.  1.
        1   -1    0    0  501    0  0.00000000000E+00  0.00000000000E+00 -0.15775744172E+04  0.15775744173E+04  0.50400001928E-02 0. -1.
    10030    2    1    2    0    0  0.00000000000E+00  0.00000000000E+00 -0.10602112547E+04  0.20949375799E+04  0.18068523899E+04 0.  0.
        3    1    3    3  502    0  0.71010226657E+03  0.15996856700E+03  0.90323581120E+02  0.73348042299E+03  0.10100000352E+00 0.  1.
       -3    1    3    3    0  502 -0.71010226657E+03 -0.15996856700E+03 -0.11505348358E+04  0.13614571569E+04  0.10100000352E+00 0. -1.
</event>
<event>
 5   0  0.1608627E-04  0.1744579E+04  0.7818609E-02  0.8736340E-01
        2   -1    0    0  501    0  0.00000000000E+00  0.00000000000E+00  0.13176995667E+04  0.13176995667E+04  0.25500000920E-02 0. -1.
       -2   -1    0    0    0  501  0.00000000000E+00  0.00000000000E+00 -0.57743759832E+03  0.57743759833E+03  0.25500000920E-02 0.  1.
    10030    2    1    2    0    0  0.00000000000E+00  0.00000000000E+00  0.74026196839E+03  0.18951371650E+04  0.17445793454E+04 0.  0.
        2    1    3    3  502    0  0.45929448858E+03  0.29554661464E+03  0.11089670091E+04  0.12361662736E+04  0.25500000920E-02 0. -1.
       -2    1    3    3    0  502 -0.45929448858E+03 -0.29554661464E+03 -0.36870504075E+03  0.65897089142E+03  0.25500000920E-02 0.  1.
</event>
<event>
 5   0  0.8132598E-05  0.1798267E+04  0.7818609E-02  0.8707221E-01
        1   -1    0    0  501    0  0.00000000000E+00  0.00000000000E+00  0.81122249587E+03  0.81122249589E+03  0.50400001928E-02 0. -1.
       -1   -1    0    0    0  501  0.00000000000E+00  0.00000000000E+00 -0.99657172270E+03  0.99657172271E+03  0.50400001928E-02 0.  1.
    10030    2    1    2    0    0  0.00000000000E+00  0.00000000000E+00 -0.18534922683E+03  0.18077942186E+04  0.17982673886E+04 0.  0.
        3    1    3    3  502    0  0.73049497097E+03  0.32666117352E+03  0.31951092026E+03  0.86163661904E+03  0.10100000352E+00 0. -1.
       -3    1    3    3    0  502 -0.73049497097E+03 -0.32666117352E+03 -0.50486014708E+03  0.94615759956E+03  0.10100000352E+00 0.  1.
</event>
<event>
 5   0  0.1549012E-04  0.1791993E+04  0.7818609E-02  0.8710569E-01
        2   -1    0    0  501    0  0.00000000000E+00  0.00000000000E+00  0.12012891194E+04  0.12012891194E+04  0.25500000920E-02 0. -1.
       -2   -1    0    0    0  501  0.00000000000E+00  0.00000000000E+00 -0.66829047367E+03  0.66829047368E+03  0.25500000920E-02 0.  1.
    10030    2    1    2    0    0  0.00000000000E+00  0.00000000000E+00  0.53299864569E+03  0.18695795930E+04  0.17919933868E+04 0.  0.
        4    1    3    3  502    0 -0.43338177802E+02 -0.51247691232E+03 -0.49895417109E+03  0.71656657825E+03  0.12699999809E+01 0.  1.
       -4    1    3    3    0  502  0.43338177802E+02  0.51247691232E+03  0.10319528168E+04  0.11530130148E+04  0.12699999809E+01 0. -1.
</event>
<event>
 5   0  0.1573981E-04  0.1835338E+04  0.7818609E-02  0.8687729E-01
        2   -1    0    0  501    0  0.00000000000E+00  0.00000000000E+00  0.13618082158E+04  0.13618082158E+04  0.25500000920E-02 0.  1.
       -2   -1    0    0    0  501  0.00000000000E+00  0.00000000000E+00 -0.61838133021E+03  0.61838133022E+03  0.25500000920E-02 0. -1.
    10030    2    1    2    0    0  0.00000000000E+00  0.00000000000E+00  0.74342688559E+03  0.19801895460E+04  0.18353384167E+04 0.  0.
        1    1    3    3  502    0 -0.27825717735E+03  0.16774508165E+03  0.12976731958E+04  0.13377298652E+04  0.50400001928E-02 0.  1.
       -1    1    3    3    0  502  0.27825717735E+03 -0.16774508165E+03 -0.55424631016E+03  0.64245968085E+03  0.50400001928E-02 0. -1.
</event>
<event>
 5   0  0.1573981E-04  0.1804141E+04  0.7818609E-02  0.8704101E-01
        2   -1    0    0  501    0  0.00000000000E+00  0.00000000000E+00  0.56657244132E+03  0.56657244133E+03  0.25500000920E-02 0. -1.
       -2   -1    0    0    0  501  0.00000000000E+00  0.00000000000E+00 -0.14362344968E+04  0.14362344968E+04  0.25500000920E-02 0.  1.
    10030    2    1    2    0    0  0.00000000000E+00  0.00000000000E+00 -0.86966205547E+03  0.20028069381E+04  0.18041406654E+04 0.  0.
        1    1    3    3  502    0 -0.67490142256E+03 -0.21852622937E+03  0.18373942704E+03  0.73280680959E+03  0.50400001928E-02 0. -1.
       -1    1    3    3    0  502  0.67490142256E+03  0.21852622937E+03 -0.10534014825E+04  0.12700001285E+04  0.50400001928E-02 0.  1.
</event>
<event>
 5   0  0.1628397E-04  0.1797105E+04  0.7818609E-02  0.8707841E-01
        2   -1    0    0  501    0  0.00000000000E+00  0.00000000000E+00  0.11007156242E+04  0.11007156242E+04  0.25500000920E-02 0. -1.
       -2   -1    0    0    0  501  0.00000000000E+00  0.00000000000E+00 -0.73351930943E+03  0.73351930943E+03  0.25500000920E-02 0.  1.
    10030    2    1    2    0    0  0.00000000000E+00  0.00000000000E+00  0.36719631475E+03  0.18342349336E+04  0.17971045206E+04 0.  0.
        3    1    3    3  502    0  0.85004043935E+03 -0.14152994165E+03  0.44340943930E+03  0.96912920396E+03  0.10100000352E+00 0.  1.
       -3    1    3    3    0  502 -0.85004043935E+03  0.14152994165E+03 -0.76213124548E+02  0.86510572965E+03  0.10100000352E+00 0. -1.
</event>
<event>
 5   0  0.1603564E-04  0.1804350E+04  0.7818609E-02  0.8703990E-01
       -2   -1    0    0    0  501  0.00000000000E+00  0.00000000000E+00  0.11813278209E+04  0.11813278209E+04  0.25500000920E-02 0. -1.
        2   -1    0    0  501    0  0.00000000000E+00  0.00000000000E+00 -0.68898703112E+03  0.68898703112E+03  0.25500000920E-02 0.  1.
    10030    2    1    2    0    0  0.00000000000E+00  0.00000000000E+00  0.49234078976E+03  0.18703148520E+04  0.18043497977E+04 0.  0.
        5    1    3    3  502    0 -0.20315607514E+03 -0.86945064428E+03  0.38004567703E+03  0.97039869143E+03  0.46999998093E+01 0.  1.
       -5    1    3    3    0  502  0.20315607514E+03  0.86945064428E+03  0.11229511273E+03  0.89991616056E+03  0.46999998093E+01 0. -1.
</event>
<event>
 5   0  0.8132598E-05  0.1799095E+04  0.7818609E-02  0.8706781E-01
       -1   -1    0    0    0  501  0.00000000000E+00  0.00000000000E+00  0.62272427624E+03  0.62272427626E+03  0.50400001928E-02 0. -1.
        1   -1    0    0  501    0  0.00000000000E+00  0.00000000000E+00 -0.12994282050E+04  0.12994282050E+04  0.50400001928E-02 0.  1.
    10030    2    1    2    0    0  0.00000000000E+00  0.00000000000E+00 -0.67670392879E+03  0.19221524813E+04  0.17990947596E+04 0.  0.
        3    1    3    3  502    0 -0.56642609627E+02 -0.61534158071E+03  0.36006763853E+03  0.71519393223E+03  0.10100000352E+00 0. -1.
       -3    1    3    3    0  502  0.56642609627E+02  0.61534158071E+03 -0.10367715673E+04  0.12069585491E+04  0.10100000352E+00 0.  1.
</event>
<event>
 5   0  0.8254914E-05  0.1783653E+04  0.7818609E-02  0.8715041E-01
        1   -1    0    0  501    0  0.00000000000E+00  0.00000000000E+00  0.13439478902E+04  0.13439478902E+04  0.50400001928E-02 0.  1.
       -1   -1    0    0    0  501  0.00000000000E+00  0.00000000000E+00 -0.59180457624E+03  0.59180457626E+03  0.50400001928E-02 0. -1.
    10030    2    1    2    0    0  0.00000000000E+00  0.00000000000E+00  0.75214331397E+03  0.19357524665E+04  0.17836530063E+04 0.  0.
        4    1    3    3  502    0 -0.70610099031E+03 -0.44620259590E+03  0.36886535234E+02  0.83608468141E+03  0.12699999809E+01 0. -1.
       -4    1    3    3    0  502  0.70610099031E+03  0.44620259590E+03  0.71525677874E+03  0.10996677851E+04  0.12699999809E+01 0.  1.
</event>
<event>
 5   0  0.1549012E-04  0.1885873E+04  0.7818609E-02  0.8661921E-01
       -2   -1    0    0    0  501  0.00000000000E+00  0.00000000000E+00  0.44519548215E+03  0.44519548216E+03  0.25500000920E-02 0.  1.
        2   -1    0    0  501    0  0.00000000000E+00  0.00000000000E+00 -0.19971650596E+04  0.19971650596E+04  0.25500000920E-02 0. -1.
    10030    2    1    2    0    0  0.00000000000E+00  0.00000000000E+00 -0.15519695775E+04  0.24423605418E+04  0.18858725956E+04 0.  0.
        4    1    3    3  502    0 -0.20825431145E+03 -0.35806111959E+03  0.32105756882E+03  0.52407747423E+03  0.12699999809E+01 0.  1.
       -4    1    3    3    0  502  0.20825431145E+03  0.35806111959E+03 -0.18730271463E+04  0.19182830676E+04  0.12699999809E+01 0. -1.
</event>
<event>
 5   0  0.8132598E-05  0.1803469E+04  0.7818609E-02  0.8704457E-01
        1   -1    0    0  501    0  0.00000000000E+00  0.00000000000E+00  0.11638164118E+04  0.11638164118E+04  0.50400001928E-02 0.  1.
       -1   -1    0    0    0  501  0.00000000000E+00  0.00000000000E+00 -0.69867158785E+03  0.69867158786E+03  0.50400001928E-02 0. -1.
    10030    2    1    2    0    0  0.00000000000E+00  0.00000000000E+00  0.46514482398E+03  0.18624879997E+04  0.18034693903E+04 0.  0.
        3    1    3    3  502    0 -0.29019802290E+03  0.85097050795E+03  0.30382110227E+03  0.94903791826E+03  0.10100000352E+00 0.  1.
       -3    1    3    3    0  502  0.29019802290E+03 -0.85097050795E+03  0.16132372171E+03  0.91345008144E+03  0.10100000352E+00 0. -1.
</event>
<event>
 5   0  0.8492114E-05  0.1828177E+04  0.7818609E-02  0.8691457E-01
        1   -1    0    0  501    0  0.00000000000E+00  0.00000000000E+00  0.10431441706E+04  0.10431441706E+04  0.50400001928E-02 0.  1.
       -1   -1    0    0    0  501  0.00000000000E+00  0.00000000000E+00 -0.80099891355E+03  0.80099891356E+03  0.50400001928E-02 0. -1.
    10030    2    1    2    0    0  0.00000000000E+00  0.00000000000E+00  0.24214525702E+03  0.18441430841E+04  0.18281765203E+04 0.  0.
        2    1    3    3  502    0 -0.20662614309E+03 -0.79117268548E+03 -0.29104013060E+03  0.86795906521E+03  0.25500000920E-02 0. -1.
       -2    1    3    3    0  502  0.20662614309E+03  0.79117268548E+03  0.53318538762E+03  0.97618401894E+03  0.25500000920E-02 0.  1.
</event>
<event>
 5   0  0.8430513E-05  0.1835938E+04  0.7818609E-02  0.8687418E-01
       -1   -1    0    0    0  501  0.00000000000E+00  0.00000000000E+00  0.44354944223E+03  0.44354944226E+03  0.50400001928E-02 0.  1.
        1   -1    0    0  501    0  0.00000000000E+00  0.00000000000E+00 -0.18998258247E+04  0.18998258247E+04  0.50400001928E-02 0. -1.
    10030    2    1    2    0    0  0.00000000000E+00  0.00000000000E+00 -0.14562763825E+04  0.23433752670E+04  0.18359375642E+04 0.  0.
        5    1    3    3  502    0 -0.15427273971E+03 -0.67915350019E+03 -0.14914107997E+04  0.16460187783E+04  0.46999998093E+01 0. -1.
       -5    1    3    3    0  502  0.15427273971E+03  0.67915350019E+03  0.35134417212E+02  0.69735648868E+03  0.46999998093E+01 0.  1.
</event>
<event>
 5   0  0.8132598E-05  0.1795612E+04  0.7818609E-02  0.8708636E-01
        1   -1    0    0  501    0  0.00000000000E+00  0.00000000000E+00  0.49081218580E+03  0.49081218583E+03  0.50400001928E-02 0.  1.
       -1   -1    0    0    0  501  0.00000000000E+00  0.00000000000E+00 -0.16422898713E+04  0.16422898713E+04  0.50400001928E-02 0. -1.
    10030    2    1    2    0    0  0.00000000000E+00  0.00000000000E+00 -0.11514776855E+04  0.21331020572E+04  0.17956122984E+04 0.  0.
        3    1    3    3  502    0 -0.83269044642E+03  0.29418421687E+03 -0.76779860592E+03  0.11702275174E+04  0.10100000352E+00 0.  1.
       -3    1    3    3    0  502  0.83269044642E+03 -0.29418421687E+03 -0.38367907959E+03  0.96287453976E+03  0.10100000352E+00 0. -1.
</event>
<event>
 5   0  0.8430513E-05  0.1816170E+04  0.7818609E-02  0.8697747E-01
        1   -1    0    0  501    0  0.00000000000E+00  0.00000000000E+00  0.97923801777E+03  0.97923801779E+03  0.50400001928E-02 0. -1.
       -1   -1    0    0    0  501  0.00000000000E+00  0.00000000000E+00 -0.84210206927E+03  0.84210206929E+03  0.50400001928E-02 0.  1.
    10030    2    1    2    0    0  0.00000000000E+00  0.00000000000E+00  0.13713594850E+03  0.18213400871E+04  0.18161699933E+04 0.  0.
        5    1    3    3  502    0 -0.90327371925E+03  0.55232784907E+02  0.14389637339E+03  0.91634181870E+03  0.46999998093E+01 0. -1.
       -5    1    3    3    0  502  0.90327371925E+03 -0.55232784907E+02 -0.67604248895E+01  0.90499826838E+03  0.46999998093E+01 0.  1.
</event>
<event>
 5   0  0.8492114E-05  0.1727310E+04  0.7818609E-02  0.8745940E-01
       -1   -1    0    0    0  501  0.00000000000E+00  0.00000000000E+00  0.74772195137E+03  0.74772195139E+03  0.50400001928E-02 0.  1.
        1   -1    0    0  501    0  0.00000000000E+00  0.00000000000E+00 -0.99756288850E+03  0.99756288852E+03  0.50400001928E-02 0. -1.
    10030    2    1    2    0    0  0.00000000000E+00  0.00000000000E+00 -0.24984093713E+03  0.17452848399E+04  0.17273096649E+04 0.  0.
        2    1    3    3  502    0  0.42851756976E+03  0.70647304417E+03  0.12902786291E+03  0.83628921979E+03  0.25500000920E-02 0.  1.
       -2    1    3    3    0  502 -0.42851756976E+03 -0.70647304417E+03 -0.37886880004E+03  0.90899562011E+03  0.25500000920E-02 0. -1.
</event>
<event>
 5   0  0.8492114E-05  0.1809897E+04  0.7818609E-02  0.8701054E-01
       -1   -1    0    0    0  501  0.00000000000E+00  0.00000000000E+00  0.64426149843E+03  0.64426149845E+03  0.50400001928E-02 0. -1.
        1   -1    0    0  501    0  0.00000000000E+00  0.00000000000E+00 -0.12711172132E+04  0.12711172132E+04  0.50400001928E-02 0.  1.
    10030    2    1    2    0    0  0.00000000000E+00  0.00000000000E+00 -0.62685571478E+03  0.19153787117E+04  0.18098971026E+04 0.  0.
        2    1    3    3  502    0 -0.34485429038E+03  0.35143892977E+03 -0.11169534302E+04  0.12206632493E+04  0.25500000920E-02 0.  1.
       -2    1    3    3    0  502  0.34485429038E+03 -0.35143892977E+03  0.49009771544E+03  0.69471546236E+03  0.25500000920E-02 0. -1.
</event>
<event>
 5   0  0.1603564E-04  0.1802904E+04  0.7818609E-02  0.8704757E-01
        2   -1    0    0  501    0  0.00000000000E+00  0.00000000000E+00  0.81610846509E+03  0.81610846510E+03  0.25500000920E-02 0.  1.
       -2   -1    0    0    0  501  0.00000000000E+00  0.00000000000E+00 -0.99571986959E+03  0.99571986960E+03  0.25500000920E-02 0. -1.
    10030    2    1    2    0    0  0.00000000000E+00  0.00000000000E+00 -0.17961140450E+03  0.18118283347E+04  0.18029036740E+04 0.  0.
        5    1    3    3  502    0  0.22333782629E+03 -0.83846411677E+03 -0.33533348458E+03  0.93025399523E+03  0.46999998093E+01 0.  1.
       -5    1    3    3    0  502 -0.22333782629E+03  0.83846411677E+03  0.15572208008E+03  0.88157433946E+03  0.46999998093E+01 0. -1.
</event>
<event>
 5   0  0.8132598E-05  0.1794938E+04  0.7818609E-02  0.8708996E-01
        1   -1    0    0  501    0  0.00000000000E+00  0.00000000000E+00  0.13949515117E+04  0.13949515117E+04  0.50400001928E-02 0. -1.
       -1   -1    0    0    0  501  0.00000000000E+00  0.00000000000E+00 -0.57740428638E+03  0.57740428640E+03  0.50400001928E-02 0.  1.
    10030    2    1    2    0    0  0.00000000000E+00  0.00000000000E+00  0.81754722528E+03  0.19723557981E+04  0.17949384192E+04 0.  0.
        3    1    3    3  502    0 -0.39394995923E+03 -0.61683299923E+03  0.97950755704E+03  0.12227487820E+04  0.10100000352E+00 0. -1.
       -3    1    3    3    0  502  0.39394995923E+03  0.61683299923E+03 -0.16196033176E+03  0.74960701610E+03  0.10100000352E+00 0.  1.
</event>
<event>
 5   0  0.1603564E-04  0.1803497E+04  0.7818609E-02  0.8704442E-01
       -2   -1    0    0    0  501  0.00000000000E+00  0.00000000000E+00  0.56733889935E+03  0.56733889935E+03  0.25500000920E-02 0.  1.
        2   -1    0    0  501    0  0.00000000000E+00  0.00000000000E+00 -0.14332711228E+04  0.14332711228E+04  0.25500000920E-02 0. -1.
    10030    2    1    2    0    0  0.00000000000E+00  0.00000000000E+00 -0.86593222343E+03  0.20006100221E+04  0.18034971153E+04 0.  0.
        5    1    3    3  502    0 -0.25104011455E+02  0.36534442611E+03  0.48112352687E+03  0.60465585186E+03  0.46999998093E+01 0.  1.
       -5    1    3    3    0  502  0.25104011455E+02 -0.36534442611E+03 -0.13470557503E+04  0.13959541703E+04  0.46999998093E+01 0. -1.
</event>
<event>
 5   0  0.8132598E-05  0.1781942E+04  0.7818609E-02  0.8715962E-01
        1   -1    0    0  501    0  0.00000000000E+00  0.00000000000E+00  0.11872852574E+04  0.11872852575E+04  0.50400001928E-02 0.  1.
       -1   -1    0    0    0  501  0.00000000000E+00  0.00000000000E+00 -0.66860876047E+03  0.66860876049E+03  0.50400001928E-02 0. -1.
    10030    2    1    2    0    0  0.00000000000E+00  0.00000000000E+00  0.51867649697E+03  0.18558940179E+04  0.17819420017E+04 0.  0.
        3    1    3    3  502    0 -0.81098539118E+03  0.35604497847E+03  0.36012185819E+03  0.95611353633E+03  0.10100000352E+00 0.  1.
       -3    1    3    3    0  502  0.81098539118E+03 -0.35604497847E+03  0.15855463878E+03  0.89978048161E+03  0.10100000352E+00 0. -1.
</event>
<event>
 5   0  0.1549012E-04  0.1800372E+04  0.7818609E-02  0.8706102E-01
       -2   -1    0    0    0  501  0.00000000000E+00  0.00000000000E+00  0.87727450695E+03  0.87727450696E+03  0.25500000920E-02 0. -1.
        2   -1    0    0  501    0  0.00000000000E+00  0.00000000000E+00 -0.92369603330E+03  0.92369603331E+03  0.25500000920E-02 0.  1.
    10030    2    1    2    0    0  0.00000000000E+00  0.00000000000E+00 -0.46421526351E+02  0.18009705403E+04  0.18003721640E+04 0.  0.
        4    1    3    3  502    0 -0.46019838570E+03  0.77229953985E+03 -0.69097959877E+02  0.90166805112E+03  0.12699999809E+01 0.  1.
       -4    1    3    3    0  502  0.46019838570E+03 -0.77229953985E+03  0.22676433527E+02  0.89930248915E+03  0.12699999809E+01 0. -1.
</event>
<event>
 5   0  0.8254914E-05  0.1770737E+04  0.7818609E-02  0.8722018E-01
        1   -1    0    0  501    0  0.00000000000E+00  0.00000000000E+00  0.16429748971E+04  0.16429748971E+04  0.50400001928E-02 0.  1.
       -1   -1    0    0    0  501  0.00000000000E+00  0.00000000000E+00 -0.47710855792E+03  0.47710855794E+03  0.50400001928E-02 0. -1.
    10030    2    1    2    0    0  0.00000000000E+00  0.00000000000E+00  0.11658663392E+04  0.21200834551E+04  0.17707370035E+04 0.  0.
        4    1    3    3  502    0 -0.38105572155E+02  0.88361691199E+03  0.63149188840E+03  0.10867449102E+04  0.12699999809E+01 0. -1.
       -4    1    3    3    0  502  0.38105572155E+02 -0.88361691199E+03  0.53437445081E+03  0.10333385449E+04  0.12699999809E+01 0.  1.
</event>
<event>
 5   0  0.1549012E-04  0.1747919E+04  0.7818609E-02  0.8734496E-01
        2   -1    0    0  501    0  0.00000000000E+00  0.00000000000E+00  0.10247923762E+04  0.10247923762E+04  0.25500000920E-02 0.  1.
       -2   -1    0    0    0  501  0.00000000000E+00  0.00000000000E+00 -0.74532712212E+03  0.74532712212E+03  0.25500000920E-02 0. -1.
    10030    2    1    2    0    0  0.00000000000E+00  0.00000000000E+00  0.27946525407E+03  0.17701194983E+04  0.17479193946E+04 0.  0.
        4    1    3    3  502    0 -0.32008476511E+02  0.47644516949E+02  0.10228806012E+04  0.10244905465E+04  0.12699999809E+01 0.  1.
       -4    1    3    3    0  502  0.32008476511E+02 -0.47644516949E+02 -0.74341534714E+03  0.74562895184E+03  0.12699999809E+01 0. -1.
</event>
<event>
 5   0  0.1608627E-04  0.1816562E+04  0.7818609E-02  0.8697541E-01
       -2   -1    0    0    0  501  0.00000000000E+00  0.00000000000E+00  0.14408430179E+04  0.14408430179E+04  0.25500000920E-02 0.  1.
        2   -1    0    0  501    0  0.00000000000E+00  0.00000000000E+00 -0.57256393671E+03  0.57256393672E+03  0.25500000920E-02 0. -1.
    10030    2    1    2    0    0  0.00000000000E+00  0.00000000000E+00  0.86827908116E+03  0.20134069546E+04  0.18165624135E+04 0.  0.
        2    1    3    3  502    0  0.92000990583E+02  0.55490361904E+03  0.12245746712E+04  0.13475775799E+04  0.25500000920E-02 0.  1.
       -2    1    3    3    0  502 -0.92000990583E+02 -0.55490361904E+03 -0.35629559000E+03  0.66582937466E+03  0.25500000920E-02 0. -1.
</event>
<event>
 5   0  0.8206783E-05  0.1801756E+04  0.7818609E-02  0.8705366E-01
        1   -1    0    0  501    0  0.00000000000E+00  0.00000000000E+00  0.13234582610E+04  0.13234582610E+04  0.50400001928E-02 0. -1.
       -1   -1    0    0    0  501  0.00000000000E+00  0.00000000000E+00 -0.61322784681E+03  0.61322784683E+03  0.50400001928E-02 0.  1.
    10030    2    1    2    0    0  0.00000000000E+00  0.00000000000E+00  0.71023041423E+03  0.19366861079E+04  0.18017563207E+04 0.  0.
        1    1    3    3  502    0 -0.68300778819E+03  0.13520674616E+02 -0.27614608281E+03  0.73684401772E+03  0.50400001928E-02 0.  1.
       -1    1    3    3    0  502  0.68300778819E+03 -0.13520674616E+02  0.98637649703E+03  0.11998420902E+04  0.50400001928E-02 0. -1.
</event>
<event>
 5   0  0.5820500E-05  0.1805078E+04  0.7818609E-02  0.8703604E-01
       -3   -1    0    0    0  501  0.00000000000E+00  0.00000000000E+00  0.16912158375E+04  0.16912158406E+04  0.10100000352E+00 0. -1.
        3   -1    0    0  501    0  0.00000000000E+00  0.00000000000E+00 -0.48165162030E+03  0.48165163089E+03  0.10100000352E+00 0.  1.
    10030    2    1    2    0    0  0.00000000000E+00  0.00000000000E+00  0.12095642172E+04  0.21728674714E+04  0.18050782401E+04 0.  0.
        5    1    3    3  502    0  0.14077265607E+03 -0.27143748836E+03 -0.41738703295E+03  0.51742562370E+03  0.46999998093E+01 0.  1.
       -5    1    3    3    0  502 -0.14077265607E+03  0.27143748836E+03  0.16269512502E+04  0.16554418477E+04  0.46999998093E+01 0. -1.
</event>
<event>
 5   0  0.8206783E-05  0.1805993E+04  0.7818609E-02  0.8703119E-01
       -1   -1    0    0    0  501  0.00000000000E+00  0.00000000000E+00  0.62606685117E+03  0.62606685119E+03  0.50400001928E-02 0.  1.
        1   -1    0    0  501    0  0.00000000000E+00  0.00000000000E+00 -0.13024213502E+04  0.13024213502E+04  0.50400001928E-02 0. -1.
    10030    2    1    2    0    0  0.00000000000E+00  0.00000000000E+00 -0.67635449905E+03  0.19284882014E+04  0.18059931713E+04 0.  0.
        1    1    3    3  502    0 -0.17164534100E+03  0.13149300762E+03  0.59801552015E+03  0.63590494298E+03  0.50400001928E-02 0.  1.
       -1    1    3    3    0  502  0.17164534100E+03 -0.13149300762E+03 -0.12743700192E+04  0.12925832584E+04  0.50400001928E-02 0. -1.
</event>
<event>
 5   0  0.1603564E-04  0.1746100E+04  0.7818609E-02  0.8735500E-01
        2   -1    0    0  501    0  0.00000000000E+00  0.00000000000E+00  0.90794142236E+03  0.90794142237E+03  0.25500000920E-02 0. -1.
       -2   -1    0    0    0  501  0.00000000000E+00  0.00000000000E+00 -0.83949913360E+03  0.83949913360E+03  0.25500000920E-02 0.  1.
    10030    2    1    2    0    0  0.00000000000E+00  0.00000000000E+00  0.68442288763E+02  0.17474405560E+04  0.17460996964E+04 0.  0.
        5    1    3    3  502    0 -0.51199546709E+03  0.70638271951E+03  0.13623702581E+01  0.87243329303E+03  0.46999998093E+01 0.  1.
       -5    1    3    3    0  502  0.51199546709E+03 -0.70638271951E+03  0.67079918505E+02  0.87500726294E+03  0.46999998093E+01 0. -1.
</event>
<event>
 5   0  0.1628397E-04  0.1793926E+04  0.7818609E-02  0.8709536E-01
        2   -1    0    0  501    0  0.00000000000E+00  0.00000000000E+00  0.87569640907E+03  0.87569640907E+03  0.25500000920E-02 0.  1.
       -2   -1    0    0    0  501  0.00000000000E+00  0.00000000000E+00 -0.91874609935E+03  0.91874609935E+03  0.25500000920E-02 0. -1.
    10030    2    1    2    0    0  0.00000000000E+00  0.00000000000E+00 -0.43049690277E+02  0.17944425084E+04  0.17939260409E+04 0.  0.
        3    1    3    3  502    0 -0.48022566554E+03 -0.60174291298E+02  0.73387798857E+03  0.87909871316E+03  0.10100000352E+00 0.  1.
       -3    1    3    3    0  502  0.48022566554E+03  0.60174291298E+02 -0.77692767884E+03  0.91534379527E+03  0.10100000352E+00 0. -1.
</event>
<event>
 5   0  0.1603564E-04  0.1814582E+04  0.7818609E-02  0.8698583E-01
       -2   -1    0    0    0  501  0.00000000000E+00  0.00000000000E+00  0.72684082473E+03  0.72684082474E+03  0.25500000920E-02 0. -1.
        2   -1    0    0  501    0  0.00000000000E+00  0.00000000000E+00 -0.11325404016E+04  0.11325404016E+04  0.25500000920E-02 0.  1.
    10030    2    1    2    0    0  0.00000000000E+00  0.00000000000E+00 -0.40569957690E+03  0.18593812264E+04  0.18145816042E+04 0.  0.
        5    1    3    3  502    0  0.49450261959E+03 -0.57582565905E+03 -0.71215869659E+03  0.10408170490E+04  0.46999998093E+01 0.  1.
       -5    1    3    3    0  502 -0.49450261959E+03  0.57582565905E+03  0.30645911968E+03  0.81856417735E+03  0.46999998093E+01 0. -1.
</event>
<event>
 5   0  0.8492114E-05  0.1800907E+04  0.7818609E-02  0.8705817E-01
       -1   -1    0    0    0  501  0.00000000000E+00  0.00000000000E+00  0.87458031089E+03  0.87458031090E+03  0.50400001928E-02 0.  1.
        1   -1    0    0  501    0  0.00000000000E+00  0.00000000000E+00 -0.92709222378E+03  0.92709222379E+03  0.50400001928E-02 0. -1.
    10030    2    1    2    0    0  0.00000000000E+00  0.00000000000E+00 -0.52511912894E+02  0.18016725347E+04  0.18009071107E+04 0.  0.
        2    1    3    3  502    0  0.33258636276E+02  0.62138621213E+03  0.62485831127E+03  0.88185875892E+03  0.25500000920E-02 0.  1.
       -2    1    3    3    0  502 -0.33258636276E+02 -0.62138621213E+03 -0.67737022417E+03  0.91981377578E+03  0.25500000920E-02 0. -1.
</event>
<event>
 5   0  0.1549012E-04  0.1799646E+04  0.7818609E-02  0.8706488E-01
       -2   -1    0    0    0  501  0.00000000000E+00  0.00000000000E+00  0.63675989102E+03  0.63675989102E+03  0.25500000920E-02 0.  1.
        2   -1    0    0  501    0  0.00000000000E+00  0.00000000000E+00 -0.12715649569E+04  0.12715649569E+04  0.25500000920E-02 0. -1.
    10030    2    1    2    0    0  0.00000000000E+00  0.00000000000E+00 -0.63480506583E+03  0.19083248479E+04  0.17996461467E+04 0.  0.
        4    1    3    3  502    0  0.42372705861E+03  0.68351081291E+03 -0.74544819466E+03  0.10965519939E+04  0.12699999809E+01 0. -1.
       -4    1    3    3    0  502 -0.42372705861E+03 -0.68351081291E+03  0.11064312882E+03  0.81177285396E+03  0.12699999809E+01 0.  1.
</event>
<event>
 5   0  0.8132598E-05  0.1912077E+04  0.7818609E-02  0.8648868E-01
       -1   -1    0    0    0  501  0.00000000000E+00  0.00000000000E+00  0.61098076253E+03  0.61098076255E+03  0.50400001928E-02 0.  1.
        1   -1    0    0  501    0  0.00000000000E+00  0.00000000000E+00 -0.14959706460E+04  0.14959706460E+04  0.50400001928E-02 0. -1.
    10030    2    1    2    0    0  0.00000000000E+00  0.00000000000E+00 -0.88498988350E+03  0.21069514086E+04  0.19120766575E+04 0.  0.
        3    1    3    3  502    0  0.80559224515E+03 -0.29681202878E+03  0.21009262294E+02  0.85878847522E+03  0.10100000352E+00 0.  1.
       -3    1    3    3    0  502 -0.80559224515E+03  0.29681202878E+03 -0.90599914579E+03  0.12481629334E+04  0.10100000352E+00 0. -1.
</event>
<event>
 5   0  0.1628397E-04  0.1809894E+04  0.7818609E-02  0.8701056E-01
       -2   -1    0    0    0  501  0.00000000000E+00  0.00000000000E+00  0.36799095110E+03  0.36799095111E+03  0.25500000920E-02 0.  1.
        2   -1    0    0  501    0  0.00000000000E+00  0.00000000000E+00 -0.22254048804E+04  0.22254048804E+04  0.25500000920E-02 0. -1.
    10030    2    1    2    0    0  0.00000000000E+00  0.00000000000E+00 -0.18574139293E+04  0.25933958315E+04  0.18098937632E+04 0.  0.
        3    1    3    3  502    0  0.61655506980E+03 -0.55321013912E+03 -0.40663728789E+03  0.92278681515E+03  0.10100000352E+00 0.  1.
       -3    1    3    3    0  502 -0.61655506980E+03  0.55321013912E+03 -0.14507766414E+04  0.16706090164E+04  0.10100000352E+00 0. -1.
</event>
<event>
 5   0  0.8206783E-05  0.1794393E+04  0.7818609E-02  0.8709287E-01
        1   -1    0    0  501    0  0.00000000000E+00  0.00000000000E+00  0.28140649450E+04  0.28140649450E+04  0.50400001928E-02 0. -1.
       -1   -1    0    0    0  501  0.00000000000E+00  0.00000000000E+00 -0.28604934589E+03  0.28604934593E+03  0.50400001928E-02 0.  1.
    10030    2    1    2    0    0  0.00000000000E+00  0.00000000000E+00  0.25280155991E+04  0.31001142909E+04  0.17943928632E+04 0.  0.
        1    1    3    3  502    0 -0.26587269691E+02 -0.70883697345E+03  0.22131322699E+04  0.23240290837E+04  0.50400001928E-02 0. -1.
       -1    1    3    3    0  502  0.26587269691E+02  0.70883697345E+03  0.31488332922E+03  0.77608520724E+03  0.50400001928E-02 0.  1.
</event>
<event>
 5   0  0.1603564E-04  0.1781796E+04  0.7818609E-02  0.8716040E-01
       -2   -1    0    0    0  501  0.00000000000E+00  0.00000000000E+00  0.15070386190E+04  0.15070386190E+04  0.25500000920E-02 0. -1.
        2   -1    0    0  501    0  0.00000000000E+00  0.00000000000E+00 -0.52666165547E+03  0.52666165548E+03  0.25500000920E-02 0.  1.
    10030    2    1    2    0    0  0.00000000000E+00  0.00000000000E+00  0.98037696350E+03  0.20337002745E+04  0.17817962329E+04 0.  0.
        5    1    3    3  502    0 -0.28710922433E+03  0.51845975289E+02 -0.47057504372E+03  0.55369908219E+03  0.46999998093E+01 0.  1.
       -5    1    3    3    0  502  0.28710922433E+03 -0.51845975289E+02  0.14509520072E+04  0.14800011923E+04  0.46999998093E+01 0. -1.
</event>
<event>
 5   0  0.8254914E-05  0.1785151E+04  0.7818609E-02  0.8714236E-01
       -1   -1    0    0    0  501  0.00000000000E+00  0.00000000000E+00  0.20863558835E+04  0.20863558835E+04  0.50400001928E-02 0.  1.
        1   -1    0    0  501    0  0.00000000000E+00  0.00000000000E+00 -0.38185787204E+03  0.38185787208E+03  0.50400001928E-02 0. -1.
    10030    2    1    2    0    0  0.00000000000E+00  0.00000000000E+00  0.17044980115E+04  0.24682137556E+04  0.17851514424E+04 0.  0.
        4    1    3    3  502    0 -0.81931865920E+03 -0.15782015139E+03  0.12905674434E+04  0.15368006391E+04  0.12699999809E+01 0.  1.
       -4    1    3    3    0  502  0.81931865920E+03  0.15782015139E+03  0.41393056809E+03  0.93141311650E+03  0.12699999809E+01 0. -1.
</event>
<event>
 5   0  0.1608627E-04  0.1803358E+04  0.7818609E-02  0.8704516E-01
        2   -1    0    0  501    0  0.00000000000E+00  0.00000000000E+00  0.19339238250E+04  0.19339238250E+04  0.25500000920E-02 0.  1.
       -2   -1    0    0    0  501  0.00000000000E+00  0.00000000000E+00 -0.42040161787E+03  0.42040161787E+03  0.25500000920E-02 0. -1.
    10030    2    1    2    0    0  0.00000000000E+00  0.00000000000E+00  0.15135222072E+04  0.23543254429E+04  0.18033576516E+04 0.  0.
        2    1    3    3  502    0  0.55215448363E+03  0.40558875412E+03 -0.85560934820E+01  0.68516422703E+03  0.25500000920E-02 0.  1.
       -2    1    3    3    0  502 -0.55215448363E+03 -0.40558875412E+03  0.15220783006E+04  0.16691612159E+04  0.25500000920E-02 0. -1.
</event>
<event>
 5   0  0.1628397E-04  0.1794540E+04  0.7818609E-02  0.8709208E-01
       -2   -1    0    0    0  501  0.00000000000E+00  0.00000000000E+00  0.10711776891E+04  0.10711776891E+04  0.25500000920E-02 0. -1.
        2   -1    0    0  501    0  0.00000000000E+00  0.00000000000E+00 -0.75159667591E+03  0.75159667591E+03  0.25500000920E-02 0.  1.
    10030    2    1    2    0    0  0.00000000000E+00  0.00000000000E+00  0.31958101322E+03  0.18227743650E+04  0.17945401533E+04 0.  0.
        3    1    3    3  502    0  0.23943976389E+03  0.94909646649E+02 -0.71324067245E+03  0.75832150740E+03  0.10100000352E+00 0.  1.
       -3    1    3    3    0  502 -0.23943976389E+03 -0.94909646649E+02  0.10328216857E+04  0.10644528576E+04  0.10100000352E+00 0. -1.
</event>
<event>
 5   0  0.8430513E-05  0.1801084E+04  0.7818609E-02  0.8705723E-01
        1   -1    0    0  501    0  0.00000000000E+00  0.00000000000E+00  0.23821504789E+04  0.23821504789E+04  0.50400001928E-02 0.  1.
       -1   -1    0    0    0  501  0.00000000000E+00  0.00000000000E+00 -0.34043851727E+03  0.34043851730E+03  0.50400001928E-02 0. -1.
    10030    2    1    2    0    0  0.00000000000E+00  0.00000000000E+00  0.20417119617E+04  0.27225889962E+04  0.18010838704E+04 0.  0.
        5    1    3    3  502    0 -0.80084982643E+03  0.19221552259E+03  0.47030702938E+03  0.94842925066E+03  0.46999998093E+01 0. -1.
       -5    1    3    3    0  502  0.80084982643E+03 -0.19221552259E+03  0.15714049323E+04  0.17741597456E+04  0.46999998093E+01 0.  1.
</event>
<event>
 5   0  0.5820500E-05  0.1785813E+04  0.7818609E-02  0.8713880E-01
       -4   -1    0    0    0  501  0.00000000000E+00  0.00000000000E+00  0.13682858380E+04  0.13682864274E+04  0.12699999809E+01 0.  1.
        4   -1    0    0  501    0  0.00000000000E+00  0.00000000000E+00 -0.58268549607E+03  0.58268688009E+03  0.12699999809E+01 0. -1.
    10030    2    1    2    0    0  0.00000000000E+00  0.00000000000E+00  0.78560034197E+03  0.19509733075E+04  0.17858132459E+04 0.  0.
        4    1    3    3  502    0 -0.27819123393E+02  0.84478306312E+03  0.78346202013E+02  0.84886516458E+03  0.12699999809E+01 0. -1.
       -4    1    3    3    0  502  0.27819123393E+02 -0.84478306312E+03  0.70725413995E+03  0.11021081429E+04  0.12699999809E+01 0.  1.
</event>
<event>
 5   0  0.1549012E-04  0.1800304E+04  0.7818609E-02  0.8706138E-01
        2   -1    0    0  501    0  0.00000000000E+00  0.00000000000E+00  0.70677171550E+03  0.70677171551E+03  0.25500000920E-02 0.  1.
       -2   -1    0    0    0  501  0.00000000000E+00  0.00000000000E+00 -0.11464438055E+04  0.11464438055E+04  0.25500000920E-02 0. -1.
    10030    2    1    2    0    0  0.00000000000E+00  0.00000000000E+00 -0.43967209000E+03  0.18532155210E+04  0.18003044800E+04 0.  0.
        4    1    3    3  502    0  0.15984050831E+03  0.83454791972E+03  0.85969429665E+02  0.85405595493E+03  0.12699999809E+01 0. -1.
       -4    1    3    3    0  502 -0.15984050831E+03 -0.83454791972E+03 -0.52564151967E+03  0.99915956609E+03  0.12699999809E+01 0.  1.
</event>
<event>
 5   0  0.1608627E-04  0.1800854E+04  0.7818609E-02  0.8705845E-01
        2   -1    0    0  501    0  0.00000000000E+00  0.00000000000E+00  0.21405986126E+04  0.21405986126E+04  0.25500000920E-02 0.  1.
       -2   -1    0    0    0  501  0.00000000000E+00  0.00000000000E+00 -0.37875801499E+03  0.37875801500E+03  0.25500000920E-02 0. -1.
    10030    2    1    2    0    0  0.00000000000E+00  0.00000000000E+00  0.17618405976E+04  0.25193566276E+04  0.18008541100E+04 0.  0.
        2    1    3    3  502    0  0.35441081905E+03 -0.63167246390E+03  0.16292781529E+04  0.17830211524E+04  0.25500000920E-02 0.  1.
       -2    1    3    3    0  502 -0.35441081905E+03  0.63167246390E+03  0.13256244472E+03  0.73633547522E+03  0.25500000920E-02 0. -1.
</event>
<event>
 5   0  0.8492114E-05  0.1814095E+04  0.7818609E-02  0.8698839E-01
       -1   -1    0    0    0  501  0.00000000000E+00  0.00000000000E+00  0.78672721074E+03  0.78672721075E+03  0.50400001928E-02 0.  1.
        1   -1    0    0  501    0  0.00000000000E+00  0.00000000000E+00 -0.10457696282E+04  0.10457696282E+04  0.50400001928E-02 0. -1.
    10030    2    1    2    0    0  0.00000000000E+00  0.00000000000E+00 -0.25904241742E+03  0.18324968389E+04  0.18140952816E+04 0.  0.
        2    1    3    3  502    0  0.35561368327E+03  0.64187455193E+03 -0.66810058289E+03  0.99238219503E+03  0.25500000920E-02 0. -1.
       -2    1    3    3    0  502 -0.35561368327E+03 -0.64187455193E+03  0.40905816547E+03  0.84011464390E+03  0.25500000920E-02 0.  1.
</event>
<event>
 5   0  0.1608627E-04  0.1789904E+04  0.7818609E-02  0.8711687E-01
       -2   -1    0    0    0  501  0.00000000000E+00  0.00000000000E+00  0.26547793886E+03  0.26547793887E+03  0.25500000920E-02 0. -1.
        2   -1    0    0  501    0  0.00000000000E+00  0.00000000000E+00 -0.30169696267E+04  0.30169696267E+04  0.25500000920E-02 0.  1.
    10030    2    1    2    0    0  0.00000000000E+00  0.00000000000E+00 -0.27514916878E+04  0.32824475655E+04  0.17899037718E+04 0.  0.
        2    1    3    3  502    0 -0.84225050803E+03 -0.25252833066E+03 -0.10700757082E+04  0.13849976524E+04  0.25500000920E-02 0. -1.
       -2    1    3    3    0  502  0.84225050803E+03  0.25252833066E+03 -0.16814159797E+04  0.18974499131E+04  0.25500000920E-02 0.  1.
</event>
<event>
 5   0  0.1603564E-04  0.1795321E+04  0.7818609E-02  0.8708792E-01
        2   -1    0    0  501    0  0.00000000000E+00  0.00000000000E+00  0.47149946983E+03  0.47149946984E+03  0.25500000920E-02 0. -1.
       -2   -1    0    0    0  501  0.00000000000E+00  0.00000000000E+00 -0.17090041468E+04  0.17090041468E+04  0.25500000920E-02 0.  1.
    10030    2    1    2    0    0  0.00000000000E+00  0.00000000000E+00 -0.12375046770E+04  0.21805036166E+04  0.17953211960E+04 0.  0.
        5    1    3    3  502    0  0.75718353590E+03  0.44138052627E+03 -0.85435204234E+03  0.12239620820E+04  0.46999998093E+01 0.  1.
       -5    1    3    3    0  502 -0.75718353590E+03 -0.44138052627E+03 -0.38315263463E+03  0.95654153461E+03  0.46999998093E+01 0. -1.
</event>
<event>
 5   0  0.1549012E-04  0.1805660E+04  0.7818609E-02  0.8703295E-01
       -2   -1    0    0    0  501  0.00000000000E+00  0.00000000000E+00  0.74874197149E+03  0.74874197149E+03  0.25500000920E-02 0.  1.
        2   -1    0    0  501    0  0.00000000000E+00  0.00000000000E+00 -0.10886288252E+04  0.10886288252E+04  0.25500000920E-02 0. -1.
    10030    2    1    2    0    0  0.00000000000E+00  0.00000000000E+00 -0.33988685373E+03  0.18373707967E+04  0.18056600930E+04 0.  0.
        4    1    3    3  502    0 -0.63898856854E+03 -0.45248039815E+03 -0.62734350266E+03  0.10032977547E+04  0.12699999809E+01 0. -1.
       -4    1    3    3    0  502  0.63898856854E+03  0.45248039815E+03  0.28745664893E+03  0.83407304198E+03  0.12699999809E+01 0.  1.
</event>
<event>
 5   0  0.1608627E-04  0.1770175E+04  0.7818609E-02  0.8722323E-01
        2   -1    0    0  501    0  0.00000000000E+00  0.00000000000E+00  0.64862629001E+03  0.64862629002E+03  0.25500000920E-02 0. -1.
       -2   -1    0    0    0  501  0.00000000000E+00  0.00000000000E+00 -0.12077521597E+04  0.12077521597E+04  0.25500000920E-02 0.  1.
    10030    2    1    2    0    0  0.00000000000E+00  0.00000000000E+00 -0.55912586969E+03  0.18563784497E+04  0.17701749096E+04 0.  0.
        2    1    3    3  502    0  0.68565437469E+03  0.21317299096E+03  0.26314717702E+03  0.76472941776E+03  0.25500000920E-02 0.  1.
       -2    1    3    3    0  502 -0.68565437469E+03 -0.21317299096E+03 -0.82227304671E+03  0.10916490320E+04  0.25500000920E-02 0. -1.
</event>
<event>
 5   0  0.1603564E-04  0.1781627E+04  0.7818609E-02  0.8716132E-01
       -2   -1    0    0    0  501  0.00000000000E+00  0.00000000000E+00  0.44889565982E+03  0.44889565983E+03  0.25500000920E-02 0.  1.
        2   -1    0    0  501    0  0.00000000000E+00  0.00000000000E+00 -0.17677793036E+04  0.17677793036E+04  0.25500000920E-02 0. -1.
    10030    2    1    2    0    0  0.00000000000E+00  0.00000000000E+00 -0.13188836438E+04  0.22166749634E+04  0.17816267363E+04 0.  0.
        5    1    3    3  502    0 -0.67253771851E+03 -0.38225927008E+03 -0.12089964269E+04  0.14353130608E+04  0.46999998093E+01 0.  1.
       -5    1    3    3    0  502  0.67253771851E+03  0.38225927008E+03 -0.10988721688E+03  0.78136190258E+03  0.46999998093E+01 0. -1.
</event>
<event>
 5   0  0.8206783E-05  0.1806288E+04  0.7818609E-02  0.8702963E-01
       -1   -1    0    0    0  501  0.00000000000E+00  0.00000000000E+00  0.71824484438E+03  0.71824484440E+03  0.50400001928E-02 0.  1.
        1   -1    0    0  501    0  0.00000000000E+00  0.00000000000E+00 -0.11356418422E+04  0.11356418422E+04  0.50400001928E-02 0. -1.
    10030    2    1    2    0    0  0.00000000000E+00  0.00000000000E+00 -0.41739699778E+03  0.18538866866E+04  0.18062877935E+04 0.  0.
        1    1    3    3  502    0  0.38978432727E+03 -0.60410692687E+03  0.35232447579E+03  0.80063071209E+03  0.50400001928E-02 0.  1.
       -1    1    3    3    0  502 -0.38978432727E+03  0.60410692687E+03 -0.76972147357E+03  0.10532559745E+04  0.50400001928E-02 0. -1.
</event>
<event>
 5   0  0.1628397E-04  0.1802198E+04  0.7818609E-02  0.8705132E-01
        2   -1    0    0  501    0  0.00000000000E+00  0.00000000000E+00  0.89172058254E+03  0.89172058254E+03  0.25500000920E-02 0. -1.
       -2   -1    0    0    0  501  0.00000000000E+00  0.00000000000E+00 -0.91057555578E+03  0.91057555578E+03  0.25500000920E-02 0.  1.
    10030    2    1    2    0    0  0.00000000000E+00  0.00000000000E+00 -0.18854973244E+02  0.18022961383E+04  0.18021975087E+04 0.  0.
        3    1    3    3  502    0 -0.88771839175E+02 -0.22599896113E+03  0.85838897398E+03  0.89206928583E+03  0.10100000352E+00 0. -1.
       -3    1    3    3    0  502  0.88771839175E+02  0.22599896113E+03 -0.87724394723E+03  0.91022685250E+03  0.10100000352E+00 0.  1.
</event>
<event>
 5   0  0.8206783E-05  0.1795459E+04  0.7818609E-02  0.8708718E-01
       -1   -1    0    0    0  501  0.00000000000E+00  0.00000000000E+00  0.86042362728E+03  0.86042362730E+03  0.50400001928E-02 0. -1.
        1   -1    0    0  501    0  0.00000000000E+00  0.00000000000E+00 -0.93665336104E+03  0.93665336106E+03  0.50400001928E-02 0.  1.
    10030    2    1    2    0    0  0.00000000000E+00  0.00000000000E+00 -0.76229733759E+02  0.17970769884E+04  0.17954594759E+04 0.  0.
        1    1    3    3  502    0 -0.57217806547E+03  0.61235949959E+03 -0.36019162752E+03  0.91220058315E+03  0.50400001928E-02 0.  1.
       -1    1    3    3    0  502  0.57217806547E+03 -0.61235949959E+03  0.28396189376E+03  0.88487640520E+03  0.50400001928E-02 0. -1.
</event>
<event>
 5   0  0.1608627E-04  0.1766412E+04  0.7818609E-02  0.8724368E-01
        2   -1    0    0  501    0  0.00000000000E+00  0.00000000000E+00  0.14039328961E+04  0.14039328961E+04  0.25500000920E-02 0.  1.
       -2   -1    0    0    0  501  0.00000000000E+00  0.00000000000E+00 -0.55561958794E+03  0.55561958794E+03  0.25500000920E-02 0. -1.
    10030    2    1    2    0    0  0.00000000000E+00  0.00000000000E+00  0.84831330816E+03  0.19595524840E+04  0.17664117495E+04 0.  0.
        2    1    3    3  502    0 -0.77637014238E+03  0.42094989155E+03  0.43542659746E+03  0.98465513301E+03  0.25500000920E-02 0.  1.
       -2    1    3    3    0  502  0.77637014238E+03 -0.42094989155E+03  0.41288671071E+03  0.97489735104E+03  0.25500000920E-02 0. -1.
</event>
<event>
 5   0  0.1603564E-04  0.1797218E+04  0.7818609E-02  0.8707780E-01
       -2   -1    0    0    0  501  0.00000000000E+00  0.00000000000E+00  0.76051248217E+03  0.76051248217E+03  0.25500000920E-02 0. -1.
        2   -1    0    0  501    0  0.00000000000E+00  0.00000000000E+00 -0.10617816979E+04  0.10617816979E+04  0.25500000920E-02 0.  1.
    10030    2    1    2    0    0  0.00000000000E+00  0.00000000000E+00 -0.30126921569E+03  0.18222941800E+04  0.17972181109E+04 0.  0.
        5    1    3    3  502    0  0.17440252255E+03 -0.47478655669E+03  0.60245151310E+03  0.78664377574E+03  0.46999998093E+01 0. -1.
       -5    1    3    3    0  502 -0.17440252255E+03  0.47478655669E+03 -0.90372072878E+03  0.10356504043E+04  0.46999998093E+01 0.  1.
</event>
<event>
 5   0  0.8132598E-05  0.1702180E+04  0.7818609E-02  0.8760122E-01
       -1   -1    0    0    0  501  0.00000000000E+00  0.00000000000E+00  0.54890616632E+03  0.54890616635E+03  0.50400001928E-02 0.  1.
        1   -1    0    0  501    0  0.00000000000E+00  0.00000000000E+00 -0.13196318182E+04  0.13196318182E+04  0.50400001928E-02 0. -1.
    10030    2    1    2    0    0  0.00000000000E+00  0.00000000000E+00 -0.77072565190E+03  0.18685379846E+04  0.17021798287E+04 0.  0.
        3    1    3    3  502    0  0.16130032963E+03 -0.55809769818E+03  0.29740838103E+03  0.65264277546E+03  0.10100000352E+00 0.  1.
       -3    1    3    3    0  502 -0.16130032963E+03  0.55809769818E+03 -0.10681340329E+04  0.12158952091E+04  0.10100000352E+00 0. -1.
</event>
<event>
 5   0  0.8206783E-05  0.1774975E+04  0.7818609E-02  0.8719722E-01
       -1   -1    0    0    0  501  0.00000000000E+00  0.00000000000E+00  0.86690316022E+03  0.86690316023E+03  0.50400001928E-02 0.  1.
        1   -1    0    0  501    0  0.00000000000E+00  0.00000000000E+00 -0.90856051505E+03  0.90856051507E+03  0.50400001928E-02 0. -1.
    10030    2    1    2    0    0  0.00000000000E+00  0.00000000000E+00 -0.41657354832E+02  0.17754636753E+04  0.17749749089E+04 0.  0.
        1    1    3    3  502    0 -0.34893846021E+03 -0.74701195360E+03  0.30766558109E+03  0.88002444150E+03  0.50400001928E-02 0. -1.
       -1    1    3    3    0  502  0.34893846021E+03  0.74701195360E+03 -0.34932293592E+03  0.89543923379E+03  0.50400001928E-02 0.  1.
</event>
<event>
 5   0  0.8430513E-05  0.1808246E+04  0.7818609E-02  0.8701926E-01
       -1   -1    0    0    0  501  0.00000000000E+00  0.00000000000E+00  0.83171146952E+03  0.83171146953E+03  0.50400001928E-02 0. -1.
        1   -1    0    0  501    0  0.00000000000E+00  0.00000000000E+00 -0.98283945222E+03  0.98283945223E+03  0.50400001928E-02 0.  1.
    10030    2    1    2    0    0  0.00000000000E+00  0.00000000000E+00 -0.15112798270E+03  0.18145509218E+04  0.18082464933E+04 0.  0.
        5    1    3    3  502    0 -0.41167130864E+03 -0.13243212896E+03  0.72118482889E+03  0.84091687018E+03  0.46999998093E+01 0. -1.
       -5    1    3    3    0  502  0.41167130864E+03  0.13243212896E+03 -0.87231281159E+03  0.97363405158E+03  0.46999998093E+01 0.  1.
</event>
<event>
 5   0  0.5820500E-05  0.1834090E+04  0.7818609E-02  0.8688378E-01
        3   -1    0    0  501    0  0.00000000000E+00  0.00000000000E+00  0.93719274872E+03  0.93719275416E+03  0.10100000352E+00 0. -1.
       -3   -1    0    0    0  501  0.00000000000E+00  0.00000000000E+00 -0.89733081453E+03  0.89733082021E+03  0.10100000352E+00 0.  1.
    10030    2    1    2    0    0  0.00000000000E+00  0.00000000000E+00  0.39861934192E+02  0.18345235744E+04  0.18340904479E+04 0.  0.
        3    1    3    3  502    0  0.30588348212E+03  0.66995726740E+03  0.56647055251E+03  0.92913741817E+03  0.10100000352E+00 0. -1.
       -3    1    3    3    0  502 -0.30588348212E+03 -0.66995726740E+03 -0.52660861832E+03  0.90538615621E+03  0.10100000352E+00 0.  1.
</event>
<event>
 5   0  0.8132598E-05  0.1795414E+04  0.7818609E-02  0.8708742E-01
        1   -1    0    0  501    0  0.00000000000E+00  0.00000000000E+00  0.81054223396E+03  0.81054223397E+03  0.50400001928E-02 0. -1.
       -1   -1    0    0    0  501  0.00000000000E+00  0.00000000000E+00 -0.99424544208E+03  0.99424544209E+03  0.50400001928E-02 0.  1.
    10030    2    1    2    0    0  0.00000000000E+00  0.00000000000E+00 -0.18370320812E+03  0.18047876761E+04  0.17954140712E+04 0.  0.
        3    1    3    3  502    0 -0.24465638240E+03 -0.51852524042E+03 -0.78622041245E+03  0.97307128082E+03  0.10100000352E+00 0.  1.
       -3    1    3    3    0  502  0.24465638240E+03  0.51852524042E+03  0.60251720433E+03  0.83171639524E+03  0.10100000352E+00 0. -1.
</event>
<event>
 5   0  0.1603564E-04  0.1803272E+04  0.7818609E-02  0.8704561E-01
       -2   -1    0    0    0  501  0.00000000000E+00  0.00000000000E+00  0.75650634136E+03  0.75650634137E+03  0.25500000920E-02 0. -1.
        2   -1    0    0  501    0  0.00000000000E+00  0.00000000000E+00 -0.10746078373E+04  0.10746078373E+04  0.25500000920E-02 0.  1.
    10030    2    1    2    0    0  0.00000000000E+00  0.00000000000E+00 -0.31810149593E+03  0.18311141787E+04  0.18032721851E+04 0.  0.
        5    1    3    3  502    0 -0.48895276926E+03  0.14589811994E+03 -0.91387461567E+03  0.10466852321E+04  0.46999998093E+01 0.  1.
       -5    1    3    3    0  502  0.48895276926E+03 -0.14589811994E+03  0.59577311974E+03  0.78442894654E+03  0.46999998093E+01 0. -1.
</event>
<event>
 5   0  0.5820500E-05  0.1785526E+04  0.7818609E-02  0.8714035E-01
        3   -1    0    0  501    0  0.00000000000E+00  0.00000000000E+00  0.53531966897E+03  0.53531967850E+03  0.10100000352E+00 0.  1.
       -3   -1    0    0    0  501  0.00000000000E+00  0.00000000000E+00 -0.14888774865E+04  0.14888774899E+04  0.10100000352E+00 0. -1.
    10030    2    1    2    0    0  0.00000000000E+00  0.00000000000E+00 -0.95355781749E+03  0.20241971684E+04  0.17855255991E+04 0.  0.
        3    1    3    3  502    0 -0.49061872708E+02 -0.13252570603E+03 -0.14761175688E+04  0.14828665541E+04  0.10100000352E+00 0. -1.
       -3    1    3    3    0  502  0.49061872708E+02  0.13252570603E+03  0.52255975130E+03  0.54133061431E+03  0.10100000352E+00 0.  1.
</event>
<event>
 5   0  0.1603564E-04  0.1834603E+04  0.7818609E-02  0.8688111E-01
       -2   -1    0    0    0  501  0.00000000000E+00  0.00000000000E+00  0.73585011079E+03  0.73585011080E+03  0.25500000920E-02 0. -1.
        2   -1    0    0  501    0  0.00000000000E+00  0.00000000000E+00 -0.11434970037E+04  0.11434970037E+04  0.25500000920E-02 0.  1.
    10030    2    1    2    0    0  0.00000000000E+00  0.00000000000E+00 -0.40764689290E+03  0.18793471145E+04  0.18346033870E+04 0.  0.
        5    1    3    3  502    0 -0.14438835382E+03  0.72854215187E+03 -0.75528213589E+03  0.10592897897E+04  0.46999998093E+01 0.  1.
       -5    1    3    3    0  502  0.14438835382E+03 -0.72854215187E+03  0.34763524299E+03  0.82005732479E+03  0.46999998093E+01 0. -1.
</event>
<event>
 5   0  0.8206783E-05  0.1802451E+04  0.7818609E-02  0.8704997E-01
       -1   -1    0    0    0  501  0.00000000000E+00  0.00000000000E+00  0.90060819779E+03  0.90060819781E+03  0.50400001928E-02 0.  1.
        1   -1    0    0  501    0  0.00000000000E+00  0.00000000000E+00 -0.90184367608E+03  0.90184367610E+03  0.50400001928E-02 0. -1.
    10030    2    1    2    0    0  0.00000000000E+00  0.00000000000E+00 -0.12354782864E+01  0.18024518739E+04  0.18024514505E+04 0.  0.
        1    1    3    3  502    0 -0.25607595255E+03  0.92138963742E+00  0.86346120179E+03  0.90063365996E+03  0.50400001928E-02 0.  1.
       -1    1    3    3    0  502  0.25607595255E+03 -0.92138963742E+00 -0.86469668008E+03  0.90181821394E+03  0.50400001928E-02 0. -1.
</event>
<event>
 5   0  0.8430513E-05  0.1864610E+04  0.7818609E-02  0.8672675E-01
        1   -1    0    0  501    0  0.00000000000E+00  0.00000000000E+00  0.20058313587E+04  0.20058313587E+04  0.50400001928E-02 0. -1.
       -1   -1    0    0    0  501  0.00000000000E+00  0.00000000000E+00 -0.43333296741E+03  0.43333296744E+03  0.50400001928E-02 0.  1.
    10030    2    1    2    0    0  0.00000000000E+00  0.00000000000E+00  0.15724983913E+04  0.24391643262E+04  0.18646102594E+04 0.  0.
        5    1    3    3  502    0 -0.25629037027E+03  0.67611469696E+03  0.15561125995E+04  0.17159033625E+04  0.46999998093E+01 0. -1.
       -5    1    3    3    0  502  0.25629037027E+03 -0.67611469696E+03  0.16385791847E+02  0.72326096363E+03  0.46999998093E+01 0.  1.
</event>
<event>
 5   0  0.1628397E-04  0.1822411E+04  0.7818609E-02  0.8694472E-01
       -2   -1    0    0    0  501  0.00000000000E+00  0.00000000000E+00  0.79896043936E+03  0.79896043936E+03  0.25500000920E-02 0.  1.
        2   -1    0    0  501    0  0.00000000000E+00  0.00000000000E+00 -0.10392192611E+04  0.10392192611E+04  0.25500000920E-02 0. -1.
    10030    2    1    2    0    0  0.00000000000E+00  0.00000000000E+00 -0.24025882172E+03  0.18381797004E+04  0.18224105766E+04 0.  0.
        3    1    3    3  502    0 -0.46555414029E+03  0.78270523272E+03 -0.89420471177E+02  0.91507604588E+03  0.10100000352E+00 0. -1.
       -3    1    3    3    0  502  0.46555414029E+03 -0.78270523272E+03 -0.15083835055E+03  0.92310365457E+03  0.10100000352E+00 0.  1.
</event>
<event>
 5   0  0.1603564E-04  0.1801164E+04  0.7818609E-02  0.8705681E-01
        2   -1    0    0  501    0  0.00000000000E+00  0.00000000000E+00  0.52028137135E+03  0.52028137136E+03  0.25500000920E-02 0.  1.
       -2   -1    0    0    0  501  0.00000000000E+00  0.00000000000E+00 -0.15588645116E+04  0.15588645116E+04  0.25500000920E-02 0. -1.
    10030    2    1    2    0    0  0.00000000000E+00  0.00000000000E+00 -0.10385831403E+04  0.20791458830E+04  0.18011642522E+04 0.  0.
        5    1    3    3  502    0  0.21639201458E+03 -0.63592511865E+03 -0.12116996255E+04  0.13854473404E+04  0.46999998093E+01 0.  1.
       -5    1    3    3    0  502 -0.21639201458E+03  0.63592511865E+03  0.17311648527E+03  0.69369854258E+03  0.46999998093E+01 0. -1.
</event>
<event>
 5   0  0.5820500E-05  0.1800399E+04  0.7818609E-02  0.8706087E-01
        3   -1    0    0  501    0  0.00000000000E+00  0.00000000000E+00  0.15818150863E+04  0.15818150895E+04  0.10100000352E+00 0.  1.
       -3   -1    0    0    0  501  0.00000000000E+00  0.00000000000E+00 -0.51229723971E+03  0.51229724967E+03  0.10100000352E+00 0. -1.
    10030    2    1    2    0    0  0.00000000000E+00  0.00000000000E+00  0.10695178466E+04  0.20941123392E+04  0.18003994182E+04 0.  0.
        5    1    3    3  502    0  0.86531206366E+03 -0.11734440143E+03  0.78906547751E+03  0.11769371665E+04  0.46999998093E+01 0.  1.
       -5    1    3    3    0  502 -0.86531206366E+03  0.11734440143E+03  0.28045236905E+03  0.91717517267E+03  0.46999998093E+01 0. -1.
</event>
<event>
 5   0  0.1549012E-04  0.1799334E+04  0.7818609E-02  0.8706653E-01
       -2   -1    0    0    0  501  0.00000000000E+00  0.00000000000E+00  0.66395827167E+03  0.66395827167E+03  0.25500000920E-02 0.  1.
        2   -1    0    0  501    0  0.00000000000E+00  0.00000000000E+00 -0.12190542166E+04  0.12190542166E+04  0.25500000920E-02 0. -1.
    10030    2    1    2    0    0  0.00000000000E+00  0.00000000000E+00 -0.55509594491E+03  0.18830124883E+04  0.17993344666E+04 0.  0.
        4    1    3    3  502    0 -0.77052002372E+02 -0.59092891678E+03 -0.98288419757E+03  0.11494333189E+04  0.12699999809E+01 0. -1.
       -4    1    3    3    0  502  0.77052002372E+02  0.59092891678E+03  0.42778825266E+03  0.73357916940E+03  0.12699999809E+01 0.  1.
</event>
<event>
 5   0  0.8132598E-05  0.1798333E+04  0.7818609E-02  0.8707186E-01
        1   -1    0    0  501    0  0.00000000000E+00  0.00000000000E+00  0.57058016403E+03  0.57058016405E+03  0.50400001928E-02 0. -1.
       -1   -1    0    0    0  501  0.00000000000E+00  0.00000000000E+00 -0.14169794701E+04  0.14169794701E+04  0.50400001928E-02 0.  1.
    10030    2    1    2    0    0  0.00000000000E+00  0.00000000000E+00 -0.84639930607E+03  0.19875596342E+04  0.17983329820E+04 0.  0.
        3    1    3    3  502    0 -0.29555677951E+03 -0.43532516623E+03 -0.12290572310E+04  0.13369530649E+04  0.10100000352E+00 0.  1.
       -3    1    3    3    0  502  0.29555677951E+03  0.43532516623E+03  0.38265792497E+03  0.65060656930E+03  0.10100000352E+00 0. -1.
</event>
<event>
 5   0  0.8254914E-05  0.1797940E+04  0.7818609E-02  0.8707396E-01
        1   -1    0    0  501    0  0.00000000000E+00  0.00000000000E+00  0.85476448257E+03  0.85476448258E+03  0.50400001928E-02 0.  1.
       -1   -1    0    0    0  501  0.00000000000E+00  0.00000000000E+00 -0.94546204736E+03  0.94546204737E+03  0.50400001928E-02 0. -1.
    10030    2    1    2    0    0  0.00000000000E+00  0.00000000000E+00 -0.90697564789E+02  0.18002265300E+04  0.17979403524E+04 0.  0.
        4    1    3    3  502    0 -0.84587675639E+03 -0.23668936991E+03 -0.23694627371E+03  0.90976617565E+03  0.12699999809E+01 0. -1.
       -4    1    3    3    0  502  0.84587675639E+03  0.23668936991E+03  0.14624870892E+03  0.89046035431E+03  0.12699999809E+01 0.  1.
</event>
<event>
 5   0  0.8254914E-05  0.1860953E+04  0.7818609E-02  0.8674541E-01
        1   -1    0    0  501    0  0.00000000000E+00  0.00000000000E+00  0.94996645451E+03  0.94996645453E+03  0.50400001928E-02 0.  1.
       -1   -1    0    0    0  501  0.00000000000E+00  0.00000000000E+00 -0.91138602509E+03  0.91138602510E+03  0.50400001928E-02 0. -1.
    10030    2    1    2    0    0  0.00000000000E+00  0.00000000000E+00  0.38580429427E+02  0.18613524796E+04  0.18609526066E+04 0.  0.
        4    1    3    3  502    0 -0.42909615586E+03  0.17713690545E+03 -0.78728466328E+03  0.91395828580E+03  0.12699999809E+01 0. -1.
       -4    1    3    3    0  502  0.42909615586E+03 -0.17713690545E+03  0.82586509271E+03  0.94739419383E+03  0.12699999809E+01 0.  1.
</event>
<event>
 5   0  0.8254914E-05  0.1802367E+04  0.7818609E-02  0.8705042E-01
       -1   -1    0    0    0  501  0.00000000000E+00  0.00000000000E+00  0.85716481850E+03  0.85716481851E+03  0.50400001928E-02 0.  1.
        1   -1    0    0  501    0  0.00000000000E+00  0.00000000000E+00 -0.94746309747E+03  0.94746309749E+03  0.50400001928E-02 0. -1.
    10030    2    1    2    0    0  0.00000000000E+00  0.00000000000E+00 -0.90298278977E+02  0.18046279160E+04  0.18023673699E+04 0.  0.
        4    1    3    3  502    0 -0.26103645637E+03  0.14311755024E+03  0.80651027304E+03  0.85969942314E+03  0.12699999809E+01 0.  1.
       -4    1    3    3    0  502  0.26103645637E+03 -0.14311755024E+03 -0.89680855201E+03  0.94492849285E+03  0.12699999809E+01 0. -1.
</event>
<event>
 5   0  0.8206783E-05  0.1773702E+04  0.7818609E-02  0.8720411E-01
       -1   -1    0    0    0  501  0.00000000000E+00  0.00000000000E+00  0.44853168589E+03  0.44853168592E+03  0.50400001928E-02 0. -1.
        1   -1    0    0  501    0  0.00000000000E+00  0.00000000000E+00 -0.17535089754E+04  0.17535089754E+04  0.50400001928E-02 0.  1.
    10030    2    1    2    0    0  0.00000000000E+00  0.00000000000E+00 -0.13049772895E+04  0.22020406613E+04  0.17737015950E+04 0.  0.
        1    1    3    3  502    0  0.37219985704E+03  0.49173125420E+03 -0.14437131983E+04  0.15699172459E+04  0.50400001928E-02 0.  1.
       -1    1    3    3    0  502 -0.37219985704E+03 -0.49173125420E+03  0.13873590879E+03  0.63212341544E+03  0.50400001928E-02 0. -1.
</event>
<event>
 5   0  0.8430513E-05  0.1791064E+04  0.7818609E-02  0.8711066E-01
        1   -1    0    0  501    0  0.00000000000E+00  0.00000000000E+00  0.83402365375E+03  0.83402365377E+03  0.50400001928E-02 0.  1.
       -1   -1    0    0    0  501  0.00000000000E+00  0.00000000000E+00 -0.96157627659E+03  0.96157627660E+03  0.50400001928E-02 0. -1.
    10030    2    1    2    0    0  0.00000000000E+00  0.00000000000E+00 -0.12755262283E+03  0.17955999304E+04  0.17910637728E+04 0.  0.
        5    1    3    3  502    0  0.16860975194E+03 -0.34237827455E+03 -0.87595346874E+03  0.95549395641E+03  0.46999998093E+01 0. -1.
       -5    1    3    3    0  502 -0.16860975194E+03  0.34237827455E+03  0.74840084591E+03  0.84010597396E+03  0.46999998093E+01 0.  1.
</event>
<event>
 5   0  0.1549012E-04  0.1820206E+04  0.7818609E-02  0.8695627E-01
        2   -1    0    0  501    0  0.00000000000E+00  0.00000000000E+00  0.17090345766E+04  0.17090345766E+04  0.25500000920E-02 0. -1.
       -2   -1    0    0    0  501  0.00000000000E+00  0.00000000000E+00 -0.48465214642E+03  0.48465214643E+03  0.25500000920E-02 0.  1.
    10030    2    1    2    0    0  0.00000000000E+00  0.00000000000E+00  0.12243824302E+04  0.21936867231E+04  0.18202057860E+04 0.  0.
        4    1    3    3  502    0 -0.56694973912E+00  0.65446287085E+03  0.13743832407E+04  0.15222525664E+04  0.12699999809E+01 0. -1.
       -4    1    3    3    0  502  0.56694973912E+00 -0.65446287085E+03 -0.15000081043E+03  0.67143415670E+03  0.12699999809E+01 0.  1.
</event>
<event>
 5   0  0.8430513E-05  0.1757192E+04  0.7818609E-02  0.8729401E-01
        1   -1    0    0  501    0  0.00000000000E+00  0.00000000000E+00  0.13913292047E+04  0.13913292047E+04  0.50400001928E-02 0.  1.
       -1   -1    0    0    0  501  0.00000000000E+00  0.00000000000E+00 -0.55481538279E+03  0.55481538282E+03  0.50400001928E-02 0. -1.
    10030    2    1    2    0    0  0.00000000000E+00  0.00000000000E+00  0.83651382192E+03  0.19461445875E+04  0.17571919023E+04 0.  0.
        5    1    3    3  502    0 -0.77472888462E+03 -0.36269204981E+03  0.64020123530E+03  0.10684709071E+04  0.46999998093E+01 0.  1.
       -5    1    3    3    0  502  0.77472888462E+03  0.36269204981E+03  0.19631258662E+03  0.87767368043E+03  0.46999998093E+01 0. -1.
</event>
<event>
 5   0  0.1549012E-04  0.1808470E+04  0.7818609E-02  0.8701808E-01
       -2   -1    0    0    0  501  0.00000000000E+00  0.00000000000E+00  0.40879635932E+03  0.40879635933E+03  0.25500000920E-02 0.  1.
        2   -1    0    0  501    0  0.00000000000E+00  0.00000000000E+00 -0.20001172479E+04  0.20001172479E+04  0.25500000920E-02 0. -1.
    10030    2    1    2    0    0  0.00000000000E+00  0.00000000000E+00 -0.15913208886E+04  0.24089136072E+04  0.18084696836E+04 0.  0.
        4    1    3    3  502    0  0.72547388232E+03 -0.18533603481E+03 -0.12042175337E+03  0.75839620998E+03  0.12699999809E+01 0.  1.
       -4    1    3    3    0  502 -0.72547388232E+03  0.18533603481E+03 -0.14708991352E+04  0.16505173972E+04  0.12699999809E+01 0. -1.
</event>
<event>
 5   0  0.8206783E-05  0.1795512E+04  0.7818609E-02  0.8708690E-01
       -1   -1    0    0    0  501  0.00000000000E+00  0.00000000000E+00  0.82684641952E+03  0.82684641954E+03  0.50400001928E-02 0.  1.
        1   -1    0    0  501    0  0.00000000000E+00  0.00000000000E+00 -0.97474723429E+03  0.97474723431E+03  0.50400001928E-02 0. -1.
    10030    2    1    2    0    0  0.00000000000E+00  0.00000000000E+00 -0.14790081477E+03  0.18015936538E+04  0.17955124735E+04 0.  0.
        1    1    3    3  502    0 -0.78316842649E+03  0.36290256053E+03 -0.32159638725E+03  0.92112718395E+03  0.50400001928E-02 0. -1.
       -1    1    3    3    0  502  0.78316842649E+03 -0.36290256053E+03  0.17369557248E+03  0.88046646990E+03  0.50400001928E-02 0.  1.
</event>
<event>
 5   0  0.1573981E-04  0.1802156E+04  0.7818609E-02  0.8705154E-01
       -2   -1    0    0    0  501  0.00000000000E+00  0.00000000000E+00  0.15466187936E+04  0.15466187936E+04  0.25500000920E-02 0. -1.
        2   -1    0    0  501    0  0.00000000000E+00  0.00000000000E+00 -0.52497840291E+03  0.52497840292E+03  0.25500000920E-02 0.  1.
    10030    2    1    2    0    0  0.00000000000E+00  0.00000000000E+00  0.10216403907E+04  0.20715971965E+04  0.18021558914E+04 0.  0.
        1    1    3    3  502    0 -0.51665943342E+02 -0.28586311622E+03 -0.46967548905E+03  0.55225189538E+03  0.50400001928E-02 0.  1.
       -1    1    3    3    0  502  0.51665943342E+02  0.28586311622E+03  0.14913158798E+04  0.15193453012E+04  0.50400001928E-02 0. -1.
</event>
<event>
 5   0  0.8132598E-05  0.1801418E+04  0.7818609E-02  0.8705546E-01
       -1   -1    0    0    0  501  0.00000000000E+00  0.00000000000E+00  0.13605700967E+04  0.13605700967E+04  0.50400001928E-02 0. -1.
        1   -1    0    0  501    0  0.00000000000E+00  0.00000000000E+00 -0.59627681024E+03  0.59627681026E+03  0.50400001928E-02 0.  1.
    10030    2    1    2    0    0  0.00000000000E+00  0.00000000000E+00  0.76429328644E+03  0.19568469070E+04  0.18014176611E+04 0.  0.
        3    1    3    3  502    0  0.56702876833E+03  0.37250066376E+03 -0.26142183794E+03  0.72706241559E+03  0.10100000352E+00 0.  1.
       -3    1    3    3    0  502 -0.56702876833E+03 -0.37250066376E+03  0.10257151244E+04  0.12297844914E+04  0.10100000352E+00 0. -1.
</event>
<event>
 5   0  0.1608627E-04  0.1824516E+04  0.7818609E-02  0.8693370E-01
        2   -1    0    0  501    0  0.00000000000E+00  0.00000000000E+00  0.30898659107E+04  0.30898659107E+04  0.25500000920E-02 0.  1.
       -2   -1    0    0    0  501  0.00000000000E+00  0.00000000000E+00 -0.26933672180E+03  0.26933672182E+03  0.25500000920E-02 0. -1.
    10030    2    1    2    0    0  0.00000000000E+00  0.00000000000E+00  0.28205291889E+04  0.33592026325E+04  0.18245156675E+04 0.  0.
        2    1    3    3  502    0 -0.57650851739E+03  0.55809232860E+03  0.22093846645E+04  0.23505764641E+04  0.25500000920E-02 0.  1.
       -2    1    3    3    0  502  0.57650851739E+03 -0.55809232860E+03  0.61114452434E+03  0.10086261684E+04  0.25500000920E-02 0. -1.
</event>
<event>
 5   0  0.8206783E-05  0.1789689E+04  0.7818609E-02  0.8711802E-01
       -1   -1    0    0    0  501  0.00000000000E+00  0.00000000000E+00  0.36355110113E+03  0.36355110117E+03  0.50400001928E-02 0.  1.
        1   -1    0    0  501    0  0.00000000000E+00  0.00000000000E+00 -0.22025707692E+04  0.22025707692E+04  0.50400001928E-02 0. -1.
    10030    2    1    2    0    0  0.00000000000E+00  0.00000000000E+00 -0.18390196681E+04  0.25661218704E+04  0.17896893904E+04 0.  0.
        1    1    3    3  502    0  0.12918354718E+03  0.87703049079E+03 -0.74462787735E+03  0.11577312065E+04  0.50400001928E-02 0.  1.
       -1    1    3    3    0  502 -0.12918354718E+03 -0.87703049079E+03 -0.10943917908E+04  0.14083906640E+04  0.50400001928E-02 0. -1.
</event>
<event>
 5   0  0.8132598E-05  0.1801832E+04  0.7818609E-02  0.8705326E-01
       -1   -1    0    0    0  501  0.00000000000E+00  0.00000000000E+00  0.73866280719E+03  0.73866280720E+03  0.50400001928E-02 0.  1.
        1   -1    0    0  501    0  0.00000000000E+00  0.00000000000E+00 -0.10988099915E+04  0.10988099916E+04  0.50400001928E-02 0. -1.
    10030    2    1    2    0    0  0.00000000000E+00  0.00000000000E+00 -0.36014718436E+03  0.18374727988E+04  0.18018324816E+04 0.  0.
        3    1    3    3  502    0  0.67273388008E+03 -0.50585493383E+02 -0.78897732568E+03  0.10380823648E+04  0.10100000352E+00 0. -1.
       -3    1    3    3    0  502 -0.67273388008E+03  0.50585493383E+02  0.42883014132E+03  0.79939043393E+03  0.10100000352E+00 0.  1.
</event>
<event>
 5   0  0.8206783E-05  0.1800296E+04  0.7818609E-02  0.8706142E-01
       -1   -1    0    0    0  501  0.00000000000E+00  0.00000000000E+00  0.86691527778E+03  0.86691527779E+03  0.50400001928E-02 0.  1.
        1   -1    0    0  501    0  0.00000000000E+00  0.00000000000E+00 -0.93465430213E+03  0.93465430214E+03  0.50400001928E-02 0. -1.
    10030    2    1    2    0    0  0.00000000000E+00  0.00000000000E+00 -0.67739024346E+02  0.18015695799E+04  0.18002956357E+04 0.  0.
        1    1    3    3  502    0 -0.93843618932E+02 -0.52824008926E+03  0.68942952849E+03  0.87358874277E+03  0.50400001928E-02 0. -1.
       -1    1    3    3    0  502  0.93843618932E+02  0.52824008926E+03 -0.75716855284E+03  0.92798083716E+03  0.50400001928E-02 0.  1.
</event>
<event>
 5   0  0.1603564E-04  0.1906756E+04  0.7818609E-02  0.8651501E-01
       -2   -1    0    0    0  501  0.00000000000E+00  0.00000000000E+00  0.61505712666E+03  0.61505712667E+03  0.25500000920E-02 0.  1.
        2   -1    0    0  501    0  0.00000000000E+00  0.00000000000E+00 -0.14777976246E+04  0.14777976246E+04  0.25500000920E-02 0. -1.
    10030    2    1    2    0    0  0.00000000000E+00  0.00000000000E+00 -0.86274049798E+03  0.20928547513E+04  0.19067563670E+04 0.  0.
        5    1    3    3  502    0 -0.87508887164E+03  0.23176511430E+03 -0.10316732796E+03  0.91113181759E+03  0.46999998093E+01 0.  1.
       -5    1    3    3    0  502  0.87508887164E+03 -0.23176511430E+03 -0.75957317002E+03  0.11817229337E+04  0.46999998093E+01 0. -1.
</event>
<event>
 5   0  0.1628397E-04  0.1800721E+04  0.7818609E-02  0.8705916E-01
       -2   -1    0    0    0  501  0.00000000000E+00  0.00000000000E+00  0.87106224683E+03  0.87106224684E+03  0.25500000920E-02 0.  1.
        2   -1    0    0  501    0  0.00000000000E+00  0.00000000000E+00 -0.93064412084E+03  0.93064412084E+03  0.25500000920E-02 0. -1.
    10030    2    1    2    0    0  0.00000000000E+00  0.00000000000E+00 -0.59581874006E+02  0.18017063677E+04  0.18007209211E+04 0.  0.
        3    1    3    3  502    0 -0.24473522456E+03 -0.49906583302E+03 -0.73847715854E+03  0.92428921865E+03  0.10100000352E+00 0. -1.
       -3    1    3    3    0  502  0.24473522456E+03  0.49906583302E+03  0.67889528454E+03  0.87741714902E+03  0.10100000352E+00 0.  1.
</event>
<event>
 5   0  0.1573981E-04  0.1791262E+04  0.7818609E-02  0.8710960E-01
        2   -1    0    0  501    0  0.00000000000E+00  0.00000000000E+00  0.15766992132E+04  0.15766992132E+04  0.25500000920E-02 0. -1.
       -2   -1    0    0    0  501  0.00000000000E+00  0.00000000000E+00 -0.50875595306E+03  0.50875595307E+03  0.25500000920E-02 0.  1.
    10030    2    1    2    0    0  0.00000000000E+00  0.00000000000E+00  0.10679432601E+04  0.20854551662E+04  0.17912622487E+04 0.  0.
        1    1    3    3  502    0 -0.53018034944E+03  0.13181280840E+01  0.13743724291E+04  0.14730894454E+04  0.50400001928E-02 0. -1.
       -1    1    3    3    0  502  0.53018034944E+03 -0.13181280840E+01 -0.30642916898E+03  0.61236572081E+03  0.50400001928E-02 0.  1.
</event>
<event>
 5   0  0.8492114E-05  0.1849694E+04  0.7818609E-02  0.8680310E-01
       -1   -1    0    0    0  501  0.00000000000E+00  0.00000000000E+00  0.86795702938E+03  0.86795702940E+03  0.50400001928E-02 0. -1.
        1   -1    0    0  501    0  0.00000000000E+00  0.00000000000E+00 -0.98546599837E+03  0.98546599839E+03  0.50400001928E-02 0.  1.
    10030    2    1    2    0    0  0.00000000000E+00  0.00000000000E+00 -0.11750896899E+03  0.18534230278E+04  0.18496941807E+04 0.  0.
        2    1    3    3  502    0 -0.57662911385E+03 -0.15441516334E+03 -0.76657569991E+03  0.97158812328E+03  0.25500000920E-02 0.  1.
       -2    1    3    3    0  502  0.57662911385E+03  0.15441516334E+03  0.64906673092E+03  0.88183490450E+03  0.25500000920E-02 0. -1.
</event>
<event>
 5   0  0.8206783E-05  0.1800820E+04  0.7818609E-02  0.8705863E-01
        1   -1    0    0  501    0  0.00000000000E+00  0.00000000000E+00  0.98176008373E+03  0.98176008374E+03  0.50400001928E-02 0.  1.
       -1   -1    0    0    0  501  0.00000000000E+00  0.00000000000E+00 -0.82580077268E+03  0.82580077269E+03  0.50400001928E-02 0. -1.
    10030    2    1    2    0    0  0.00000000000E+00  0.00000000000E+00  0.15595931105E+03  0.18075608564E+04  0.18008200751E+04 0.  0.
        1    1    3    3  502    0  0.57191231392E+03  0.33451596005E+03 -0.53401862750E+03  0.85097621405E+03  0.50400001928E-02 0. -1.
       -1    1    3    3    0  502 -0.57191231392E+03 -0.33451596005E+03  0.68997793855E+03  0.95658464238E+03  0.50400001928E-02 0.  1.
</event>
<event>
 5   0  0.1603564E-04  0.1796562E+04  0.7818609E-02  0.8708130E-01
       -2   -1    0    0    0  501  0.00000000000E+00  0.00000000000E+00  0.84118918941E+03  0.84118918942E+03  0.25500000920E-02 0. -1.
        2   -1    0    0  501    0  0.00000000000E+00  0.00000000000E+00 -0.95924789600E+03  0.95924789601E+03  0.25500000920E-02 0.  1.
    10030    2    1    2    0    0  0.00000000000E+00  0.00000000000E+00 -0.11805870659E+03  0.18004370854E+04  0.17965622284E+04 0.  0.
        5    1    3    3  502    0  0.12989866896E+02  0.59696018983E+03  0.61350424035E+03  0.85611900330E+03  0.46999998093E+01 0. -1.
       -5    1    3    3    0  502 -0.12989866896E+02 -0.59696018983E+03 -0.73156294694E+03  0.94431808212E+03  0.46999998093E+01 0.  1.
</event>
<event>
 5   0  0.8430513E-05  0.1796773E+04  0.7818609E-02  0.8708017E-01
        1   -1    0    0  501    0  0.00000000000E+00  0.00000000000E+00  0.26774489004E+04  0.26774489005E+04  0.50400001928E-02 0.  1.
       -1   -1    0    0    0  501  0.00000000000E+00  0.00000000000E+00 -0.30144317850E+03  0.30144317854E+03  0.50400001928E-02 0. -1.
    10030    2    1    2    0    0  0.00000000000E+00  0.00000000000E+00  0.23760057220E+04  0.29788920790E+04  0.17967734491E+04 0.  0.
        5    1    3    3  502    0 -0.47377249778E+03  0.17782135125E+02  0.24531319908E+04  0.24985306158E+04  0.46999998093E+01 0.  1.
       -5    1    3    3    0  502  0.47377249778E+03 -0.17782135125E+02 -0.77126268815E+02  0.48036146319E+03  0.46999998093E+01 0. -1.
</event>
<event>
 5   0  0.8254914E-05  0.1580869E+04  0.7818609E-02  0.8832388E-01
       -1   -1    0    0    0  501  0.00000000000E+00  0.00000000000E+00  0.14710761788E+04  0.14710761788E+04  0.50400001928E-02 0.  1.
        1   -1    0    0  501    0  0.00000000000E+00  0.00000000000E+00 -0.42471420908E+03  0.42471420911E+03  0.50400001928E-02 0. -1.
    10030    2    1    2    0    0  0.00000000000E+00  0.00000000000E+00  0.10463619697E+04  0.18957903879E+04  0.15808693252E+04 0.  0.
        4    1    3    3  502    0 -0.43689730213E+03 -0.27417560216E+03  0.12414390499E+04  0.13443303317E+04  0.12699999809E+01 0.  1.
       -4    1    3    3    0  502  0.43689730213E+03  0.27417560216E+03 -0.19507708016E+03  0.55146005616E+03  0.12699999809E+01 0. -1.
</event>
<event>
 5   0  0.1603564E-04  0.1758864E+04  0.7818609E-02  0.8728486E-01
       -2   -1    0    0    0  501  0.00000000000E+00  0.00000000000E+00  0.98499381230E+03  0.98499381230E+03  0.25500000920E-02 0. -1.
        2   -1    0    0  501    0  0.00000000000E+00  0.00000000000E+00 -0.78518339300E+03  0.78518339301E+03  0.25500000920E-02 0.  1.
    10030    2    1    2    0    0  0.00000000000E+00  0.00000000000E+00  0.19981041929E+03  0.17701772053E+04  0.17588641603E+04 0.  0.
        5    1    3    3  502    0 -0.87467719283E+03  0.81566443559E+02  0.58833197851E+02  0.88045256064E+03  0.46999998093E+01 0. -1.
       -5    1    3    3    0  502  0.87467719283E+03 -0.81566443559E+02  0.14097722144E+03  0.88972464467E+03  0.46999998093E+01 0.  1.
</event>
<event>
 5   0  0.5820500E-05  0.1810738E+04  0.7818609E-02  0.8700610E-01
       -3   -1    0    0    0  501  0.00000000000E+00  0.00000000000E+00  0.67287333471E+03  0.67287334229E+03  0.10100000352E+00 0.  1.
        3   -1    0    0  501    0  0.00000000000E+00  0.00000000000E+00 -0.12181974246E+04  0.12181974288E+04  0.10100000352E+00 0. -1.
    10030    2    1    2    0    0  0.00000000000E+00  0.00000000000E+00 -0.54532408989E+03  0.18910707711E+04  0.18107375012E+04 0.  0.
        1    1    3    3  502    0  0.22147666528E+03  0.10547947256E+03  0.63750349796E+03  0.68307286751E+03  0.50400001928E-02 0.  1.
       -1    1    3    3    0  502 -0.22147666528E+03 -0.10547947256E+03 -0.11828275878E+04  0.12079979036E+04  0.50400001928E-02 0. -1.
</event>
<event>
 5   0  0.1603564E-04  0.1799988E+04  0.7818609E-02  0.8706306E-01
        2   -1    0    0  501    0  0.00000000000E+00  0.00000000000E+00  0.12343892379E+04  0.12343892379E+04  0.25500000920E-02 0. -1.
       -2   -1    0    0    0  501  0.00000000000E+00  0.00000000000E+00 -0.65618646943E+03  0.65618646943E+03  0.25500000920E-02 0.  1.
    10030    2    1    2    0    0  0.00000000000E+00  0.00000000000E+00  0.57820276844E+03  0.18905757073E+04  0.17999883510E+04 0.  0.
        5    1    3    3  502    0 -0.58657826410E+03 -0.42677124066E+03 -0.27039813423E+03  0.77417374843E+03  0.46999998093E+01 0.  1.
       -5    1    3    3    0  502  0.58657826410E+03  0.42677124066E+03  0.84860090267E+03  0.11164019589E+04  0.46999998093E+01 0. -1.
</event>
<event>
 5   0  0.1549012E-04  0.1810097E+04  0.7818609E-02  0.8700948E-01
        2   -1    0    0  501    0  0.00000000000E+00  0.00000000000E+00  0.83745394505E+03  0.83745394506E+03  0.25500000920E-02 0.  1.
       -2   -1    0    0    0  501  0.00000000000E+00  0.00000000000E+00 -0.97809927220E+03  0.97809927220E+03  0.25500000920E-02 0. -1.
    10030    2    1    2    0    0  0.00000000000E+00  0.00000000000E+00 -0.14064532715E+03  0.18155532173E+04  0.18100973390E+04 0.  0.
        4    1    3    3  502    0 -0.53552029776E+03  0.24901035352E+03 -0.75819099764E+03  0.96106365412E+03  0.12699999809E+01 0. -1.
       -4    1    3    3    0  502  0.53552029776E+03 -0.24901035352E+03  0.61754567049E+03  0.85448956314E+03  0.12699999809E+01 0.  1.
</event>
<event>
 5   0  0.1573981E-04  0.1764231E+04  0.7818609E-02  0.8725556E-01
        2   -1    0    0  501    0  0.00000000000E+00  0.00000000000E+00  0.12404180553E+04  0.12404180553E+04  0.25500000920E-02 0.  1.
       -2   -1    0    0    0  501  0.00000000000E+00  0.00000000000E+00 -0.62731105157E+03  0.62731105157E+03  0.25500000920E-02 0. -1.
    10030    2    1    2    0    0  0.00000000000E+00  0.00000000000E+00  0.61310700369E+03  0.18677291068E+04  0.17642312259E+04 0.  0.
        1    1    3    3  502    0  0.17912028483E+03 -0.51515750095E+02 -0.60622781321E+03  0.63423190592E+03  0.50400001928E-02 0. -1.
       -1    1    3    3    0  502 -0.17912028483E+03  0.51515750095E+02  0.12193348169E+04  0.12334972009E+04  0.50400001928E-02 0.  1.
</event>
<event>
 5   0  0.1573981E-04  0.1801937E+04  0.7818609E-02  0.8705270E-01
        2   -1    0    0  501    0  0.00000000000E+00  0.00000000000E+00  0.20227153002E+04  0.20227153002E+04  0.25500000920E-02 0.  1.
       -2   -1    0    0    0  501  0.00000000000E+00  0.00000000000E+00 -0.40131413348E+03  0.40131413349E+03  0.25500000920E-02 0. -1.
    10030    2    1    2    0    0  0.00000000000E+00  0.00000000000E+00  0.16214011667E+04  0.24240294337E+04  0.18019370000E+04 0.  0.
        1    1    3    3  502    0  0.87707291629E+03 -0.12165301516E+03  0.10345433933E+04  0.13617402062E+04  0.50400001928E-02 0. -1.
       -1    1    3    3    0  502 -0.87707291629E+03  0.12165301516E+03  0.58685777341E+03  0.10622892275E+04  0.50400001928E-02 0.  1.
</event>
<event>
 5   0  0.8492114E-05  0.1822683E+04  0.7818609E-02  0.8694329E-01
       -1   -1    0    0    0  501  0.00000000000E+00  0.00000000000E+00  0.98016088574E+03  0.98016088575E+03  0.50400001928E-02 0.  1.
        1   -1    0    0  501    0  0.00000000000E+00  0.00000000000E+00 -0.84735380931E+03  0.84735380933E+03  0.50400001928E-02 0. -1.
    10030    2    1    2    0    0  0.00000000000E+00  0.00000000000E+00  0.13280707643E+03  0.18275146951E+04  0.18226827045E+04 0.  0.
        2    1    3    3  502    0  0.58776838400E+03  0.45186018587E+03  0.59780268237E+03  0.95237458380E+03  0.25500000920E-02 0.  1.
       -2    1    3    3    0  502 -0.58776838400E+03 -0.45186018587E+03 -0.46499560594E+03  0.87514011128E+03  0.25500000920E-02 0. -1.
</event>
<event>
 5   0  0.1573981E-04  0.1809396E+04  0.7818609E-02  0.8701319E-01
        2   -1    0    0  501    0  0.00000000000E+00  0.00000000000E+00  0.95898567112E+03  0.95898567113E+03  0.25500000920E-02 0.  1.
       -2   -1    0    0    0  501  0.00000000000E+00  0.00000000000E+00 -0.85348347862E+03  0.85348347863E+03  0.25500000920E-02 0. -1.
    10030    2    1    2    0    0  0.00000000000E+00  0.00000000000E+00  0.10550219250E+03  0.18124691498E+04  0.18093959506E+04 0.  0.
        1    1    3    3  502    0  0.42101440488E+03  0.23612039471E+03  0.81921241735E+03  0.95084959624E+03  0.50400001928E-02 0.  1.
       -1    1    3    3    0  502 -0.42101440488E+03 -0.23612039471E+03 -0.71371022485E+03  0.86161955351E+03  0.50400001928E-02 0. -1.
</event>
<event>
 5   0  0.8430513E-05  0.1802156E+04  0.7818609E-02  0.8705154E-01
        1   -1    0    0  501    0  0.00000000000E+00  0.00000000000E+00  0.10181604934E+04  0.10181604934E+04  0.50400001928E-02 0. -1.
       -1   -1    0    0    0  501  0.00000000000E+00  0.00000000000E+00 -0.79745894210E+03  0.79745894211E+03  0.50400001928E-02 0.  1.
    10030    2    1    2    0    0  0.00000000000E+00  0.00000000000E+00  0.22070155132E+03  0.18156194355E+04  0.18021555871E+04 0.  0.
        5    1    3    3  502    0  0.79066725779E+03  0.42991413033E+03  0.65996553055E+02  0.90241814421E+03  0.46999998093E+01 0.  1.
       -5    1    3    3    0  502 -0.79066725779E+03 -0.42991413033E+03  0.15470499827E+03  0.91320129133E+03  0.46999998093E+01 0. -1.
</event>
<event>
 5   0  0.8132598E-05  0.1802621E+04  0.7818609E-02  0.8704907E-01
        1   -1    0    0  501    0  0.00000000000E+00  0.00000000000E+00  0.19159319908E+04  0.19159319908E+04  0.50400001928E-02 0. -1.
       -1   -1    0    0    0  501  0.00000000000E+00  0.00000000000E+00 -0.42400270133E+03  0.42400270136E+03  0.50400001928E-02 0.  1.
    10030    2    1    2    0    0  0.00000000000E+00  0.00000000000E+00  0.14919292895E+04  0.23399346922E+04  0.18026206919E+04 0.  0.
        3    1    3    3  502    0 -0.43515726117E+03 -0.10107368997E+03  0.17621024178E+04  0.18178511143E+04  0.10100000352E+00 0. -1.
       -3    1    3    3    0  502  0.43515726117E+03  0.10107368997E+03 -0.27017312837E+03  0.52208357783E+03  0.10100000352E+00 0.  1.
</event>
<event>
 5   0  0.1549012E-04  0.1807826E+04  0.7818609E-02  0.8702149E-01
       -2   -1    0    0    0  501  0.00000000000E+00  0.00000000000E+00  0.31061872837E+03  0.31061872839E+03  0.25500000920E-02 0.  1.
        2   -1    0    0  501    0  0.00000000000E+00  0.00000000000E+00 -0.26304244545E+04  0.26304244545E+04  0.25500000920E-02 0. -1.
    10030    2    1    2    0    0  0.00000000000E+00  0.00000000000E+00 -0.23198057261E+04  0.29410431829E+04  0.18078264288E+04 0.  0.
        4    1    3    3  502    0 -0.23268795262E+03  0.75459285870E+03 -0.44427211335E+03  0.90605374526E+03  0.12699999809E+01 0.  1.
       -4    1    3    3    0  502  0.23268795262E+03 -0.75459285870E+03 -0.18755336128E+04  0.20349894376E+04  0.12699999809E+01 0. -1.
</event>
<event>
 5   0  0.8206783E-05  0.1800123E+04  0.7818609E-02  0.8706234E-01
        1   -1    0    0  501    0  0.00000000000E+00  0.00000000000E+00  0.59585715750E+03  0.59585715752E+03  0.50400001928E-02 0.  1.
       -1   -1    0    0    0  501  0.00000000000E+00  0.00000000000E+00 -0.13595724447E+04  0.13595724447E+04  0.50400001928E-02 0. -1.
    10030    2    1    2    0    0  0.00000000000E+00  0.00000000000E+00 -0.76371528722E+03  0.19554296022E+04  0.18001232984E+04 0.  0.
        1    1    3    3  502    0 -0.42149077955E+03  0.77796453738E+03 -0.20261340678E+03  0.90770892433E+03  0.50400001928E-02 0.  1.
       -1    1    3    3    0  502  0.42149077955E+03 -0.77796453738E+03 -0.56110188044E+03  0.10477206779E+04  0.50400001928E-02 0. -1.
</event>
<event>
 5   0  0.1628397E-04  0.1810183E+04  0.7818609E-02  0.8700903E-01
        2   -1    0    0  501    0  0.00000000000E+00  0.00000000000E+00  0.14263093640E+04  0.14263093640E+04  0.25500000920E-02 0.  1.
       -2   -1    0    0    0  501  0.00000000000E+00  0.00000000000E+00 -0.57434319151E+03  0.57434319151E+03  0.25500000920E-02 0. -1.
    10030    2    1    2    0    0  0.00000000000E+00  0.00000000000E+00  0.85196617246E+03  0.20006525555E+04  0.18101834959E+04 0.  0.
        3    1    3    3  502    0  0.34709252329E+03 -0.69091313230E+03 -0.94007630584E+02  0.77889127670E+03  0.10100000352E+00 0. -1.
       -3    1    3    3    0  502 -0.34709252329E+03  0.69091313230E+03  0.94597380305E+03  0.12217612788E+04  0.10100000352E+00 0.  1.
</event>
<event>
 5   0  0.1628397E-04  0.1807022E+04  0.7818609E-02  0.8702574E-01
        2   -1    0    0  501    0  0.00000000000E+00  0.00000000000E+00  0.94906173875E+03  0.94906173875E+03  0.25500000920E-02 0. -1.
       -2   -1    0    0    0  501  0.00000000000E+00  0.00000000000E+00 -0.86014674366E+03  0.86014674366E+03  0.25500000920E-02 0.  1.
    10030    2    1    2    0    0  0.00000000000E+00  0.00000000000E+00  0.88914995088E+02  0.18092084824E+04  0.18070222623E+04 0.  0.
        3    1    3    3  502    0  0.44480772357E+03  0.60590009914E+03  0.54642572707E+03  0.92927387055E+03  0.10100000352E+00 0.  1.
       -3    1    3    3    0  502 -0.44480772357E+03 -0.60590009914E+03 -0.45751073198E+03  0.87993461187E+03  0.10100000352E+00 0. -1.
</event>
<event>
 5   0  0.1628397E-04  0.1790166E+04  0.7818609E-02  0.8711546E-01
       -2   -1    0    0    0  501  0.00000000000E+00  0.00000000000E+00  0.49166238787E+03  0.49166238788E+03  0.25500000920E-02 0.  1.
        2   -1    0    0  501    0  0.00000000000E+00  0.00000000000E+00 -0.16295201583E+04  0.16295201583E+04  0.25500000920E-02 0. -1.
    10030    2    1    2    0    0  0.00000000000E+00  0.00000000000E+00 -0.11378577704E+04  0.21211825462E+04  0.17901662181E+04 0.  0.
        3    1    3    3  502    0 -0.35599686084E+02  0.12125159127E+03  0.48103913315E+03  0.49736097943E+03  0.10100000352E+00 0.  1.
       -3    1    3    3    0  502  0.35599686084E+02 -0.12125159127E+03 -0.16188969036E+04  0.16238215668E+04  0.10100000352E+00 0. -1.
</event>
<event>
 5   0  0.8492114E-05  0.1806792E+04  0.7818609E-02  0.8702696E-01
        1   -1    0    0  501    0  0.00000000000E+00  0.00000000000E+00  0.11836105915E+04  0.11836105916E+04  0.50400001928E-02 0. -1.
       -1   -1    0    0    0  501  0.00000000000E+00  0.00000000000E+00 -0.68952070907E+03  0.68952070909E+03  0.50400001928E-02 0.  1.
    10030    2    1    2    0    0  0.00000000000E+00  0.00000000000E+00  0.49408988247E+03  0.18731313006E+04  0.18067916475E+04 0.  0.
        2    1    3    3  502    0  0.11275289232E+03  0.20081362410E+03  0.11526660077E+04  0.11754481067E+04  0.25500000920E-02 0. -1.
       -2    1    3    3    0  502 -0.11275289232E+03 -0.20081362410E+03 -0.65857612522E+03  0.69768319391E+03  0.25500000920E-02 0.  1.
</event>
<event>
 5   0  0.1603564E-04  0.1796815E+04  0.7818609E-02  0.8707995E-01
       -2   -1    0    0    0  501  0.00000000000E+00  0.00000000000E+00  0.90652283085E+03  0.90652283085E+03  0.25500000920E-02 0.  1.
        2   -1    0    0  501    0  0.00000000000E+00  0.00000000000E+00 -0.89036473563E+03  0.89036473564E+03  0.25500000920E-02 0. -1.
    10030    2    1    2    0    0  0.00000000000E+00  0.00000000000E+00  0.16158095218E+02  0.17968875665E+04  0.17968149161E+04 0.  0.
        5    1    3    3  502    0 -0.66677876671E+03 -0.54397787436E+03  0.26617477700E+03  0.90076464931E+03  0.46999998093E+01 0.  1.
       -5    1    3    3    0  502  0.66677876671E+03  0.54397787436E+03 -0.25001668178E+03  0.89612291718E+03  0.46999998093E+01 0. -1.
</event>
<event>
 5   0  0.1603564E-04  0.1656934E+04  0.7818609E-02  0.8786315E-01
        2   -1    0    0  501    0  0.00000000000E+00  0.00000000000E+00  0.12555340311E+04  0.12555340311E+04  0.25500000920E-02 0.  1.
       -2   -1    0    0    0  501  0.00000000000E+00  0.00000000000E+00 -0.54666552538E+03  0.54666552538E+03  0.25500000920E-02 0. -1.
    10030    2    1    2    0    0  0.00000000000E+00  0.00000000000E+00  0.70886850572E+03  0.18021995565E+04  0.16569335180E+04 0.  0.
        5    1    3    3  502    0 -0.13165345590E+03 -0.18889084695E+03 -0.51115194168E+03  0.56063426759E+03  0.46999998093E+01 0. -1.
       -5    1    3    3    0  502  0.13165345590E+03  0.18889084695E+03  0.12200204474E+04  0.12415652889E+04  0.46999998093E+01 0.  1.
</event>
<event>
 5   0  0.1549012E-04  0.1791446E+04  0.7818609E-02  0.8710862E-01
       -2   -1    0    0    0  501  0.00000000000E+00  0.00000000000E+00  0.93402367417E+03  0.93402367417E+03  0.25500000920E-02 0. -1.
        2   -1    0    0  501    0  0.00000000000E+00  0.00000000000E+00 -0.85899268210E+03  0.85899268211E+03  0.25500000920E-02 0.  1.
    10030    2    1    2    0    0  0.00000000000E+00  0.00000000000E+00  0.75030992064E+02  0.17930163563E+04  0.17914457860E+04 0.  0.
        4    1    3    3  502    0 -0.27916707330E+03  0.32312004590E+03 -0.75056103599E+03  0.86353013875E+03  0.12699999809E+01 0.  1.
       -4    1    3    3    0  502  0.27916707330E+03 -0.32312004590E+03  0.82559202806E+03  0.92948621753E+03  0.12699999809E+01 0. -1.
</event>
<event>
 5   0  0.1549012E-04  0.1816447E+04  0.7818609E-02  0.8697602E-01
       -2   -1    0    0    0  501  0.00000000000E+00  0.00000000000E+00  0.64993037947E+03  0.64993037947E+03  0.25500000920E-02 0. -1.
        2   -1    0    0  501    0  0.00000000000E+00  0.00000000000E+00 -0.12691660245E+04  0.12691660245E+04  0.25500000920E-02 0.  1.
    10030    2    1    2    0    0  0.00000000000E+00  0.00000000000E+00 -0.61923564504E+03  0.19190964040E+04  0.18164465926E+04 0.  0.
        4    1    3    3  502    0  0.20476245300E+03  0.19744559078E+03 -0.12208890196E+04  0.12535884630E+04  0.12699999809E+01 0.  1.
       -4    1    3    3    0  502 -0.20476245300E+03 -0.19744559078E+03  0.60165337457E+03  0.66550794098E+03  0.12699999809E+01 0. -1.
</event>
<event>
 5   0  0.8492114E-05  0.1803373E+04  0.7818609E-02  0.8704508E-01
        1   -1    0    0  501    0  0.00000000000E+00  0.00000000000E+00  0.84083016112E+03  0.84083016113E+03  0.50400001928E-02 0. -1.
       -1   -1    0    0    0  501  0.00000000000E+00  0.00000000000E+00 -0.96694698840E+03  0.96694698841E+03  0.50400001928E-02 0.  1.
    10030    2    1    2    0    0  0.00000000000E+00  0.00000000000E+00 -0.12611682729E+03  0.18077771495E+04  0.18033726094E+04 0.  0.
        2    1    3    3  502    0 -0.68360440500E+03 -0.75246865539E+02 -0.64763028384E+03  0.94467034348E+03  0.25500000920E-02 0.  1.
       -2    1    3    3    0  502  0.68360440500E+03  0.75246865539E+02  0.52151345655E+03  0.86310680606E+03  0.25500000920E-02 0. -1.
</event>
<event>
 5   0  0.1628397E-04  0.1800152E+04  0.7818609E-02  0.8706219E-01
        2   -1    0    0  501    0  0.00000000000E+00  0.00000000000E+00  0.80070220510E+03  0.80070220510E+03  0.25500000920E-02 0.  1.
       -2   -1    0    0    0  501  0.00000000000E+00  0.00000000000E+00 -0.10117824802E+04  0.10117824802E+04  0.25500000920E-02 0. -1.
    10030    2    1    2    0    0  0.00000000000E+00  0.00000000000E+00 -0.21108027507E+03  0.18124846853E+04  0.18001516191E+04 0.  0.
        3    1    3    3  502    0  0.36253401402E+03 -0.41111074008E+03  0.61327929313E+03  0.82252930253E+03  0.10100000352E+00 0.  1.
       -3    1    3    3    0  502 -0.36253401402E+03  0.41111074008E+03 -0.82435956820E+03  0.98995538274E+03  0.10100000352E+00 0. -1.
</event>
<event>
 5   0  0.8254914E-05  0.1805326E+04  0.7818609E-02  0.8703472E-01
        1   -1    0    0  501    0  0.00000000000E+00  0.00000000000E+00  0.11192986781E+04  0.11192986781E+04  0.50400001928E-02 0.  1.
       -1   -1    0    0    0  501  0.00000000000E+00  0.00000000000E+00 -0.72795595775E+03  0.72795595777E+03  0.50400001928E-02 0. -1.
    10030    2    1    2    0    0  0.00000000000E+00  0.00000000000E+00  0.39134272037E+03  0.18472546359E+04  0.18053256119E+04 0.  0.
        4    1    3    3  502    0  0.63000014867E+03  0.25852745287E+03  0.80193715936E+03  0.10520653267E+04  0.12699999809E+01 0.  1.
       -4    1    3    3    0  502 -0.63000014867E+03 -0.25852745287E+03 -0.41059443899E+03  0.79518930919E+03  0.12699999809E+01 0. -1.
</event>
<event>
 5   0  0.1573981E-04  0.1796300E+04  0.7818609E-02  0.8708270E-01
        2   -1    0    0  501    0  0.00000000000E+00  0.00000000000E+00  0.71237684979E+03  0.71237684980E+03  0.25500000920E-02 0. -1.
       -2   -1    0    0    0  501  0.00000000000E+00  0.00000000000E+00 -0.11323684943E+04  0.11323684943E+04  0.25500000920E-02 0.  1.
    10030    2    1    2    0    0  0.00000000000E+00  0.00000000000E+00 -0.41999164449E+03  0.18447453441E+04  0.17962996418E+04 0.  0.
        1    1    3    3  502    0  0.73023760817E+03 -0.43177862460E+03  0.92905159862E+02  0.85341145634E+03  0.50400001928E-02 0.  1.
       -1    1    3    3    0  502 -0.73023760817E+03  0.43177862460E+03 -0.51289680435E+03  0.99133388775E+03  0.50400001928E-02 0. -1.
</event>
<event>
 5   0  0.1608627E-04  0.1796305E+04  0.7818609E-02  0.8708267E-01
       -2   -1    0    0    0  501  0.00000000000E+00  0.00000000000E+00  0.58027169490E+03  0.58027169490E+03  0.25500000920E-02 0. -1.
        2   -1    0    0  501    0  0.00000000000E+00  0.00000000000E+00 -0.13901725697E+04  0.13901725697E+04  0.25500000920E-02 0.  1.
    10030    2    1    2    0    0  0.00000000000E+00  0.00000000000E+00 -0.80990087478E+03  0.19704442646E+04  0.17963048663E+04 0.  0.
        2    1    3    3  502    0  0.13993411134E+03  0.34089936158E+03  0.49352825355E+03  0.61592537478E+03  0.25500000920E-02 0. -1.
       -2    1    3    3    0  502 -0.13993411134E+03 -0.34089936158E+03 -0.13034291283E+04  0.13545188898E+04  0.25500000920E-02 0.  1.
</event>
<event>
 5   0  0.8254914E-05  0.1801496E+04  0.7818609E-02  0.8705504E-01
       -1   -1    0    0    0  501  0.00000000000E+00  0.00000000000E+00  0.89347374020E+03  0.89347374022E+03  0.50400001928E-02 0. -1.
        1   -1    0    0  501    0  0.00000000000E+00  0.00000000000E+00 -0.90808131647E+03  0.90808131649E+03  0.50400001928E-02 0.  1.
    10030    2    1    2    0    0  0.00000000000E+00  0.00000000000E+00 -0.14607576268E+02  0.18015550567E+04  0.18014958343E+04 0.  0.
        4    1    3    3  502    0  0.34607722704E+03  0.63230193469E+03 -0.54747894241E+03  0.90515743877E+03  0.12699999809E+01 0.  1.
       -4    1    3    3    0  502 -0.34607722704E+03 -0.63230193469E+03  0.53287136614E+03  0.89639761793E+03  0.12699999809E+01 0. -1.
</event>
<event>
 5   0  0.8492114E-05  0.1804663E+04  0.7818609E-02  0.8703824E-01
        1   -1    0    0  501    0  0.00000000000E+00  0.00000000000E+00  0.86764822216E+03  0.86764822217E+03  0.50400001928E-02 0. -1.
       -1   -1    0    0    0  501  0.00000000000E+00  0.00000000000E+00 -0.93840124765E+03  0.93840124766E+03  0.50400001928E-02 0.  1.
    10030    2    1    2    0    0  0.00000000000E+00  0.00000000000E+00 -0.70753025491E+02  0.18060494698E+04  0.18046630425E+04 0.  0.
        2    1    3    3  502    0  0.10103656022E+03 -0.76398311268E+03  0.43437049072E+03  0.88462212621E+03  0.25500000920E-02 0.  1.
       -2    1    3    3    0  502 -0.10103656022E+03  0.76398311268E+03 -0.50512351621E+03  0.92142734363E+03  0.25500000920E-02 0. -1.
</event>
<event>
 5   0  0.1549012E-04  0.1802756E+04  0.7818609E-02  0.8704835E-01
       -2   -1    0    0    0  501  0.00000000000E+00  0.00000000000E+00  0.59316501176E+03  0.59316501177E+03  0.25500000920E-02 0.  1.
        2   -1    0    0  501    0  0.00000000000E+00  0.00000000000E+00 -0.13697410359E+04  0.13697410359E+04  0.25500000920E-02 0. -1.
    10030    2    1    2    0    0  0.00000000000E+00  0.00000000000E+00 -0.77657602411E+03  0.19629060476E+04  0.18027561762E+04 0.  0.
        4    1    3    3  502    0 -0.53232731824E+03 -0.18794840164E+03 -0.11534105063E+04  0.12841551248E+04  0.12699999809E+01 0. -1.
       -4    1    3    3    0  502  0.53232731824E+03  0.18794840164E+03  0.37683448222E+03  0.67875092288E+03  0.12699999809E+01 0.  1.
</event>
<event>
 5   0  0.1549012E-04  0.1797925E+04  0.7818609E-02  0.8707404E-01
        2   -1    0    0  501    0  0.00000000000E+00  0.00000000000E+00  0.91714002233E+03  0.91714002233E+03  0.25500000920E-02 0.  1.
       -2   -1    0    0    0  501  0.00000000000E+00  0.00000000000E+00 -0.88114508558E+03  0.88114508558E+03  0.25500000920E-02 0. -1.
    10030    2    1    2    0    0  0.00000000000E+00  0.00000000000E+00  0.35994936752E+02  0.17982851079E+04  0.17979248299E+04 0.  0.
        4    1    3    3  502    0  0.78174733684E+03  0.16886248342E+03 -0.39255813762E+03  0.89092476746E+03  0.12699999809E+01 0.  1.
       -4    1    3    3    0  502 -0.78174733684E+03 -0.16886248342E+03  0.42855307438E+03  0.90736034045E+03  0.12699999809E+01 0. -1.
</event>
<event>
 5   0  0.8254914E-05  0.1778732E+04  0.7818609E-02  0.8717692E-01
        1   -1    0    0  501    0  0.00000000000E+00  0.00000000000E+00  0.71010811190E+03  0.71010811192E+03  0.50400001928E-02 0. -1.
       -1   -1    0    0    0  501  0.00000000000E+00  0.00000000000E+00 -0.11138754689E+04  0.11138754689E+04  0.50400001928E-02 0.  1.
    10030    2    1    2    0    0  0.00000000000E+00  0.00000000000E+00 -0.40376735696E+03  0.18239835808E+04  0.17787321396E+04 0.  0.
        4    1    3    3  502    0  0.12767396413E+03 -0.67759030203E+03  0.37413738374E+03  0.78448049902E+03  0.12699999809E+01 0. -1.
       -4    1    3    3    0  502 -0.12767396413E+03  0.67759030203E+03 -0.77790474070E+03  0.10395030818E+04  0.12699999809E+01 0.  1.
</event>
<event>
 5   0  0.8492114E-05  0.2013972E+04  0.7818609E-02  0.8600116E-01
       -1   -1    0    0    0  501  0.00000000000E+00  0.00000000000E+00  0.75936722300E+03  0.75936722302E+03  0.50400001928E-02 0. -1.
        1   -1    0    0  501    0  0.00000000000E+00  0.00000000000E+00 -0.13353498613E+04  0.13353498613E+04  0.50400001928E-02 0.  1.
    10030    2    1    2    0    0  0.00000000000E+00  0.00000000000E+00 -0.57598263826E+03  0.20947170843E+04  0.20139721109E+04 0.  0.
        2    1    3    3  502    0 -0.65350496489E+03 -0.41983924046E+03  0.37855065026E+03  0.86408004362E+03  0.25500000920E-02 0. -1.
       -2    1    3    3    0  502  0.65350496489E+03  0.41983924046E+03 -0.95453328852E+03  0.12306370407E+04  0.25500000920E-02 0.  1.
</event>
<event>
 5   0  0.1603564E-04  0.1781728E+04  0.7818609E-02  0.8716077E-01
        2   -1    0    0  501    0  0.00000000000E+00  0.00000000000E+00  0.73074458956E+03  0.73074458957E+03  0.25500000920E-02 0. -1.
       -2   -1    0    0    0  501  0.00000000000E+00  0.00000000000E+00 -0.10860689540E+04  0.10860689540E+04  0.25500000920E-02 0.  1.
    10030    2    1    2    0    0  0.00000000000E+00  0.00000000000E+00 -0.35532436444E+03  0.18168135436E+04  0.17817283879E+04 0.  0.
        5    1    3    3  502    0  0.39389174342E+03  0.42540499152E+03  0.51204205499E+03  0.77351746484E+03  0.46999998093E+01 0.  1.
       -5    1    3    3    0  502 -0.39389174342E+03 -0.42540499152E+03 -0.86736641942E+03  0.10432960787E+04  0.46999998093E+01 0. -1.
</event>
<event>
 5   0  0.1603564E-04  0.1794473E+04  0.7818609E-02  0.8709244E-01
       -2   -1    0    0    0  501  0.00000000000E+00  0.00000000000E+00  0.91215469166E+03  0.91215469166E+03  0.25500000920E-02 0. -1.
        2   -1    0    0  501    0  0.00000000000E+00  0.00000000000E+00 -0.88256241494E+03  0.88256241494E+03  0.25500000920E-02 0.  1.
    10030    2    1    2    0    0  0.00000000000E+00  0.00000000000E+00  0.29592276720E+02  0.17947171066E+04  0.17944731232E+04 0.  0.
        5    1    3    3  502    0  0.57455698546E+03  0.68912650983E+03  0.15326670278E+02  0.89736730100E+03  0.46999998093E+01 0. -1.
       -5    1    3    3    0  502 -0.57455698546E+03 -0.68912650983E+03  0.14265606442E+02  0.89734980560E+03  0.46999998093E+01 0.  1.
</event>
<event>
 5   0  0.8430513E-05  0.1780120E+04  0.7818609E-02  0.8716943E-01
       -1   -1    0    0    0  501  0.00000000000E+00  0.00000000000E+00  0.68327618863E+03  0.68327618864E+03  0.50400001928E-02 0.  1.
        1   -1    0    0  501    0  0.00000000000E+00  0.00000000000E+00 -0.11594241911E+04  0.11594241911E+04  0.50400001928E-02 0. -1.
    10030    2    1    2    0    0  0.00000000000E+00  0.00000000000E+00 -0.47614800243E+03  0.18427003797E+04  0.17801201558E+04 0.  0.
        5    1    3    3  502    0  0.37063823042E+03  0.21014778871E+03  0.57083861742E+03  0.71232970462E+03  0.46999998093E+01 0.  1.
       -5    1    3    3    0  502 -0.37063823042E+03 -0.21014778871E+03 -0.10469866199E+04  0.11303706751E+04  0.46999998093E+01 0. -1.
</event>
<event>
 5   0  0.1608627E-04  0.1774414E+04  0.7818609E-02  0.8720025E-01
        2   -1    0    0  501    0  0.00000000000E+00  0.00000000000E+00  0.10928279500E+04  0.10928279500E+04  0.25500000920E-02 0. -1.
       -2   -1    0    0    0  501  0.00000000000E+00  0.00000000000E+00 -0.72027501492E+03  0.72027501492E+03  0.25500000920E-02 0.  1.
    10030    2    1    2    0    0  0.00000000000E+00  0.00000000000E+00  0.37255293512E+03  0.18131029650E+04  0.17744144589E+04 0.  0.
        2    1    3    3  502    0  0.42411381183E+03  0.75089631766E+03  0.39919164580E+03  0.95030088675E+03  0.25500000920E-02 0. -1.
       -2    1    3    3    0  502 -0.42411381183E+03 -0.75089631766E+03 -0.26638710685E+02  0.86280207822E+03  0.25500000920E-02 0.  1.
</event>
<event>
 5   0  0.8254914E-05  0.1808994E+04  0.7818609E-02  0.8701531E-01
       -1   -1    0    0    0  501  0.00000000000E+00  0.00000000000E+00  0.56857484246E+03  0.56857484248E+03  0.50400001928E-02 0.  1.
        1   -1    0    0  501    0  0.00000000000E+00  0.00000000000E+00 -0.14388872821E+04  0.14388872821E+04  0.50400001928E-02 0. -1.
    10030    2    1    2    0    0  0.00000000000E+00  0.00000000000E+00 -0.87031243961E+03  0.20074621246E+04  0.18089943170E+04 0.  0.
        4    1    3    3  502    0  0.34529856579E+03 -0.46876460320E+03  0.33298725117E+03  0.67071117114E+03  0.12699999809E+01 0.  1.
       -4    1    3    3    0  502 -0.34529856579E+03  0.46876460320E+03 -0.12032996908E+04  0.13367509534E+04  0.12699999809E+01 0. -1.
</event>
<event>
 5   0  0.1628397E-04  0.1855281E+04  0.7818609E-02  0.8677442E-01
        2   -1    0    0  501    0  0.00000000000E+00  0.00000000000E+00  0.18735364376E+04  0.18735364376E+04  0.25500000920E-02 0. -1.
       -2   -1    0    0    0  501  0.00000000000E+00  0.00000000000E+00 -0.45930070720E+03  0.45930070721E+03  0.25500000920E-02 0.  1.
    10030    2    1    2    0    0  0.00000000000E+00  0.00000000000E+00  0.14142357304E+04  0.23328371448E+04  0.18552806912E+04 0.  0.
        3    1    3    3  502    0  0.69453514498E+03 -0.58552195653E+03  0.94336786447E+03  0.13096403961E+04  0.10100000352E+00 0. -1.
       -3    1    3    3    0  502 -0.69453514498E+03  0.58552195653E+03  0.47086786592E+03  0.10231967487E+04  0.10100000352E+00 0.  1.
</event>
<event>
 5   0  0.5820500E-05  0.1798081E+04  0.7818609E-02  0.8707321E-01
       -4   -1    0    0    0  501  0.00000000000E+00  0.00000000000E+00  0.12156079938E+04  0.12156086572E+04  0.12699999809E+01 0. -1.
        4   -1    0    0  501    0  0.00000000000E+00  0.00000000000E+00 -0.66491190426E+03  0.66491311713E+03  0.12699999809E+01 0.  1.
    10030    2    1    2    0    0  0.00000000000E+00  0.00000000000E+00  0.55069608955E+03  0.18805217744E+04  0.17980811886E+04 0.  0.
        2    1    3    3  502    0 -0.40371873995E+03  0.76611206603E+03  0.22699208498E+02  0.86627465205E+03  0.25500000920E-02 0.  1.
       -2    1    3    3    0  502  0.40371873995E+03 -0.76611206603E+03  0.52799688105E+03  0.10142471223E+04  0.25500000920E-02 0. -1.
</event>
<event>
 5   0  0.1608627E-04  0.1811179E+04  0.7818609E-02  0.8700377E-01
        2   -1    0    0  501    0  0.00000000000E+00  0.00000000000E+00  0.11421649174E+04  0.11421649174E+04  0.25500000920E-02 0. -1.
       -2   -1    0    0    0  501  0.00000000000E+00  0.00000000000E+00 -0.71801575752E+03  0.71801575753E+03  0.25500000920E-02 0.  1.
    10030    2    1    2    0    0  0.00000000000E+00  0.00000000000E+00  0.42414915992E+03  0.18601806750E+04  0.18111790728E+04 0.  0.
        2    1    3    3  502    0 -0.23512975716E+03 -0.12257697845E+03 -0.67725151598E+03  0.72731061745E+03  0.25500000920E-02 0.  1.
       -2    1    3    3    0  502  0.23512975716E+03  0.12257697845E+03  0.11014006759E+04  0.11328700575E+04  0.25500000920E-02 0. -1.
</event>
<event>
 5   0  0.8132598E-05  0.1801749E+04  0.7818609E-02  0.8705370E-01
        1   -1    0    0  501    0  0.00000000000E+00  0.00000000000E+00  0.41625060053E+03  0.41625060056E+03  0.50400001928E-02 0. -1.
       -1   -1    0    0    0  501  0.00000000000E+00  0.00000000000E+00 -0.19497269342E+04  0.19497269342E+04  0.50400001928E-02 0.  1.
    10030    2    1    2    0    0  0.00000000000E+00  0.00000000000E+00 -0.15334763337E+04  0.23659775348E+04  0.18017491582E+04 0.  0.
        3    1    3    3  502    0  0.26678158425E+03 -0.84061373893E+03 -0.10080557987E+04  0.13393955261E+04  0.10100000352E+00 0.  1.
       -3    1    3    3    0  502 -0.26678158425E+03  0.84061373893E+03 -0.52542053492E+03  0.10265820087E+04  0.10100000352E+00 0. -1.
</event>
<event>
 5   0  0.1608627E-04  0.1801262E+04  0.7818609E-02  0.8705629E-01
       -2   -1    0    0    0  501  0.00000000000E+00  0.00000000000E+00  0.11376184733E+04  0.11376184733E+04  0.25500000920E-02 0.  1.
        2   -1    0    0  501    0  0.00000000000E+00  0.00000000000E+00 -0.71301217225E+03  0.71301217226E+03  0.25500000920E-02 0. -1.
    10030    2    1    2    0    0  0.00000000000E+00  0.00000000000E+00  0.42460630106E+03  0.18506306456E+04  0.18012615789E+04 0.  0.
        2    1    3    3  502    0  0.30756894685E+03 -0.84110825368E+03  0.11443441797E+03  0.90286044741E+03  0.25500000920E-02 0.  1.
       -2    1    3    3    0  502 -0.30756894685E+03  0.84110825368E+03  0.31017188309E+03  0.94777019817E+03  0.25500000920E-02 0. -1.
</event>
<event>
 5   0  0.8430513E-05  0.1811918E+04  0.7818609E-02  0.8699987E-01
       -1   -1    0    0    0  501  0.00000000000E+00  0.00000000000E+00  0.59603396891E+03  0.59603396893E+03  0.50400001928E-02 0. -1.
        1   -1    0    0  501    0  0.00000000000E+00  0.00000000000E+00 -0.13770386581E+04  0.13770386581E+04  0.50400001928E-02 0.  1.
    10030    2    1    2    0    0  0.00000000000E+00  0.00000000000E+00 -0.78100468920E+03  0.19730726270E+04  0.18119181182E+04 0.  0.
        5    1    3    3  502    0  0.82846244520E+03  0.32958202625E+03 -0.56529487834E+03  0.10557247390E+04  0.46999998093E+01 0. -1.
       -5    1    3    3    0  502 -0.82846244520E+03 -0.32958202625E+03 -0.21570981086E+03  0.91734788801E+03  0.46999998093E+01 0.  1.
</event>
<event>
 5   0  0.8254914E-05  0.1820374E+04  0.7818609E-02  0.8695539E-01
        1   -1    0    0  501    0  0.00000000000E+00  0.00000000000E+00  0.17795475532E+04  0.17795475532E+04  0.50400001928E-02 0. -1.
       -1   -1    0    0    0  501  0.00000000000E+00  0.00000000000E+00 -0.46553440614E+03  0.46553440617E+03  0.50400001928E-02 0.  1.
    10030    2    1    2    0    0  0.00000000000E+00  0.00000000000E+00  0.13140131470E+04  0.22450819593E+04  0.18203742620E+04 0.  0.
        4    1    3    3  502    0 -0.14182914159E+03  0.44495094956E+03  0.16205209395E+04  0.16864716366E+04  0.12699999809E+01 0. -1.
       -4    1    3    3    0  502  0.14182914159E+03 -0.44495094956E+03 -0.30650779245E+03  0.55861032272E+03  0.12699999809E+01 0.  1.
</event>
<event>
 5   0  0.1628397E-04  0.1801301E+04  0.7818609E-02  0.8705608E-01
       -2   -1    0    0    0  501  0.00000000000E+00  0.00000000000E+00  0.31166432376E+03  0.31166432377E+03  0.25500000920E-02 0. -1.
        2   -1    0    0  501    0  0.00000000000E+00  0.00000000000E+00 -0.26027087517E+04  0.26027087517E+04  0.25500000920E-02 0.  1.
    10030    2    1    2    0    0  0.00000000000E+00  0.00000000000E+00 -0.22910444279E+04  0.29143730755E+04  0.18013011553E+04 0.  0.
        3    1    3    3  502    0 -0.61866560142E+01  0.75513870897E+03 -0.35142064490E+03  0.83292810275E+03  0.10100000352E+00 0. -1.
       -3    1    3    3    0  502  0.61866560142E+01 -0.75513870897E+03 -0.19396237830E+04  0.20814449727E+04  0.10100000352E+00 0.  1.
</event>
<event>
 5   0  0.8132598E-05  0.1842588E+04  0.7818609E-02  0.8683974E-01
       -1   -1    0    0    0  501  0.00000000000E+00  0.00000000000E+00  0.73459389268E+03  0.73459389270E+03  0.50400001928E-02 0.  1.
        1   -1    0    0  501    0  0.00000000000E+00  0.00000000000E+00 -0.11554450565E+04  0.11554450565E+04  0.50400001928E-02 0. -1.
    10030    2    1    2    0    0  0.00000000000E+00  0.00000000000E+00 -0.42085116382E+03  0.18900389492E+04  0.18425882686E+04 0.  0.
        3    1    3    3  502    0  0.61837942934E+03  0.68069531434E+03 -0.26701552289E+03  0.95762024272E+03  0.10100000352E+00 0. -1.
       -3    1    3    3    0  502 -0.61837942934E+03 -0.68069531434E+03 -0.15383564092E+03  0.93241870649E+03  0.10100000352E+00 0.  1.
</event>
<event>
 5   0  0.8492114E-05  0.1820773E+04  0.7818609E-02  0.8695330E-01
       -1   -1    0    0    0  501  0.00000000000E+00  0.00000000000E+00  0.11078010931E+04  0.11078010931E+04  0.50400001928E-02 0. -1.
        1   -1    0    0  501    0  0.00000000000E+00  0.00000000000E+00 -0.74815185333E+03  0.74815185334E+03  0.50400001928E-02 0.  1.
    10030    2    1    2    0    0  0.00000000000E+00  0.00000000000E+00  0.35964923975E+03  0.18559529464E+04  0.18207728479E+04 0.  0.
        2    1    3    3  502    0 -0.90861805377E+02 -0.68403598865E+03 -0.42548617645E+03  0.81067847375E+03  0.25500000920E-02 0.  1.
       -2    1    3    3    0  502  0.90861805377E+02  0.68403598865E+03  0.78513541620E+03  0.10452744727E+04  0.25500000920E-02 0. -1.
</event>
<event>
 5   0  0.8492114E-05  0.1803527E+04  0.7818609E-02  0.8704426E-01
       -1   -1    0    0    0  501  0.00000000000E+00  0.00000000000E+00  0.13028852868E+04  0.13028852868E+04  0.50400001928E-02 0. -1.
        1   -1    0    0  501    0  0.00000000000E+00  0.00000000000E+00 -0.62413560635E+03  0.62413560637E+03  0.50400001928E-02 0.  1.
    10030    2    1    2    0    0  0.00000000000E+00  0.00000000000E+00  0.67874968046E+03  0.19270208932E+04  0.18035266547E+04 0.  0.
        2    1    3    3  502    0 -0.15233804524E+03 -0.70451909284E+02  0.12860490655E+04  0.12969551073E+04  0.25500000920E-02 0. -1.
       -2    1    3    3    0  502  0.15233804524E+03  0.70451909284E+02 -0.60729938499E+03  0.63006578591E+03  0.25500000920E-02 0.  1.
</event>
<event>
 5   0  0.1549012E-04  0.1796924E+04  0.7818609E-02  0.8707937E-01
        2   -1    0    0  501    0  0.00000000000E+00  0.00000000000E+00  0.19001696001E+04  0.19001696001E+04  0.25500000920E-02 0. -1.
       -2   -1    0    0    0  501  0.00000000000E+00  0.00000000000E+00 -0.42482227366E+03  0.42482227367E+03  0.25500000920E-02 0.  1.
    10030    2    1    2    0    0  0.00000000000E+00  0.00000000000E+00  0.14753473264E+04  0.23249918738E+04  0.17969244501E+04 0.  0.
        4    1    3    3  502    0 -0.16712431451E+03  0.85549811581E+03  0.45590273623E+03  0.98369531892E+03  0.12699999809E+01 0.  1.
       -4    1    3    3    0  502  0.16712431451E+03 -0.85549811581E+03  0.10194445902E+04  0.13412965548E+04  0.12699999809E+01 0. -1.
</event>
<event>
 5   0  0.8206783E-05  0.1798404E+04  0.7818609E-02  0.8707148E-01
       -1   -1    0    0    0  501  0.00000000000E+00  0.00000000000E+00  0.12416753407E+04  0.12416753407E+04  0.50400001928E-02 0.  1.
        1   -1    0    0  501    0  0.00000000000E+00  0.00000000000E+00 -0.65118835401E+03  0.65118835403E+03  0.50400001928E-02 0. -1.
    10030    2    1    2    0    0  0.00000000000E+00  0.00000000000E+00  0.59048698670E+03  0.18928636948E+04  0.17984043165E+04 0.  0.
        1    1    3    3  502    0  0.55478652486E+03 -0.47616267618E+03 -0.25574607127E+03  0.77454827825E+03  0.50400001928E-02 0. -1.
       -1    1    3    3    0  502 -0.55478652486E+03  0.47616267618E+03  0.84623305797E+03  0.11183154165E+04  0.50400001928E-02 0.  1.
</event>
<event>
 5   0  0.8206783E-05  0.1803157E+04  0.7818609E-02  0.8704622E-01
        1   -1    0    0  501    0  0.00000000000E+00  0.00000000000E+00  0.14515485120E+04  0.14515485120E+04  0.50400001928E-02 0. -1.
       -1   -1    0    0    0  501  0.00000000000E+00  0.00000000000E+00 -0.55998415699E+03  0.55998415701E+03  0.50400001928E-02 0.  1.
    10030    2    1    2    0    0  0.00000000000E+00  0.00000000000E+00  0.89156435498E+03  0.20115326690E+04  0.18031574194E+04 0.  0.
        1    1    3    3  502    0 -0.12750921323E+03  0.15112652800E+03 -0.53549738054E+03  0.57083734243E+03  0.50400001928E-02 0.  1.
       -1    1    3    3    0  502  0.12750921323E+03 -0.15112652800E+03  0.14270617355E+04  0.14406953266E+04  0.50400001928E-02 0. -1.
</event>
<event>
 5   0  0.1603564E-04  0.1797998E+04  0.7818609E-02  0.8707365E-01
        2   -1    0    0  501    0  0.00000000000E+00  0.00000000000E+00  0.16068265224E+04  0.16068265224E+04  0.25500000920E-02 0. -1.
       -2   -1    0    0    0  501  0.00000000000E+00  0.00000000000E+00 -0.50297847592E+03  0.50297847593E+03  0.25500000920E-02 0.  1.
    10030    2    1    2    0    0  0.00000000000E+00  0.00000000000E+00  0.11038480465E+04  0.21098049984E+04  0.17979979481E+04 0.  0.
        5    1    3    3  502    0  0.11118631120E+03 -0.59573041936E+03  0.13310954059E+04  0.14625642543E+04  0.46999998093E+01 0. -1.
       -5    1    3    3    0  502 -0.11118631120E+03  0.59573041936E+03 -0.22724735944E+03  0.64724074402E+03  0.46999998093E+01 0.  1.
</event>
<event>
 5   0  0.1573981E-04  0.1740881E+04  0.7818609E-02  0.8738386E-01
        2   -1    0    0  501    0  0.00000000000E+00  0.00000000000E+00  0.26935461232E+04  0.26935461232E+04  0.25500000920E-02 0. -1.
       -2   -1    0    0    0  501  0.00000000000E+00  0.00000000000E+00 -0.28128953377E+03  0.28128953378E+03  0.25500000920E-02 0.  1.
    10030    2    1    2    0    0  0.00000000000E+00  0.00000000000E+00  0.24122565894E+04  0.29748356570E+04  0.17408806199E+04 0.  0.
        1    1    3    3  502    0  0.24919936656E+02  0.66598256847E+02  0.26885746295E+04  0.26895148019E+04  0.50400001928E-02 0. -1.
       -1    1    3    3    0  502 -0.24919936656E+02 -0.66598256847E+02 -0.27631804008E+03  0.28532085511E+03  0.50400001928E-02 0.  1.
</event>
<event>
 5   0  0.1573981E-04  0.1776524E+04  0.7818609E-02  0.8718884E-01
        2   -1    0    0  501    0  0.00000000000E+00  0.00000000000E+00  0.12197825898E+04  0.12197825898E+04  0.25500000920E-02 0.  1.
       -2   -1    0    0    0  501  0.00000000000E+00  0.00000000000E+00 -0.64684447073E+03  0.64684447073E+03  0.25500000920E-02 0. -1.
    10030    2    1    2    0    0  0.00000000000E+00  0.00000000000E+00  0.57293811911E+03  0.18666270606E+04  0.17765242737E+04 0.  0.
        1    1    3    3  502    0  0.31238860706E+03 -0.66712805857E+03 -0.23505490911E+03  0.77323819013E+03  0.50400001928E-02 0. -1.
       -1    1    3    3    0  502 -0.31238860706E+03  0.66712805857E+03  0.80799302822E+03  0.10933888705E+04  0.50400001928E-02 0.  1.
</event>
<event>
 5   0  0.8132598E-05  0.1834014E+04  0.7818609E-02  0.8688417E-01
        1   -1    0    0  501    0  0.00000000000E+00  0.00000000000E+00  0.13132217809E+04  0.13132217809E+04  0.50400001928E-02 0.  1.
       -1   -1    0    0    0  501  0.00000000000E+00  0.00000000000E+00 -0.64033500837E+03  0.64033500839E+03  0.50400001928E-02 0. -1.
    10030    2    1    2    0    0  0.00000000000E+00  0.00000000000E+00  0.67288677255E+03  0.19535567893E+04  0.18340140459E+04 0.  0.
        3    1    3    3  502    0  0.69668488750E+03 -0.33358661910E+03  0.86287559376E+03  0.11581036937E+04  0.10100000352E+00 0.  1.
       -3    1    3    3    0  502 -0.69668488750E+03  0.33358661910E+03 -0.18998882121E+03  0.79545309559E+03  0.10100000352E+00 0. -1.
</event>
<event>
 5   0  0.1603564E-04  0.1804358E+04  0.7818609E-02  0.8703985E-01
        2   -1    0    0  501    0  0.00000000000E+00  0.00000000000E+00  0.15582005495E+04  0.15582005495E+04  0.25500000920E-02 0. -1.
       -2   -1    0    0    0  501  0.00000000000E+00  0.00000000000E+00 -0.52235076118E+03  0.52235076119E+03  0.25500000920E-02 0.  1.
    10030    2    1    2    0    0  0.00000000000E+00  0.00000000000E+00  0.10358497883E+04  0.20805513107E+04  0.18043583271E+04 0.  0.
        5    1    3    3  502    0  0.87830544818E+03  0.52126236375E+02  0.74786781902E+03  0.11547579701E+04  0.46999998093E+01 0. -1.
       -5    1    3    3    0  502 -0.87830544818E+03 -0.52126236375E+02  0.28798196931E+03  0.92579334058E+03  0.46999998093E+01 0.  1.
</event>
<event>
 5   0  0.1608627E-04  0.1793227E+04  0.7818609E-02  0.8709910E-01
        2   -1    0    0  501    0  0.00000000000E+00  0.00000000000E+00  0.68222726257E+03  0.68222726258E+03  0.25500000920E-02 0.  1.
       -2   -1    0    0    0  501  0.00000000000E+00  0.00000000000E+00 -0.11783696050E+04  0.11783696050E+04  0.25500000920E-02 0. -1.
    10030    2    1    2    0    0  0.00000000000E+00  0.00000000000E+00 -0.49614234246E+03  0.18605968676E+04  0.17932271133E+04 0.  0.
        2    1    3    3  502    0 -0.68147214491E+03  0.36001014871E+03  0.22729430133E+03  0.80353860572E+03  0.25500000920E-02 0.  1.
       -2    1    3    3    0  502  0.68147214491E+03 -0.36001014871E+03 -0.72343664379E+03  0.10570582619E+04  0.25500000920E-02 0. -1.
</event>
<event>
 5   0  0.8430513E-05  0.1793964E+04  0.7818609E-02  0.8709516E-01
        1   -1    0    0  501    0  0.00000000000E+00  0.00000000000E+00  0.13114411298E+04  0.13114411298E+04  0.50400001928E-02 0. -1.
       -1   -1    0    0    0  501  0.00000000000E+00  0.00000000000E+00 -0.61350558932E+03  0.61350558934E+03  0.50400001928E-02 0.  1.
    10030    2    1    2    0    0  0.00000000000E+00  0.00000000000E+00  0.69793554052E+03  0.19249467192E+04  0.17939637268E+04 0.  0.
        5    1    3    3  502    0  0.81523289753E+03 -0.30539120328E+03  0.58081289351E+03  0.10465343623E+04  0.46999998093E+01 0.  1.
       -5    1    3    3    0  502 -0.81523289753E+03  0.30539120328E+03  0.11712264701E+03  0.87841235687E+03  0.46999998093E+01 0. -1.
</event>
<event>
 5   0  0.1573981E-04  0.1798416E+04  0.7818609E-02  0.8707142E-01
        2   -1    0    0  501    0  0.00000000000E+00  0.00000000000E+00  0.25590891812E+04  0.25590891812E+04  0.25500000920E-02 0. -1.
       -2   -1    0    0    0  501  0.00000000000E+00  0.00000000000E+00 -0.31596199603E+03  0.31596199604E+03  0.25500000920E-02 0.  1.
    10030    2    1    2    0    0  0.00000000000E+00  0.00000000000E+00  0.22431271852E+04  0.28750511772E+04  0.17984158871E+04 0.  0.
        1    1    3    3  502    0  0.52219115681E+03  0.18831578785E+03 -0.93422835899E+01  0.55518800283E+03  0.50400001928E-02 0.  1.
       -1    1    3    3    0  502 -0.52219115681E+03 -0.18831578785E+03  0.22524694688E+04  0.23198631744E+04  0.50400001928E-02 0. -1.
</event>
<event>
 5   0  0.1549012E-04  0.1812082E+04  0.7818609E-02  0.8699900E-01
        2   -1    0    0  501    0  0.00000000000E+00  0.00000000000E+00  0.14609960377E+04  0.14609960377E+04  0.25500000920E-02 0. -1.
       -2   -1    0    0    0  501  0.00000000000E+00  0.00000000000E+00 -0.56188429357E+03  0.56188429358E+03  0.25500000920E-02 0.  1.
    10030    2    1    2    0    0  0.00000000000E+00  0.00000000000E+00  0.89911174412E+03  0.20228803313E+04  0.18120824778E+04 0.  0.
        4    1    3    3  502    0 -0.37010993620E+03  0.73681434012E+03  0.86878518719E+03  0.11977754594E+04  0.12699999809E+01 0. -1.
       -4    1    3    3    0  502  0.37010993620E+03 -0.73681434012E+03  0.30326556929E+02  0.82510487190E+03  0.12699999809E+01 0.  1.
</event>
<event>
 5   0  0.1573981E-04  0.1814786E+04  0.7818609E-02  0.8698476E-01
        2   -1    0    0  501    0  0.00000000000E+00  0.00000000000E+00  0.13432524698E+04  0.13432524698E+04  0.25500000920E-02 0.  1.
       -2   -1    0    0    0  501  0.00000000000E+00  0.00000000000E+00 -0.61296166206E+03  0.61296166206E+03  0.25500000920E-02 0. -1.
    10030    2    1    2    0    0  0.00000000000E+00  0.00000000000E+00  0.73029080775E+03  0.19562141319E+04  0.18147862314E+04 0.  0.
        1    1    3    3  502    0  0.12626959319E+03 -0.39959483948E+03 -0.50239961221E+03  0.65423651402E+03  0.50400001928E-02 0. -1.
       -1    1    3    3    0  502 -0.12626959319E+03  0.39959483948E+03  0.12326904200E+04  0.13019776178E+04  0.50400001928E-02 0.  1.
</event>
<event>
 5   0  0.1608627E-04  0.1777771E+04  0.7818609E-02  0.8718210E-01
       -2   -1    0    0    0  501  0.00000000000E+00  0.00000000000E+00  0.12092281785E+04  0.12092281785E+04  0.25500000920E-02 0.  1.
        2   -1    0    0  501    0  0.00000000000E+00  0.00000000000E+00 -0.65340671395E+03  0.65340671396E+03  0.25500000920E-02 0. -1.
    10030    2    1    2    0    0  0.00000000000E+00  0.00000000000E+00  0.55582146456E+03  0.18626348925E+04  0.17777714257E+04 0.  0.
        2    1    3    3  502    0 -0.48352025514E+03 -0.30961035109E+03 -0.43305924032E+03  0.71915972653E+03  0.25500000920E-02 0. -1.
       -2    1    3    3    0  502  0.48352025514E+03  0.30961035109E+03  0.98888070488E+03  0.11434751659E+04  0.25500000920E-02 0.  1.
</event>
<event>
 5   0  0.8492114E-05  0.1794871E+04  0.7818609E-02  0.8709032E-01
       -1   -1    0    0    0  501  0.00000000000E+00  0.00000000000E+00  0.42288953194E+03  0.42288953197E+03  0.50400001928E-02 0.  1.
        1   -1    0    0  501    0  0.00000000000E+00  0.00000000000E+00 -0.19044944657E+04  0.19044944657E+04  0.50400001928E-02 0. -1.
    10030    2    1    2    0    0  0.00000000000E+00  0.00000000000E+00 -0.14816049338E+04  0.23273839977E+04  0.17948713305E+04 0.  0.
        2    1    3    3  502    0 -0.18441933064E+03 -0.14428871426E+03  0.38258024240E+03  0.44855029201E+03  0.25500000920E-02 0.  1.
       -2    1    3    3    0  502  0.18441933064E+03  0.14428871426E+03 -0.18641851762E+04  0.18788337057E+04  0.25500000920E-02 0. -1.
</event>
<event>
 5   0  0.8492114E-05  0.1805132E+04  0.7818609E-02  0.8703575E-01
       -1   -1    0    0    0  501  0.00000000000E+00  0.00000000000E+00  0.76357780988E+03  0.76357780990E+03  0.50400001928E-02 0.  1.
        1   -1    0    0  501    0  0.00000000000E+00  0.00000000000E+00 -0.10668531951E+04  0.10668531951E+04  0.50400001928E-02 0. -1.
    10030    2    1    2    0    0  0.00000000000E+00  0.00000000000E+00 -0.30327538518E+03  0.18304310050E+04  0.18051320463E+04 0.  0.
        2    1    3    3  502    0  0.50587181889E+03  0.66837170296E+03 -0.49098959496E+03  0.97144110106E+03  0.25500000920E-02 0. -1.
       -2    1    3    3    0  502 -0.50587181889E+03 -0.66837170296E+03  0.18771420978E+03  0.85898990391E+03  0.25500000920E-02 0.  1.
</event>
<event>
 5   0  0.1573981E-04  0.1801181E+04  0.7818609E-02  0.8705672E-01
        2   -1    0    0  501    0  0.00000000000E+00  0.00000000000E+00  0.70067697764E+03  0.70067697765E+03  0.25500000920E-02 0. -1.
       -2   -1    0    0    0  501  0.00000000000E+00  0.00000000000E+00 -0.11575423146E+04  0.11575423146E+04  0.25500000920E-02 0.  1.
    10030    2    1    2    0    0  0.00000000000E+00  0.00000000000E+00 -0.45686533692E+03  0.18582192922E+04  0.18011810020E+04 0.  0.
        1    1    3    3  502    0  0.58692697725E+03 -0.23699825460E+03 -0.88935363171E+03  0.10916049338E+04  0.50400001928E-02 0.  1.
       -1    1    3    3    0  502 -0.58692697725E+03  0.23699825460E+03  0.43248829479E+03  0.76661435837E+03  0.50400001928E-02 0. -1.
</event>
<event>
 5   0  0.8206783E-05  0.1798251E+04  0.7818609E-02  0.8707230E-01
       -1   -1    0    0    0  501  0.00000000000E+00  0.00000000000E+00  0.93956697445E+03  0.93956697446E+03  0.50400001928E-02 0.  1.
        1   -1    0    0  501    0  0.00000000000E+00  0.00000000000E+00 -0.86042440915E+03  0.86042440916E+03  0.50400001928E-02 0. -1.
    10030    2    1    2    0    0  0.00000000000E+00  0.00000000000E+00  0.79142565300E+02  0.17999913836E+04  0.17982506598E+04 0.  0.
        1    1    3    3  502    0  0.12878100318E+03 -0.30465392514E+03 -0.79731687245E+03  0.86319914041E+03  0.50400001928E-02 0. -1.
       -1    1    3    3    0  502 -0.12878100318E+03  0.30465392514E+03  0.87645943775E+03  0.93679224321E+03  0.50400001928E-02 0.  1.
</event>
<event>
 5   0  0.8430513E-05  0.1799773E+04  0.7818609E-02  0.8706420E-01
       -1   -1    0    0    0  501  0.00000000000E+00  0.00000000000E+00  0.25534925308E+04  0.25534925309E+04  0.50400001928E-02 0.  1.
        1   -1    0    0  501    0  0.00000000000E+00  0.00000000000E+00 -0.31713259063E+03  0.31713259067E+03  0.50400001928E-02 0. -1.
    10030    2    1    2    0    0  0.00000000000E+00  0.00000000000E+00  0.22363599402E+04  0.28706251215E+04  0.17997729874E+04 0.  0.
        5    1    3    3  502    0  0.45616881050E+03 -0.54030860971E+03  0.20058766050E+04  0.21268724508E+04  0.46999998093E+01 0.  1.
       -5    1    3    3    0  502 -0.45616881050E+03  0.54030860971E+03  0.23048333520E+03  0.74375267072E+03  0.46999998093E+01 0. -1.
</event>
<event>
 5   0  0.1573981E-04  0.1791612E+04  0.7818609E-02  0.8710773E-01
        2   -1    0    0  501    0  0.00000000000E+00  0.00000000000E+00  0.94841068552E+03  0.94841068553E+03  0.25500000920E-02 0.  1.
       -2   -1    0    0    0  501  0.00000000000E+00  0.00000000000E+00 -0.84611931250E+03  0.84611931250E+03  0.25500000920E-02 0. -1.
    10030    2    1    2    0    0  0.00000000000E+00  0.00000000000E+00  0.10229137302E+03  0.17945299980E+04  0.17916122317E+04 0.  0.
        1    1    3    3  502    0 -0.29943812504E+03 -0.43813683824E+03 -0.67172314861E+03  0.85606020125E+03  0.50400001928E-02 0. -1.
       -1    1    3    3    0  502  0.29943812504E+03  0.43813683824E+03  0.77401452164E+03  0.93846979678E+03  0.50400001928E-02 0.  1.
</event>
<event>
 5   0  0.8254914E-05  0.1722684E+04  0.7818609E-02  0.8748531E-01
        1   -1    0    0  501    0  0.00000000000E+00  0.00000000000E+00  0.14856801235E+04  0.14856801235E+04  0.50400001928E-02 0. -1.
       -1   -1    0    0    0  501  0.00000000000E+00  0.00000000000E+00 -0.49937411555E+03  0.49937411557E+03  0.50400001928E-02 0.  1.
    10030    2    1    2    0    0  0.00000000000E+00  0.00000000000E+00  0.98630600798E+03  0.19850542391E+04  0.17226841820E+04 0.  0.
        4    1    3    3  502    0  0.19829661001E+03 -0.83645304879E+03  0.43074394277E+03  0.96151817742E+03  0.12699999809E+01 0.  1.
       -4    1    3    3    0  502 -0.19829661001E+03  0.83645304879E+03  0.55556206520E+03  0.10235360617E+04  0.12699999809E+01 0. -1.
</event>
<event>
 5   0  0.1608627E-04  0.1775019E+04  0.7818609E-02  0.8719698E-01
        2   -1    0    0  501    0  0.00000000000E+00  0.00000000000E+00  0.13595377763E+04  0.13595377763E+04  0.25500000920E-02 0.  1.
       -2   -1    0    0    0  501  0.00000000000E+00  0.00000000000E+00 -0.57936833410E+03  0.57936833411E+03  0.25500000920E-02 0. -1.
    10030    2    1    2    0    0  0.00000000000E+00  0.00000000000E+00  0.78016944219E+03  0.19389061104E+04  0.17750190271E+04 0.  0.
        2    1    3    3  502    0  0.42364159977E+03  0.66534001942E+03  0.83449461103E+03  0.11482729651E+04  0.25500000920E-02 0.  1.
       -2    1    3    3    0  502 -0.42364159977E+03 -0.66534001942E+03 -0.54325168839E+02  0.79063314532E+03  0.25500000920E-02 0. -1.
</event>
<event>
 5   0  0.8254914E-05  0.1801789E+04  0.7818609E-02  0.8705349E-01
       -1   -1    0    0    0  501  0.00000000000E+00  0.00000000000E+00  0.77690055274E+03  0.77690055275E+03  0.50400001928E-02 0. -1.
        1   -1    0    0  501    0  0.00000000000E+00  0.00000000000E+00 -0.10446775406E+04  0.10446775406E+04  0.50400001928E-02 0.  1.
    10030    2    1    2    0    0  0.00000000000E+00  0.00000000000E+00 -0.26777698784E+03  0.18215780933E+04  0.18017886210E+04 0.  0.
        4    1    3    3  502    0  0.51753243076E+02  0.14082232117E+03 -0.10319578392E+04  0.10428077095E+04  0.12699999809E+01 0.  1.
       -4    1    3    3    0  502 -0.51753243076E+02 -0.14082232117E+03  0.76418085132E+03  0.77877038383E+03  0.12699999809E+01 0. -1.
</event>
<event>
 5   0  0.8206783E-05  0.1731448E+04  0.7818609E-02  0.8743629E-01
       -1   -1    0    0    0  501  0.00000000000E+00  0.00000000000E+00  0.62535749742E+03  0.62535749744E+03  0.50400001928E-02 0.  1.
        1   -1    0    0  501    0  0.00000000000E+00  0.00000000000E+00 -0.11984792457E+04  0.11984792457E+04  0.50400001928E-02 0. -1.
    10030    2    1    2    0    0  0.00000000000E+00  0.00000000000E+00 -0.57312174829E+03  0.18238367432E+04  0.17314479280E+04 0.  0.
        1    1    3    3  502    0 -0.22670084032E+03  0.18680149406E+03  0.57125777114E+03  0.64235777437E+03  0.50400001928E-02 0.  1.
       -1    1    3    3    0  502  0.22670084032E+03 -0.18680149406E+03 -0.11443795194E+04  0.11814789688E+04  0.50400001928E-02 0. -1.
</event>
<event>
 5   0  0.1603564E-04  0.1796550E+04  0.7818609E-02  0.8708136E-01
       -2   -1    0    0    0  501  0.00000000000E+00  0.00000000000E+00  0.40678791774E+03  0.40678791775E+03  0.25500000920E-02 0.  1.
        2   -1    0    0  501    0  0.00000000000E+00  0.00000000000E+00 -0.19835843930E+04  0.19835843930E+04  0.25500000920E-02 0. -1.
    10030    2    1    2    0    0  0.00000000000E+00  0.00000000000E+00 -0.15767964753E+04  0.23903723108E+04  0.17965502107E+04 0.  0.
        5    1    3    3  502    0 -0.65810255255E+03  0.37106569768E+03 -0.14190713601E+03  0.76873171322E+03  0.46999998093E+01 0.  1.
       -5    1    3    3    0  502  0.65810255255E+03 -0.37106569768E+03 -0.14348893393E+04  0.16216405975E+04  0.46999998093E+01 0. -1.
</event>
<event>
 5   0  0.8132598E-05  0.1822170E+04  0.7818609E-02  0.8694598E-01
       -1   -1    0    0    0  501  0.00000000000E+00  0.00000000000E+00  0.12622458388E+04  0.12622458388E+04  0.50400001928E-02 0.  1.
        1   -1    0    0  501    0  0.00000000000E+00  0.00000000000E+00 -0.65761855577E+03  0.65761855579E+03  0.50400001928E-02 0. -1.
    10030    2    1    2    0    0  0.00000000000E+00  0.00000000000E+00  0.60462728307E+03  0.19198643946E+04  0.18221704482E+04 0.  0.
        3    1    3    3  502    0  0.32761045325E+03  0.64940653678E+02  0.11954219350E+04  0.12412008340E+04  0.10100000352E+00 0.  1.
       -3    1    3    3    0  502 -0.32761045325E+03 -0.64940653678E+02 -0.59079465190E+03  0.67866356061E+03  0.10100000352E+00 0. -1.
</event>
<event>
 5   0  0.8430513E-05  0.1791627E+04  0.7818609E-02  0.8710765E-01
       -1   -1    0    0    0  501  0.00000000000E+00  0.00000000000E+00  0.75325994555E+03  0.75325994556E+03  0.50400001928E-02 0.  1.
        1   -1    0    0  501    0  0.00000000000E+00  0.00000000000E+00 -0.10653454120E+04  0.10653454120E+04  0.50400001928E-02 0. -1.
    10030    2    1    2    0    0  0.00000000000E+00  0.00000000000E+00 -0.31208546647E+03  0.18186053576E+04  0.17916272236E+04 0.  0.
        5    1    3    3  502    0  0.27440245816E+03  0.26689769114E+03 -0.97813238224E+03  0.10503790429E+04  0.46999998093E+01 0. -1.
       -5    1    3    3    0  502 -0.27440245816E+03 -0.26689769114E+03  0.66604691577E+03  0.76822631469E+03  0.46999998093E+01 0.  1.
</event>
<event>
 5   0  0.1608627E-04  0.1813581E+04  0.7818609E-02  0.8699110E-01
       -2   -1    0    0    0  501  0.00000000000E+00  0.00000000000E+00  0.66912164692E+03  0.66912164692E+03  0.25500000920E-02 0. -1.
        2   -1    0    0  501    0  0.00000000000E+00  0.00000000000E+00 -0.12288783493E+04  0.12288783493E+04  0.25500000920E-02 0.  1.
    10030    2    1    2    0    0  0.00000000000E+00  0.00000000000E+00 -0.55975670242E+03  0.18979999963E+04  0.18135811038E+04 0.  0.
        2    1    3    3  502    0 -0.16550829633E+03 -0.28774167878E+02 -0.12124509398E+04  0.12240335903E+04  0.25500000920E-02 0.  1.
       -2    1    3    3    0  502  0.16550829633E+03  0.28774167878E+02  0.65269423734E+03  0.67396640595E+03  0.25500000920E-02 0. -1.
</event>
<event>
 5   0  0.1549012E-04  0.1806000E+04  0.7818609E-02  0.8703115E-01
        2   -1    0    0  501    0  0.00000000000E+00  0.00000000000E+00  0.14106893674E+04  0.14106893674E+04  0.25500000920E-02 0. -1.
       -2   -1    0    0    0  501  0.00000000000E+00  0.00000000000E+00 -0.57802179018E+03  0.57802179019E+03  0.25500000920E-02 0.  1.
    10030    2    1    2    0    0  0.00000000000E+00  0.00000000000E+00  0.83266757722E+03  0.19887111576E+04  0.18060002143E+04 0.  0.
        4    1    3    3  502    0 -0.71134050348E+03  0.22555404845E+03  0.97622983865E+03  0.12287824264E+04  0.12699999809E+01 0. -1.
       -4    1    3    3    0  502  0.71134050348E+03 -0.22555404845E+03 -0.14356226143E+03  0.75992873118E+03  0.12699999809E+01 0.  1.
</event>
<event>
 5   0  0.8132598E-05  0.1789359E+04  0.7818609E-02  0.8711979E-01
       -1   -1    0    0    0  501  0.00000000000E+00  0.00000000000E+00  0.10638330311E+04  0.10638330312E+04  0.50400001928E-02 0. -1.
        1   -1    0    0  501    0  0.00000000000E+00  0.00000000000E+00 -0.75242174984E+03  0.75242174985E+03  0.50400001928E-02 0.  1.
    10030    2    1    2    0    0  0.00000000000E+00  0.00000000000E+00  0.31141128131E+03  0.18162547810E+04  0.17893586682E+04 0.  0.
        3    1    3    3  502    0  0.18906435778E+03  0.82124922597E+03 -0.14923559418E+03  0.85584279825E+03  0.10100000352E+00 0.  1.
       -3    1    3    3    0  502 -0.18906435778E+03 -0.82124922597E+03  0.46064687549E+03  0.96041198277E+03  0.10100000352E+00 0. -1.
</event>
<event>
 5   0  0.1608627E-04  0.1799878E+04  0.7818609E-02  0.8706365E-01
        2   -1    0    0  501    0  0.00000000000E+00  0.00000000000E+00  0.82940099809E+03  0.82940099809E+03  0.25500000920E-02 0. -1.
       -2   -1    0    0    0  501  0.00000000000E+00  0.00000000000E+00 -0.97647567036E+03  0.97647567036E+03  0.25500000920E-02 0.  1.
    10030    2    1    2    0    0  0.00000000000E+00  0.00000000000E+00 -0.14707467227E+03  0.18058766685E+04  0.17998776576E+04 0.  0.
        2    1    3    3  502    0  0.73669066534E+03 -0.99576452469E+02  0.43536251284E+03  0.86149238179E+03  0.25500000920E-02 0. -1.
       -2    1    3    3    0  502 -0.73669066534E+03  0.99576452469E+02 -0.58243718511E+03  0.94438428666E+03  0.25500000920E-02 0.  1.
</event>
<event>
 5   0  0.1549012E-04  0.1803443E+04  0.7818609E-02  0.8704470E-01
       -2   -1    0    0    0  501  0.00000000000E+00  0.00000000000E+00  0.61044415723E+03  0.61044415723E+03  0.25500000920E-02 0.  1.
        2   -1    0    0  501    0  0.00000000000E+00  0.00000000000E+00 -0.13319843707E+04  0.13319843707E+04  0.25500000920E-02 0. -1.
    10030    2    1    2    0    0  0.00000000000E+00  0.00000000000E+00 -0.72154021349E+03  0.19424285280E+04  0.18034434581E+04 0.  0.
        4    1    3    3  502    0 -0.38778374477E+03 -0.69887844359E+03  0.88888260468E+02  0.80418284449E+03  0.12699999809E+01 0.  1.
       -4    1    3    3    0  502  0.38778374477E+03  0.69887844359E+03 -0.81042847396E+03  0.11382456835E+04  0.12699999809E+01 0. -1.
</event>
<event>
 5   0  0.1628397E-04  0.1785672E+04  0.7818609E-02  0.8713956E-01
        2   -1    0    0  501    0  0.00000000000E+00  0.00000000000E+00  0.48010480742E+03  0.48010480742E+03  0.25500000920E-02 0. -1.
       -2   -1    0    0    0  501  0.00000000000E+00  0.00000000000E+00 -0.16603789130E+04  0.16603789130E+04  0.25500000920E-02 0.  1.
    10030    2    1    2    0    0  0.00000000000E+00  0.00000000000E+00 -0.11802741056E+04  0.21404837204E+04  0.17856717484E+04 0.  0.
        3    1    3    3  502    0  0.15688710755E+03  0.86052248927E+03 -0.80471218414E+03  0.11885597286E+04  0.10100000352E+00 0.  1.
       -3    1    3    3    0  502 -0.15688710755E+03 -0.86052248927E+03 -0.37556192142E+03  0.95192399176E+03  0.10100000352E+00 0. -1.
</event>
<event>
 5   0  0.8430513E-05  0.1783283E+04  0.7818609E-02  0.8715240E-01
        1   -1    0    0  501    0  0.00000000000E+00  0.00000000000E+00  0.84654663696E+03  0.84654663698E+03  0.50400001928E-02 0.  1.
       -1   -1    0    0    0  501  0.00000000000E+00  0.00000000000E+00 -0.93913809667E+03  0.93913809668E+03  0.50400001928E-02 0. -1.
    10030    2    1    2    0    0  0.00000000000E+00  0.00000000000E+00 -0.92591459705E+02  0.17856847337E+04  0.17832825883E+04 0.  0.
        5    1    3    3  502    0 -0.83117939101E+03 -0.24560607665E+03 -0.25591137278E+03  0.90371137298E+03  0.46999998093E+01 0.  1.
       -5    1    3    3    0  502  0.83117939101E+03  0.24560607665E+03  0.16331991308E+03  0.88197336068E+03  0.46999998093E+01 0. -1.
</event>
<event>
 5   0  0.1608627E-04  0.1800998E+04  0.7818609E-02  0.8705769E-01
       -2   -1    0    0    0  501  0.00000000000E+00  0.00000000000E+00  0.86258850545E+03  0.86258850545E+03  0.25500000920E-02 0.  1.
        2   -1    0    0  501    0  0.00000000000E+00  0.00000000000E+00 -0.94007607967E+03  0.94007607967E+03  0.25500000920E-02 0. -1.
    10030    2    1    2    0    0  0.00000000000E+00  0.00000000000E+00 -0.77487574222E+02  0.18026645851E+04  0.18009984126E+04 0.  0.
        2    1    3    3  502    0 -0.32811368727E+03 -0.82313786747E+03  0.12166763685E+03  0.89443700421E+03  0.25500000920E-02 0. -1.
       -2    1    3    3    0  502  0.32811368727E+03  0.82313786747E+03 -0.19915521107E+03  0.90822758092E+03  0.25500000920E-02 0.  1.
</event>
<event>
 5   0  0.5820500E-05  0.1774061E+04  0.7818609E-02  0.8720216E-01
       -3   -1    0    0    0  501  0.00000000000E+00  0.00000000000E+00  0.33750071762E+03  0.33750073274E+03  0.10100000352E+00 0.  1.
        3   -1    0    0  501    0  0.00000000000E+00  0.00000000000E+00 -0.23313239664E+04  0.23313239686E+04  0.10100000352E+00 0. -1.
    10030    2    1    2    0    0  0.00000000000E+00  0.00000000000E+00 -0.19938232488E+04  0.26688247013E+04  0.17740614812E+04 0.  0.
        1    1    3    3  502    0  0.87416185287E+03 -0.14648193446E+03 -0.10491896043E+04  0.13734681386E+04  0.50400001928E-02 0. -1.
       -1    1    3    3    0  502 -0.87416185287E+03  0.14648193446E+03 -0.94463364449E+03  0.12953565627E+04  0.50400001928E-02 0.  1.
</event>
<event>
 5   0  0.8254914E-05  0.1737820E+04  0.7818609E-02  0.8740083E-01
       -1   -1    0    0    0  501  0.00000000000E+00  0.00000000000E+00  0.81867198338E+03  0.81867198340E+03  0.50400001928E-02 0. -1.
        1   -1    0    0  501    0  0.00000000000E+00  0.00000000000E+00 -0.92223076072E+03  0.92223076074E+03  0.50400001928E-02 0.  1.
    10030    2    1    2    0    0  0.00000000000E+00  0.00000000000E+00 -0.10355877734E+03  0.17409027441E+04  0.17378198825E+04 0.  0.
        4    1    3    3  502    0  0.64591738090E+03 -0.42829590607E+03 -0.44535830478E+03  0.89386368012E+03  0.12699999809E+01 0.  1.
       -4    1    3    3    0  502 -0.64591738090E+03  0.42829590607E+03  0.34179952744E+03  0.84703906401E+03  0.12699999809E+01 0. -1.
</event>
<event>
 5   0  0.1608627E-04  0.1803815E+04  0.7818609E-02  0.8704273E-01
       -2   -1    0    0    0  501  0.00000000000E+00  0.00000000000E+00  0.46555937010E+03  0.46555937011E+03  0.25500000920E-02 0.  1.
        2   -1    0    0  501    0  0.00000000000E+00  0.00000000000E+00 -0.17472261593E+04  0.17472261593E+04  0.25500000920E-02 0. -1.
    10030    2    1    2    0    0  0.00000000000E+00  0.00000000000E+00 -0.12816667892E+04  0.22127855294E+04  0.18038154120E+04 0.  0.
        2    1    3    3  502    0  0.16997465837E+03 -0.58972865209E+03 -0.14515550276E+04  0.15759705790E+04  0.25500000920E-02 0. -1.
       -2    1    3    3    0  502 -0.16997465837E+03  0.58972865209E+03  0.16988823840E+03  0.63681495046E+03  0.25500000920E-02 0.  1.
</event>
<event>
 5   0  0.8430513E-05  0.1825477E+04  0.7818609E-02  0.8692867E-01
       -1   -1    0    0    0  501  0.00000000000E+00  0.00000000000E+00  0.43728007918E+03  0.43728007921E+03  0.50400001928E-02 0. -1.
        1   -1    0    0  501    0  0.00000000000E+00  0.00000000000E+00 -0.19051660061E+04  0.19051660061E+04  0.50400001928E-02 0.  1.
    10030    2    1    2    0    0  0.00000000000E+00  0.00000000000E+00 -0.14678859269E+04  0.23424460853E+04  0.18254765318E+04 0.  0.
        5    1    3    3  502    0  0.16670722100E+03 -0.15989572620E+03  0.39913609055E+03  0.46118288083E+03  0.46999998093E+01 0. -1.
       -5    1    3    3    0  502 -0.16670722100E+03  0.15989572620E+03 -0.18670220175E+04  0.18812632045E+04  0.46999998093E+01 0.  1.
</event>
<event>
 5   0  0.8430513E-05  0.1787593E+04  0.7818609E-02  0.8712925E-01
        1   -1    0    0  501    0  0.00000000000E+00  0.00000000000E+00  0.92072631607E+03  0.92072631608E+03  0.50400001928E-02 0.  1.
       -1   -1    0    0    0  501  0.00000000000E+00  0.00000000000E+00 -0.86765440543E+03  0.86765440545E+03  0.50400001928E-02 0. -1.
    10030    2    1    2    0    0  0.00000000000E+00  0.00000000000E+00  0.53071910636E+02  0.17883807215E+04  0.17875930682E+04 0.  0.
        5    1    3    3  502    0 -0.57255836203E+02 -0.42403810434E+03  0.81158778006E+03  0.91748752550E+03  0.46999998093E+01 0.  1.
       -5    1    3    3    0  502  0.57255836203E+02  0.42403810434E+03 -0.75851586943E+03  0.87089319602E+03  0.46999998093E+01 0. -1.
</event>
<event>
 5   0  0.8132598E-05  0.1791224E+04  0.7818609E-02  0.8710980E-01
        1   -1    0    0  501    0  0.00000000000E+00  0.00000000000E+00  0.93592709130E+03  0.93592709131E+03  0.50400001928E-02 0.  1.
       -1   -1    0    0    0  501  0.00000000000E+00  0.00000000000E+00 -0.85703363675E+03  0.85703363677E+03  0.50400001928E-02 0. -1.
    10030    2    1    2    0    0  0.00000000000E+00  0.00000000000E+00  0.78893454543E+02  0.17929607281E+04  0.17912241611E+04 0.  0.
        3    1    3    3  502    0 -0.63624904922E+03  0.62152547392E+03  0.14449713361E+03  0.90110276838E+03  0.10100000352E+00 0. -1.
       -3    1    3    3    0  502  0.63624904922E+03 -0.62152547392E+03 -0.65603679063E+02  0.89185795970E+03  0.10100000352E+00 0.  1.
</event>
<event>
 5   0  0.8492114E-05  0.1815624E+04  0.7818609E-02  0.8698035E-01
       -1   -1    0    0    0  501  0.00000000000E+00  0.00000000000E+00  0.45568440258E+03  0.45568440260E+03  0.50400001928E-02 0. -1.
        1   -1    0    0  501    0  0.00000000000E+00  0.00000000000E+00 -0.18085380051E+04  0.18085380051E+04  0.50400001928E-02 0.  1.
    10030    2    1    2    0    0  0.00000000000E+00  0.00000000000E+00 -0.13528536025E+04  0.22642224077E+04  0.18156239263E+04 0.  0.
        2    1    3    3  502    0  0.75266113249E+03 -0.23324570581E+03 -0.11424517663E+03  0.79621247166E+03  0.25500000920E-02 0. -1.
       -2    1    3    3    0  502 -0.75266113249E+03  0.23324570581E+03 -0.12386084259E+04  0.14680099360E+04  0.25500000920E-02 0.  1.
</event>
<event>
 5   0  0.1603564E-04  0.1780881E+04  0.7818609E-02  0.8716534E-01
       -2   -1    0    0    0  501  0.00000000000E+00  0.00000000000E+00  0.12792773453E+04  0.12792773453E+04  0.25500000920E-02 0.  1.
        2   -1    0    0  501    0  0.00000000000E+00  0.00000000000E+00 -0.61979047916E+03  0.61979047917E+03  0.25500000920E-02 0. -1.
    10030    2    1    2    0    0  0.00000000000E+00  0.00000000000E+00  0.65948686609E+03  0.18990678244E+04  0.17808805898E+04 0.  0.
        5    1    3    3  502    0 -0.28863410424E+03 -0.64606672856E+03  0.90612302397E+03  0.11496925191E+04  0.46999998093E+01 0.  1.
       -5    1    3    3    0  502  0.28863410424E+03  0.64606672856E+03 -0.24663615788E+03  0.74937530534E+03  0.46999998093E+01 0. -1.
</event>
<event>
 5   0  0.8254914E-05  0.1793154E+04  0.7818609E-02  0.8709949E-01
        1   -1    0    0  501    0  0.00000000000E+00  0.00000000000E+00  0.11957091652E+04  0.11957091652E+04  0.50400001928E-02 0. -1.
       -1   -1    0    0    0  501  0.00000000000E+00  0.00000000000E+00 -0.67227875657E+03  0.67227875659E+03  0.50400001928E-02 0.  1.
    10030    2    1    2    0    0  0.00000000000E+00  0.00000000000E+00  0.52343040866E+03  0.18679879218E+04  0.17931535025E+04 0.  0.
        4    1    3    3  502    0 -0.22222142785E+03 -0.76904017338E+02 -0.63958088343E+03  0.68144105411E+03  0.12699999809E+01 0.  1.
       -4    1    3    3    0  502  0.22222142785E+03  0.76904017338E+02  0.11630112921E+04  0.11865468677E+04  0.12699999809E+01 0. -1.
</event>
<event>
 5   0  0.8430513E-05  0.1798071E+04  0.7818609E-02  0.8707326E-01
       -1   -1    0    0    0  501  0.00000000000E+00  0.00000000000E+00  0.77309568083E+03  0.77309568085E+03  0.50400001928E-02 0. -1.
        1   -1    0    0  501    0  0.00000000000E+00  0.00000000000E+00 -0.10454909926E+04  0.10454909926E+04  0.50400001928E-02 0.  1.
    10030    2    1    2    0    0  0.00000000000E+00  0.00000000000E+00 -0.27239531178E+03  0.18185866735E+04  0.17980707114E+04 0.  0.
        5    1    3    3  502    0  0.25668698837E+03  0.87941356649E+00  0.73523256459E+03  0.77876697246E+03  0.46999998093E+01 0. -1.
       -5    1    3    3    0  502 -0.25668698837E+03 -0.87941356649E+00 -0.10076278764E+04  0.10398197010E+04  0.46999998093E+01 0.  1.
</event>
<event>
 5   0  0.1608627E-04  0.1824809E+04  0.7818609E-02  0.8693217E-01
        2   -1    0    0  501    0  0.00000000000E+00  0.00000000000E+00  0.17825759303E+04  0.17825759303E+04  0.25500000920E-02 0. -1.
       -2   -1    0    0    0  501  0.00000000000E+00  0.00000000000E+00 -0.46701050356E+03  0.46701050356E+03  0.25500000920E-02 0.  1.
    10030    2    1    2    0    0  0.00000000000E+00  0.00000000000E+00  0.13155654268E+04  0.22495864339E+04  0.18248086835E+04 0.  0.
        2    1    3    3  502    0 -0.29266690883E+03 -0.75200614458E+03  0.11827130111E+04  0.14317741539E+04  0.25500000920E-02 0. -1.
       -2    1    3    3    0  502  0.29266690883E+03  0.75200614458E+03  0.13285241566E+03  0.81781228003E+03  0.25500000920E-02 0.  1.
</event>
<event>
 5   0  0.8492114E-05  0.1799795E+04  0.7818609E-02  0.8706409E-01
        1   -1    0    0  501    0  0.00000000000E+00  0.00000000000E+00  0.14314236382E+04  0.14314236382E+04  0.50400001928E-02 0.  1.
       -1   -1    0    0    0  501  0.00000000000E+00  0.00000000000E+00 -0.56574106844E+03  0.56574106846E+03  0.50400001928E-02 0. -1.
    10030    2    1    2    0    0  0.00000000000E+00  0.00000000000E+00  0.86568256975E+03  0.19971647067E+04  0.17997945866E+04 0.  0.
        2    1    3    3  502    0 -0.49568301801E+03 -0.13815733359E+03 -0.38637686538E+03  0.64348751757E+03  0.25500000920E-02 0. -1.
       -2    1    3    3    0  502  0.49568301801E+03  0.13815733359E+03  0.12520594351E+04  0.13536771891E+04  0.25500000920E-02 0.  1.
</event>
<event>
 5   0  0.1603564E-04  0.1803289E+04  0.7818609E-02  0.8704552E-01
        2   -1    0    0  501    0  0.00000000000E+00  0.00000000000E+00  0.12587062602E+04  0.12587062602E+04  0.25500000920E-02 0. -1.
       -2   -1    0    0    0  501  0.00000000000E+00  0.00000000000E+00 -0.64587163595E+03  0.64587163596E+03  0.25500000920E-02 0.  1.
    10030    2    1    2    0    0  0.00000000000E+00  0.00000000000E+00  0.61283462428E+03  0.19045778962E+04  0.18032888526E+04 0.  0.
        5    1    3    3  502    0  0.10564397732E+03  0.56951596045E+03 -0.42335768109E+03  0.71746978702E+03  0.46999998093E+01 0.  1.
       -5    1    3    3    0  502 -0.10564397732E+03 -0.56951596045E+03  0.10361923054E+04  0.11871081092E+04  0.46999998093E+01 0. -1.
</event>
<event>
 5   0  0.8206783E-05  0.1765989E+04  0.7818609E-02  0.8724598E-01
       -1   -1    0    0    0  501  0.00000000000E+00  0.00000000000E+00  0.98648489961E+03  0.98648489963E+03  0.50400001928E-02 0.  1.
        1   -1    0    0  501    0  0.00000000000E+00  0.00000000000E+00 -0.79036102819E+03  0.79036102821E+03  0.50400001928E-02 0. -1.
    10030    2    1    2    0    0  0.00000000000E+00  0.00000000000E+00  0.19612387142E+03  0.17768459278E+04  0.17659889236E+04 0.  0.
        1    1    3    3  502    0 -0.50021181451E+03  0.12327637205E+03 -0.62347325325E+03  0.80878168923E+03  0.50400001928E-02 0.  1.
       -1    1    3    3    0  502  0.50021181451E+03 -0.12327637205E+03  0.81959712468E+03  0.96806423861E+03  0.50400001928E-02 0. -1.
</event>
<event>
 5   0  0.1628397E-04  0.1792746E+04  0.7818609E-02  0.8710167E-01
        2   -1    0    0  501    0  0.00000000000E+00  0.00000000000E+00  0.22025775366E+04  0.22025775366E+04  0.25500000920E-02 0. -1.
       -2   -1    0    0    0  501  0.00000000000E+00  0.00000000000E+00 -0.36479278109E+03  0.36479278110E+03  0.25500000920E-02 0.  1.
    10030    2    1    2    0    0  0.00000000000E+00  0.00000000000E+00  0.18377847555E+04  0.25673703177E+04  0.17927458104E+04 0.  0.
        3    1    3    3  502    0  0.25564187112E+03 -0.32493226464E+03  0.20578759144E+04  0.20989966727E+04  0.10100000352E+00 0. -1.
       -3    1    3    3    0  502 -0.25564187112E+03  0.32493226464E+03 -0.22009115889E+03  0.46837364496E+03  0.10100000352E+00 0.  1.
</event>
<event>
 5   0  0.1603564E-04  0.1791506E+04  0.7818609E-02  0.8710830E-01
       -2   -1    0    0    0  501  0.00000000000E+00  0.00000000000E+00  0.10486306840E+04  0.10486306840E+04  0.25500000920E-02 0. -1.
        2   -1    0    0  501    0  0.00000000000E+00  0.00000000000E+00 -0.76516294276E+03  0.76516294277E+03  0.25500000920E-02 0.  1.
    10030    2    1    2    0    0  0.00000000000E+00  0.00000000000E+00  0.28346774120E+03  0.18137936267E+04  0.17915058917E+04 0.  0.
        5    1    3    3  502    0 -0.33595564882E+03  0.19605640526E+03  0.95864682137E+03  0.10345676054E+04  0.46999998093E+01 0. -1.
       -5    1    3    3    0  502  0.33595564882E+03 -0.19605640526E+03 -0.67517908018E+03  0.77922602133E+03  0.46999998093E+01 0.  1.
</event>
<event>
 5   0  0.8206783E-05  0.1756708E+04  0.7818609E-02  0.8729666E-01
        1   -1    0    0  501    0  0.00000000000E+00  0.00000000000E+00  0.10049339618E+04  0.10049339618E+04  0.50400001928E-02 0.  1.
       -1   -1    0    0    0  501  0.00000000000E+00  0.00000000000E+00 -0.76771825651E+03  0.76771825653E+03  0.50400001928E-02 0. -1.
    10030    2    1    2    0    0  0.00000000000E+00  0.00000000000E+00  0.23721570528E+03  0.17726522183E+04  0.17567084551E+04 0.  0.
        1    1    3    3  502    0 -0.56108911082E+03  0.58199390714E+03  0.46519018250E+03  0.93270563639E+03  0.50400001928E-02 0.  1.
       -1    1    3    3    0  502  0.56108911082E+03 -0.58199390714E+03 -0.22797447722E+03  0.83994658194E+03  0.50400001928E-02 0. -1.
</event>
<event>
 5   0  0.1608627E-04  0.1758548E+04  0.7818609E-02  0.8728659E-01
        2   -1    0    0  501    0  0.00000000000E+00  0.00000000000E+00  0.98452892680E+03  0.98452892680E+03  0.25500000920E-02 0. -1.
       -2   -1    0    0    0  501  0.00000000000E+00  0.00000000000E+00 -0.78527161286E+03  0.78527161286E+03  0.25500000920E-02 0.  1.
    10030    2    1    2    0    0  0.00000000000E+00  0.00000000000E+00  0.19925731394E+03  0.17698005397E+04  0.17585478307E+04 0.  0.
        2    1    3    3  502    0 -0.21119602514E+03  0.20667203662E+03 -0.73380421981E+03  0.79106619494E+03  0.25500000920E-02 0.  1.
       -2    1    3    3    0  502  0.21119602514E+03 -0.20667203662E+03  0.93306153375E+03  0.97873434472E+03  0.25500000920E-02 0. -1.
</event>
<event>
 5   0  0.1603564E-04  0.1864115E+04  0.7818609E-02  0.8672928E-01
        2   -1    0    0  501    0  0.00000000000E+00  0.00000000000E+00  0.10609271322E+04  0.10609271322E+04  0.25500000920E-02 0.  1.
       -2   -1    0    0    0  501  0.00000000000E+00  0.00000000000E+00 -0.81884109210E+03  0.81884109211E+03  0.25500000920E-02 0. -1.
    10030    2    1    2    0    0  0.00000000000E+00  0.00000000000E+00  0.24208604007E+03  0.18797682243E+04  0.18641145153E+04 0.  0.
        5    1    3    3  502    0 -0.57078664054E+03  0.54361076391E+03 -0.38052556321E+03  0.87528957832E+03  0.46999998093E+01 0. -1.
       -5    1    3    3    0  502  0.57078664054E+03 -0.54361076391E+03  0.62261160328E+03  0.10044786460E+04  0.46999998093E+01 0.  1.
</event>
<event>
 5   0  0.8492114E-05  0.1761617E+04  0.7818609E-02  0.8726982E-01
       -1   -1    0    0    0  501  0.00000000000E+00  0.00000000000E+00  0.72256233711E+03  0.72256233713E+03  0.50400001928E-02 0. -1.
        1   -1    0    0  501    0  0.00000000000E+00  0.00000000000E+00 -0.10737111396E+04  0.10737111396E+04  0.50400001928E-02 0.  1.
    10030    2    1    2    0    0  0.00000000000E+00  0.00000000000E+00 -0.35114880245E+03  0.17962734767E+04  0.17616165649E+04 0.  0.
        2    1    3    3  502    0  0.54399626801E+03  0.65923639192E+03  0.41447617555E+02  0.85571167168E+03  0.25500000920E-02 0. -1.
       -2    1    3    3    0  502 -0.54399626801E+03 -0.65923639192E+03 -0.39259642000E+03  0.94056180501E+03  0.25500000920E-02 0.  1.
</event>
<event>
 5   0  0.1603564E-04  0.1770057E+04  0.7818609E-02  0.8722387E-01
        2   -1    0    0  501    0  0.00000000000E+00  0.00000000000E+00  0.18703293743E+04  0.18703293743E+04  0.25500000920E-02 0.  1.
       -2   -1    0    0    0  501  0.00000000000E+00  0.00000000000E+00 -0.41879021542E+03  0.41879021543E+03  0.25500000920E-02 0. -1.
    10030    2    1    2    0    0  0.00000000000E+00  0.00000000000E+00  0.14515391589E+04  0.22891195897E+04  0.17700572212E+04 0.  0.
        5    1    3    3  502    0  0.78661610565E+03 -0.26597694336E+03  0.11217329807E+04  0.13956416453E+04  0.46999998093E+01 0.  1.
       -5    1    3    3    0  502 -0.78661610565E+03  0.26597694336E+03  0.32980617819E+03  0.89347794446E+03  0.46999998093E+01 0. -1.
</event>
<event>
 5   0  0.8254914E-05  0.1802628E+04  0.7818609E-02  0.8704903E-01
       -1   -1    0    0    0  501  0.00000000000E+00  0.00000000000E+00  0.22340466468E+04  0.22340466468E+04  0.50400001928E-02 0. -1.
        1   -1    0    0  501    0  0.00000000000E+00  0.00000000000E+00 -0.36363030455E+03  0.36363030459E+03  0.50400001928E-02 0.  1.
    10030    2    1    2    0    0  0.00000000000E+00  0.00000000000E+00  0.18704163422E+04  0.25976769514E+04  0.18026281509E+04 0.  0.
        4    1    3    3  502    0 -0.55308923002E+03  0.27185957827E+03 -0.12549289783E+02  0.61642065526E+03  0.12699999809E+01 0.  1.
       -4    1    3    3    0  502  0.55308923002E+03 -0.27185957827E+03  0.18829656320E+04  0.19812562961E+04  0.12699999809E+01 0. -1.
</event>
<event>
 5   0  0.8430513E-05  0.1784879E+04  0.7818609E-02  0.8714382E-01
        1   -1    0    0  501    0  0.00000000000E+00  0.00000000000E+00  0.13745195606E+04  0.13745195606E+04  0.50400001928E-02 0.  1.
       -1   -1    0    0    0  501  0.00000000000E+00  0.00000000000E+00 -0.57943763090E+03  0.57943763092E+03  0.50400001928E-02 0. -1.
    10030    2    1    2    0    0  0.00000000000E+00  0.00000000000E+00  0.79508192968E+03  0.19539571915E+04  0.17848791083E+04 0.  0.
        5    1    3    3  502    0  0.20171626306E+03 -0.60783389828E+03 -0.28284353202E+03  0.70012431202E+03  0.46999998093E+01 0. -1.
       -5    1    3    3    0  502 -0.20171626306E+03  0.60783389828E+03  0.10779254617E+04  0.12538328795E+04  0.46999998093E+01 0.  1.
</event>
<event>
 5   0  0.8430513E-05  0.1787978E+04  0.7818609E-02  0.8712719E-01
       -1   -1    0    0    0  501  0.00000000000E+00  0.00000000000E+00  0.52466356189E+03  0.52466356191E+03  0.50400001928E-02 0. -1.
        1   -1    0    0  501    0  0.00000000000E+00  0.00000000000E+00 -0.15232927284E+04  0.15232927284E+04  0.50400001928E-02 0.  1.
    10030    2    1    2    0    0  0.00000000000E+00  0.00000000000E+00 -0.99862916649E+03  0.20479562903E+04  0.17879778396E+04 0.  0.
        5    1    3    3  502    0 -0.75658297736E+03 -0.47333979230E+03 -0.55911450458E+03  0.10531379206E+04  0.46999998093E+01 0. -1.
       -5    1    3    3    0  502  0.75658297736E+03  0.47333979230E+03 -0.43951466191E+03  0.99481836967E+03  0.46999998093E+01 0.  1.
</event>
<event>
 5   0  0.5820500E-05  0.1804454E+04  0.7818609E-02  0.8703935E-01
        3   -1    0    0  501    0  0.00000000000E+00  0.00000000000E+00  0.89189182729E+03  0.89189183301E+03  0.10100000352E+00 0.  1.
       -3   -1    0    0    0  501  0.00000000000E+00  0.00000000000E+00 -0.91268184881E+03  0.91268185440E+03  0.10100000352E+00 0. -1.
    10030    2    1    2    0    0  0.00000000000E+00  0.00000000000E+00 -0.20790021526E+02  0.18045736874E+04  0.18044539252E+04 0.  0.
        3    1    3    3  502    0 -0.44525561685E+03 -0.63099101995E+03  0.45612416043E+03  0.89691219834E+03  0.10100000352E+00 0. -1.
       -3    1    3    3    0  502  0.44525561685E+03  0.63099101995E+03 -0.47691418196E+03  0.90766148907E+03  0.10100000352E+00 0.  1.
</event>
<event>
 5   0  0.1628397E-04  0.1784902E+04  0.7818609E-02  0.8714370E-01
        2   -1    0    0  501    0  0.00000000000E+00  0.00000000000E+00  0.15405409912E+04  0.15405409912E+04  0.25500000920E-02 0.  1.
       -2   -1    0    0    0  501  0.00000000000E+00  0.00000000000E+00 -0.51700564027E+03  0.51700564028E+03  0.25500000920E-02 0. -1.
    10030    2    1    2    0    0  0.00000000000E+00  0.00000000000E+00  0.10235353509E+04  0.20575466314E+04  0.17849015452E+04 0.  0.
        3    1    3    3  502    0  0.46862591444E+03  0.75894113520E+03  0.54570002418E+03  0.10456531074E+04  0.10100000352E+00 0. -1.
       -3    1    3    3    0  502 -0.46862591444E+03 -0.75894113520E+03  0.47783532671E+03  0.10118935241E+04  0.10100000352E+00 0.  1.
</event>
<event>
 5   0  0.8430513E-05  0.1801106E+04  0.7818609E-02  0.8705712E-01
       -1   -1    0    0    0  501  0.00000000000E+00  0.00000000000E+00  0.14398985585E+04  0.14398985585E+04  0.50400001928E-02 0. -1.
        1   -1    0    0  501    0  0.00000000000E+00  0.00000000000E+00 -0.56323110235E+03  0.56323110237E+03  0.50400001928E-02 0.  1.
    10030    2    1    2    0    0  0.00000000000E+00  0.00000000000E+00  0.87666745611E+03  0.20031296608E+04  0.18011059407E+04 0.  0.
        5    1    3    3  502    0 -0.64279857461E+03  0.22106026745E+03 -0.21861305666E+03  0.71405280470E+03  0.46999998093E+01 0.  1.
       -5    1    3    3    0  502  0.64279857461E+03 -0.22106026745E+03  0.10952805128E+04  0.12890768561E+04  0.46999998093E+01 0. -1.
</event>
<event>
 5   0  0.8430513E-05  0.1812763E+04  0.7818609E-02  0.8699541E-01
        1   -1    0    0  501    0  0.00000000000E+00  0.00000000000E+00  0.67713443443E+03  0.67713443444E+03  0.50400001928E-02 0. -1.
       -1   -1    0    0    0  501  0.00000000000E+00  0.00000000000E+00 -0.12132415194E+04  0.12132415194E+04  0.50400001928E-02 0.  1.
    10030    2    1    2    0    0  0.00000000000E+00  0.00000000000E+00 -0.53610708494E+03  0.18903759538E+04  0.18127632058E+04 0.  0.
        5    1    3    3  502    0  0.18142657731E+03  0.77050190186E+03 -0.72844968077E+03  0.10757554607E+04  0.46999998093E+01 0.  1.
       -5    1    3    3    0  502 -0.18142657731E+03 -0.77050190186E+03  0.19234259583E+03  0.81462049317E+03  0.46999998093E+01 0. -1.
</event>
<event>
 5   0  0.1628397E-04  0.1785325E+04  0.7818609E-02  0.8714143E-01
       -2   -1    0    0    0  501  0.00000000000E+00  0.00000000000E+00  0.50852565180E+03  0.50852565181E+03  0.25500000920E-02 0.  1.
        2   -1    0    0  501    0  0.00000000000E+00  0.00000000000E+00 -0.15669736903E+04  0.15669736903E+04  0.25500000920E-02 0. -1.
    10030    2    1    2    0    0  0.00000000000E+00  0.00000000000E+00 -0.10584480385E+04  0.20754993422E+04  0.17853249757E+04 0.  0.
        3    1    3    3  502    0 -0.34306269364E+03  0.74788008339E+03 -0.12679664754E+03  0.83252269094E+03  0.10100000352E+00 0.  1.
       -3    1    3    3    0  502  0.34306269364E+03 -0.74788008339E+03 -0.93165139100E+03  0.12429766512E+04  0.10100000352E+00 0. -1.
</event>
<event>
 5   0  0.1573981E-04  0.1804345E+04  0.7818609E-02  0.8703992E-01
        2   -1    0    0  501    0  0.00000000000E+00  0.00000000000E+00  0.10910761614E+04  0.10910761614E+04  0.25500000920E-02 0.  1.
       -2   -1    0    0    0  501  0.00000000000E+00  0.00000000000E+00 -0.74597441079E+03  0.74597441080E+03  0.25500000920E-02 0. -1.
    10030    2    1    2    0    0  0.00000000000E+00  0.00000000000E+00  0.34510175059E+03  0.18370505722E+04  0.18043446418E+04 0.  0.
        1    1    3    3  502    0 -0.23938966263E+03 -0.65268276402E+03 -0.41286080206E+03  0.80855194201E+03  0.50400001928E-02 0. -1.
       -1    1    3    3    0  502  0.23938966263E+03  0.65268276402E+03  0.75796255264E+03  0.10284986302E+04  0.50400001928E-02 0.  1.
</event>
<event>
 5   0  0.1549012E-04  0.1687698E+04  0.7818609E-02  0.8768412E-01
       -2   -1    0    0    0  501  0.00000000000E+00  0.00000000000E+00  0.15225544974E+04  0.15225544974E+04  0.25500000920E-02 0. -1.
        2   -1    0    0  501    0  0.00000000000E+00  0.00000000000E+00 -0.46768843892E+03  0.46768843892E+03  0.25500000920E-02 0.  1.
    10030    2    1    2    0    0  0.00000000000E+00  0.00000000000E+00  0.10548660585E+04  0.19902429363E+04  0.16876980015E+04 0.  0.
        4    1    3    3  502    0  0.61751475842E+03 -0.80867079841E+02  0.11989056101E+04  0.13510145211E+04  0.12699999809E+01 0. -1.
       -4    1    3    3    0  502 -0.61751475842E+03  0.80867079841E+02 -0.14403955161E+03  0.63922841520E+03  0.12699999809E+01 0.  1.
</event>
<event>
 5   0  0.8492114E-05  0.1794592E+04  0.7818609E-02  0.8709181E-01
       -1   -1    0    0    0  501  0.00000000000E+00  0.00000000000E+00  0.79728090913E+03  0.79728090915E+03  0.50400001928E-02 0.  1.
        1   -1    0    0  501    0  0.00000000000E+00  0.00000000000E+00 -0.10098577021E+04  0.10098577021E+04  0.50400001928E-02 0. -1.
    10030    2    1    2    0    0  0.00000000000E+00  0.00000000000E+00 -0.21257679298E+03  0.18071386113E+04  0.17945921730E+04 0.  0.
        2    1    3    3  502    0  0.73839342417E+02 -0.54094853745E+03 -0.82335009811E+03  0.98791849498E+03  0.25500000920E-02 0. -1.
       -2    1    3    3    0  502 -0.73839342417E+02  0.54094853745E+03  0.61077330513E+03  0.81922011629E+03  0.25500000920E-02 0.  1.
</event>
<event>
 5   0  0.1603564E-04  0.1803748E+04  0.7818609E-02  0.8704309E-01
        2   -1    0    0  501    0  0.00000000000E+00  0.00000000000E+00  0.17383541315E+04  0.17383541315E+04  0.25500000920E-02 0.  1.
       -2   -1    0    0    0  501  0.00000000000E+00  0.00000000000E+00 -0.46790024939E+03  0.46790024940E+03  0.25500000920E-02 0. -1.
    10030    2    1    2    0    0  0.00000000000E+00  0.00000000000E+00  0.12704538821E+04  0.22062543809E+04  0.18037475784E+04 0.  0.
        5    1    3    3  502    0 -0.11066173354E+03  0.56947369559E+02  0.17277851663E+04  0.17322680777E+04  0.46999998093E+01 0.  1.
       -5    1    3    3    0  502  0.11066173354E+03 -0.56947369559E+02 -0.45733128416E+03  0.47398630322E+03  0.46999998093E+01 0. -1.
</event>
<event>
 5   0  0.8254914E-05  0.1800521E+04  0.7818609E-02  0.8706023E-01
        1   -1    0    0  501    0  0.00000000000E+00  0.00000000000E+00  0.14995358030E+04  0.14995358030E+04  0.50400001928E-02 0.  1.
       -1   -1    0    0    0  501  0.00000000000E+00  0.00000000000E+00 -0.54047965692E+03  0.54047965694E+03  0.50400001928E-02 0. -1.
    10030    2    1    2    0    0  0.00000000000E+00  0.00000000000E+00  0.95905614611E+03  0.20400154600E+04  0.18005205874E+04 0.  0.
        4    1    3    3  502    0 -0.33527295227E+03  0.70386703515E+03 -0.30492251748E+02  0.78023595535E+03  0.12699999809E+01 0. -1.
       -4    1    3    3    0  502  0.33527295227E+03 -0.70386703515E+03  0.98954839786E+03  0.12597795046E+04  0.12699999809E+01 0.  1.
</event>
<event>
 5   0  0.1573981E-04  0.1852648E+04  0.7818609E-02  0.8678792E-01
        2   -1    0    0  501    0  0.00000000000E+00  0.00000000000E+00  0.20522665150E+04  0.20522665150E+04  0.25500000920E-02 0.  1.
       -2   -1    0    0    0  501  0.00000000000E+00  0.00000000000E+00 -0.41811160625E+03  0.41811160626E+03  0.25500000920E-02 0. -1.
    10030    2    1    2    0    0  0.00000000000E+00  0.00000000000E+00  0.16341549087E+04  0.24703781212E+04  0.18526483196E+04 0.  0.
        1    1    3    3  502    0 -0.61160828359E+03  0.32604362217E+03 -0.24210064586E+01  0.69309090126E+03  0.50400001928E-02 0. -1.
       -1    1    3    3    0  502  0.61160828359E+03 -0.32604362217E+03  0.16365759152E+04  0.17772872200E+04  0.50400001928E-02 0.  1.
</event>
<event>
 5   0  0.1603564E-04  0.1785915E+04  0.7818609E-02  0.8713826E-01
       -2   -1    0    0    0  501  0.00000000000E+00  0.00000000000E+00  0.98066440288E+03  0.98066440289E+03  0.25500000920E-02 0.  1.
        2   -1    0    0  501    0  0.00000000000E+00  0.00000000000E+00 -0.81309492156E+03  0.81309492157E+03  0.25500000920E-02 0. -1.
    10030    2    1    2    0    0  0.00000000000E+00  0.00000000000E+00  0.16756948132E+03  0.17937593245E+04  0.17859151668E+04 0.  0.
        5    1    3    3  502    0 -0.72776362368E+03  0.50946246421E+03 -0.69406336766E+01  0.88840427553E+03  0.46999998093E+01 0.  1.
       -5    1    3    3    0  502  0.72776362368E+03 -0.50946246421E+03  0.17451011500E+03  0.90535504893E+03  0.46999998093E+01 0. -1.
</event>
<event>
 5   0  0.1608627E-04  0.1781784E+04  0.7818609E-02  0.8716047E-01
        2   -1    0    0  501    0  0.00000000000E+00  0.00000000000E+00  0.45220664668E+03  0.45220664669E+03  0.25500000920E-02 0.  1.
       -2   -1    0    0    0  501  0.00000000000E+00  0.00000000000E+00 -0.17551448326E+04  0.17551448326E+04  0.25500000920E-02 0. -1.
    10030    2    1    2    0    0  0.00000000000E+00  0.00000000000E+00 -0.13029381859E+04  0.22073514793E+04  0.17817835550E+04 0.  0.
        2    1    3    3  502    0 -0.91470235317E+02 -0.32023653156E+03  0.37218619720E+03  0.49944049244E+03  0.25500000920E-02 0.  1.
       -2    1    3    3    0  502  0.91470235317E+02  0.32023653156E+03 -0.16751243831E+04  0.17079109869E+04  0.25500000920E-02 0. -1.
</event>
<event>
 5   0  0.8206783E-05  0.1803069E+04  0.7818609E-02  0.8704669E-01
        1   -1    0    0  501    0  0.00000000000E+00  0.00000000000E+00  0.10012068838E+04  0.10012068838E+04  0.50400001928E-02 0.  1.
       -1   -1    0    0    0  501  0.00000000000E+00  0.00000000000E+00 -0.81178429825E+03  0.81178429827E+03  0.50400001928E-02 0. -1.
    10030    2    1    2    0    0  0.00000000000E+00  0.00000000000E+00  0.18942258556E+03  0.18129911821E+04  0.18030685263E+04 0.  0.
        1    1    3    3  502    0  0.36995922351E+03 -0.22657936786E+03 -0.69992637609E+03  0.82347129214E+03  0.50400001928E-02 0. -1.
       -1    1    3    3    0  502 -0.36995922351E+03  0.22657936786E+03  0.88934896165E+03  0.98951988996E+03  0.50400001928E-02 0.  1.
</event>
<event>
 5   0  0.8254914E-05  0.1809993E+04  0.7818609E-02  0.8701003E-01
        1   -1    0    0  501    0  0.00000000000E+00  0.00000000000E+00  0.14927451044E+04  0.14927451044E+04  0.50400001928E-02 0. -1.
       -1   -1    0    0    0  501  0.00000000000E+00  0.00000000000E+00 -0.54866605207E+03  0.54866605209E+03  0.50400001928E-02 0.  1.
    10030    2    1    2    0    0  0.00000000000E+00  0.00000000000E+00  0.94407905232E+03  0.20414111565E+04  0.18099928875E+04 0.  0.
        4    1    3    3  502    0 -0.76323846655E+03  0.40218117153E+03  0.78036797462E+03  0.11632963682E+04  0.12699999809E+01 0.  1.
       -4    1    3    3    0  502  0.76323846655E+03 -0.40218117153E+03  0.16371107770E+03  0.87811478829E+03  0.12699999809E+01 0. -1.
</event>
<event>
 5   0  0.1608627E-04  0.1809405E+04  0.7818609E-02  0.8701314E-01
        2   -1    0    0  501    0  0.00000000000E+00  0.00000000000E+00  0.11239479253E+04  0.11239479253E+04  0.25500000920E-02 0.  1.
       -2   -1    0    0    0  501  0.00000000000E+00  0.00000000000E+00 -0.72822490855E+03  0.72822490855E+03  0.25500000920E-02 0. -1.
    10030    2    1    2    0    0  0.00000000000E+00  0.00000000000E+00  0.39572301677E+03  0.18521728339E+04  0.18094052892E+04 0.  0.
        2    1    3    3  502    0 -0.68180673079E+03  0.53217127921E+03  0.46950183263E+03  0.98412329483E+03  0.25500000920E-02 0.  1.
       -2    1    3    3    0  502  0.68180673079E+03 -0.53217127921E+03 -0.73778815861E+02  0.86804953905E+03  0.25500000920E-02 0. -1.
</event>
<event>
 5   0  0.1603564E-04  0.1792628E+04  0.7818609E-02  0.8710230E-01
        2   -1    0    0  501    0  0.00000000000E+00  0.00000000000E+00  0.96173092396E+03  0.96173092396E+03  0.25500000920E-02 0.  1.
       -2   -1    0    0    0  501  0.00000000000E+00  0.00000000000E+00 -0.83534689869E+03  0.83534689869E+03  0.25500000920E-02 0. -1.
    10030    2    1    2    0    0  0.00000000000E+00  0.00000000000E+00  0.12638402527E+03  0.17970778226E+04  0.17926281764E+04 0.  0.
        5    1    3    3  502    0  0.75936322681E+03 -0.45718808913E+03  0.19657638632E+03  0.90791950344E+03  0.46999998093E+01 0. -1.
       -5    1    3    3    0  502 -0.75936322681E+03  0.45718808913E+03 -0.70192361052E+02  0.88915831921E+03  0.46999998093E+01 0.  1.
</event>
<event>
 5   0  0.8206783E-05  0.1802713E+04  0.7818609E-02  0.8704858E-01
       -1   -1    0    0    0  501  0.00000000000E+00  0.00000000000E+00  0.10125476225E+04  0.10125476225E+04  0.50400001928E-02 0. -1.
        1   -1    0    0  501    0  0.00000000000E+00  0.00000000000E+00 -0.80237581713E+03  0.80237581714E+03  0.50400001928E-02 0.  1.
    10030    2    1    2    0    0  0.00000000000E+00  0.00000000000E+00  0.21017180537E+03  0.18149234397E+04  0.18027132063E+04 0.  0.
        1    1    3    3  502    0  0.72125372296E+03  0.53709374767E+03  0.16687832267E+03  0.91461740705E+03  0.50400001928E-02 0.  1.
       -1    1    3    3    0  502 -0.72125372296E+03 -0.53709374767E+03  0.43293482708E+02  0.90030603261E+03  0.50400001928E-02 0. -1.
</event>
<event>
 5   0  0.8492114E-05  0.1805219E+04  0.7818609E-02  0.8703529E-01
       -1   -1    0    0    0  501  0.00000000000E+00  0.00000000000E+00  0.54483356110E+03  0.54483356112E+03  0.50400001928E-02 0.  1.
        1   -1    0    0  501    0  0.00000000000E+00  0.00000000000E+00 -0.14953266430E+04  0.14953266430E+04  0.50400001928E-02 0. -1.
    10030    2    1    2    0    0  0.00000000000E+00  0.00000000000E+00 -0.95049308193E+03  0.20401602042E+04  0.18052192553E+04 0.  0.
        2    1    3    3  502    0 -0.21917558729E+03 -0.57605452321E+03  0.26998762966E+03  0.67288191531E+03  0.25500000920E-02 0.  1.
       -2    1    3    3    0  502  0.21917558729E+03  0.57605452321E+03 -0.12204807116E+04  0.13672782888E+04  0.25500000920E-02 0. -1.
</event>
<event>
 5   0  0.1549012E-04  0.1796363E+04  0.7818609E-02  0.8708236E-01
        2   -1    0    0  501    0  0.00000000000E+00  0.00000000000E+00  0.80548790446E+03  0.80548790447E+03  0.25500000920E-02 0.  1.
       -2   -1    0    0    0  501  0.00000000000E+00  0.00000000000E+00 -0.10015422169E+04  0.10015422169E+04  0.25500000920E-02 0. -1.
    10030    2    1    2    0    0  0.00000000000E+00  0.00000000000E+00 -0.19605431246E+03  0.18070301214E+04  0.17963631499E+04 0.  0.
        4    1    3    3  502    0 -0.22424814614E+03 -0.23677954694E+03  0.74382748933E+03  0.81217777098E+03  0.12699999809E+01 0.  1.
       -4    1    3    3    0  502  0.22424814614E+03  0.23677954694E+03 -0.93988180179E+03  0.99485235041E+03  0.12699999809E+01 0. -1.
</event>
<event>
 5   0  0.5820500E-05  0.1802319E+04  0.7818609E-02  0.8705067E-01
        3   -1    0    0  501    0  0.00000000000E+00  0.00000000000E+00  0.37447658813E+03  0.37447660175E+03  0.10100000352E+00 0.  1.
       -3   -1    0    0    0  501  0.00000000000E+00  0.00000000000E+00 -0.21685965485E+04  0.21685965509E+04  0.10100000352E+00 0. -1.
    10030    2    1    2    0    0  0.00000000000E+00  0.00000000000E+00 -0.17941199604E+04  0.25430731526E+04  0.18023192357E+04 0.  0.
        4    1    3    3  502    0  0.14151358720E+03 -0.13034383241E+03 -0.21392785026E+04  0.21479128787E+04  0.12699999809E+01 0. -1.
       -4    1    3    3    0  502 -0.14151358720E+03  0.13034383241E+03  0.34515854214E+03  0.39516027397E+03  0.12699999809E+01 0.  1.
</event>
<event>
 5   0  0.1549012E-04  0.1809627E+04  0.7818609E-02  0.8701197E-01
       -2   -1    0    0    0  501  0.00000000000E+00  0.00000000000E+00  0.81243633545E+03  0.81243633545E+03  0.25500000920E-02 0. -1.
        2   -1    0    0  501    0  0.00000000000E+00  0.00000000000E+00 -0.10076941642E+04  0.10076941642E+04  0.25500000920E-02 0.  1.
    10030    2    1    2    0    0  0.00000000000E+00  0.00000000000E+00 -0.19525782875E+03  0.18201304997E+04  0.18096268721E+04 0.  0.
        4    1    3    3  502    0 -0.52802912527E+03  0.54059091897E+03  0.40288627404E+03  0.85637156744E+03  0.12699999809E+01 0. -1.
       -4    1    3    3    0  502  0.52802912527E+03 -0.54059091897E+03 -0.59814410280E+03  0.96375893221E+03  0.12699999809E+01 0.  1.
</event>
<event>
 5   0  0.1549012E-04  0.1806830E+04  0.7818609E-02  0.8702676E-01
       -2   -1    0    0    0  501  0.00000000000E+00  0.00000000000E+00  0.45320840209E+03  0.45320840210E+03  0.25500000920E-02 0. -1.
        2   -1    0    0  501    0  0.00000000000E+00  0.00000000000E+00 -0.18008466026E+04  0.18008466026E+04  0.25500000920E-02 0.  1.
    10030    2    1    2    0    0  0.00000000000E+00  0.00000000000E+00 -0.13476382005E+04  0.22540550047E+04  0.18068301649E+04 0.  0.
        4    1    3    3  502    0  0.10145050951E+03  0.47668690235E+03  0.27514410353E+03  0.55966820471E+03  0.12699999809E+01 0. -1.
       -4    1    3    3    0  502 -0.10145050951E+03 -0.47668690235E+03 -0.16227823040E+04  0.16943868000E+04  0.12699999809E+01 0.  1.
</event>
<event>
 5   0  0.1628397E-04  0.1803011E+04  0.7818609E-02  0.8704700E-01
        2   -1    0    0  501    0  0.00000000000E+00  0.00000000000E+00  0.21045583696E+04  0.21045583696E+04  0.25500000920E-02 0. -1.
       -2   -1    0    0    0  501  0.00000000000E+00  0.00000000000E+00 -0.38616752712E+03  0.38616752713E+03  0.25500000920E-02 0.  1.
    10030    2    1    2    0    0  0.00000000000E+00  0.00000000000E+00  0.17183908425E+04  0.24907258967E+04  0.18030109276E+04 0.  0.
        3    1    3    3  502    0 -0.71422603016E+03  0.23917995148E+03  0.15435050682E+04  0.17174789015E+04  0.10100000352E+00 0. -1.
       -3    1    3    3    0  502  0.71422603016E+03 -0.23917995148E+03  0.17488577425E+03  0.77324699520E+03  0.10100000352E+00 0.  1.
</event>
<event>
 5   0  0.8492114E-05  0.1799585E+04  0.7818609E-02  0.8706520E-01
        1   -1    0    0  501    0  0.00000000000E+00  0.00000000000E+00  0.22139747501E+04  0.22139747501E+04  0.50400001928E-02 0. -1.
       -1   -1    0    0    0  501  0.00000000000E+00  0.00000000000E+00 -0.36568934327E+03  0.36568934331E+03  0.50400001928E-02 0.  1.
    10030    2    1    2    0    0  0.00000000000E+00  0.00000000000E+00  0.18482854068E+04  0.25796640934E+04  0.17995854772E+04 0.  0.
        2    1    3    3  502    0 -0.31170130045E+03 -0.27432756380E+03  0.20684251014E+04  0.21096909047E+04  0.25500000920E-02 0. -1.
       -2    1    3    3    0  502  0.31170130045E+03  0.27432756380E+03 -0.22013969463E+03  0.46997318873E+03  0.25500000920E-02 0.  1.
</event>
<event>
 5   0  0.8206783E-05  0.1828903E+04  0.7818609E-02  0.8691079E-01
        1   -1    0    0  501    0  0.00000000000E+00  0.00000000000E+00  0.14680825857E+04  0.14680825857E+04  0.50400001928E-02 0.  1.
       -1   -1    0    0    0  501  0.00000000000E+00  0.00000000000E+00 -0.56960090812E+03  0.56960090814E+03  0.50400001928E-02 0. -1.
    10030    2    1    2    0    0  0.00000000000E+00  0.00000000000E+00  0.89848167754E+03  0.20376834938E+04  0.18289025934E+04 0.  0.
        1    1    3    3  502    0 -0.89548041915E+03 -0.18224992573E+03  0.48654357777E+03  0.10352897515E+04  0.50400001928E-02 0.  1.
       -1    1    3    3    0  502  0.89548041915E+03  0.18224992573E+03  0.41193809977E+03  0.10023937423E+04  0.50400001928E-02 0. -1.
</event>
<event>
 5   0  0.5820500E-05  0.1798718E+04  0.7818609E-02  0.8706981E-01
       -3   -1    0    0    0  501  0.00000000000E+00  0.00000000000E+00  0.89974706754E+03  0.89974707321E+03  0.10100000352E+00 0.  1.
        3   -1    0    0  501    0  0.00000000000E+00  0.00000000000E+00 -0.89897131245E+03  0.89897131812E+03  0.10100000352E+00 0. -1.
    10030    2    1    2    0    0  0.00000000000E+00  0.00000000000E+00  0.77575509248E+00  0.17987183913E+04  0.17987182241E+04 0.  0.
        2    1    3    3  502    0  0.30722236762E+03  0.13168903822E+03  0.83532461532E+03  0.89971928896E+03  0.25500000920E-02 0.  1.
       -2    1    3    3    0  502 -0.30722236762E+03 -0.13168903822E+03 -0.83454886023E+03  0.89899910238E+03  0.25500000920E-02 0. -1.
</event>
<event>
 5   0  0.1573981E-04  0.1796980E+04  0.7818609E-02  0.8707907E-01
       -2   -1    0    0    0  501  0.00000000000E+00  0.00000000000E+00  0.13162646026E+04  0.13162646026E+04  0.25500000920E-02 0. -1.
        2   -1    0    0  501    0  0.00000000000E+00  0.00000000000E+00 -0.61331439146E+03  0.61331439147E+03  0.25500000920E-02 0.  1.
    10030    2    1    2    0    0  0.00000000000E+00  0.00000000000E+00  0.70295021110E+03  0.19295789940E+04  0.17969797147E+04 0.  0.
        1    1    3    3  502    0  0.73627693328E+03  0.41885951643E+03  0.29809091455E+02  0.84760580399E+03  0.50400001928E-02 0.  1.
       -1    1    3    3    0  502 -0.73627693328E+03 -0.41885951643E+03  0.67314111965E+03  0.10819731900E+04  0.50400001928E-02 0. -1.
</event>
<event>
 5   0  0.1603564E-04  0.1800229E+04  0.7818609E-02  0.8706178E-01
        2   -1    0    0  501    0  0.00000000000E+00  0.00000000000E+00  0.86617141918E+03  0.86617141919E+03  0.25500000920E-02 0.  1.
       -2   -1    0    0    0  501  0.00000000000E+00  0.00000000000E+00 -0.93538757904E+03  0.93538757905E+03  0.25500000920E-02 0. -1.
    10030    2    1    2    0    0  0.00000000000E+00  0.00000000000E+00 -0.69216159860E+02  0.18015589982E+04  0.18002288597E+04 0.  0.
        5    1    3    3  502    0 -0.80495584620E+03 -0.28048918990E+03 -0.32388185429E+03  0.91189343978E+03  0.46999998093E+01 0. -1.
       -5    1    3    3    0  502  0.80495584620E+03  0.28048918990E+03  0.25466569443E+03  0.88966555845E+03  0.46999998093E+01 0.  1.
</event>
<event>
 5   0  0.1549012E-04  0.1795607E+04  0.7818609E-02  0.8708639E-01
       -2   -1    0    0    0  501  0.00000000000E+00  0.00000000000E+00  0.78119815149E+03  0.78119815149E+03  0.25500000920E-02 0. -1.
        2   -1    0    0  501    0  0.00000000000E+00  0.00000000000E+00 -0.10318134086E+04  0.10318134086E+04  0.25500000920E-02 0.  1.
    10030    2    1    2    0    0  0.00000000000E+00  0.00000000000E+00 -0.25061525709E+03  0.18130115601E+04  0.17956065577E+04 0.  0.
        4    1    3    3  502    0  0.21085153844E+03 -0.41840049649E+03  0.64796949118E+03  0.79961454535E+03  0.12699999809E+01 0. -1.
       -4    1    3    3    0  502 -0.21085153844E+03  0.41840049649E+03 -0.89858474828E+03  0.10133970147E+04  0.12699999809E+01 0.  1.
</event>
<event>
 5   0  0.8430513E-05  0.1803956E+04  0.7818609E-02  0.8704198E-01
        1   -1    0    0  501    0  0.00000000000E+00  0.00000000000E+00  0.14275200054E+04  0.14275200054E+04  0.50400001928E-02 0. -1.
       -1   -1    0    0    0  501  0.00000000000E+00  0.00000000000E+00 -0.56991468634E+03  0.56991468636E+03  0.50400001928E-02 0.  1.
    10030    2    1    2    0    0  0.00000000000E+00  0.00000000000E+00  0.85760531909E+03  0.19974346918E+04  0.18039563367E+04 0.  0.
        5    1    3    3  502    0  0.14828218868E+03  0.24912221541E+03  0.13745108350E+04  0.14047603394E+04  0.46999998093E+01 0. -1.
       -5    1    3    3    0  502 -0.14828218868E+03 -0.24912221541E+03 -0.51690551587E+03  0.59267435242E+03  0.46999998093E+01 0.  1.
</event>
<event>
 5   0  0.8132598E-05  0.1790009E+04  0.7818609E-02  0.8711631E-01
       -1   -1    0    0    0  501  0.00000000000E+00  0.00000000000E+00  0.11434879973E+04  0.11434879974E+04  0.50400001928E-02 0.  1.
        1   -1    0    0  501    0  0.00000000000E+00  0.00000000000E+00 -0.70051690953E+03  0.70051690955E+03  0.50400001928E-02 0. -1.
    10030    2    1    2    0    0  0.00000000000E+00  0.00000000000E+00  0.44297108782E+03  0.18440049069E+04  0.17900085788E+04 0.  0.
        3    1    3    3  502    0  0.18447915268E+03 -0.80902627565E+03  0.56697757998E+03  0.10049973427E+04  0.10100000352E+00 0. -1.
       -3    1    3    3    0  502 -0.18447915268E+03  0.80902627565E+03 -0.12400649217E+03  0.83900756419E+03  0.10100000352E+00 0.  1.
</event>
<event>
 5   0  0.8492114E-05  0.1816108E+04  0.7818609E-02  0.8697780E-01
        1   -1    0    0  501    0  0.00000000000E+00  0.00000000000E+00  0.15058598969E+04  0.15058598969E+04  0.50400001928E-02 0. -1.
       -1   -1    0    0    0  501  0.00000000000E+00  0.00000000000E+00 -0.54756873358E+03  0.54756873360E+03  0.50400001928E-02 0.  1.
    10030    2    1    2    0    0  0.00000000000E+00  0.00000000000E+00  0.95829116335E+03  0.20534286305E+04  0.18161077025E+04 0.  0.
        2    1    3    3  502    0 -0.23257624590E+03  0.42379449951E+03 -0.38998165743E+03  0.62111124698E+03  0.25500000920E-02 0.  1.
       -2    1    3    3    0  502  0.23257624590E+03 -0.42379449951E+03  0.13482728208E+04  0.14323173836E+04  0.25500000920E-02 0. -1.
</event>
<event>
 5   0  0.8492114E-05  0.1763764E+04  0.7818609E-02  0.8725810E-01
       -1   -1    0    0    0  501  0.00000000000E+00  0.00000000000E+00  0.58747717620E+03  0.58747717623E+03  0.50400001928E-02 0.  1.
        1   -1    0    0  501    0  0.00000000000E+00  0.00000000000E+00 -0.13238238069E+04  0.13238238070E+04  0.50400001928E-02 0. -1.
    10030    2    1    2    0    0  0.00000000000E+00  0.00000000000E+00 -0.73634663074E+03  0.19113009832E+04  0.17637644649E+04 0.  0.
        2    1    3    3  502    0  0.53760590282E+03  0.37738820435E+03  0.26950056745E+03  0.70998064719E+03  0.25500000920E-02 0.  1.
       -2    1    3    3    0  502 -0.53760590282E+03 -0.37738820435E+03 -0.10058471982E+04  0.12013203360E+04  0.25500000920E-02 0. -1.
</event>
<event>
 5   0  0.8430513E-05  0.1791009E+04  0.7818609E-02  0.8711096E-01
       -1   -1    0    0    0  501  0.00000000000E+00  0.00000000000E+00  0.35985965207E+03  0.35985965210E+03  0.50400001928E-02 0. -1.
        1   -1    0    0  501    0  0.00000000000E+00  0.00000000000E+00 -0.22284467008E+04  0.22284467008E+04  0.50400001928E-02 0.  1.
    10030    2    1    2    0    0  0.00000000000E+00  0.00000000000E+00 -0.18685870487E+04  0.25883063529E+04  0.17910087152E+04 0.  0.
        5    1    3    3  502    0 -0.66267504740E+03 -0.25110231661E+03 -0.14311864678E+03  0.72297692142E+03  0.46999998093E+01 0. -1.
       -5    1    3    3    0  502  0.66267504740E+03  0.25110231661E+03 -0.17254684020E+04  0.18653294315E+04  0.46999998093E+01 0.  1.
</event>
<event>
 5   0  0.1573981E-04  0.1840352E+04  0.7818609E-02  0.8685130E-01
        2   -1    0    0  501    0  0.00000000000E+00  0.00000000000E+00  0.83629844256E+03  0.83629844257E+03  0.25500000920E-02 0.  1.
       -2   -1    0    0    0  501  0.00000000000E+00  0.00000000000E+00 -0.10124665646E+04  0.10124665646E+04  0.25500000920E-02 0. -1.
    10030    2    1    2    0    0  0.00000000000E+00  0.00000000000E+00 -0.17616812199E+03  0.18487650071E+04  0.18403523696E+04 0.  0.
        1    1    3    3  502    0 -0.34650949115E+03 -0.74175284668E+03  0.33390532208E+03  0.88417129401E+03  0.50400001928E-02 0.  1.
       -1    1    3    3    0  502  0.34650949115E+03  0.74175284668E+03 -0.51007344408E+03  0.96459371312E+03  0.50400001928E-02 0. -1.
</event>
<event>
 5   0  0.8254914E-05  0.1796446E+04  0.7818609E-02  0.8708192E-01
       -1   -1    0    0    0  501  0.00000000000E+00  0.00000000000E+00  0.50440139174E+03  0.50440139176E+03  0.50400001928E-02 0.  1.
        1   -1    0    0  501    0  0.00000000000E+00  0.00000000000E+00 -0.15995293539E+04  0.15995293539E+04  0.50400001928E-02 0. -1.
    10030    2    1    2    0    0  0.00000000000E+00  0.00000000000E+00 -0.10951279622E+04  0.21039307457E+04  0.17964463057E+04 0.  0.
        4    1    3    3  502    0 -0.36390073414E+03 -0.55723751337E+03  0.15889643908E+03  0.68424197611E+03  0.12699999809E+01 0.  1.
       -4    1    3    3    0  502  0.36390073414E+03  0.55723751337E+03 -0.12540244013E+04  0.14196887696E+04  0.12699999809E+01 0. -1.
</event>
<event>
 5   0  0.8206783E-05  0.1799604E+04  0.7818609E-02  0.8706510E-01
        1   -1    0    0  501    0  0.00000000000E+00  0.00000000000E+00  0.73174850914E+03  0.73174850915E+03  0.50400001928E-02 0.  1.
       -1   -1    0    0    0  501  0.00000000000E+00  0.00000000000E+00 -0.11064509013E+04  0.11064509013E+04  0.50400001928E-02 0. -1.
    10030    2    1    2    0    0  0.00000000000E+00  0.00000000000E+00 -0.37470239218E+03  0.18381994105E+04  0.17996041759E+04 0.  0.
        1    1    3    3  502    0 -0.37948243640E+03 -0.76994334861E+03 -0.46299818106E+03  0.97528816014E+03  0.50400001928E-02 0. -1.
       -1    1    3    3    0  502  0.37948243640E+03  0.76994334861E+03  0.88295788884E+02  0.86291125034E+03  0.50400001928E-02 0.  1.
</event>
<event>
 5   0  0.1549012E-04  0.1841569E+04  0.7818609E-02  0.8684501E-01
       -2   -1    0    0    0  501  0.00000000000E+00  0.00000000000E+00  0.69950266089E+03  0.69950266089E+03  0.25500000920E-02 0. -1.
        2   -1    0    0  501    0  0.00000000000E+00  0.00000000000E+00 -0.12120666236E+04  0.12120666236E+04  0.25500000920E-02 0.  1.
    10030    2    1    2    0    0  0.00000000000E+00  0.00000000000E+00 -0.51256396272E+03  0.19115692845E+04  0.18415687100E+04 0.  0.
        4    1    3    3  502    0  0.45517621216E+03  0.77758563002E+03 -0.45327843705E+03  0.10086068364E+04  0.12699999809E+01 0. -1.
       -4    1    3    3    0  502 -0.45517621216E+03 -0.77758563002E+03 -0.59285525671E+02  0.90296244805E+03  0.12699999809E+01 0.  1.
</event>
<event>
 5   0  0.8430513E-05  0.1789207E+04  0.7818609E-02  0.8712060E-01
        1   -1    0    0  501    0  0.00000000000E+00  0.00000000000E+00  0.48103336445E+03  0.48103336447E+03  0.50400001928E-02 0. -1.
       -1   -1    0    0    0  501  0.00000000000E+00  0.00000000000E+00 -0.16637414849E+04  0.16637414849E+04  0.50400001928E-02 0.  1.
    10030    2    1    2    0    0  0.00000000000E+00  0.00000000000E+00 -0.11827081205E+04  0.21447748494E+04  0.17892067115E+04 0.  0.
        5    1    3    3  502    0 -0.32417689939E+03 -0.22299601066E+03 -0.15544309624E+04  0.16034636228E+04  0.46999998093E+01 0.  1.
       -5    1    3    3    0  502  0.32417689939E+03  0.22299601066E+03  0.37172284189E+03  0.54131122661E+03  0.46999998093E+01 0. -1.
</event>
<event>
 5   0  0.5820500E-05  0.1784226E+04  0.7818609E-02  0.8714733E-01
        3   -1    0    0  501    0  0.00000000000E+00  0.00000000000E+00  0.14799364392E+04  0.14799364427E+04  0.10100000352E+00 0. -1.
       -3   -1    0    0    0  501  0.00000000000E+00  0.00000000000E+00 -0.53777036419E+03  0.53777037367E+03  0.10100000352E+00 0.  1.
    10030    2    1    2    0    0  0.00000000000E+00  0.00000000000E+00  0.94216607505E+03  0.20177068164E+04  0.17842264105E+04 0.  0.
        2    1    3    3  502    0 -0.72823093830E+03 -0.13118909992E+03 -0.92460071941E+02  0.74570754612E+03  0.25500000920E-02 0.  1.
       -2    1    3    3    0  502  0.72823093830E+03  0.13118909992E+03  0.10346261470E+04  0.12719992702E+04  0.25500000920E-02 0. -1.
</event>
<event>
 5   0  0.8492114E-05  0.1802739E+04  0.7818609E-02  0.8704844E-01
        1   -1    0    0  501    0  0.00000000000E+00  0.00000000000E+00  0.12880894029E+04  0.12880894029E+04  0.50400001928E-02 0.  1.
       -1   -1    0    0    0  501  0.00000000000E+00  0.00000000000E+00 -0.63075364839E+03  0.63075364841E+03  0.50400001928E-02 0. -1.
    10030    2    1    2    0    0  0.00000000000E+00  0.00000000000E+00  0.65733575453E+03  0.19188430513E+04  0.18027391274E+04 0.  0.
        2    1    3    3  502    0 -0.48845930484E+03 -0.57638598328E+03  0.85191082035E+03  0.11386682309E+04  0.25500000920E-02 0.  1.
       -2    1    3    3    0  502  0.48845930484E+03  0.57638598328E+03 -0.19457506582E+03  0.78017482044E+03  0.25500000920E-02 0. -1.
</event>
<event>
 5   0  0.1573981E-04  0.1829042E+04  0.7818609E-02  0.8691006E-01
        2   -1    0    0  501    0  0.00000000000E+00  0.00000000000E+00  0.78860194326E+03  0.78860194326E+03  0.25500000920E-02 0. -1.
       -2   -1    0    0    0  501  0.00000000000E+00  0.00000000000E+00 -0.10605463637E+04  0.10605463637E+04  0.25500000920E-02 0.  1.
    10030    2    1    2    0    0  0.00000000000E+00  0.00000000000E+00 -0.27194442048E+03  0.18491483070E+04  0.18290422886E+04 0.  0.
        1    1    3    3  502    0  0.45033887029E+03  0.65690563643E+03  0.31843362720E+03  0.85774710039E+03  0.50400001928E-02 0. -1.
       -1    1    3    3    0  502 -0.45033887029E+03 -0.65690563643E+03 -0.59037804769E+03  0.99140120662E+03  0.50400001928E-02 0.  1.
</event>
<event>
 5   0  0.8254914E-05  0.1830804E+04  0.7818609E-02  0.8690087E-01
        1   -1    0    0  501    0  0.00000000000E+00  0.00000000000E+00  0.11150706722E+04  0.11150706722E+04  0.50400001928E-02 0.  1.
       -1   -1    0    0    0  501  0.00000000000E+00  0.00000000000E+00 -0.75148710140E+03  0.75148710142E+03  0.50400001928E-02 0. -1.
    10030    2    1    2    0    0  0.00000000000E+00  0.00000000000E+00  0.36358357078E+03  0.18665577736E+04  0.18308044432E+04 0.  0.
        4    1    3    3  502    0 -0.70705769860E+03 -0.36975931203E+03  0.63922637339E+03  0.10223817816E+04  0.12699999809E+01 0.  1.
       -4    1    3    3    0  502  0.70705769860E+03  0.36975931203E+03 -0.27564280261E+03  0.84417599202E+03  0.12699999809E+01 0. -1.
</event>
<event>
 5   0  0.1573981E-04  0.1800606E+04  0.7818609E-02  0.8705977E-01
        2   -1    0    0  501    0  0.00000000000E+00  0.00000000000E+00  0.15062813915E+04  0.15062813915E+04  0.25500000920E-02 0. -1.
       -2   -1    0    0    0  501  0.00000000000E+00  0.00000000000E+00 -0.53811048217E+03  0.53811048217E+03  0.25500000920E-02 0.  1.
    10030    2    1    2    0    0  0.00000000000E+00  0.00000000000E+00  0.96817090932E+03  0.20443918737E+04  0.18006063488E+04 0.  0.
        1    1    3    3  502    0 -0.14058498880E+03  0.60132725781E+01  0.14937189157E+04  0.15003321292E+04  0.50400001928E-02 0. -1.
       -1    1    3    3    0  502  0.14058498880E+03 -0.60132725781E+01 -0.52554800642E+03  0.54405974451E+03  0.50400001928E-02 0.  1.
</event>
<event>
 5   0  0.1628397E-04  0.1793257E+04  0.7818609E-02  0.8709894E-01
       -2   -1    0    0    0  501  0.00000000000E+00  0.00000000000E+00  0.14385857048E+04  0.14385857048E+04  0.25500000920E-02 0. -1.
        2   -1    0    0  501    0  0.00000000000E+00  0.00000000000E+00 -0.55884221785E+03  0.55884221785E+03  0.25500000920E-02 0.  1.
    10030    2    1    2    0    0  0.00000000000E+00  0.00000000000E+00  0.87974348694E+03  0.19974279226E+04  0.17932567310E+04 0.  0.
        3    1    3    3  502    0 -0.96327612525E+02 -0.82853974400E+03  0.80623572704E+03  0.11600746416E+04  0.10100000352E+00 0. -1.
       -3    1    3    3    0  502  0.96327612525E+02  0.82853974400E+03  0.73507759901E+02  0.83735328105E+03  0.10100000352E+00 0.  1.
</event>
<event>
 5   0  0.1628397E-04  0.1798532E+04  0.7818609E-02  0.8707081E-01
        2   -1    0    0  501    0  0.00000000000E+00  0.00000000000E+00  0.14880710754E+04  0.14880710754E+04  0.25500000920E-02 0. -1.
       -2   -1    0    0    0  501  0.00000000000E+00  0.00000000000E+00 -0.54344108505E+03  0.54344108506E+03  0.25500000920E-02 0.  1.
    10030    2    1    2    0    0  0.00000000000E+00  0.00000000000E+00  0.94462999038E+03  0.20315121605E+04  0.17985315787E+04 0.  0.
        3    1    3    3  502    0  0.82189072287E+03 -0.12973821930E+03  0.87040099943E+02  0.83660764704E+03  0.10100000352E+00 0.  1.
       -3    1    3    3    0  502 -0.82189072287E+03  0.12973821930E+03  0.85758989044E+03  0.11949045135E+04  0.10100000352E+00 0. -1.
</event>
<event>
 5   0  0.8206783E-05  0.1789733E+04  0.7818609E-02  0.8711779E-01
        1   -1    0    0  501    0  0.00000000000E+00  0.00000000000E+00  0.22043904588E+04  0.22043904588E+04  0.50400001928E-02 0.  1.
       -1   -1    0    0    0  501  0.00000000000E+00  0.00000000000E+00 -0.36326854446E+03  0.36326854450E+03  0.50400001928E-02 0. -1.
    10030    2    1    2    0    0  0.00000000000E+00  0.00000000000E+00  0.18411219143E+04  0.25676590033E+04  0.17897326207E+04 0.  0.
        1    1    3    3  502    0  0.72725669135E+03  0.11164075538E+03  0.16512804952E+04  0.18077868313E+04  0.50400001928E-02 0.  1.
       -1    1    3    3    0  502 -0.72725669135E+03 -0.11164075538E+03  0.18984141909E+03  0.75987217201E+03  0.50400001928E-02 0. -1.
</event>
<event>
 5   0  0.8430513E-05  0.1796514E+04  0.7818609E-02  0.8708156E-01
       -1   -1    0    0    0  501  0.00000000000E+00  0.00000000000E+00  0.13654908591E+04  0.13654908591E+04  0.50400001928E-02 0. -1.
        1   -1    0    0  501    0  0.00000000000E+00  0.00000000000E+00 -0.59089755205E+03  0.59089755207E+03  0.50400001928E-02 0.  1.
    10030    2    1    2    0    0  0.00000000000E+00  0.00000000000E+00  0.77459330702E+03  0.19563884111E+04  0.17965135190E+04 0.  0.
        5    1    3    3  502    0  0.49178714982E+03 -0.25660669241E+03  0.11566687668E+04  0.12828118808E+04  0.46999998093E+01 0. -1.
       -5    1    3    3    0  502 -0.49178714982E+03  0.25660669241E+03 -0.38207545979E+03  0.67357653039E+03  0.46999998093E+01 0.  1.
</event>
<event>
 5   0  0.1628397E-04  0.1797825E+04  0.7818609E-02  0.8707457E-01
       -2   -1    0    0    0  501  0.00000000000E+00  0.00000000000E+00  0.35414377855E+03  0.35414377856E+03  0.25500000920E-02 0.  1.
        2   -1    0    0  501    0  0.00000000000E+00  0.00000000000E+00 -0.22816826992E+04  0.22816826992E+04  0.25500000920E-02 0. -1.
    10030    2    1    2    0    0  0.00000000000E+00  0.00000000000E+00 -0.19275389206E+04  0.26358264778E+04  0.17978250555E+04 0.  0.
        3    1    3    3  502    0 -0.95488123616E+02 -0.71703586134E+03 -0.18137064804E+03  0.74575715241E+03  0.10100000352E+00 0.  1.
       -3    1    3    3    0  502  0.95488123616E+02  0.71703586134E+03 -0.17461682726E+04  0.18900693254E+04  0.10100000352E+00 0. -1.
</event>
<event>
 5   0  0.8430513E-05  0.1793766E+04  0.7818609E-02  0.8709622E-01
       -1   -1    0    0    0  501  0.00000000000E+00  0.00000000000E+00  0.30748219997E+03  0.30748220001E+03  0.50400001928E-02 0.  1.
        1   -1    0    0  501    0  0.00000000000E+00  0.00000000000E+00 -0.26160836072E+04  0.26160836072E+04  0.50400001928E-02 0. -1.
    10030    2    1    2    0    0  0.00000000000E+00  0.00000000000E+00 -0.23086014072E+04  0.29235658072E+04  0.17937660303E+04 0.  0.
        5    1    3    3  502    0 -0.67811618832E+03  0.21641202984E+03 -0.20435785223E+04  0.21640034654E+04  0.46999998093E+01 0. -1.
       -5    1    3    3    0  502  0.67811618832E+03 -0.21641202984E+03 -0.26502288489E+03  0.75956234177E+03  0.46999998093E+01 0.  1.
</event>
<event>
 5   0  0.1608627E-04  0.1774642E+04  0.7818609E-02  0.8719902E-01
       -2   -1    0    0    0  501  0.00000000000E+00  0.00000000000E+00  0.89679772080E+03  0.89679772080E+03  0.25500000920E-02 0.  1.
        2   -1    0    0  501    0  0.00000000000E+00  0.00000000000E+00 -0.87794413623E+03  0.87794413623E+03  0.25500000920E-02 0. -1.
    10030    2    1    2    0    0  0.00000000000E+00  0.00000000000E+00  0.18853584568E+02  0.17747418570E+04  0.17746417107E+04 0.  0.
        2    1    3    3  502    0 -0.19399937491E+02  0.68255207514E+03  0.57610204966E+03  0.89339088001E+03  0.25500000920E-02 0.  1.
       -2    1    3    3    0  502  0.19399937491E+02 -0.68255207514E+03 -0.55724846509E+03  0.88135097703E+03  0.25500000920E-02 0. -1.
</event>
<event>
 5   0  0.8132598E-05  0.1836050E+04  0.7818609E-02  0.8687360E-01
        1   -1    0    0  501    0  0.00000000000E+00  0.00000000000E+00  0.71133184281E+03  0.71133184283E+03  0.50400001928E-02 0. -1.
       -1   -1    0    0    0  501  0.00000000000E+00  0.00000000000E+00 -0.11847776825E+04  0.11847776825E+04  0.50400001928E-02 0.  1.
    10030    2    1    2    0    0  0.00000000000E+00  0.00000000000E+00 -0.47344583966E+03  0.18961095253E+04  0.18360502087E+04 0.  0.
        3    1    3    3  502    0 -0.32272621384E+03 -0.46049666552E+03  0.51265878360E+03  0.76093917409E+03  0.10100000352E+00 0. -1.
       -3    1    3    3    0  502  0.32272621384E+03  0.46049666552E+03 -0.98610462326E+03  0.11351703512E+04  0.10100000352E+00 0.  1.
</event>
<event>
 5   0  0.8206783E-05  0.1788678E+04  0.7818609E-02  0.8712343E-01
       -1   -1    0    0    0  501  0.00000000000E+00  0.00000000000E+00  0.39054275492E+03  0.39054275496E+03  0.50400001928E-02 0.  1.
        1   -1    0    0  501    0  0.00000000000E+00  0.00000000000E+00 -0.20480283742E+04  0.20480283742E+04  0.50400001928E-02 0. -1.
    10030    2    1    2    0    0  0.00000000000E+00  0.00000000000E+00 -0.16574856193E+04  0.24385711292E+04  0.17886784434E+04 0.  0.
        1    1    3    3  502    0  0.65877324369E+03 -0.46730572321E+03 -0.13523170668E+04  0.15751565874E+04  0.50400001928E-02 0. -1.
       -1    1    3    3    0  502 -0.65877324369E+03  0.46730572321E+03 -0.30516855248E+03  0.86341454180E+03  0.50400001928E-02 0.  1.
</event>
<event>
 5   0  0.8254914E-05  0.1714604E+04  0.7818609E-02  0.8753079E-01
        1   -1    0    0  501    0  0.00000000000E+00  0.00000000000E+00  0.72456139861E+03  0.72456139863E+03  0.50400001928E-02 0. -1.
       -1   -1    0    0    0  501  0.00000000000E+00  0.00000000000E+00 -0.10143604311E+04  0.10143604311E+04  0.50400001928E-02 0.  1.
    10030    2    1    2    0    0  0.00000000000E+00  0.00000000000E+00 -0.28979903244E+03  0.17389218297E+04  0.17146036424E+04 0.  0.
        4    1    3    3  502    0 -0.41444699345E+03 -0.57709160257E+03  0.34165868839E+03  0.78837383289E+03  0.12699999809E+01 0. -1.
       -4    1    3    3    0  502  0.41444699345E+03  0.57709160257E+03 -0.63145772083E+03  0.95054799681E+03  0.12699999809E+01 0.  1.
</event>
<event>
 5   0  0.1549012E-04  0.1794043E+04  0.7818609E-02  0.8709474E-01
       -2   -1    0    0    0  501  0.00000000000E+00  0.00000000000E+00  0.53103022438E+03  0.53103022438E+03  0.25500000920E-02 0. -1.
        2   -1    0    0  501    0  0.00000000000E+00  0.00000000000E+00 -0.15152576479E+04  0.15152576479E+04  0.25500000920E-02 0.  1.
    10030    2    1    2    0    0  0.00000000000E+00  0.00000000000E+00 -0.98422742356E+03  0.20462878723E+04  0.17940430416E+04 0.  0.
        4    1    3    3  502    0 -0.43867784030E+03 -0.33393338805E+03  0.31497456203E+03  0.63494908681E+03  0.12699999809E+01 0. -1.
       -4    1    3    3    0  502  0.43867784030E+03  0.33393338805E+03 -0.12992019856E+04  0.14113387855E+04  0.12699999809E+01 0.  1.
</event>
<event>
 5   0  0.8132598E-05  0.1797301E+04  0.7818609E-02  0.8707736E-01
        1   -1    0    0  501    0  0.00000000000E+00  0.00000000000E+00  0.13865950282E+04  0.13865950282E+04  0.50400001928E-02 0. -1.
       -1   -1    0    0    0  501  0.00000000000E+00  0.00000000000E+00 -0.58241427425E+03  0.58241427427E+03  0.50400001928E-02 0.  1.
    10030    2    1    2    0    0  0.00000000000E+00  0.00000000000E+00  0.80418075395E+03  0.19690093025E+04  0.17973010177E+04 0.  0.
        3    1    3    3  502    0  0.51634185455E+03  0.50511166525E+03  0.98779389148E+03  0.12237170782E+04  0.10100000352E+00 0. -1.
       -3    1    3    3    0  502 -0.51634185455E+03 -0.50511166525E+03 -0.18361313754E+03  0.74529222431E+03  0.10100000352E+00 0.  1.
</event>
<event>
 5   0  0.8430513E-05  0.1831299E+04  0.7818609E-02  0.8689830E-01
       -1   -1    0    0    0  501  0.00000000000E+00  0.00000000000E+00  0.63031746957E+03  0.63031746959E+03  0.50400001928E-02 0.  1.
        1   -1    0    0  501    0  0.00000000000E+00  0.00000000000E+00 -0.13301459248E+04  0.13301459248E+04  0.50400001928E-02 0. -1.
    10030    2    1    2    0    0  0.00000000000E+00  0.00000000000E+00 -0.69982845521E+03  0.19604633944E+04  0.18312992257E+04 0.  0.
        5    1    3    3  502    0  0.43127148264E+03 -0.58787713827E+03 -0.94287414270E+03  0.11919011538E+04  0.46999998093E+01 0. -1.
       -5    1    3    3    0  502 -0.43127148264E+03  0.58787713827E+03  0.24304568749E+03  0.76856224058E+03  0.46999998093E+01 0.  1.
</event>
<event>
 5   0  0.8254914E-05  0.1771765E+04  0.7818609E-02  0.8721460E-01
       -1   -1    0    0    0  501  0.00000000000E+00  0.00000000000E+00  0.61697671492E+03  0.61697671494E+03  0.50400001928E-02 0.  1.
        1   -1    0    0  501    0  0.00000000000E+00  0.00000000000E+00 -0.12719897724E+04  0.12719897724E+04  0.50400001928E-02 0. -1.
    10030    2    1    2    0    0  0.00000000000E+00  0.00000000000E+00 -0.65501305750E+03  0.18889664874E+04  0.17717653019E+04 0.  0.
        4    1    3    3  502    0 -0.56060019445E+03  0.68214150687E+03 -0.25064873042E+03  0.91783223542E+03  0.12699999809E+01 0. -1.
       -4    1    3    3    0  502  0.56060019445E+03 -0.68214150687E+03 -0.40436432708E+03  0.97113425196E+03  0.12699999809E+01 0.  1.
</event>
<event>
 5   0  0.1608627E-04  0.1761875E+04  0.7818609E-02  0.8726841E-01
        2   -1    0    0  501    0  0.00000000000E+00  0.00000000000E+00  0.12808965889E+04  0.12808965889E+04  0.25500000920E-02 0.  1.
       -2   -1    0    0    0  501  0.00000000000E+00  0.00000000000E+00 -0.60586559241E+03  0.60586559241E+03  0.25500000920E-02 0. -1.
    10030    2    1    2    0    0  0.00000000000E+00  0.00000000000E+00  0.67503099649E+03  0.18867621813E+04  0.17618753312E+04 0.  0.
        2    1    3    3  502    0 -0.34882751332E+03  0.80819701683E+03  0.30060313254E+03  0.93017487354E+03  0.25500000920E-02 0.  1.
       -2    1    3    3    0  502  0.34882751332E+03 -0.80819701683E+03  0.37442786394E+03  0.95658730776E+03  0.25500000920E-02 0. -1.
</event>
<event>
 5   0  0.1549012E-04  0.1799748E+04  0.7818609E-02  0.8706433E-01
        2   -1    0    0  501    0  0.00000000000E+00  0.00000000000E+00  0.18426379172E+04  0.18426379172E+04  0.25500000920E-02 0.  1.
       -2   -1    0    0    0  501  0.00000000000E+00  0.00000000000E+00 -0.43946420779E+03  0.43946420780E+03  0.25500000920E-02 0. -1.
    10030    2    1    2    0    0  0.00000000000E+00  0.00000000000E+00  0.14031737094E+04  0.22821021250E+04  0.17997482185E+04 0.  0.
        4    1    3    3  502    0  0.71790802535E+02  0.55633950087E+03  0.15938062213E+04  0.16896412174E+04  0.12699999809E+01 0.  1.
       -4    1    3    3    0  502 -0.71790802535E+02 -0.55633950087E+03 -0.19063251188E+03  0.59246090761E+03  0.12699999809E+01 0. -1.
</event>
<event>
 5   0  0.1549012E-04  0.1928992E+04  0.7818609E-02  0.8640558E-01
       -2   -1    0    0    0  501  0.00000000000E+00  0.00000000000E+00  0.10189781670E+04  0.10189781670E+04  0.25500000920E-02 0.  1.
        2   -1    0    0  501    0  0.00000000000E+00  0.00000000000E+00 -0.91292648540E+03  0.91292648541E+03  0.25500000920E-02 0. -1.
    10030    2    1    2    0    0  0.00000000000E+00  0.00000000000E+00  0.10605168163E+03  0.19319046524E+04  0.19289916088E+04 0.  0.
        4    1    3    3  502    0  0.48362428922E+03  0.55393110461E+03 -0.57203076745E+03  0.93163991627E+03  0.12699999809E+01 0. -1.
       -4    1    3    3    0  502 -0.48362428922E+03 -0.55393110461E+03  0.67808244908E+03  0.10002647362E+04  0.12699999809E+01 0.  1.
</event>
<event>
 5   0  0.8254914E-05  0.1791598E+04  0.7818609E-02  0.8710780E-01
        1   -1    0    0  501    0  0.00000000000E+00  0.00000000000E+00  0.12941293156E+04  0.12941293156E+04  0.50400001928E-02 0.  1.
       -1   -1    0    0    0  501  0.00000000000E+00  0.00000000000E+00 -0.62007414923E+03  0.62007414925E+03  0.50400001928E-02 0. -1.
    10030    2    1    2    0    0  0.00000000000E+00  0.00000000000E+00  0.67405516636E+03  0.19142034649E+04  0.17915983193E+04 0.  0.
        4    1    3    3  502    0  0.33788940674E+01 -0.89036887692E+03  0.23187306818E+03  0.92007330499E+03  0.12699999809E+01 0.  1.
       -4    1    3    3    0  502 -0.33788940674E+01  0.89036887692E+03  0.44218209818E+03  0.99413015987E+03  0.12699999809E+01 0. -1.
</event>
<event>
 5   0  0.1608627E-04  0.1784230E+04  0.7818609E-02  0.8714731E-01
        2   -1    0    0  501    0  0.00000000000E+00  0.00000000000E+00  0.17044485684E+04  0.17044485684E+04  0.25500000920E-02 0. -1.
       -2   -1    0    0    0  501  0.00000000000E+00  0.00000000000E+00 -0.46693649301E+03  0.46693649301E+03  0.25500000920E-02 0.  1.
    10030    2    1    2    0    0  0.00000000000E+00  0.00000000000E+00  0.12375120754E+04  0.21713850614E+04  0.17842300715E+04 0.  0.
        2    1    3    3  502    0 -0.76631498703E+03  0.27050146457E+03  0.17084601379E+03  0.83042041287E+03  0.25500000920E-02 0.  1.
       -2    1    3    3    0  502  0.76631498703E+03 -0.27050146457E+03  0.10666660616E+04  0.13409646486E+04  0.25500000920E-02 0. -1.
</event>
<event>
 5   0  0.1549012E-04  0.1800995E+04  0.7818609E-02  0.8705771E-01
       -2   -1    0    0    0  501  0.00000000000E+00  0.00000000000E+00  0.66048114552E+03  0.66048114553E+03  0.25500000920E-02 0. -1.
        2   -1    0    0  501    0  0.00000000000E+00  0.00000000000E+00 -0.12277348812E+04  0.12277348812E+04  0.25500000920E-02 0.  1.
    10030    2    1    2    0    0  0.00000000000E+00  0.00000000000E+00 -0.56725373564E+03  0.18882160267E+04  0.18009949925E+04 0.  0.
        4    1    3    3  502    0 -0.78066615525E+03 -0.19643718580E+03  0.13948539049E+03  0.81699755261E+03  0.12699999809E+01 0. -1.
       -4    1    3    3    0  502  0.78066615525E+03  0.19643718580E+03 -0.70673912613E+03  0.10712184741E+04  0.12699999809E+01 0.  1.
</event>
<event>
 5   0  0.1603564E-04  0.1809522E+04  0.7818609E-02  0.8701252E-01
       -2   -1    0    0    0  501  0.00000000000E+00  0.00000000000E+00  0.67075517969E+03  0.67075517970E+03  0.25500000920E-02 0.  1.
        2   -1    0    0  501    0  0.00000000000E+00  0.00000000000E+00 -0.12204039613E+04  0.12204039613E+04  0.25500000920E-02 0. -1.
    10030    2    1    2    0    0  0.00000000000E+00  0.00000000000E+00 -0.54964878156E+03  0.18911591410E+04  0.18095217913E+04 0.  0.
        5    1    3    3  502    0 -0.26072060534E+03 -0.86365879773E+03 -0.34638569164E+03  0.96637823357E+03  0.46999998093E+01 0.  1.
       -5    1    3    3    0  502  0.26072060534E+03  0.86365879773E+03 -0.20326308992E+03  0.92478090739E+03  0.46999998093E+01 0. -1.
</event>
<event>
 5   0  0.5820500E-05  0.1723118E+04  0.7818609E-02  0.8748288E-01
        4   -1    0    0  501    0  0.00000000000E+00  0.00000000000E+00  0.10117340331E+04  0.10117348302E+04  0.12699999809E+01 0.  1.
       -4   -1    0    0    0  501  0.00000000000E+00  0.00000000000E+00 -0.73367333246E+03  0.73367443165E+03  0.12699999809E+01 0. -1.
    10030    2    1    2    0    0  0.00000000000E+00  0.00000000000E+00  0.27806070065E+03  0.17454092619E+04  0.17231180279E+04 0.  0.
        1    1    3    3  502    0 -0.31815081014E+03  0.11771085376E+03  0.94124039751E+03  0.10005045072E+04  0.50400001928E-02 0.  1.
       -1    1    3    3    0  502  0.31815081014E+03 -0.11771085376E+03 -0.66317969686E+03  0.74490475461E+03  0.50400001928E-02 0. -1.
</event>
<event>
 5   0  0.1603564E-04  0.1807139E+04  0.7818609E-02  0.8702512E-01
        2   -1    0    0  501    0  0.00000000000E+00  0.00000000000E+00  0.93338147231E+03  0.93338147231E+03  0.25500000920E-02 0. -1.
       -2   -1    0    0    0  501  0.00000000000E+00  0.00000000000E+00 -0.87470936973E+03  0.87470936973E+03  0.25500000920E-02 0.  1.
    10030    2    1    2    0    0  0.00000000000E+00  0.00000000000E+00  0.58672102582E+02  0.18080908420E+04  0.18071386437E+04 0.  0.
        5    1    3    3  502    0  0.17588617253E+03  0.65396145551E+03  0.62782671015E+03  0.92346629552E+03  0.46999998093E+01 0. -1.
       -5    1    3    3    0  502 -0.17588617253E+03 -0.65396145551E+03 -0.56915460757E+03  0.88462454652E+03  0.46999998093E+01 0.  1.
</event>
<event>
 5   0  0.5820500E-05  0.1889906E+04  0.7818609E-02  0.8659897E-01
       -3   -1    0    0    0  501  0.00000000000E+00  0.00000000000E+00  0.41326879636E+03  0.41326880870E+03  0.10100000352E+00 0.  1.
        3   -1    0    0  501    0  0.00000000000E+00  0.00000000000E+00 -0.21606671503E+04  0.21606671527E+04  0.10100000352E+00 0. -1.
    10030    2    1    2    0    0  0.00000000000E+00  0.00000000000E+00 -0.17473983540E+04  0.25739359614E+04  0.18899061685E+04 0.  0.
        2    1    3    3  502    0 -0.13901766392E+03  0.92978733198E+03 -0.10036622096E+04  0.13751975220E+04  0.25500000920E-02 0. -1.
       -2    1    3    3    0  502  0.13901766392E+03 -0.92978733198E+03 -0.74373614441E+03  0.11987384394E+04  0.25500000920E-02 0.  1.
</event>
<event>
 5   0  0.8492114E-05  0.1796738E+04  0.7818609E-02  0.8708036E-01
        1   -1    0    0  501    0  0.00000000000E+00  0.00000000000E+00  0.94643777085E+03  0.94643777086E+03  0.50400001928E-02 0. -1.
       -1   -1    0    0    0  501  0.00000000000E+00  0.00000000000E+00 -0.85274174157E+03  0.85274174159E+03  0.50400001928E-02 0.  1.
    10030    2    1    2    0    0  0.00000000000E+00  0.00000000000E+00  0.93696029276E+02  0.17991795125E+04  0.17967381479E+04 0.  0.
        2    1    3    3  502    0 -0.18865805921E+02 -0.43137120276E+03 -0.74202314073E+03  0.85850764388E+03  0.25500000920E-02 0.  1.
       -2    1    3    3    0  502  0.18865805921E+02  0.43137120276E+03  0.83571917001E+03  0.94067186858E+03  0.25500000920E-02 0. -1.
</event>
<event>
 5   0  0.1573981E-04  0.1812768E+04  0.7818609E-02  0.8699539E-01
        2   -1    0    0  501    0  0.00000000000E+00  0.00000000000E+00  0.10965689382E+04  0.10965689382E+04  0.25500000920E-02 0. -1.
       -2   -1    0    0    0  501  0.00000000000E+00  0.00000000000E+00 -0.74918415200E+03  0.74918415200E+03  0.25500000920E-02 0.  1.
    10030    2    1    2    0    0  0.00000000000E+00  0.00000000000E+00  0.34738478617E+03  0.18457530902E+04  0.18127681264E+04 0.  0.
        1    1    3    3  502    0  0.55548286706E+03  0.34143400539E+03  0.81474652746E+03  0.10435278145E+04  0.50400001928E-02 0. -1.
       -1    1    3    3    0  502 -0.55548286706E+03 -0.34143400539E+03 -0.46736174130E+03  0.80222527565E+03  0.50400001928E-02 0.  1.
</event>
<event>
 5   0  0.8254914E-05  0.1784575E+04  0.7818609E-02  0.8714546E-01
       -1   -1    0    0    0  501  0.00000000000E+00  0.00000000000E+00  0.50791487461E+03  0.50791487464E+03  0.50400001928E-02 0.  1.
        1   -1    0    0  501    0  0.00000000000E+00  0.00000000000E+00 -0.15675399593E+04  0.15675399594E+04  0.50400001928E-02 0. -1.
    10030    2    1    2    0    0  0.00000000000E+00  0.00000000000E+00 -0.10596250847E+04  0.20754548340E+04  0.17845748647E+04 0.  0.
        4    1    3    3  502    0  0.49937601306E+03  0.63551460646E+03 -0.96948075380E+03  0.12622003654E+04  0.12699999809E+01 0. -1.
       -4    1    3    3    0  502 -0.49937601306E+03 -0.63551460646E+03 -0.90144330934E+02  0.81325446863E+03  0.12699999809E+01 0.  1.
</event>
<event>
 5   0  0.1628397E-04  0.1798529E+04  0.7818609E-02  0.8707082E-01
       -2   -1    0    0    0  501  0.00000000000E+00  0.00000000000E+00  0.50984706593E+03  0.50984706594E+03  0.25500000920E-02 0.  1.
        2   -1    0    0  501    0  0.00000000000E+00  0.00000000000E+00 -0.15861169388E+04  0.15861169388E+04  0.25500000920E-02 0. -1.
    10030    2    1    2    0    0  0.00000000000E+00  0.00000000000E+00 -0.10762698729E+04  0.20959640048E+04  0.17985294743E+04 0.  0.
        3    1    3    3  502    0  0.40783543076E+03 -0.12178244216E+03 -0.14612987773E+04  0.15220232681E+04  0.10100000352E+00 0. -1.
       -3    1    3    3    0  502 -0.40783543076E+03  0.12178244216E+03  0.38502890441E+03  0.57394073669E+03  0.10100000352E+00 0.  1.
</event>
<event>
 5   0  0.8430513E-05  0.1801986E+04  0.7818609E-02  0.8705244E-01
       -1   -1    0    0    0  501  0.00000000000E+00  0.00000000000E+00  0.78244505355E+03  0.78244505357E+03  0.50400001928E-02 0.  1.
        1   -1    0    0  501    0  0.00000000000E+00  0.00000000000E+00 -0.10375019774E+04  0.10375019774E+04  0.50400001928E-02 0. -1.
    10030    2    1    2    0    0  0.00000000000E+00  0.00000000000E+00 -0.25505692383E+03  0.18199470310E+04  0.18019858937E+04 0.  0.
        5    1    3    3  502    0 -0.51885161662E+03  0.50847836335E+03  0.41070832546E+03  0.83454218867E+03  0.46999998093E+01 0.  1.
       -5    1    3    3    0  502  0.51885161662E+03 -0.50847836335E+03 -0.66576524928E+03  0.98540484229E+03  0.46999998093E+01 0. -1.
</event>
<event>
 5   0  0.8132598E-05  0.1802852E+04  0.7818609E-02  0.8704784E-01
       -1   -1    0    0    0  501  0.00000000000E+00  0.00000000000E+00  0.39649289997E+03  0.39649290001E+03  0.50400001928E-02 0.  1.
        1   -1    0    0  501    0  0.00000000000E+00  0.00000000000E+00 -0.20493899457E+04  0.20493899457E+04  0.50400001928E-02 0. -1.
    10030    2    1    2    0    0  0.00000000000E+00  0.00000000000E+00 -0.16528970457E+04  0.24458828457E+04  0.18028516997E+04 0.  0.
        3    1    3    3  502    0 -0.12124606431E+03 -0.83081911139E+03 -0.38141060360E+03  0.92219036142E+03  0.10100000352E+00 0.  1.
       -3    1    3    3    0  502  0.12124606431E+03  0.83081911139E+03 -0.12714864421E+04  0.15236924843E+04  0.10100000352E+00 0. -1.
</event>
<event>
 5   0  0.5820500E-05  0.1807673E+04  0.7818609E-02  0.8702229E-01
       -3   -1    0    0    0  501  0.00000000000E+00  0.00000000000E+00  0.59021398734E+03  0.59021399599E+03  0.10100000352E+00 0.  1.
        3   -1    0    0  501    0  0.00000000000E+00  0.00000000000E+00 -0.13841095681E+04  0.13841095718E+04  0.10100000352E+00 0. -1.
    10030    2    1    2    0    0  0.00000000000E+00  0.00000000000E+00 -0.79389558077E+03  0.19743235678E+04  0.18076734653E+04 0.  0.
        3    1    3    3  502    0  0.44743573022E+03  0.35782710948E+03 -0.11604520319E+04  0.12941746024E+04  0.10100000352E+00 0. -1.
       -3    1    3    3    0  502 -0.44743573022E+03 -0.35782710948E+03  0.36655645118E+03  0.68014896534E+03  0.10100000352E+00 0.  1.
</event>
<event>
 5   0  0.1608627E-04  0.1798470E+04  0.7818609E-02  0.8707114E-01
       -2   -1    0    0    0  501  0.00000000000E+00  0.00000000000E+00  0.73787857130E+03  0.73787857130E+03  0.25500000920E-02 0.  1.
        2   -1    0    0  501    0  0.00000000000E+00  0.00000000000E+00 -0.10958759976E+04  0.10958759976E+04  0.25500000920E-02 0. -1.
    10030    2    1    2    0    0  0.00000000000E+00  0.00000000000E+00 -0.35799742626E+03  0.18337545689E+04  0.17984698112E+04 0.  0.
        2    1    3    3  502    0  0.83542659310E+03  0.20592597317E+03  0.87432940031E+02  0.86486277403E+03  0.25500000920E-02 0.  1.
       -2    1    3    3    0  502 -0.83542659310E+03 -0.20592597317E+03 -0.44543036630E+03  0.96889179484E+03  0.25500000920E-02 0. -1.
</event>
<event>
 5   0  0.1603564E-04  0.1796443E+04  0.7818609E-02  0.8708193E-01
       -2   -1    0    0    0  501  0.00000000000E+00  0.00000000000E+00  0.67967615161E+03  0.67967615161E+03  0.25500000920E-02 0.  1.
        2   -1    0    0  501    0  0.00000000000E+00  0.00000000000E+00 -0.11870382277E+04  0.11870382277E+04  0.25500000920E-02 0. -1.
    10030    2    1    2    0    0  0.00000000000E+00  0.00000000000E+00 -0.50736207611E+03  0.18667143793E+04  0.17964426787E+04 0.  0.
        5    1    3    3  502    0  0.40470929024E+03 -0.77607729207E+03 -0.46329935380E+03  0.99033022477E+03  0.46999998093E+01 0. -1.
       -5    1    3    3    0  502 -0.40470929024E+03  0.77607729207E+03 -0.44062722308E+02  0.87638415456E+03  0.46999998093E+01 0.  1.
</event>
<event>
 5   0  0.8254914E-05  0.1795084E+04  0.7818609E-02  0.8708918E-01
        1   -1    0    0  501    0  0.00000000000E+00  0.00000000000E+00  0.16419787866E+04  0.16419787866E+04  0.50400001928E-02 0.  1.
       -1   -1    0    0    0  501  0.00000000000E+00  0.00000000000E+00 -0.49061636059E+03  0.49061636062E+03  0.50400001928E-02 0. -1.
    10030    2    1    2    0    0  0.00000000000E+00  0.00000000000E+00  0.11513624260E+04  0.21325951472E+04  0.17950840164E+04 0.  0.
        4    1    3    3  502    0  0.41864311165E+03  0.45831434923E+03  0.13458496865E+04  0.14821022533E+04  0.12699999809E+01 0.  1.
       -4    1    3    3    0  502 -0.41864311165E+03 -0.45831434923E+03 -0.19448726051E+03  0.65049289393E+03  0.12699999809E+01 0. -1.
</event>
<event>
 5   0  0.1549012E-04  0.1800697E+04  0.7818609E-02  0.8705929E-01
       -2   -1    0    0    0  501  0.00000000000E+00  0.00000000000E+00  0.74347628374E+03  0.74347628374E+03  0.25500000920E-02 0. -1.
        2   -1    0    0  501    0  0.00000000000E+00  0.00000000000E+00 -0.10903205700E+04  0.10903205700E+04  0.25500000920E-02 0.  1.
    10030    2    1    2    0    0  0.00000000000E+00  0.00000000000E+00 -0.34684428623E+03  0.18337968537E+04  0.18006970711E+04 0.  0.
        4    1    3    3  502    0  0.42371661286E+03  0.79439389216E+03 -0.16799037387E+03  0.91587106217E+03  0.12699999809E+01 0.  1.
       -4    1    3    3    0  502 -0.42371661286E+03 -0.79439389216E+03 -0.17885391236E+03  0.91792579154E+03  0.12699999809E+01 0. -1.
</event>
<event>
 5   0  0.8430513E-05  0.1796261E+04  0.7818609E-02  0.8708291E-01
        1   -1    0    0  501    0  0.00000000000E+00  0.00000000000E+00  0.11178611350E+04  0.11178611350E+04  0.50400001928E-02 0.  1.
       -1   -1    0    0    0  501  0.00000000000E+00  0.00000000000E+00 -0.72159054906E+03  0.72159054907E+03  0.50400001928E-02 0. -1.
    10030    2    1    2    0    0  0.00000000000E+00  0.00000000000E+00  0.39627058596E+03  0.18394516841E+04  0.17962605938E+04 0.  0.
        5    1    3    3  502    0 -0.19486021499E+02  0.17143636242E+03  0.11007168518E+04  0.11141677653E+04  0.46999998093E+01 0.  1.
       -5    1    3    3    0  502  0.19486021499E+02 -0.17143636242E+03 -0.70444626585E+03  0.72528391879E+03  0.46999998093E+01 0. -1.
</event>
<event>
 5   0  0.1608627E-04  0.1798674E+04  0.7818609E-02  0.8707005E-01
       -2   -1    0    0    0  501  0.00000000000E+00  0.00000000000E+00  0.10160207040E+04  0.10160207040E+04  0.25500000920E-02 0. -1.
        2   -1    0    0  501    0  0.00000000000E+00  0.00000000000E+00 -0.79605346868E+03  0.79605346868E+03  0.25500000920E-02 0.  1.
    10030    2    1    2    0    0  0.00000000000E+00  0.00000000000E+00  0.21996723528E+03  0.18120741727E+04  0.17986737399E+04 0.  0.
        2    1    3    3  502    0  0.28012991565E+03  0.91019604803E+02  0.96604923058E+03  0.10099546792E+04  0.25500000920E-02 0. -1.
       -2    1    3    3    0  502 -0.28012991565E+03 -0.91019604803E+02 -0.74608199529E+03  0.80211949347E+03  0.25500000920E-02 0.  1.
</event>
<event>
 5   0  0.1628397E-04  0.1799266E+04  0.7818609E-02  0.8706690E-01
       -2   -1    0    0    0  501  0.00000000000E+00  0.00000000000E+00  0.40697229076E+03  0.40697229077E+03  0.25500000920E-02 0.  1.
        2   -1    0    0  501    0  0.00000000000E+00  0.00000000000E+00 -0.19886850799E+04  0.19886850799E+04  0.25500000920E-02 0. -1.
    10030    2    1    2    0    0  0.00000000000E+00  0.00000000000E+00 -0.15817127892E+04  0.23956573707E+04  0.17992662089E+04 0.  0.
        3    1    3    3  502    0  0.46070596357E+03 -0.59845836055E+03 -0.14002083462E+03  0.76811993758E+03  0.10100000352E+00 0.  1.
       -3    1    3    3    0  502 -0.46070596357E+03  0.59845836055E+03 -0.14416919546E+04  0.16275374331E+04  0.10100000352E+00 0. -1.
</event>
<event>
 5   0  0.8492114E-05  0.1793569E+04  0.7818609E-02  0.8709727E-01
       -1   -1    0    0    0  501  0.00000000000E+00  0.00000000000E+00  0.62577103045E+03  0.62577103047E+03  0.50400001928E-02 0. -1.
        1   -1    0    0  501    0  0.00000000000E+00  0.00000000000E+00 -0.12851701030E+04  0.12851701030E+04  0.50400001928E-02 0.  1.
    10030    2    1    2    0    0  0.00000000000E+00  0.00000000000E+00 -0.65939907258E+03  0.19109411335E+04  0.17935687550E+04 0.  0.
        2    1    3    3  502    0 -0.40363982310E+03  0.75017406839E+03 -0.31117543066E+02  0.85244034464E+03  0.25500000920E-02 0. -1.
       -2    1    3    3    0  502  0.40363982310E+03 -0.75017406839E+03 -0.62828152951E+03  0.10585007889E+04  0.25500000920E-02 0.  1.
</event>
<event>
 5   0  0.8430513E-05  0.1803783E+04  0.7818609E-02  0.8704290E-01
       -1   -1    0    0    0  501  0.00000000000E+00  0.00000000000E+00  0.83862078555E+03  0.83862078556E+03  0.50400001928E-02 0. -1.
        1   -1    0    0  501    0  0.00000000000E+00  0.00000000000E+00 -0.96993573042E+03  0.96993573044E+03  0.50400001928E-02 0.  1.
    10030    2    1    2    0    0  0.00000000000E+00  0.00000000000E+00 -0.13131494488E+03  0.18085565160E+04  0.18037829850E+04 0.  0.
        5    1    3    3  502    0  0.71942326589E+03 -0.54274620043E+03 -0.10100556655E+03  0.90684479821E+03  0.46999998093E+01 0. -1.
       -5    1    3    3    0  502 -0.71942326589E+03  0.54274620043E+03 -0.30309378322E+02  0.90171171778E+03  0.46999998093E+01 0.  1.
</event>
<event>
 5   0  0.1628397E-04  0.1775416E+04  0.7818609E-02  0.8719483E-01
        2   -1    0    0  501    0  0.00000000000E+00  0.00000000000E+00  0.65358217317E+03  0.65358217318E+03  0.25500000920E-02 0. -1.
       -2   -1    0    0    0  501  0.00000000000E+00  0.00000000000E+00 -0.12057026471E+04  0.12057026471E+04  0.25500000920E-02 0.  1.
    10030    2    1    2    0    0  0.00000000000E+00  0.00000000000E+00 -0.55212047390E+03  0.18592848203E+04  0.17754162963E+04 0.  0.
        3    1    3    3  502    0  0.20595953764E+03 -0.13812102307E+03  0.61657124175E+03  0.66457268565E+03  0.10100000352E+00 0. -1.
       -3    1    3    3    0  502 -0.20595953764E+03  0.13812102307E+03 -0.11686917156E+04  0.11947121346E+04  0.10100000352E+00 0.  1.
</event>
<event>
 5   0  0.1628397E-04  0.1810562E+04  0.7818609E-02  0.8700703E-01
       -2   -1    0    0    0  501  0.00000000000E+00  0.00000000000E+00  0.40930502103E+03  0.40930502104E+03  0.25500000920E-02 0.  1.
        2   -1    0    0  501    0  0.00000000000E+00  0.00000000000E+00 -0.20022562058E+04  0.20022562058E+04  0.25500000920E-02 0. -1.
    10030    2    1    2    0    0  0.00000000000E+00  0.00000000000E+00 -0.15929511848E+04  0.24115612269E+04  0.18105618116E+04 0.  0.
        3    1    3    3  502    0 -0.32950879905E+03  0.43220933724E+03  0.16782800623E+03  0.56881210406E+03  0.10100000352E+00 0.  1.
       -3    1    3    3    0  502  0.32950879905E+03 -0.43220933724E+03 -0.17607791910E+04  0.18427491228E+04  0.10100000352E+00 0. -1.
</event>
<event>
 5   0  0.1608627E-04  0.1796019E+04  0.7818609E-02  0.8708419E-01
       -2   -1    0    0    0  501  0.00000000000E+00  0.00000000000E+00  0.74128885796E+03  0.74128885797E+03  0.25500000920E-02 0.  1.
        2   -1    0    0  501    0  0.00000000000E+00  0.00000000000E+00 -0.10878636681E+04  0.10878636681E+04  0.25500000920E-02 0. -1.
    10030    2    1    2    0    0  0.00000000000E+00  0.00000000000E+00 -0.34657481017E+03  0.18291525261E+04  0.17960191716E+04 0.  0.
        2    1    3    3  502    0 -0.85449177592E+02 -0.89347475524E+03 -0.20249603045E+03  0.92011050563E+03  0.25500000920E-02 0. -1.
       -2    1    3    3    0  502  0.85449177592E+02  0.89347475524E+03 -0.14407877972E+03  0.90904202047E+03  0.25500000920E-02 0.  1.
</event>
<event>
 5   0  0.8206783E-05  0.1796340E+04  0.7818609E-02  0.8708248E-01
        1   -1    0    0  501    0  0.00000000000E+00  0.00000000000E+00  0.14515331583E+04  0.14515331583E+04  0.50400001928E-02 0.  1.
       -1   -1    0    0    0  501  0.00000000000E+00  0.00000000000E+00 -0.55576373823E+03  0.55576373825E+03  0.50400001928E-02 0. -1.
    10030    2    1    2    0    0  0.00000000000E+00  0.00000000000E+00  0.89576942004E+03  0.20072968965E+04  0.17963401618E+04 0.  0.
        1    1    3    3  502    0  0.32135814530E+03 -0.54682104346E+03 -0.26274298447E+03  0.68652617360E+03  0.50400001928E-02 0. -1.
       -1    1    3    3    0  502 -0.32135814530E+03  0.54682104346E+03  0.11585124045E+04  0.13207707229E+04  0.50400001928E-02 0.  1.
</event>
<event>
 5   0  0.1549012E-04  0.1792074E+04  0.7818609E-02  0.8710526E-01
       -2   -1    0    0    0  501  0.00000000000E+00  0.00000000000E+00  0.62374165357E+03  0.62374165357E+03  0.25500000920E-02 0. -1.
        2   -1    0    0  501    0  0.00000000000E+00  0.00000000000E+00 -0.12872026350E+04  0.12872026350E+04  0.25500000920E-02 0.  1.
    10030    2    1    2    0    0  0.00000000000E+00  0.00000000000E+00 -0.66346098144E+03  0.19109442886E+04  0.17920735477E+04 0.  0.
        4    1    3    3  502    0  0.18200774860E+03 -0.56361270244E+03  0.38524887746E+03  0.70654398970E+03  0.12699999809E+01 0. -1.
       -4    1    3    3    0  502 -0.18200774860E+03  0.56361270244E+03 -0.10487098589E+04  0.12044002989E+04  0.12699999809E+01 0.  1.
</event>
<event>
 5   0  0.1628397E-04  0.1821520E+04  0.7818609E-02  0.8694939E-01
        2   -1    0    0  501    0  0.00000000000E+00  0.00000000000E+00  0.12276398757E+04  0.12276398757E+04  0.25500000920E-02 0. -1.
       -2   -1    0    0    0  501  0.00000000000E+00  0.00000000000E+00 -0.67567318764E+03  0.67567318765E+03  0.25500000920E-02 0.  1.
    10030    2    1    2    0    0  0.00000000000E+00  0.00000000000E+00  0.55196668801E+03  0.19033130633E+04  0.18215195284E+04 0.  0.
        3    1    3    3  502    0  0.47089750772E+03  0.52851050944E+03  0.87479222206E+03  0.11253129624E+04  0.10100000352E+00 0. -1.
       -3    1    3    3    0  502 -0.47089750772E+03 -0.52851050944E+03 -0.32282553405E+03  0.77800010090E+03  0.10100000352E+00 0.  1.
</event>
<event>
 5   0  0.8492114E-05  0.1727435E+04  0.7818609E-02  0.8745870E-01
        1   -1    0    0  501    0  0.00000000000E+00  0.00000000000E+00  0.12497278177E+04  0.12497278177E+04  0.50400001928E-02 0.  1.
       -1   -1    0    0    0  501  0.00000000000E+00  0.00000000000E+00 -0.59693598674E+03  0.59693598676E+03  0.50400001928E-02 0. -1.
    10030    2    1    2    0    0  0.00000000000E+00  0.00000000000E+00  0.65279183096E+03  0.18466638045E+04  0.17274345233E+04 0.  0.
        2    1    3    3  502    0  0.84456997967E+03  0.17555675981E+03  0.37285692120E+03  0.93975577155E+03  0.25500000920E-02 0.  1.
       -2    1    3    3    0  502 -0.84456997967E+03 -0.17555675981E+03  0.27993490975E+03  0.90690803292E+03  0.25500000920E-02 0. -1.
</event>
<event>
 5   0  0.8206783E-05  0.1805515E+04  0.7818609E-02  0.8703372E-01
        1   -1    0    0  501    0  0.00000000000E+00  0.00000000000E+00  0.13931185670E+04  0.13931185670E+04  0.50400001928E-02 0. -1.
       -1   -1    0    0    0  501  0.00000000000E+00  0.00000000000E+00 -0.58499784112E+03  0.58499784114E+03  0.50400001928E-02 0.  1.
    10030    2    1    2    0    0  0.00000000000E+00  0.00000000000E+00  0.80812072588E+03  0.19781164081E+04  0.18055152773E+04 0.  0.
        1    1    3    3  502    0 -0.70710928048E+03 -0.35203068523E+03  0.88292785025E+03  0.11846901395E+04  0.50400001928E-02 0. -1.
       -1    1    3    3    0  502  0.70710928048E+03  0.35203068523E+03 -0.74807124374E+02  0.79342626864E+03  0.50400001928E-02 0.  1.
</event>
<event>
 5   0  0.1573981E-04  0.1792273E+04  0.7818609E-02  0.8710419E-01
       -2   -1    0    0    0  501  0.00000000000E+00  0.00000000000E+00  0.54524214154E+03  0.54524214154E+03  0.25500000920E-02 0. -1.
        2   -1    0    0  501    0  0.00000000000E+00  0.00000000000E+00 -0.14728517792E+04  0.14728517792E+04  0.25500000920E-02 0.  1.
    10030    2    1    2    0    0  0.00000000000E+00  0.00000000000E+00 -0.92760963762E+03  0.20180939207E+04  0.17922732585E+04 0.  0.
        1    1    3    3  502    0  0.28673175314E+03 -0.71527571099E+03 -0.97885009498E+03  0.12457856756E+04  0.50400001928E-02 0.  1.
       -1    1    3    3    0  502 -0.28673175314E+03  0.71527571099E+03  0.51240457363E+02  0.77230824513E+03  0.50400001928E-02 0. -1.
</event>
<event>
 5   0  0.8430513E-05  0.1796465E+04  0.7818609E-02  0.8708182E-01
       -1   -1    0    0    0  501  0.00000000000E+00  0.00000000000E+00  0.49623386536E+03  0.49623386539E+03  0.50400001928E-02 0.  1.
        1   -1    0    0  501    0  0.00000000000E+00  0.00000000000E+00 -0.16258892522E+04  0.16258892522E+04  0.50400001928E-02 0. -1.
    10030    2    1    2    0    0  0.00000000000E+00  0.00000000000E+00 -0.11296553868E+04  0.21221231176E+04  0.17964646485E+04 0.  0.
        5    1    3    3  502    0  0.21246999016E+03  0.73425708316E+03 -0.75923818076E+01  0.76443226982E+03  0.46999998093E+01 0.  1.
       -5    1    3    3    0  502 -0.21246999016E+03 -0.73425708316E+03 -0.11220630050E+04  0.13576908478E+04  0.46999998093E+01 0. -1.
</event>
<event>
 5   0  0.8206783E-05  0.1797594E+04  0.7818609E-02  0.8707580E-01
        1   -1    0    0  501    0  0.00000000000E+00  0.00000000000E+00  0.15376356968E+04  0.15376356968E+04  0.50400001928E-02 0. -1.
       -1   -1    0    0    0  501  0.00000000000E+00  0.00000000000E+00 -0.52537518992E+03  0.52537518995E+03  0.50400001928E-02 0.  1.
    10030    2    1    2    0    0  0.00000000000E+00  0.00000000000E+00  0.10122605069E+04  0.20630108868E+04  0.17975935539E+04 0.  0.
        1    1    3    3  502    0  0.96477124897E+02 -0.72606217348E+03 -0.91708629887E+02  0.73816298215E+03  0.50400001928E-02 0.  1.
       -1    1    3    3    0  502 -0.96477124897E+02  0.72606217348E+03  0.11039691368E+04  0.13248479046E+04  0.50400001928E-02 0. -1.
</event>
<event>
 5   0  0.1628397E-04  0.1813836E+04  0.7818609E-02  0.8698976E-01
        2   -1    0    0  501    0  0.00000000000E+00  0.00000000000E+00  0.13636646001E+04  0.13636646001E+04  0.25500000920E-02 0.  1.
       -2   -1    0    0    0  501  0.00000000000E+00  0.00000000000E+00 -0.60315407703E+03  0.60315407703E+03  0.25500000920E-02 0. -1.
    10030    2    1    2    0    0  0.00000000000E+00  0.00000000000E+00  0.76051052303E+03  0.19668186771E+04  0.18138355639E+04 0.  0.
        3    1    3    3  502    0  0.40623781712E+03 -0.32739845516E+03 -0.42411989050E+03  0.67238129377E+03  0.10100000352E+00 0. -1.
       -3    1    3    3    0  502 -0.40623781712E+03  0.32739845516E+03  0.11846304135E+04  0.12944373833E+04  0.10100000352E+00 0.  1.
</event>
<event>
 5   0  0.8206783E-05  0.1790589E+04  0.7818609E-02  0.8711320E-01
       -1   -1    0    0    0  501  0.00000000000E+00  0.00000000000E+00  0.15910491502E+04  0.15910491502E+04  0.50400001928E-02 0.  1.
        1   -1    0    0  501    0  0.00000000000E+00  0.00000000000E+00 -0.50378862034E+03  0.50378862037E+03  0.50400001928E-02 0. -1.
    10030    2    1    2    0    0  0.00000000000E+00  0.00000000000E+00  0.10872605299E+04  0.20948377706E+04  0.17905892397E+04 0.  0.
        1    1    3    3  502    0  0.78790231873E+03 -0.13906880026E+03  0.10136716949E+04  0.12913793014E+04  0.50400001928E-02 0.  1.
       -1    1    3    3    0  502 -0.78790231873E+03  0.13906880026E+03  0.73588835006E+02  0.80345846920E+03  0.50400001928E-02 0. -1.
</event>
<event>
 5   0  0.8206783E-05  0.1769216E+04  0.7818609E-02  0.8722844E-01
       -1   -1    0    0    0  501  0.00000000000E+00  0.00000000000E+00  0.71732185034E+03  0.71732185036E+03  0.50400001928E-02 0.  1.
        1   -1    0    0  501    0  0.00000000000E+00  0.00000000000E+00 -0.10909067178E+04  0.10909067178E+04  0.50400001928E-02 0. -1.
    10030    2    1    2    0    0  0.00000000000E+00  0.00000000000E+00 -0.37358486748E+03  0.18082285682E+04  0.17692159002E+04 0.  0.
        1    1    3    3  502    0 -0.40645625968E+02  0.38612052554E+03  0.62558696241E+03  0.73627452402E+03  0.50400001928E-02 0.  1.
       -1    1    3    3    0  502  0.40645625968E+02 -0.38612052554E+03 -0.99917182989E+03  0.10719540442E+04  0.50400001928E-02 0. -1.
</event>
<event>
 5   0  0.8492114E-05  0.1774618E+04  0.7818609E-02  0.8719915E-01
        1   -1    0    0  501    0  0.00000000000E+00  0.00000000000E+00  0.11102410100E+04  0.11102410100E+04  0.50400001928E-02 0. -1.
       -1   -1    0    0    0  501  0.00000000000E+00  0.00000000000E+00 -0.70914064821E+03  0.70914064822E+03  0.50400001928E-02 0.  1.
    10030    2    1    2    0    0  0.00000000000E+00  0.00000000000E+00  0.40110036183E+03  0.18193816583E+04  0.17746177386E+04 0.  0.
        2    1    3    3  502    0  0.22022901938E+03  0.38001590975E+03  0.99097378006E+03  0.10839473905E+04  0.25500000920E-02 0. -1.
       -2    1    3    3    0  502 -0.22022901938E+03 -0.38001590975E+03 -0.58987341823E+03  0.73543426775E+03  0.25500000920E-02 0.  1.
</event>
<event>
 5   0  0.1573981E-04  0.1796240E+04  0.7818609E-02  0.8708302E-01
       -2   -1    0    0    0  501  0.00000000000E+00  0.00000000000E+00  0.49246494077E+03  0.49246494078E+03  0.25500000920E-02 0. -1.
        2   -1    0    0  501    0  0.00000000000E+00  0.00000000000E+00 -0.16379227246E+04  0.16379227246E+04  0.25500000920E-02 0.  1.
    10030    2    1    2    0    0  0.00000000000E+00  0.00000000000E+00 -0.11454577838E+04  0.21303876654E+04  0.17962399813E+04 0.  0.
        1    1    3    3  502    0  0.43712418328E+03 -0.48760800499E+03  0.15624838461E+03  0.67324042946E+03  0.50400001928E-02 0. -1.
       -1    1    3    3    0  502 -0.43712418328E+03  0.48760800499E+03 -0.13017061684E+04  0.14571472359E+04  0.50400001928E-02 0.  1.
</event>
<event>
 5   0  0.5820500E-05  0.1751550E+04  0.7818609E-02  0.8732498E-01
        3   -1    0    0  501    0  0.00000000000E+00  0.00000000000E+00  0.10569321886E+04  0.10569321934E+04  0.10100000352E+00 0.  1.
       -3   -1    0    0    0  501  0.00000000000E+00  0.00000000000E+00 -0.72566782370E+03  0.72566783073E+03  0.10100000352E+00 0. -1.
    10030    2    1    2    0    0  0.00000000000E+00  0.00000000000E+00  0.33126436488E+03  0.17826000241E+04  0.17515498185E+04 0.  0.
        3    1    3    3  502    0  0.40259979991E+03 -0.54626955010E+03  0.72905675752E+03  0.99600240268E+03  0.10100000352E+00 0.  1.
       -3    1    3    3    0  502 -0.40259979991E+03  0.54626955010E+03 -0.39779239264E+03  0.78659762146E+03  0.10100000352E+00 0. -1.
</event>
<event>
 5   0  0.1628397E-04  0.1806555E+04  0.7818609E-02  0.8702821E-01
       -2   -1    0    0    0  501  0.00000000000E+00  0.00000000000E+00  0.68221060935E+03  0.68221060936E+03  0.25500000920E-02 0. -1.
        2   -1    0    0  501    0  0.00000000000E+00  0.00000000000E+00 -0.11959800975E+04  0.11959800975E+04  0.25500000920E-02 0.  1.
    10030    2    1    2    0    0  0.00000000000E+00  0.00000000000E+00 -0.51376948817E+03  0.18781907069E+04  0.18065550765E+04 0.  0.
        3    1    3    3  502    0  0.86166785397E+02  0.66993192451E+03  0.36662708226E+03  0.76853687357E+03  0.10100000352E+00 0. -1.
       -3    1    3    3    0  502 -0.86166785397E+02 -0.66993192451E+03 -0.88039657043E+03  0.11096538333E+04  0.10100000352E+00 0.  1.
</event>
<event>
 5   0  0.1608627E-04  0.1659639E+04  0.7818609E-02  0.8784724E-01
       -2   -1    0    0    0  501  0.00000000000E+00  0.00000000000E+00  0.29009398024E+03  0.29009398025E+03  0.25500000920E-02 0.  1.
        2   -1    0    0  501    0  0.00000000000E+00  0.00000000000E+00 -0.23737159322E+04  0.23737159322E+04  0.25500000920E-02 0. -1.
    10030    2    1    2    0    0  0.00000000000E+00  0.00000000000E+00 -0.20836219520E+04  0.26638099125E+04  0.16596393617E+04 0.  0.
        2    1    3    3  502    0 -0.26594506776E+03 -0.58556847957E+03 -0.18834828325E+04  0.19902574717E+04  0.25500000920E-02 0. -1.
       -2    1    3    3    0  502  0.26594506776E+03  0.58556847957E+03 -0.20013911949E+03  0.67355244079E+03  0.25500000920E-02 0.  1.
</event>
<event>
 5   0  0.1549012E-04  0.1808386E+04  0.7818609E-02  0.8701853E-01
        2   -1    0    0  501    0  0.00000000000E+00  0.00000000000E+00  0.86395755153E+03  0.86395755153E+03  0.25500000920E-02 0.  1.
       -2   -1    0    0    0  501  0.00000000000E+00  0.00000000000E+00 -0.94630206774E+03  0.94630206775E+03  0.25500000920E-02 0. -1.
    10030    2    1    2    0    0  0.00000000000E+00  0.00000000000E+00 -0.82344516216E+02  0.18102596193E+04  0.18083858189E+04 0.  0.
        4    1    3    3  502    0  0.82153284870E+03  0.26398107451E+02  0.33598082109E+03  0.88797398982E+03  0.12699999809E+01 0. -1.
       -4    1    3    3    0  502 -0.82153284870E+03 -0.26398107451E+02 -0.41832533730E+03  0.92228562945E+03  0.12699999809E+01 0.  1.
</event>
<event>
 5   0  0.1628397E-04  0.1795996E+04  0.7818609E-02  0.8708432E-01
        2   -1    0    0  501    0  0.00000000000E+00  0.00000000000E+00  0.18860556723E+04  0.18860556723E+04  0.25500000920E-02 0.  1.
       -2   -1    0    0    0  501  0.00000000000E+00  0.00000000000E+00 -0.42755896298E+03  0.42755896299E+03  0.25500000920E-02 0. -1.
    10030    2    1    2    0    0  0.00000000000E+00  0.00000000000E+00  0.14584967093E+04  0.23136146353E+04  0.17959955539E+04 0.  0.
        3    1    3    3  502    0 -0.35538440864E+03  0.80826896596E+03  0.51834714412E+03  0.10238557375E+04  0.10100000352E+00 0.  1.
       -3    1    3    3    0  502  0.35538440864E+03 -0.80826896596E+03  0.94014956521E+03  0.12897588978E+04  0.10100000352E+00 0. -1.
</event>
<event>
 5   0  0.8206783E-05  0.1808041E+04  0.7818609E-02  0.8702035E-01
        1   -1    0    0  501    0  0.00000000000E+00  0.00000000000E+00  0.11878854333E+04  0.11878854333E+04  0.50400001928E-02 0. -1.
       -1   -1    0    0    0  501  0.00000000000E+00  0.00000000000E+00 -0.68798961462E+03  0.68798961463E+03  0.50400001928E-02 0.  1.
    10030    2    1    2    0    0  0.00000000000E+00  0.00000000000E+00  0.49989581869E+03  0.18758750479E+04  0.18080407534E+04 0.  0.
        1    1    3    3  502    0  0.22182947257E+03 -0.32036545339E+03 -0.59638361351E+03  0.71240139887E+03  0.50400001928E-02 0.  1.
       -1    1    3    3    0  502 -0.22182947257E+03  0.32036545339E+03  0.10962794322E+04  0.11634736491E+04  0.50400001928E-02 0. -1.
</event>
<event>
 5   0  0.5820500E-05  0.1795354E+04  0.7818609E-02  0.8708774E-01
        3   -1    0    0  501    0  0.00000000000E+00  0.00000000000E+00  0.89094550074E+03  0.89094550647E+03  0.10100000352E+00 0. -1.
       -3   -1    0    0    0  501  0.00000000000E+00  0.00000000000E+00 -0.90445956667E+03  0.90445957231E+03  0.10100000352E+00 0.  1.
    10030    2    1    2    0    0  0.00000000000E+00  0.00000000000E+00 -0.13514065931E+02  0.17954050788E+04  0.17953542177E+04 0.  0.
        3    1    3    3  502    0  0.80107104764E+03  0.40382260846E+03  0.25441069306E+02  0.89746018334E+03  0.10100000352E+00 0.  1.
       -3    1    3    3    0  502 -0.80107104764E+03 -0.40382260846E+03 -0.38955135236E+02  0.89794489544E+03  0.10100000352E+00 0. -1.
</event>
<event>
 5   0  0.1549012E-04  0.1886396E+04  0.7818609E-02  0.8661658E-01
        2   -1    0    0  501    0  0.00000000000E+00  0.00000000000E+00  0.17088958259E+04  0.17088958259E+04  0.25500000920E-02 0.  1.
       -2   -1    0    0    0  501  0.00000000000E+00  0.00000000000E+00 -0.52058311453E+03  0.52058311453E+03  0.25500000920E-02 0. -1.
    10030    2    1    2    0    0  0.00000000000E+00  0.00000000000E+00  0.11883127114E+04  0.22294789405E+04  0.18863958349E+04 0.  0.
        4    1    3    3  502    0  0.32639490860E+03  0.45121810563E+03  0.14938470945E+04  0.15942748100E+04  0.12699999809E+01 0.  1.
       -4    1    3    3    0  502 -0.32639490860E+03 -0.45121810563E+03 -0.30553438309E+03  0.63520413046E+03  0.12699999809E+01 0. -1.
</event>
<event>
 5   0  0.1608627E-04  0.1721566E+04  0.7818609E-02  0.8749159E-01
        2   -1    0    0  501    0  0.00000000000E+00  0.00000000000E+00  0.16255992202E+04  0.16255992202E+04  0.25500000920E-02 0. -1.
       -2   -1    0    0    0  501  0.00000000000E+00  0.00000000000E+00 -0.45579938344E+03  0.45579938345E+03  0.25500000920E-02 0.  1.
    10030    2    1    2    0    0  0.00000000000E+00  0.00000000000E+00  0.11697998367E+04  0.20813986036E+04  0.17215657086E+04 0.  0.
        2    1    3    3  502    0  0.34292575742E+03 -0.67703263678E+03  0.10759681624E+04  0.13166923532E+04  0.25500000920E-02 0. -1.
       -2    1    3    3    0  502 -0.34292575742E+03  0.67703263678E+03  0.93831674324E+02  0.76470625046E+03  0.25500000920E-02 0.  1.
</event>
<event>
 5   0  0.8492114E-05  0.1838238E+04  0.7818609E-02  0.8686225E-01
       -1   -1    0    0    0  501  0.00000000000E+00  0.00000000000E+00  0.66561729603E+03  0.66561729605E+03  0.50400001928E-02 0. -1.
        1   -1    0    0  501    0  0.00000000000E+00  0.00000000000E+00 -0.12691668425E+04  0.12691668425E+04  0.50400001928E-02 0.  1.
    10030    2    1    2    0    0  0.00000000000E+00  0.00000000000E+00 -0.60354954644E+03  0.19347841385E+04  0.18382376364E+04 0.  0.
        2    1    3    3  502    0 -0.36886231786E+03  0.55748194537E+03 -0.96572621617E+03  0.11745095374E+04  0.25500000920E-02 0.  1.
       -2    1    3    3    0  502  0.36886231786E+03 -0.55748194537E+03  0.36217666973E+03  0.76027460108E+03  0.25500000920E-02 0. -1.
</event>
<event>
 5   0  0.5820500E-05  0.1796088E+04  0.7818609E-02  0.8708382E-01
       -4   -1    0    0    0  501  0.00000000000E+00  0.00000000000E+00  0.10356729853E+04  0.10356737640E+04  0.12699999809E+01 0. -1.
        4   -1    0    0  501    0  0.00000000000E+00  0.00000000000E+00 -0.77870299696E+03  0.77870403259E+03  0.12699999809E+01 0.  1.
    10030    2    1    2    0    0  0.00000000000E+00  0.00000000000E+00  0.25696998835E+03  0.18143777966E+04  0.17960883090E+04 0.  0.
        3    1    3    3  502    0  0.50865498158E+03 -0.21590026636E+03  0.84360639995E+03  0.10084714094E+04  0.10100000352E+00 0. -1.
       -3    1    3    3    0  502 -0.50865498158E+03  0.21590026636E+03 -0.58663641160E+03  0.80590638719E+03  0.10100000352E+00 0.  1.
</event>
<event>
 5   0  0.1573981E-04  0.1814045E+04  0.7818609E-02  0.8698866E-01
       -2   -1    0    0    0  501  0.00000000000E+00  0.00000000000E+00  0.18809319030E+04  0.18809319030E+04  0.25500000920E-02 0.  1.
        2   -1    0    0  501    0  0.00000000000E+00  0.00000000000E+00 -0.43738433166E+03  0.43738433167E+03  0.25500000920E-02 0. -1.
    10030    2    1    2    0    0  0.00000000000E+00  0.00000000000E+00  0.14435475713E+04  0.23183162347E+04  0.18140453614E+04 0.  0.
        1    1    3    3  502    0 -0.56827116472E+03  0.63026317633E+03  0.11309800684E+04  0.14139588761E+04  0.50400001928E-02 0.  1.
       -1    1    3    3    0  502  0.56827116472E+03 -0.63026317633E+03  0.31256750289E+03  0.90435735856E+03  0.50400001928E-02 0. -1.
</event>
<event>
 5   0  0.8206783E-05  0.1871778E+04  0.7818609E-02  0.8669033E-01
        1   -1    0    0  501    0  0.00000000000E+00  0.00000000000E+00  0.10664173550E+04  0.10664173550E+04  0.50400001928E-02 0. -1.
       -1   -1    0    0    0  501  0.00000000000E+00  0.00000000000E+00 -0.82133734305E+03  0.82133734306E+03  0.50400001928E-02 0.  1.
    10030    2    1    2    0    0  0.00000000000E+00  0.00000000000E+00  0.24508001199E+03  0.18877546981E+04  0.18717781888E+04 0.  0.
        1    1    3    3  502    0 -0.32935196405E+03 -0.56993085762E+03 -0.54841621359E+03  0.85676965519E+03  0.50400001928E-02 0.  1.
       -1    1    3    3    0  502  0.32935196405E+03  0.56993085762E+03  0.79349622558E+03  0.10309850429E+04  0.50400001928E-02 0. -1.
</event>
<event>
 5   0  0.8430513E-05  0.1869895E+04  0.7818609E-02  0.8669988E-01
        1   -1    0    0  501    0  0.00000000000E+00  0.00000000000E+00  0.57286644803E+03  0.57286644805E+03  0.50400001928E-02 0. -1.
       -1   -1    0    0    0  501  0.00000000000E+00  0.00000000000E+00 -0.15258824687E+04  0.15258824687E+04  0.50400001928E-02 0.  1.
    10030    2    1    2    0    0  0.00000000000E+00  0.00000000000E+00 -0.95301602067E+03  0.20987489167E+04  0.18698950452E+04 0.  0.
        5    1    3    3  502    0 -0.16261102475E+03 -0.45430753147E+03  0.42229130772E+03  0.64124076375E+03  0.46999998093E+01 0. -1.
       -5    1    3    3    0  502  0.16261102475E+03  0.45430753147E+03 -0.13753073284E+04  0.14575081530E+04  0.46999998093E+01 0.  1.
</event>
<event>
 5   0  0.8206783E-05  0.1798519E+04  0.7818609E-02  0.8707088E-01
       -1   -1    0    0    0  501  0.00000000000E+00  0.00000000000E+00  0.67675229242E+03  0.67675229244E+03  0.50400001928E-02 0. -1.
        1   -1    0    0  501    0  0.00000000000E+00  0.00000000000E+00 -0.11949237597E+04  0.11949237598E+04  0.50400001928E-02 0.  1.
    10030    2    1    2    0    0  0.00000000000E+00  0.00000000000E+00 -0.51817146732E+03  0.18716760522E+04  0.17985187168E+04 0.  0.
        1    1    3    3  502    0  0.49402273780E+03  0.73943422267E+03 -0.39810841547E+03  0.97432630346E+03  0.50400001928E-02 0.  1.
       -1    1    3    3    0  502 -0.49402273780E+03 -0.73943422267E+03 -0.12006305186E+03  0.89734974874E+03  0.50400001928E-02 0. -1.
</event>
<event>
 5   0  0.8132598E-05  0.1815068E+04  0.7818609E-02  0.8698328E-01
       -1   -1    0    0    0  501  0.00000000000E+00  0.00000000000E+00  0.10159368660E+04  0.10159368660E+04  0.50400001928E-02 0. -1.
        1   -1    0    0  501    0  0.00000000000E+00  0.00000000000E+00 -0.81069757783E+03  0.81069757785E+03  0.50400001928E-02 0.  1.
    10030    2    1    2    0    0  0.00000000000E+00  0.00000000000E+00  0.20523928813E+03  0.18266344438E+04  0.18150675541E+04 0.  0.
        3    1    3    3  502    0  0.88915791499E+01 -0.74395839203E+03  0.62560859814E+03  0.97207987199E+03  0.10100000352E+00 0. -1.
       -3    1    3    3    0  502 -0.88915791499E+01  0.74395839203E+03 -0.42036931001E+03  0.85455457184E+03  0.10100000352E+00 0.  1.
</event>
<event>
 5   0  0.1573981E-04  0.1817167E+04  0.7818609E-02  0.8697223E-01
        2   -1    0    0  501    0  0.00000000000E+00  0.00000000000E+00  0.66511069536E+03  0.66511069536E+03  0.25500000920E-02 0.  1.
       -2   -1    0    0    0  501  0.00000000000E+00  0.00000000000E+00 -0.12411827080E+04  0.12411827080E+04  0.25500000920E-02 0. -1.
    10030    2    1    2    0    0  0.00000000000E+00  0.00000000000E+00 -0.57607201266E+03  0.19062934034E+04  0.18171669092E+04 0.  0.
        1    1    3    3  502    0 -0.21151620423E+03  0.15316073912E+03  0.62489198745E+03  0.67726458099E+03  0.50400001928E-02 0.  1.
       -1    1    3    3    0  502  0.21151620423E+03 -0.15316073912E+03 -0.12009640001E+04  0.12290288224E+04  0.50400001928E-02 0. -1.
</event>
<event>
 5   0  0.1573981E-04  0.1797691E+04  0.7818609E-02  0.8707528E-01
        2   -1    0    0  501    0  0.00000000000E+00  0.00000000000E+00  0.21372969708E+04  0.21372969708E+04  0.25500000920E-02 0.  1.
       -2   -1    0    0    0  501  0.00000000000E+00  0.00000000000E+00 -0.37801179108E+03  0.37801179108E+03  0.25500000920E-02 0. -1.
    10030    2    1    2    0    0  0.00000000000E+00  0.00000000000E+00  0.17592851798E+04  0.25153087619E+04  0.17976912483E+04 0.  0.
        1    1    3    3  502    0  0.30355455786E+03 -0.71433301313E+03  0.24535106315E+03  0.81401115929E+03  0.50400001928E-02 0. -1.
       -1    1    3    3    0  502 -0.30355455786E+03  0.71433301313E+03  0.15139341166E+04  0.17012976026E+04  0.50400001928E-02 0.  1.
</event>
<event>
 5   0  0.5820500E-05  0.1780244E+04  0.7818609E-02  0.8716877E-01
       -3   -1    0    0    0  501  0.00000000000E+00  0.00000000000E+00  0.87233080579E+03  0.87233081164E+03  0.10100000352E+00 0. -1.
        3   -1    0    0  501    0  0.00000000000E+00  0.00000000000E+00 -0.90827559945E+03  0.90827560507E+03  0.10100000352E+00 0.  1.
    10030    2    1    2    0    0  0.00000000000E+00  0.00000000000E+00 -0.35944793656E+02  0.17806064167E+04  0.17802435741E+04 0.  0.
        5    1    3    3  502    0 -0.10870974188E+03  0.65139008918E+03 -0.61489203121E+03  0.90235312173E+03  0.46999998093E+01 0.  1.
       -5    1    3    3    0  502  0.10870974188E+03 -0.65139008918E+03  0.57894723756E+03  0.87825329497E+03  0.46999998093E+01 0. -1.
</event>
<event>
 5   0  0.1549012E-04  0.1798334E+04  0.7818609E-02  0.8707186E-01
        2   -1    0    0  501    0  0.00000000000E+00  0.00000000000E+00  0.12985464469E+04  0.12985464469E+04  0.25500000920E-02 0.  1.
       -2   -1    0    0    0  501  0.00000000000E+00  0.00000000000E+00 -0.62262055878E+03  0.62262055879E+03  0.25500000920E-02 0. -1.
    10030    2    1    2    0    0  0.00000000000E+00  0.00000000000E+00  0.67592588813E+03  0.19211670057E+04  0.17983344677E+04 0.  0.
        4    1    3    3  502    0 -0.43376339493E+03  0.77590184078E+03  0.48258201125E+03  0.10114649573E+04  0.12699999809E+01 0.  1.
       -4    1    3    3    0  502  0.43376339493E+03 -0.77590184078E+03  0.19334387688E+03  0.90970204843E+03  0.12699999809E+01 0. -1.
</event>
<event>
 5   0  0.8492114E-05  0.1786880E+04  0.7818609E-02  0.8713308E-01
        1   -1    0    0  501    0  0.00000000000E+00  0.00000000000E+00  0.44675203675E+03  0.44675203678E+03  0.50400001928E-02 0. -1.
       -1   -1    0    0    0  501  0.00000000000E+00  0.00000000000E+00 -0.17867525212E+04  0.17867525212E+04  0.50400001928E-02 0.  1.
    10030    2    1    2    0    0  0.00000000000E+00  0.00000000000E+00 -0.13400004845E+04  0.22335045580E+04  0.17868803296E+04 0.  0.
        2    1    3    3  502    0 -0.20195324840E+03  0.81810198782E+03 -0.10411298198E+04  0.13394130352E+04  0.25500000920E-02 0.  1.
       -2    1    3    3    0  502  0.20195324840E+03 -0.81810198782E+03 -0.29887066462E+03  0.89409152283E+03  0.25500000920E-02 0. -1.
</event>
<event>
 5   0  0.1603564E-04  0.1795467E+04  0.7818609E-02  0.8708714E-01
       -2   -1    0    0    0  501  0.00000000000E+00  0.00000000000E+00  0.12141412045E+04  0.12141412045E+04  0.25500000920E-02 0.  1.
        2   -1    0    0  501    0  0.00000000000E+00  0.00000000000E+00 -0.66378249923E+03  0.66378249923E+03  0.25500000920E-02 0. -1.
    10030    2    1    2    0    0  0.00000000000E+00  0.00000000000E+00  0.55035870527E+03  0.18779237037E+04  0.17954672742E+04 0.  0.
        5    1    3    3  502    0 -0.61866215746E+03 -0.54833627092E+02 -0.40278163250E+03  0.74027341247E+03  0.46999998093E+01 0. -1.
       -5    1    3    3    0  502  0.61866215746E+03  0.54833627092E+02  0.95314033777E+03  0.11376502913E+04  0.46999998093E+01 0.  1.
</event>
<event>
 5   0  0.1603564E-04  0.1752698E+04  0.7818609E-02  0.8731867E-01
        2   -1    0    0  501    0  0.00000000000E+00  0.00000000000E+00  0.18726311819E+04  0.18726311819E+04  0.25500000920E-02 0. -1.
       -2   -1    0    0    0  501  0.00000000000E+00  0.00000000000E+00 -0.41011146483E+03  0.41011146484E+03  0.25500000920E-02 0.  1.
    10030    2    1    2    0    0  0.00000000000E+00  0.00000000000E+00  0.14625197171E+04  0.22827426468E+04  0.17526979399E+04 0.  0.
        5    1    3    3  502    0  0.45919786530E+02  0.75907673652E+03  0.12984608190E+04  0.15047686557E+04  0.46999998093E+01 0. -1.
       -5    1    3    3    0  502 -0.45919786530E+02 -0.75907673652E+03  0.16405889809E+03  0.77797399106E+03  0.46999998093E+01 0.  1.
</event>
<event>
 5   0  0.1628397E-04  0.1781197E+04  0.7818609E-02  0.8716363E-01
       -2   -1    0    0    0  501  0.00000000000E+00  0.00000000000E+00  0.73630594616E+03  0.73630594616E+03  0.25500000920E-02 0. -1.
        2   -1    0    0  501    0  0.00000000000E+00  0.00000000000E+00 -0.10772225211E+04  0.10772225211E+04  0.25500000920E-02 0.  1.
    10030    2    1    2    0    0  0.00000000000E+00  0.00000000000E+00 -0.34091657495E+03  0.18135284673E+04  0.17811966176E+04 0.  0.
        3    1    3    3  502    0  0.56405386481E+02 -0.83302544679E+03  0.14509053861E+03  0.84744571344E+03  0.10100000352E+00 0. -1.
       -3    1    3    3    0  502 -0.56405386481E+02  0.83302544679E+03 -0.48600711356E+03  0.96608275384E+03  0.10100000352E+00 0.  1.
</event>
<event>
 5   0  0.1603564E-04  0.1699952E+04  0.7818609E-02  0.8761392E-01
       -2   -1    0    0    0  501  0.00000000000E+00  0.00000000000E+00  0.40590167685E+03  0.40590167686E+03  0.25500000920E-02 0. -1.
        2   -1    0    0  501    0  0.00000000000E+00  0.00000000000E+00 -0.17798871316E+04  0.17798871316E+04  0.25500000920E-02 0.  1.
    10030    2    1    2    0    0  0.00000000000E+00  0.00000000000E+00 -0.13739854548E+04  0.21857888085E+04  0.16999519656E+04 0.  0.
        5    1    3    3  502    0 -0.41697889367E+02  0.27546358895E+03 -0.17194930220E+04  0.17419234327E+04  0.46999998093E+01 0.  1.
       -5    1    3    3    0  502  0.41697889367E+02 -0.27546358895E+03  0.34550756720E+03  0.44386537577E+03  0.46999998093E+01 0. -1.
</event>
<event>
 5   0  0.1608627E-04  0.1796584E+04  0.7818609E-02  0.8708118E-01
       -2   -1    0    0    0  501  0.00000000000E+00  0.00000000000E+00  0.77593347727E+03  0.77593347727E+03  0.25500000920E-02 0. -1.
        2   -1    0    0  501    0  0.00000000000E+00  0.00000000000E+00 -0.10399459606E+04  0.10399459606E+04  0.25500000920E-02 0.  1.
    10030    2    1    2    0    0  0.00000000000E+00  0.00000000000E+00 -0.26401248335E+03  0.18158794379E+04  0.17965844098E+04 0.  0.
        2    1    3    3  502    0  0.42750508371E+01 -0.45632241469E+03  0.65004809247E+03  0.79423607620E+03  0.25500000920E-02 0. -1.
       -2    1    3    3    0  502 -0.42750508371E+01  0.45632241469E+03 -0.91406057583E+03  0.10216433617E+04  0.25500000920E-02 0.  1.
</event>
<event>
 5   0  0.1603564E-04  0.1801790E+04  0.7818609E-02  0.8705348E-01
       -2   -1    0    0    0  501  0.00000000000E+00  0.00000000000E+00  0.46298154670E+03  0.46298154671E+03  0.25500000920E-02 0. -1.
        2   -1    0    0  501    0  0.00000000000E+00  0.00000000000E+00 -0.17530103895E+04  0.17530103895E+04  0.25500000920E-02 0.  1.
    10030    2    1    2    0    0  0.00000000000E+00  0.00000000000E+00 -0.12900288428E+04  0.22159919362E+04  0.18017896231E+04 0.  0.
        5    1    3    3  502    0 -0.45487817763E+03 -0.71041332828E+03 -0.10339147333E+04  0.13343923782E+04  0.46999998093E+01 0.  1.
       -5    1    3    3    0  502  0.45487817763E+03  0.71041332828E+03 -0.25611410952E+03  0.88159955794E+03  0.46999998093E+01 0. -1.
</event>
<event>
 5   0  0.1608627E-04  0.1840640E+04  0.7818609E-02  0.8684981E-01
       -2   -1    0    0    0  501  0.00000000000E+00  0.00000000000E+00  0.64159944940E+03  0.64159944940E+03  0.25500000920E-02 0. -1.
        2   -1    0    0  501    0  0.00000000000E+00  0.00000000000E+00 -0.13201207106E+04  0.13201207106E+04  0.25500000920E-02 0.  1.
    10030    2    1    2    0    0  0.00000000000E+00  0.00000000000E+00 -0.67852126124E+03  0.19617201600E+04  0.18406398030E+04 0.  0.
        2    1    3    3  502    0 -0.21693502352E+03 -0.33468404159E+03  0.54470520580E+03  0.67511330409E+03  0.25500000920E-02 0. -1.
       -2    1    3    3    0  502  0.21693502352E+03  0.33468404159E+03 -0.12232264670E+04  0.12866068560E+04  0.25500000920E-02 0.  1.
</event>
<event>
 5   0  0.1549012E-04  0.1800228E+04  0.7818609E-02  0.8706178E-01
       -2   -1    0    0    0  501  0.00000000000E+00  0.00000000000E+00  0.93762796473E+03  0.93762796474E+03  0.25500000920E-02 0. -1.
        2   -1    0    0  501    0  0.00000000000E+00  0.00000000000E+00 -0.86410051981E+03  0.86410051981E+03  0.25500000920E-02 0.  1.
    10030    2    1    2    0    0  0.00000000000E+00  0.00000000000E+00  0.73527444922E+02  0.18017284845E+04  0.18002275542E+04 0.  0.
        4    1    3    3  502    0 -0.82474838813E+03  0.22298583744E+03  0.32032062610E+03  0.91243602725E+03  0.12699999809E+01 0. -1.
       -4    1    3    3    0  502  0.82474838813E+03 -0.22298583744E+03 -0.24679318118E+03  0.88929245729E+03  0.12699999809E+01 0.  1.
</event>
<event>
 5   0  0.1573981E-04  0.1795553E+04  0.7818609E-02  0.8708668E-01
        2   -1    0    0  501    0  0.00000000000E+00  0.00000000000E+00  0.71751879574E+03  0.71751879575E+03  0.25500000920E-02 0. -1.
       -2   -1    0    0    0  501  0.00000000000E+00  0.00000000000E+00 -0.11233191790E+04  0.11233191790E+04  0.25500000920E-02 0.  1.
    10030    2    1    2    0    0  0.00000000000E+00  0.00000000000E+00 -0.40580038325E+03  0.18408379747E+04  0.17955529784E+04 0.  0.
        1    1    3    3  502    0 -0.63609540719E+03  0.40962654123E+03  0.29260216391E+03  0.81118881691E+03  0.50400001928E-02 0. -1.
       -1    1    3    3    0  502  0.63609540719E+03 -0.40962654123E+03 -0.69840254716E+03  0.10296491578E+04  0.50400001928E-02 0.  1.
</event>
<event>
 5   0  0.8206783E-05  0.1795641E+04  0.7818609E-02  0.8708621E-01
        1   -1    0    0  501    0  0.00000000000E+00  0.00000000000E+00  0.97852997173E+03  0.97852997175E+03  0.50400001928E-02 0. -1.
       -1   -1    0    0    0  501  0.00000000000E+00  0.00000000000E+00 -0.82376782759E+03  0.82376782760E+03  0.50400001928E-02 0.  1.
    10030    2    1    2    0    0  0.00000000000E+00  0.00000000000E+00  0.15476214415E+03  0.18022977993E+04  0.17956408428E+04 0.  0.
        1    1    3    3  502    0  0.58258755925E+02  0.64856595831E+03  0.69777418170E+03  0.95442165399E+03  0.50400001928E-02 0. -1.
       -1    1    3    3    0  502 -0.58258755925E+02 -0.64856595831E+03 -0.54301203755E+03  0.84787614536E+03  0.50400001928E-02 0.  1.
</event>
<event>
 5   0  0.8430513E-05  0.1825071E+04  0.7818609E-02  0.8693079E-01
        1   -1    0    0  501    0  0.00000000000E+00  0.00000000000E+00  0.69846376270E+03  0.69846376272E+03  0.50400001928E-02 0. -1.
       -1   -1    0    0    0  501  0.00000000000E+00  0.00000000000E+00 -0.11922183681E+04  0.11922183681E+04  0.50400001928E-02 0.  1.
    10030    2    1    2    0    0  0.00000000000E+00  0.00000000000E+00 -0.49375460536E+03  0.18906821308E+04  0.18250713162E+04 0.  0.
        5    1    3    3  502    0 -0.56305585721E+03 -0.57949880052E+03  0.19245391580E+03  0.83060902827E+03  0.46999998093E+01 0. -1.
       -5    1    3    3    0  502  0.56305585721E+03  0.57949880052E+03 -0.68620852116E+03  0.10600731025E+04  0.46999998093E+01 0.  1.
</event>
<event>
 5   0  0.8492114E-05  0.1788301E+04  0.7818609E-02  0.8712546E-01
       -1   -1    0    0    0  501  0.00000000000E+00  0.00000000000E+00  0.57481942853E+03  0.57481942855E+03  0.50400001928E-02 0. -1.
        1   -1    0    0  501    0  0.00000000000E+00  0.00000000000E+00 -0.13908809092E+04  0.13908809092E+04  0.50400001928E-02 0.  1.
    10030    2    1    2    0    0  0.00000000000E+00  0.00000000000E+00 -0.81606148070E+03  0.19657003378E+04  0.17883012827E+04 0.  0.
        2    1    3    3  502    0 -0.78694621385E+02 -0.84553684479E+03 -0.71576735432E+03  0.11106071785E+04  0.25500000920E-02 0.  1.
       -2    1    3    3    0  502  0.78694621385E+02  0.84553684479E+03 -0.10029412637E+03  0.85509315932E+03  0.25500000920E-02 0. -1.
</event>
<event>
 5   0  0.8430513E-05  0.1784196E+04  0.7818609E-02  0.8714749E-01
        1   -1    0    0  501    0  0.00000000000E+00  0.00000000000E+00  0.94536691244E+03  0.94536691245E+03  0.50400001928E-02 0.  1.
       -1   -1    0    0    0  501  0.00000000000E+00  0.00000000000E+00 -0.84183084938E+03  0.84183084940E+03  0.50400001928E-02 0. -1.
    10030    2    1    2    0    0  0.00000000000E+00  0.00000000000E+00  0.10353606305E+03  0.17871977618E+04  0.17841962122E+04 0.  0.
        5    1    3    3  502    0 -0.29820691222E+03  0.25642418890E+03  0.85382488272E+03  0.94006369332E+03  0.46999998093E+01 0.  1.
       -5    1    3    3    0  502  0.29820691222E+03 -0.25642418890E+03 -0.75028881967E+03  0.84713406853E+03  0.46999998093E+01 0. -1.
</event>
<event>
 5   0  0.1573981E-04  0.1799209E+04  0.7818609E-02  0.8706720E-01
       -2   -1    0    0    0  501  0.00000000000E+00  0.00000000000E+00  0.13462154472E+04  0.13462154472E+04  0.25500000920E-02 0. -1.
        2   -1    0    0  501    0  0.00000000000E+00  0.00000000000E+00 -0.60115808096E+03  0.60115808096E+03  0.25500000920E-02 0.  1.
    10030    2    1    2    0    0  0.00000000000E+00  0.00000000000E+00  0.74505736626E+03  0.19473735282E+04  0.17992090427E+04 0.  0.
        1    1    3    3  502    0  0.66439393913E+03 -0.11478075364E+03  0.10171353347E+04  0.12203107051E+04  0.50400001928E-02 0. -1.
       -1    1    3    3    0  502 -0.66439393913E+03  0.11478075364E+03 -0.27207796848E+03  0.72706282309E+03  0.50400001928E-02 0.  1.
</event>
<event>
 5   0  0.1549012E-04  0.1812976E+04  0.7818609E-02  0.8699429E-01
       -2   -1    0    0    0  501  0.00000000000E+00  0.00000000000E+00  0.12314638815E+04  0.12314638815E+04  0.25500000920E-02 0. -1.
        2   -1    0    0  501    0  0.00000000000E+00  0.00000000000E+00 -0.66727127813E+03  0.66727127813E+03  0.25500000920E-02 0.  1.
    10030    2    1    2    0    0  0.00000000000E+00  0.00000000000E+00  0.56419260341E+03  0.18987351597E+04  0.18129759824E+04 0.  0.
        4    1    3    3  502    0 -0.36470178239E+03  0.76888701910E+03  0.60915718118E+03  0.10465508695E+04  0.12699999809E+01 0. -1.
       -4    1    3    3    0  502  0.36470178239E+03 -0.76888701910E+03 -0.44964577765E+02  0.85218429015E+03  0.12699999809E+01 0.  1.
</event>
<event>
 5   0  0.8254914E-05  0.1800846E+04  0.7818609E-02  0.8705850E-01
        1   -1    0    0  501    0  0.00000000000E+00  0.00000000000E+00  0.14951875834E+04  0.14951875834E+04  0.50400001928E-02 0.  1.
       -1   -1    0    0    0  501  0.00000000000E+00  0.00000000000E+00 -0.54224737470E+03  0.54224737472E+03  0.50400001928E-02 0. -1.
    10030    2    1    2    0    0  0.00000000000E+00  0.00000000000E+00  0.95294020867E+03  0.20374349581E+04  0.18008459588E+04 0.  0.
        4    1    3    3  502    0 -0.76839349229E+03 -0.40777081238E+03  0.73951050063E+03  0.11417455881E+04  0.12699999809E+01 0.  1.
       -4    1    3    3    0  502  0.76839349229E+03  0.40777081238E+03  0.21342970804E+03  0.89568937003E+03  0.12699999809E+01 0. -1.
</event>
<event>
 5   0  0.8492114E-05  0.1810290E+04  0.7818609E-02  0.8700846E-01
       -1   -1    0    0    0  501  0.00000000000E+00  0.00000000000E+00  0.59809936329E+03  0.59809936331E+03  0.50400001928E-02 0.  1.
        1   -1    0    0  501    0  0.00000000000E+00  0.00000000000E+00 -0.13698189698E+04  0.13698189698E+04  0.50400001928E-02 0. -1.
    10030    2    1    2    0    0  0.00000000000E+00  0.00000000000E+00 -0.77171960652E+03  0.19679183331E+04  0.18102904228E+04 0.  0.
        2    1    3    3  502    0  0.65741272164E+03 -0.62187871292E+03 -0.36514161467E+03  0.97583452436E+03  0.25500000920E-02 0. -1.
       -2    1    3    3    0  502 -0.65741272164E+03  0.62187871292E+03 -0.40657799185E+03  0.99208380877E+03  0.25500000920E-02 0.  1.
</event>
<event>
 5   0  0.8492114E-05  0.1801933E+04  0.7818609E-02  0.8705272E-01
        1   -1    0    0  501    0  0.00000000000E+00  0.00000000000E+00  0.14673924103E+04  0.14673924103E+04  0.50400001928E-02 0.  1.
       -1   -1    0    0    0  501  0.00000000000E+00  0.00000000000E+00 -0.55318568465E+03  0.55318568467E+03  0.50400001928E-02 0. -1.
    10030    2    1    2    0    0  0.00000000000E+00  0.00000000000E+00  0.91420672563E+03  0.20205780950E+04  0.18019328236E+04 0.  0.
        2    1    3    3  502    0  0.36398185627E+03 -0.49807876679E+03  0.11934188644E+04  0.13434335992E+04  0.25500000920E-02 0.  1.
       -2    1    3    3    0  502 -0.36398185627E+03  0.49807876679E+03 -0.27921213879E+03  0.67714449571E+03  0.25500000920E-02 0. -1.
</event>
<event>
 5   0  0.1608627E-04  0.1809149E+04  0.7818609E-02  0.8701449E-01
       -2   -1    0    0    0  501  0.00000000000E+00  0.00000000000E+00  0.16147473063E+04  0.16147473063E+04  0.25500000920E-02 0.  1.
        2   -1    0    0  501    0  0.00000000000E+00  0.00000000000E+00 -0.50673861170E+03  0.50673861171E+03  0.25500000920E-02 0. -1.
    10030    2    1    2    0    0  0.00000000000E+00  0.00000000000E+00  0.11080086946E+04  0.21214859180E+04  0.18091487592E+04 0.  0.
        2    1    3    3  502    0  0.78690764988E+03  0.40416946931E+03  0.33250760881E+03  0.94505974377E+03  0.25500000920E-02 0. -1.
       -2    1    3    3    0  502 -0.78690764988E+03 -0.40416946931E+03  0.77550108579E+03  0.11764261742E+04  0.25500000920E-02 0.  1.
</event>
<event>
 5   0  0.8206783E-05  0.1798998E+04  0.7818609E-02  0.8706833E-01
        1   -1    0    0  501    0  0.00000000000E+00  0.00000000000E+00  0.25946427506E+04  0.25946427506E+04  0.50400001928E-02 0. -1.
       -1   -1    0    0    0  501  0.00000000000E+00  0.00000000000E+00 -0.31183409691E+03  0.31183409695E+03  0.50400001928E-02 0.  1.
    10030    2    1    2    0    0  0.00000000000E+00  0.00000000000E+00  0.22828086537E+04  0.29064768476E+04  0.17989975864E+04 0.  0.
        1    1    3    3  502    0 -0.90075144871E+02  0.88476690505E+03  0.13591946100E+04  0.16242955383E+04  0.50400001928E-02 0.  1.
       -1    1    3    3    0  502  0.90075144871E+02 -0.88476690505E+03  0.92361404374E+03  0.12821813093E+04  0.50400001928E-02 0. -1.
</event>
<event>
 5   0  0.8254914E-05  0.1800097E+04  0.7818609E-02  0.8706248E-01
        1   -1    0    0  501    0  0.00000000000E+00  0.00000000000E+00  0.77361518938E+03  0.77361518939E+03  0.50400001928E-02 0.  1.
       -1   -1    0    0    0  501  0.00000000000E+00  0.00000000000E+00 -0.10471450378E+04  0.10471450378E+04  0.50400001928E-02 0. -1.
    10030    2    1    2    0    0  0.00000000000E+00  0.00000000000E+00 -0.27352984842E+03  0.18207602272E+04  0.18000970049E+04 0.  0.
        4    1    3    3  502    0  0.87986419939E+02  0.86977979291E+03 -0.35329513040E+03  0.94290909440E+03  0.12699999809E+01 0. -1.
       -4    1    3    3    0  502 -0.87986419939E+02 -0.86977979291E+03  0.79765281980E+02  0.87785113280E+03  0.12699999809E+01 0.  1.
</event>
<event>
 5   0  0.8132598E-05  0.1853350E+04  0.7818609E-02  0.8678432E-01
        1   -1    0    0  501    0  0.00000000000E+00  0.00000000000E+00  0.65641487597E+03  0.65641487599E+03  0.50400001928E-02 0.  1.
       -1   -1    0    0    0  501  0.00000000000E+00  0.00000000000E+00 -0.13082074794E+04  0.13082074794E+04  0.50400001928E-02 0. -1.
    10030    2    1    2    0    0  0.00000000000E+00  0.00000000000E+00 -0.65179260342E+03  0.19646223554E+04  0.18533503180E+04 0.  0.
        3    1    3    3  502    0 -0.52112203282E+02  0.66036680704E+03 -0.10128198124E+04  0.12102082400E+04  0.10100000352E+00 0. -1.
       -3    1    3    3    0  502  0.52112203282E+02 -0.66036680704E+03  0.36102720903E+03  0.75441411534E+03  0.10100000352E+00 0.  1.
</event>
<event>
 5   0  0.8254914E-05  0.1812719E+04  0.7818609E-02  0.8699565E-01
       -1   -1    0    0    0  501  0.00000000000E+00  0.00000000000E+00  0.66932284108E+03  0.66932284110E+03  0.50400001928E-02 0.  1.
        1   -1    0    0  501    0  0.00000000000E+00  0.00000000000E+00 -0.12273412402E+04  0.12273412402E+04  0.50400001928E-02 0. -1.
    10030    2    1    2    0    0  0.00000000000E+00  0.00000000000E+00 -0.55801839910E+03  0.18966640813E+04  0.18127189808E+04 0.  0.
        4    1    3    3  502    0  0.69828930588E+03 -0.46317062251E+03  0.82461289029E+02  0.84198364435E+03  0.12699999809E+01 0.  1.
       -4    1    3    3    0  502 -0.69828930588E+03  0.46317062251E+03 -0.64047968813E+03  0.10546804369E+04  0.12699999809E+01 0. -1.
</event>
<event>
 5   0  0.1549012E-04  0.1767142E+04  0.7818609E-02  0.8723971E-01
       -2   -1    0    0    0  501  0.00000000000E+00  0.00000000000E+00  0.94982431649E+03  0.94982431650E+03  0.25500000920E-02 0.  1.
        2   -1    0    0  501    0  0.00000000000E+00  0.00000000000E+00 -0.82193942929E+03  0.82193942930E+03  0.25500000920E-02 0. -1.
    10030    2    1    2    0    0  0.00000000000E+00  0.00000000000E+00  0.12788488720E+03  0.17717637458E+04  0.17671423900E+04 0.  0.
        4    1    3    3  502    0  0.71772489299E+03  0.12691473790E+03  0.56470838880E+03  0.92202687054E+03  0.12699999809E+01 0.  1.
       -4    1    3    3    0  502 -0.71772489299E+03 -0.12691473790E+03 -0.43682350160E+03  0.84973687525E+03  0.12699999809E+01 0. -1.
</event>
<event>
 5   0  0.1608627E-04  0.1837102E+04  0.7818609E-02  0.8686814E-01
        2   -1    0    0  501    0  0.00000000000E+00  0.00000000000E+00  0.11947776292E+04  0.11947776292E+04  0.25500000920E-02 0.  1.
       -2   -1    0    0    0  501  0.00000000000E+00  0.00000000000E+00 -0.70618669408E+03  0.70618669408E+03  0.25500000920E-02 0. -1.
    10030    2    1    2    0    0  0.00000000000E+00  0.00000000000E+00  0.48859093511E+03  0.19009643233E+04  0.18371021356E+04 0.  0.
        2    1    3    3  502    0  0.12689195618E+03 -0.88521374308E+03  0.46142582802E+03  0.10062895877E+04  0.25500000920E-02 0.  1.
       -2    1    3    3    0  502 -0.12689195618E+03  0.88521374308E+03  0.27165107084E+02  0.89467473560E+03  0.25500000920E-02 0. -1.
</event>
<event>
 5   0  0.1603564E-04  0.1793740E+04  0.7818609E-02  0.8709636E-01
       -2   -1    0    0    0  501  0.00000000000E+00  0.00000000000E+00  0.88752896319E+03  0.88752896319E+03  0.25500000920E-02 0. -1.
        2   -1    0    0  501    0  0.00000000000E+00  0.00000000000E+00 -0.90630939844E+03  0.90630939845E+03  0.25500000920E-02 0.  1.
    10030    2    1    2    0    0  0.00000000000E+00  0.00000000000E+00 -0.18780435251E+02  0.17938383616E+04  0.17937400489E+04 0.  0.
        5    1    3    3  502    0  0.14289737897E+03 -0.42454786888E+03 -0.78640976312E+03  0.90505411960E+03  0.46999998093E+01 0.  1.
       -5    1    3    3    0  502 -0.14289737897E+03  0.42454786888E+03  0.76762932787E+03  0.88878424203E+03  0.46999998093E+01 0. -1.
</event>
<event>
 5   0  0.1628397E-04  0.1826331E+04  0.7818609E-02  0.8692421E-01
       -2   -1    0    0    0  501  0.00000000000E+00  0.00000000000E+00  0.84193922556E+03  0.84193922556E+03  0.25500000920E-02 0.  1.
        2   -1    0    0  501    0  0.00000000000E+00  0.00000000000E+00 -0.99041761256E+03  0.99041761256E+03  0.25500000920E-02 0. -1.
    10030    2    1    2    0    0  0.00000000000E+00  0.00000000000E+00 -0.14847838700E+03  0.18323568381E+04  0.18263312270E+04 0.  0.
        3    1    3    3  502    0  0.28070885872E+03  0.74272110662E+03  0.37829141359E+03  0.87950924349E+03  0.10100000352E+00 0. -1.
       -3    1    3    3    0  502 -0.28070885872E+03 -0.74272110662E+03 -0.52676980059E+03  0.95284759463E+03  0.10100000352E+00 0.  1.
</event>
<event>
 5   0  0.1573981E-04  0.1811069E+04  0.7818609E-02  0.8700435E-01
       -2   -1    0    0    0  501  0.00000000000E+00  0.00000000000E+00  0.53840286451E+03  0.53840286452E+03  0.25500000920E-02 0. -1.
        2   -1    0    0  501    0  0.00000000000E+00  0.00000000000E+00 -0.15230098296E+04  0.15230098296E+04  0.25500000920E-02 0.  1.
    10030    2    1    2    0    0  0.00000000000E+00  0.00000000000E+00 -0.98460696506E+03  0.20614126941E+04  0.18110691372E+04 0.  0.
        1    1    3    3  502    0  0.64170937204E+03  0.63787562430E+03 -0.45100245000E+03  0.10109794460E+04  0.50400001928E-02 0. -1.
       -1    1    3    3    0  502 -0.64170937204E+03 -0.63787562430E+03 -0.53360451506E+03  0.10504332481E+04  0.50400001928E-02 0.  1.
</event>
<event>
 5   0  0.8132598E-05  0.1804148E+04  0.7818609E-02  0.8704096E-01
       -1   -1    0    0    0  501  0.00000000000E+00  0.00000000000E+00  0.11830821068E+04  0.11830821069E+04  0.50400001928E-02 0. -1.
        1   -1    0    0  501    0  0.00000000000E+00  0.00000000000E+00 -0.68781187116E+03  0.68781187118E+03  0.50400001928E-02 0.  1.
    10030    2    1    2    0    0  0.00000000000E+00  0.00000000000E+00  0.49527023568E+03  0.18708939780E+04  0.18041484614E+04 0.  0.
        3    1    3    3  502    0 -0.81155294946E+03 -0.26908441208E+02 -0.15983375676E+03  0.82758026438E+03  0.10100000352E+00 0.  1.
       -3    1    3    3    0  502  0.81155294946E+03  0.26908441208E+02  0.65510399245E+03  0.10433137137E+04  0.10100000352E+00 0. -1.
</event>
<event>
 5   0  0.8132598E-05  0.1679025E+04  0.7818609E-02  0.8773418E-01
        1   -1    0    0  501    0  0.00000000000E+00  0.00000000000E+00  0.17302311207E+04  0.17302311207E+04  0.50400001928E-02 0.  1.
       -1   -1    0    0    0  501  0.00000000000E+00  0.00000000000E+00 -0.40733359765E+03  0.40733359768E+03  0.50400001928E-02 0. -1.
    10030    2    1    2    0    0  0.00000000000E+00  0.00000000000E+00  0.13228975230E+04  0.21375647184E+04  0.16790250352E+04 0.  0.
        3    1    3    3  502    0 -0.23630277264E+03 -0.80142300249E+03  0.55752593589E+03  0.10044665294E+04  0.10100000352E+00 0. -1.
       -3    1    3    3    0  502  0.23630277264E+03  0.80142300249E+03  0.76537158715E+03  0.11330981890E+04  0.10100000352E+00 0.  1.
</event>
<event>
 5   0  0.1603564E-04  0.1804347E+04  0.7818609E-02  0.8703991E-01
       -2   -1    0    0    0  501  0.00000000000E+00  0.00000000000E+00  0.55318601385E+03  0.55318601385E+03  0.25500000920E-02 0. -1.
        2   -1    0    0  501    0  0.00000000000E+00  0.00000000000E+00 -0.14713261588E+04  0.14713261589E+04  0.25500000920E-02 0.  1.
    10030    2    1    2    0    0  0.00000000000E+00  0.00000000000E+00 -0.91814014500E+03  0.20245121727E+04  0.18043470319E+04 0.  0.
        5    1    3    3  502    0  0.68223802862E+02  0.20731775786E+03  0.52310373964E+03  0.56682867996E+03  0.46999998093E+01 0. -1.
       -5    1    3    3    0  502 -0.68223802862E+02 -0.20731775786E+03 -0.14412438846E+04  0.14576834927E+04  0.46999998093E+01 0.  1.
</event>
<event>
 5   0  0.8254914E-05  0.1803171E+04  0.7818609E-02  0.8704615E-01
        1   -1    0    0  501    0  0.00000000000E+00  0.00000000000E+00  0.14249101373E+04  0.14249101373E+04  0.50400001928E-02 0.  1.
       -1   -1    0    0    0  501  0.00000000000E+00  0.00000000000E+00 -0.57046135443E+03  0.57046135445E+03  0.50400001928E-02 0. -1.
    10030    2    1    2    0    0  0.00000000000E+00  0.00000000000E+00  0.85444878288E+03  0.19953714918E+04  0.18031707261E+04 0.  0.
        4    1    3    3  502    0  0.67311834167E+03 -0.59760704559E+03  0.37045219084E+03  0.97337501583E+03  0.12699999809E+01 0. -1.
       -4    1    3    3    0  502 -0.67311834167E+03  0.59760704559E+03  0.48399659204E+03  0.10219964759E+04  0.12699999809E+01 0.  1.
</event>
<event>
 5   0  0.1573981E-04  0.1797897E+04  0.7818609E-02  0.8707419E-01
       -2   -1    0    0    0  501  0.00000000000E+00  0.00000000000E+00  0.53499815137E+03  0.53499815138E+03  0.25500000920E-02 0.  1.
        2   -1    0    0  501    0  0.00000000000E+00  0.00000000000E+00 -0.15104877502E+04  0.15104877502E+04  0.25500000920E-02 0. -1.
    10030    2    1    2    0    0  0.00000000000E+00  0.00000000000E+00 -0.97548959886E+03  0.20454859016E+04  0.17978967201E+04 0.  0.
        1    1    3    3  502    0 -0.56037102075E+03  0.63603560489E+03 -0.82820583258E+03  0.11851083802E+04  0.50400001928E-02 0. -1.
       -1    1    3    3    0  502  0.56037102075E+03 -0.63603560489E+03 -0.14728376628E+03  0.86037752145E+03  0.50400001928E-02 0.  1.
</event>
<event>
 5   0  0.1628397E-04  0.1846101E+04  0.7818609E-02  0.8682161E-01
       -2   -1    0    0    0  501  0.00000000000E+00  0.00000000000E+00  0.17079594747E+04  0.17079594747E+04  0.25500000920E-02 0. -1.
        2   -1    0    0  501    0  0.00000000000E+00  0.00000000000E+00 -0.49885370406E+03  0.49885370407E+03  0.25500000920E-02 0.  1.
    10030    2    1    2    0    0  0.00000000000E+00  0.00000000000E+00  0.12091057707E+04  0.22068131788E+04  0.18461006585E+04 0.  0.
        3    1    3    3  502    0  0.78092307340E+03  0.34680536061E+03  0.10219262050E+04  0.13320840752E+04  0.10100000352E+00 0. -1.
       -3    1    3    3    0  502 -0.78092307340E+03 -0.34680536061E+03  0.18717956569E+03  0.87472910362E+03  0.10100000352E+00 0.  1.
</event>
<event>
 5   0  0.8132598E-05  0.1796522E+04  0.7818609E-02  0.8708151E-01
        1   -1    0    0  501    0  0.00000000000E+00  0.00000000000E+00  0.81588200149E+03  0.81588200151E+03  0.50400001928E-02 0.  1.
       -1   -1    0    0    0  501  0.00000000000E+00  0.00000000000E+00 -0.98895758782E+03  0.98895758784E+03  0.50400001928E-02 0. -1.
    10030    2    1    2    0    0  0.00000000000E+00  0.00000000000E+00 -0.17307558633E+03  0.18048395893E+04  0.17965218576E+04 0.  0.
        3    1    3    3  502    0  0.47688947875E+03  0.73520547326E+03  0.11166227812E+03  0.88341334460E+03  0.10100000352E+00 0.  1.
       -3    1    3    3    0  502 -0.47688947875E+03 -0.73520547326E+03 -0.28473786445E+03  0.92142624475E+03  0.10100000352E+00 0. -1.
</event>
<event>
 5   0  0.1628397E-04  0.1795992E+04  0.7818609E-02  0.8708434E-01
        2   -1    0    0  501    0  0.00000000000E+00  0.00000000000E+00  0.16270864166E+04  0.16270864166E+04  0.25500000920E-02 0.  1.
       -2   -1    0    0    0  501  0.00000000000E+00  0.00000000000E+00 -0.49560773287E+03  0.49560773287E+03  0.25500000920E-02 0. -1.
    10030    2    1    2    0    0  0.00000000000E+00  0.00000000000E+00  0.11314786838E+04  0.21226941495E+04  0.17959917707E+04 0.  0.
        3    1    3    3  502    0 -0.34281030040E+03 -0.46627749727E+03 -0.24579496728E+03  0.62876766986E+03  0.10100000352E+00 0. -1.
       -3    1    3    3    0  502  0.34281030040E+03  0.46627749727E+03  0.13772736511E+04  0.14939264797E+04  0.10100000352E+00 0.  1.
</event>
<event>
 5   0  0.1573981E-04  0.1811521E+04  0.7818609E-02  0.8700196E-01
       -2   -1    0    0    0  501  0.00000000000E+00  0.00000000000E+00  0.96875847136E+03  0.96875847137E+03  0.25500000920E-02 0.  1.
        2   -1    0    0  501    0  0.00000000000E+00  0.00000000000E+00 -0.84685965192E+03  0.84685965192E+03  0.25500000920E-02 0. -1.
    10030    2    1    2    0    0  0.00000000000E+00  0.00000000000E+00  0.12189881944E+03  0.18156181233E+04  0.18115214179E+04 0.  0.
        1    1    3    3  502    0  0.55608044365E+03 -0.19112684710E+03  0.75145412531E+03  0.95416887077E+03  0.50400001928E-02 0.  1.
       -1    1    3    3    0  502 -0.55608044365E+03  0.19112684710E+03 -0.62955530586E+03  0.86144925251E+03  0.50400001928E-02 0. -1.
</event>
<event>
 5   0  0.8492114E-05  0.1800659E+04  0.7818609E-02  0.8705949E-01
        1   -1    0    0  501    0  0.00000000000E+00  0.00000000000E+00  0.66676716354E+03  0.66676716356E+03  0.50400001928E-02 0.  1.
       -1   -1    0    0    0  501  0.00000000000E+00  0.00000000000E+00 -0.12157065263E+04  0.12157065263E+04  0.50400001928E-02 0. -1.
    10030    2    1    2    0    0  0.00000000000E+00  0.00000000000E+00 -0.54893936274E+03  0.18824736899E+04  0.18006589819E+04 0.  0.
        2    1    3    3  502    0 -0.67778366008E+03 -0.67021888241E+02 -0.89004469543E+03  0.11207418004E+04  0.25500000920E-02 0. -1.
       -2    1    3    3    0  502  0.67778366008E+03  0.67021888241E+02  0.34110533268E+03  0.76173188942E+03  0.25500000920E-02 0.  1.
</event>
<event>
 5   0  0.1549012E-04  0.1939011E+04  0.7818609E-02  0.8635678E-01
        2   -1    0    0  501    0  0.00000000000E+00  0.00000000000E+00  0.18314081130E+04  0.18314081130E+04  0.25500000920E-02 0. -1.
       -2   -1    0    0    0  501  0.00000000000E+00  0.00000000000E+00 -0.51323378699E+03  0.51323378700E+03  0.25500000920E-02 0.  1.
    10030    2    1    2    0    0  0.00000000000E+00  0.00000000000E+00  0.13181743260E+04  0.23446419000E+04  0.19390105945E+04 0.  0.
        4    1    3    3  502    0  0.77252075718E+03  0.58438277779E+03  0.61000878145E+03  0.11447287354E+04  0.12699999809E+01 0. -1.
       -4    1    3    3    0  502 -0.77252075718E+03 -0.58438277779E+03  0.70816554457E+03  0.11999131646E+04  0.12699999809E+01 0.  1.
</event>
<event>
 5   0  0.1608627E-04  0.1785900E+04  0.7818609E-02  0.8713834E-01
       -2   -1    0    0    0  501  0.00000000000E+00  0.00000000000E+00  0.54966771741E+03  0.54966771742E+03  0.25500000920E-02 0. -1.
        2   -1    0    0  501    0  0.00000000000E+00  0.00000000000E+00 -0.14506218707E+04  0.14506218707E+04  0.25500000920E-02 0.  1.
    10030    2    1    2    0    0  0.00000000000E+00  0.00000000000E+00 -0.90095415325E+03  0.20002895881E+04  0.17859003471E+04 0.  0.
        2    1    3    3  502    0  0.91761402353E+02  0.20578343964E+03  0.51730509933E+03  0.56424422441E+03  0.25500000920E-02 0. -1.
       -2    1    3    3    0  502 -0.91761402353E+02 -0.20578343964E+03 -0.14182592526E+04  0.14360453637E+04  0.25500000920E-02 0.  1.
</event>
<event>
 5   0  0.8132598E-05  0.1801799E+04  0.7818609E-02  0.8705344E-01
       -1   -1    0    0    0  501  0.00000000000E+00  0.00000000000E+00  0.47491953510E+03  0.47491953513E+03  0.50400001928E-02 0. -1.
        1   -1    0    0  501    0  0.00000000000E+00  0.00000000000E+00 -0.17089621762E+04  0.17089621762E+04  0.50400001928E-02 0.  1.
    10030    2    1    2    0    0  0.00000000000E+00  0.00000000000E+00 -0.12340426411E+04  0.21838817113E+04  0.18017985706E+04 0.  0.
        3    1    3    3  502    0 -0.19073830200E+03 -0.62520623126E+03  0.13441030430E+03  0.66733055644E+03  0.10100000352E+00 0.  1.
       -3    1    3    3    0  502  0.19073830200E+03  0.62520623126E+03 -0.13684529454E+04  0.15165511549E+04  0.10100000352E+00 0. -1.
</event>
<event>
 5   0  0.8254914E-05  0.1843681E+04  0.7818609E-02  0.8683409E-01
       -1   -1    0    0    0  501  0.00000000000E+00  0.00000000000E+00  0.11846674006E+04  0.11846674007E+04  0.50400001928E-02 0. -1.
        1   -1    0    0  501    0  0.00000000000E+00  0.00000000000E+00 -0.71732351828E+03  0.71732351830E+03  0.50400001928E-02 0.  1.
    10030    2    1    2    0    0  0.00000000000E+00  0.00000000000E+00  0.46734388236E+03  0.19019909189E+04  0.18436808703E+04 0.  0.
        4    1    3    3  502    0  0.23398534269E+03  0.11413277549E+03 -0.67861110657E+03  0.72683566086E+03  0.12699999809E+01 0.  1.
       -4    1    3    3    0  502 -0.23398534269E+03 -0.11413277549E+03  0.11459549889E+04  0.11751552581E+04  0.12699999809E+01 0. -1.
</event>
<event>
 5   0  0.8430513E-05  0.1801935E+04  0.7818609E-02  0.8705271E-01
        1   -1    0    0  501    0  0.00000000000E+00  0.00000000000E+00  0.23191266934E+04  0.23191266934E+04  0.50400001928E-02 0. -1.
       -1   -1    0    0    0  501  0.00000000000E+00  0.00000000000E+00 -0.35002076174E+03  0.35002076178E+03  0.50400001928E-02 0.  1.
    10030    2    1    2    0    0  0.00000000000E+00  0.00000000000E+00  0.19691059317E+04  0.26691474552E+04  0.18019350619E+04 0.  0.
        5    1    3    3  502    0  0.62362918469E+02  0.19208104529E+03  0.22851496232E+04  0.22940608432E+04  0.46999998093E+01 0. -1.
       -5    1    3    3    0  502 -0.62362918469E+02 -0.19208104529E+03 -0.31604369156E+03  0.37508661204E+03  0.46999998093E+01 0.  1.
</event>
<event>
 5   0  0.8254914E-05  0.1794326E+04  0.7818609E-02  0.8709323E-01
        1   -1    0    0  501    0  0.00000000000E+00  0.00000000000E+00  0.11207754856E+04  0.11207754856E+04  0.50400001928E-02 0. -1.
       -1   -1    0    0    0  501  0.00000000000E+00  0.00000000000E+00 -0.71816441223E+03  0.71816441225E+03  0.50400001928E-02 0.  1.
    10030    2    1    2    0    0  0.00000000000E+00  0.00000000000E+00  0.40261107334E+03  0.18389398978E+04  0.17943255757E+04 0.  0.
        4    1    3    3  502    0  0.44843978090E+03 -0.69217342652E+03  0.56321053289E+03  0.99870416377E+03  0.12699999809E+01 0. -1.
       -4    1    3    3    0  502 -0.44843978090E+03  0.69217342652E+03 -0.16059945955E+03  0.84023573406E+03  0.12699999809E+01 0.  1.
</event>
<event>
 5   0  0.8206783E-05  0.1769854E+04  0.7818609E-02  0.8722497E-01
       -1   -1    0    0    0  501  0.00000000000E+00  0.00000000000E+00  0.88432482766E+03  0.88432482767E+03  0.50400001928E-02 0. -1.
        1   -1    0    0  501    0  0.00000000000E+00  0.00000000000E+00 -0.88552979948E+03  0.88552979949E+03  0.50400001928E-02 0.  1.
    10030    2    1    2    0    0  0.00000000000E+00  0.00000000000E+00 -0.12049718211E+01  0.17698546272E+04  0.17698542170E+04 0.  0.
        1    1    3    3  502    0 -0.75633093073E+03  0.72246947576E+02  0.45309343044E+03  0.88461842336E+03  0.50400001928E-02 0. -1.
       -1    1    3    3    0  502  0.75633093073E+03 -0.72246947576E+02 -0.45429840226E+03  0.88523620381E+03  0.50400001928E-02 0.  1.
</event>
<event>
 5   0  0.1603564E-04  0.1798459E+04  0.7818609E-02  0.8707119E-01
       -2   -1    0    0    0  501  0.00000000000E+00  0.00000000000E+00  0.28736181128E+03  0.28736181129E+03  0.25500000920E-02 0. -1.
        2   -1    0    0  501    0  0.00000000000E+00  0.00000000000E+00 -0.28139213921E+04  0.28139213922E+04  0.25500000920E-02 0.  1.
    10030    2    1    2    0    0  0.00000000000E+00  0.00000000000E+00 -0.25265595809E+04  0.31012832034E+04  0.17984588381E+04 0.  0.
        5    1    3    3  502    0  0.66621241048E+02 -0.84312671786E+03 -0.17899750578E+04  0.19797307518E+04  0.46999998093E+01 0.  1.
       -5    1    3    3    0  502 -0.66621241048E+02  0.84312671786E+03 -0.73658452308E+03  0.11215524516E+04  0.46999998093E+01 0. -1.
</event>
<event>
 5   0  0.8254914E-05  0.1789755E+04  0.7818609E-02  0.8711767E-01
       -1   -1    0    0    0  501  0.00000000000E+00  0.00000000000E+00  0.44485031500E+03  0.44485031502E+03  0.50400001928E-02 0.  1.
        1   -1    0    0  501    0  0.00000000000E+00  0.00000000000E+00 -0.18001692887E+04  0.18001692888E+04  0.50400001928E-02 0. -1.
    10030    2    1    2    0    0  0.00000000000E+00  0.00000000000E+00 -0.13553189738E+04  0.22450196038E+04  0.17897551511E+04 0.  0.
        4    1    3    3  502    0 -0.22735108212E+03 -0.34189848412E+03  0.31972138565E+03  0.52039068528E+03  0.12699999809E+01 0.  1.
       -4    1    3    3    0  502  0.22735108212E+03  0.34189848412E+03 -0.16750403594E+04  0.17246289185E+04  0.12699999809E+01 0. -1.
</event>
<event>
 5   0  0.5820500E-05  0.1835557E+04  0.7818609E-02  0.8687616E-01
       -4   -1    0    0    0  501  0.00000000000E+00  0.00000000000E+00  0.86074786458E+03  0.86074880150E+03  0.12699999809E+01 0. -1.
        4   -1    0    0  501    0  0.00000000000E+00  0.00000000000E+00 -0.97858572196E+03  0.97858654606E+03  0.12699999809E+01 0.  1.
    10030    2    1    2    0    0  0.00000000000E+00  0.00000000000E+00 -0.11783785738E+03  0.18393353476E+04  0.18355567984E+04 0.  0.
        2    1    3    3  502    0  0.12519590347E+03 -0.33083077625E+03  0.78969755959E+03  0.86530067167E+03  0.25500000920E-02 0. -1.
       -2    1    3    3    0  502 -0.12519590347E+03  0.33083077625E+03 -0.90753541697E+03  0.97403467589E+03  0.25500000920E-02 0.  1.
</event>
<event>
 5   0  0.1628397E-04  0.1726433E+04  0.7818609E-02  0.8746431E-01
        2   -1    0    0  501    0  0.00000000000E+00  0.00000000000E+00  0.83539675429E+03  0.83539675429E+03  0.25500000920E-02 0. -1.
       -2   -1    0    0    0  501  0.00000000000E+00  0.00000000000E+00 -0.89196288407E+03  0.89196288407E+03  0.25500000920E-02 0.  1.
    10030    2    1    2    0    0  0.00000000000E+00  0.00000000000E+00 -0.56566129776E+02  0.17273596384E+04  0.17264331998E+04 0.  0.
        3    1    3    3  502    0  0.69540824269E+03 -0.49834663949E+03 -0.14323985038E+03  0.86744432792E+03  0.10100000352E+00 0. -1.
       -3    1    3    3    0  502 -0.69540824269E+03  0.49834663949E+03  0.86673720605E+02  0.85991531045E+03  0.10100000352E+00 0.  1.
</event>
<event>
 5   0  0.1628397E-04  0.1810626E+04  0.7818609E-02  0.8700669E-01
        2   -1    0    0  501    0  0.00000000000E+00  0.00000000000E+00  0.14064934519E+04  0.14064934519E+04  0.25500000920E-02 0.  1.
       -2   -1    0    0    0  501  0.00000000000E+00  0.00000000000E+00 -0.58271980041E+03  0.58271980042E+03  0.25500000920E-02 0. -1.
    10030    2    1    2    0    0  0.00000000000E+00  0.00000000000E+00  0.82377365153E+03  0.19892132524E+04  0.18106259510E+04 0.  0.
        3    1    3    3  502    0 -0.59642250883E+02 -0.90049144592E+03  0.49072497995E+03  0.10272551087E+04  0.10100000352E+00 0. -1.
       -3    1    3    3    0  502  0.59642250883E+02  0.90049144592E+03  0.33304867158E+03  0.96195814363E+03  0.10100000352E+00 0.  1.
</event>
<event>
 5   0  0.8430513E-05  0.1791277E+04  0.7818609E-02  0.8710952E-01
        1   -1    0    0  501    0  0.00000000000E+00  0.00000000000E+00  0.11885171723E+04  0.11885171723E+04  0.50400001928E-02 0.  1.
       -1   -1    0    0    0  501  0.00000000000E+00  0.00000000000E+00 -0.67493210459E+03  0.67493210461E+03  0.50400001928E-02 0. -1.
    10030    2    1    2    0    0  0.00000000000E+00  0.00000000000E+00  0.51358506767E+03  0.18634492769E+04  0.17912770824E+04 0.  0.
        5    1    3    3  502    0 -0.26099414852E+03  0.29955833282E+03  0.10918119397E+04  0.11618642529E+04  0.46999998093E+01 0.  1.
       -5    1    3    3    0  502  0.26099414852E+03 -0.29955833282E+03 -0.57822687208E+03  0.70158502401E+03  0.46999998093E+01 0. -1.
</event>
<event>
 5   0  0.1603564E-04  0.1801871E+04  0.7818609E-02  0.8705305E-01
       -2   -1    0    0    0  501  0.00000000000E+00  0.00000000000E+00  0.64936480463E+03  0.64936480463E+03  0.25500000920E-02 0.  1.
        2   -1    0    0  501    0  0.00000000000E+00  0.00000000000E+00 -0.12499671329E+04  0.12499671329E+04  0.25500000920E-02 0. -1.
    10030    2    1    2    0    0  0.00000000000E+00  0.00000000000E+00 -0.60060232827E+03  0.18993319375E+04  0.18018708756E+04 0.  0.
        5    1    3    3  502    0  0.70168641997E+03  0.56103785219E+03 -0.22931417532E+03  0.92721862825E+03  0.46999998093E+01 0.  1.
       -5    1    3    3    0  502 -0.70168641997E+03 -0.56103785219E+03 -0.37128815295E+03  0.97211330928E+03  0.46999998093E+01 0. -1.
</event>
<event>
 5   0  0.1628397E-04  0.1818541E+04  0.7818609E-02  0.8696501E-01
       -2   -1    0    0    0  501  0.00000000000E+00  0.00000000000E+00  0.10313353600E+04  0.10313353600E+04  0.25500000920E-02 0. -1.
        2   -1    0    0  501    0  0.00000000000E+00  0.00000000000E+00 -0.80165282236E+03  0.80165282236E+03  0.25500000920E-02 0.  1.
    10030    2    1    2    0    0  0.00000000000E+00  0.00000000000E+00  0.22968253764E+03  0.18329881824E+04  0.18185410660E+04 0.  0.
        3    1    3    3  502    0 -0.64751114765E+03 -0.44492855087E+03 -0.34655156085E+03  0.85867927438E+03  0.10100000352E+00 0.  1.
       -3    1    3    3    0  502  0.64751114765E+03  0.44492855087E+03  0.57623409849E+03  0.97430890798E+03  0.10100000352E+00 0. -1.
</event>
<event>
 5   0  0.8132598E-05  0.1793334E+04  0.7818609E-02  0.8709852E-01
        1   -1    0    0  501    0  0.00000000000E+00  0.00000000000E+00  0.65608714699E+03  0.65608714701E+03  0.50400001928E-02 0. -1.
       -1   -1    0    0    0  501  0.00000000000E+00  0.00000000000E+00 -0.12254647072E+04  0.12254647072E+04  0.50400001928E-02 0.  1.
    10030    2    1    2    0    0  0.00000000000E+00  0.00000000000E+00 -0.56937756020E+03  0.18815518542E+04  0.17933339271E+04 0.  0.
        3    1    3    3  502    0 -0.30660154992E+03 -0.33817643913E+03 -0.10944339136E+04  0.11858133984E+04  0.10100000352E+00 0.  1.
       -3    1    3    3    0  502  0.30660154992E+03  0.33817643913E+03  0.52505635341E+03  0.69573845579E+03  0.10100000352E+00 0. -1.
</event>
<event>
 5   0  0.8132598E-05  0.1796779E+04  0.7818609E-02  0.8708014E-01
        1   -1    0    0  501    0  0.00000000000E+00  0.00000000000E+00  0.17783959900E+04  0.17783959900E+04  0.50400001928E-02 0.  1.
       -1   -1    0    0    0  501  0.00000000000E+00  0.00000000000E+00 -0.45383801487E+03  0.45383801490E+03  0.50400001928E-02 0. -1.
    10030    2    1    2    0    0  0.00000000000E+00  0.00000000000E+00  0.13245579752E+04  0.22322340049E+04  0.17967790135E+04 0.  0.
        3    1    3    3  502    0 -0.26560418262E+03 -0.70954210734E+03  0.12621028604E+04  0.14720391382E+04  0.10100000352E+00 0.  1.
       -3    1    3    3    0  502  0.26560418262E+03  0.70954210734E+03  0.62455114785E+02  0.76019486678E+03  0.10100000352E+00 0. -1.
</event>
<event>
 5   0  0.8254914E-05  0.1811832E+04  0.7818609E-02  0.8700033E-01
        1   -1    0    0  501    0  0.00000000000E+00  0.00000000000E+00  0.13105543155E+04  0.13105543155E+04  0.50400001928E-02 0. -1.
       -1   -1    0    0    0  501  0.00000000000E+00  0.00000000000E+00 -0.62621106469E+03  0.62621106471E+03  0.50400001928E-02 0.  1.
    10030    2    1    2    0    0  0.00000000000E+00  0.00000000000E+00  0.68434325079E+03  0.19367653802E+04  0.18118317949E+04 0.  0.
        4    1    3    3  502    0  0.68511780585E+03  0.20336074215E+03 -0.25293933914E+03  0.75810416271E+03  0.12699999809E+01 0.  1.
       -4    1    3    3    0  502 -0.68511780585E+03 -0.20336074215E+03  0.93728258993E+03  0.11786612175E+04  0.12699999809E+01 0. -1.
</event>
<event>
 5   0  0.1573981E-04  0.1798036E+04  0.7818609E-02  0.8707344E-01
        2   -1    0    0  501    0  0.00000000000E+00  0.00000000000E+00  0.18902252714E+04  0.18902252714E+04  0.25500000920E-02 0. -1.
       -2   -1    0    0    0  501  0.00000000000E+00  0.00000000000E+00 -0.42758588446E+03  0.42758588446E+03  0.25500000920E-02 0.  1.
    10030    2    1    2    0    0  0.00000000000E+00  0.00000000000E+00  0.14626393869E+04  0.23178111558E+04  0.17980363116E+04 0.  0.
        1    1    3    3  502    0 -0.44538820339E+02  0.44544158848E+03  0.17363317554E+04  0.17931117868E+04  0.50400001928E-02 0. -1.
       -1    1    3    3    0  502  0.44538820339E+02 -0.44544158848E+03 -0.27369236847E+03  0.52469936902E+03  0.50400001928E-02 0.  1.
</event>
<event>
 5   0  0.1603564E-04  0.1791684E+04  0.7818609E-02  0.8710734E-01
        2   -1    0    0  501    0  0.00000000000E+00  0.00000000000E+00  0.12574956150E+04  0.12574956150E+04  0.25500000920E-02 0. -1.
       -2   -1    0    0    0  501  0.00000000000E+00  0.00000000000E+00 -0.63819930058E+03  0.63819930058E+03  0.25500000920E-02 0.  1.
    10030    2    1    2    0    0  0.00000000000E+00  0.00000000000E+00  0.61929631445E+03  0.18956949156E+04  0.17916839252E+04 0.  0.
        5    1    3    3  502    0 -0.75365996257E+02 -0.54903425909E+03  0.10543485415E+04  0.11911303825E+04  0.46999998093E+01 0. -1.
       -5    1    3    3    0  502  0.75365996257E+02  0.54903425909E+03 -0.43505222709E+03  0.70456453312E+03  0.46999998093E+01 0.  1.
</event>
<event>
 5   0  0.1608627E-04  0.1795317E+04  0.7818609E-02  0.8708794E-01
       -2   -1    0    0    0  501  0.00000000000E+00  0.00000000000E+00  0.68992450405E+03  0.68992450406E+03  0.25500000920E-02 0. -1.
        2   -1    0    0  501    0  0.00000000000E+00  0.00000000000E+00 -0.11679399003E+04  0.11679399003E+04  0.25500000920E-02 0.  1.
    10030    2    1    2    0    0  0.00000000000E+00  0.00000000000E+00 -0.47801539627E+03  0.18578644044E+04  0.17953165253E+04 0.  0.
        2    1    3    3  502    0  0.33801501974E+03  0.63413656349E+03 -0.79571576902E+03  0.10721692589E+04  0.25500000920E-02 0.  1.
       -2    1    3    3    0  502 -0.33801501974E+03 -0.63413656349E+03  0.31770037275E+03  0.78569514545E+03  0.25500000920E-02 0. -1.
</event>
<event>
 5   0  0.1628397E-04  0.1799613E+04  0.7818609E-02  0.8706505E-01
       -2   -1    0    0    0  501  0.00000000000E+00  0.00000000000E+00  0.77816657851E+03  0.77816657851E+03  0.25500000920E-02 0.  1.
        2   -1    0    0  501    0  0.00000000000E+00  0.00000000000E+00 -0.10404608875E+04  0.10404608875E+04  0.25500000920E-02 0. -1.
    10030    2    1    2    0    0  0.00000000000E+00  0.00000000000E+00 -0.26229430895E+03  0.18186274660E+04  0.17996131683E+04 0.  0.
        3    1    3    3  502    0  0.17928092985E+03 -0.54717121678E+03 -0.82991073608E+03  0.10100939720E+04  0.10100000352E+00 0. -1.
       -3    1    3    3    0  502 -0.17928092985E+03  0.54717121678E+03  0.56761642713E+03  0.80853349394E+03  0.10100000352E+00 0.  1.
</event>
<event>
 5   0  0.8492114E-05  0.1808444E+04  0.7818609E-02  0.8701822E-01
        1   -1    0    0  501    0  0.00000000000E+00  0.00000000000E+00  0.33938966626E+04  0.33938966626E+04  0.50400001928E-02 0.  1.
       -1   -1    0    0    0  501  0.00000000000E+00  0.00000000000E+00 -0.24090808874E+03  0.24090808880E+03  0.50400001928E-02 0. -1.
    10030    2    1    2    0    0  0.00000000000E+00  0.00000000000E+00  0.31529885738E+04  0.36348047514E+04  0.18084437049E+04 0.  0.
        2    1    3    3  502    0  0.25316804026E+03  0.48333700451E+03  0.30257316681E+04  0.30745342483E+04  0.25500000920E-02 0.  1.
       -2    1    3    3    0  502 -0.25316804026E+03 -0.48333700451E+03  0.12725690569E+03  0.56027050305E+03  0.25500000920E-02 0. -1.
</event>
<event>
 5   0  0.8206783E-05  0.1810216E+04  0.7818609E-02  0.8700886E-01
        1   -1    0    0  501    0  0.00000000000E+00  0.00000000000E+00  0.93958144744E+03  0.93958144746E+03  0.50400001928E-02 0. -1.
       -1   -1    0    0    0  501  0.00000000000E+00  0.00000000000E+00 -0.87189935091E+03  0.87189935093E+03  0.50400001928E-02 0.  1.
    10030    2    1    2    0    0  0.00000000000E+00  0.00000000000E+00  0.67682096530E+02  0.18114807984E+04  0.18102159586E+04 0.  0.
        1    1    3    3  502    0 -0.43565609844E+03  0.42789781773E+03 -0.63470335002E+03  0.88076167099E+03  0.50400001928E-02 0.  1.
       -1    1    3    3    0  502  0.43565609844E+03 -0.42789781773E+03  0.70238544655E+03  0.93071912739E+03  0.50400001928E-02 0. -1.
</event>
<event>
 5   0  0.1628397E-04  0.1793008E+04  0.7818609E-02  0.8710026E-01
        2   -1    0    0  501    0  0.00000000000E+00  0.00000000000E+00  0.14354641773E+04  0.14354641773E+04  0.25500000920E-02 0.  1.
       -2   -1    0    0    0  501  0.00000000000E+00  0.00000000000E+00 -0.55990224138E+03  0.55990224139E+03  0.25500000920E-02 0. -1.
    10030    2    1    2    0    0  0.00000000000E+00  0.00000000000E+00  0.87556193594E+03  0.19953664187E+04  0.17930082100E+04 0.  0.
        3    1    3    3  502    0 -0.53813651244E+03 -0.18414985095E+03  0.12089674068E+04  0.13360779448E+04  0.10100000352E+00 0.  1.
       -3    1    3    3    0  502  0.53813651244E+03  0.18414985095E+03 -0.33340547088E+03  0.65928847392E+03  0.10100000352E+00 0. -1.
</event>
<event>
 5   0  0.1603564E-04  0.1801402E+04  0.7818609E-02  0.8705555E-01
       -2   -1    0    0    0  501  0.00000000000E+00  0.00000000000E+00  0.64961968178E+03  0.64961968179E+03  0.25500000920E-02 0. -1.
        2   -1    0    0  501    0  0.00000000000E+00  0.00000000000E+00 -0.12488258498E+04  0.12488258498E+04  0.25500000920E-02 0.  1.
    10030    2    1    2    0    0  0.00000000000E+00  0.00000000000E+00 -0.59920616801E+03  0.18984455316E+04  0.18014015112E+04 0.  0.
        5    1    3    3  502    0  0.37096586050E+02  0.80204079047E+03  0.13054453616E+03  0.81345531665E+03  0.46999998093E+01 0. -1.
       -5    1    3    3    0  502 -0.37096586050E+02 -0.80204079047E+03 -0.72975070417E+03  0.10849902149E+04  0.46999998093E+01 0.  1.
</event>
<event>
 5   0  0.8132598E-05  0.1801695E+04  0.7818609E-02  0.8705399E-01
       -1   -1    0    0    0  501  0.00000000000E+00  0.00000000000E+00  0.36059975747E+03  0.36059975751E+03  0.50400001928E-02 0.  1.
        1   -1    0    0  501    0  0.00000000000E+00  0.00000000000E+00 -0.22504904865E+04  0.22504904865E+04  0.50400001928E-02 0. -1.
    10030    2    1    2    0    0  0.00000000000E+00  0.00000000000E+00 -0.18898907290E+04  0.26110902440E+04  0.18016951170E+04 0.  0.
        3    1    3    3  502    0 -0.75721541804E+03 -0.44044738326E+03 -0.64040737552E+03  0.10851224371E+04  0.10100000352E+00 0. -1.
       -3    1    3    3    0  502  0.75721541804E+03  0.44044738326E+03 -0.12494833535E+04  0.15259678069E+04  0.10100000352E+00 0.  1.
</event>
<event>
 5   0  0.8254914E-05  0.1790810E+04  0.7818609E-02  0.8711202E-01
        1   -1    0    0  501    0  0.00000000000E+00  0.00000000000E+00  0.64828450091E+03  0.64828450093E+03  0.50400001928E-02 0. -1.
       -1   -1    0    0    0  501  0.00000000000E+00  0.00000000000E+00 -0.12367262144E+04  0.12367262144E+04  0.50400001928E-02 0.  1.
    10030    2    1    2    0    0  0.00000000000E+00  0.00000000000E+00 -0.58844171346E+03  0.18850107153E+04  0.17908103603E+04 0.  0.
        4    1    3    3  502    0 -0.57819748514E+03  0.41166028683E+03 -0.86880306197E+03  0.11218720502E+04  0.12699999809E+01 0.  1.
       -4    1    3    3    0  502  0.57819748514E+03 -0.41166028683E+03  0.28036134851E+03  0.76313866513E+03  0.12699999809E+01 0. -1.
</event>
<event>
 5   0  0.8492114E-05  0.1797893E+04  0.7818609E-02  0.8707421E-01
        1   -1    0    0  501    0  0.00000000000E+00  0.00000000000E+00  0.10953370472E+04  0.10953370472E+04  0.50400001928E-02 0.  1.
       -1   -1    0    0    0  501  0.00000000000E+00  0.00000000000E+00 -0.73776849577E+03  0.73776849578E+03  0.50400001928E-02 0. -1.
    10030    2    1    2    0    0  0.00000000000E+00  0.00000000000E+00  0.35756855142E+03  0.18331055430E+04  0.17978933958E+04 0.  0.
        2    1    3    3  502    0 -0.38531238026E+03 -0.85064927249E+02  0.10023185384E+04  0.10771927054E+04  0.25500000920E-02 0.  1.
       -2    1    3    3    0  502  0.38531238026E+03  0.85064927249E+02 -0.64474998698E+03  0.75591283754E+03  0.25500000920E-02 0. -1.
</event>
<event>
 5   0  0.1549012E-04  0.1791388E+04  0.7818609E-02  0.8710893E-01
        2   -1    0    0  501    0  0.00000000000E+00  0.00000000000E+00  0.17014196431E+04  0.17014196431E+04  0.25500000920E-02 0. -1.
       -2   -1    0    0    0  501  0.00000000000E+00  0.00000000000E+00 -0.47152830650E+03  0.47152830651E+03  0.25500000920E-02 0.  1.
    10030    2    1    2    0    0  0.00000000000E+00  0.00000000000E+00  0.12298913366E+04  0.21729479496E+04  0.17913877558E+04 0.  0.
        4    1    3    3  502    0  0.38568070507E+03 -0.25654067746E+02  0.15950428592E+04  0.16412102465E+04  0.12699999809E+01 0. -1.
       -4    1    3    3    0  502 -0.38568070507E+03  0.25654067746E+02 -0.36515152269E+03  0.53173770308E+03  0.12699999809E+01 0.  1.
</event>
<event>
 5   0  0.8430513E-05  0.1804106E+04  0.7818609E-02  0.8704119E-01
       -1   -1    0    0    0  501  0.00000000000E+00  0.00000000000E+00  0.14533042217E+04  0.14533042217E+04  0.50400001928E-02 0. -1.
        1   -1    0    0  501    0  0.00000000000E+00  0.00000000000E+00 -0.55989644619E+03  0.55989644621E+03  0.50400001928E-02 0.  1.
    10030    2    1    2    0    0  0.00000000000E+00  0.00000000000E+00  0.89340777554E+03  0.20132006679E+04  0.18041062818E+04 0.  0.
        5    1    3    3  502    0  0.39581853499E+03  0.71059935095E+03  0.88183878339E+03  0.11997022464E+04  0.46999998093E+01 0. -1.
       -5    1    3    3    0  502 -0.39581853499E+03 -0.71059935095E+03  0.11568992147E+02  0.81349842151E+03  0.46999998093E+01 0.  1.
</event>
<event>
 5   0  0.1603564E-04  0.1801534E+04  0.7818609E-02  0.8705484E-01
       -2   -1    0    0    0  501  0.00000000000E+00  0.00000000000E+00  0.75151678567E+03  0.75151678568E+03  0.25500000920E-02 0. -1.
        2   -1    0    0  501    0  0.00000000000E+00  0.00000000000E+00 -0.10796583313E+04  0.10796583313E+04  0.25500000920E-02 0.  1.
    10030    2    1    2    0    0  0.00000000000E+00  0.00000000000E+00 -0.32814154566E+03  0.18311751170E+04  0.18015341893E+04 0.  0.
        5    1    3    3  502    0  0.30918026446E+03  0.27204268713E+03  0.65020883698E+03  0.76967089151E+03  0.46999998093E+01 0. -1.
       -5    1    3    3    0  502 -0.30918026446E+03 -0.27204268713E+03 -0.97835038264E+03  0.10615042255E+04  0.46999998093E+01 0.  1.
</event>
<event>
 5   0  0.8492114E-05  0.1782982E+04  0.7818609E-02  0.8715402E-01
        1   -1    0    0  501    0  0.00000000000E+00  0.00000000000E+00  0.14306781906E+04  0.14306781906E+04  0.50400001928E-02 0. -1.
       -1   -1    0    0    0  501  0.00000000000E+00  0.00000000000E+00 -0.55551002775E+03  0.55551002777E+03  0.50400001928E-02 0.  1.
    10030    2    1    2    0    0  0.00000000000E+00  0.00000000000E+00  0.87516816283E+03  0.19861882184E+04  0.17829818635E+04 0.  0.
        2    1    3    3  502    0  0.74419487781E+03 -0.46661146836E+03  0.26789532813E+03  0.91832466231E+03  0.25500000920E-02 0. -1.
       -2    1    3    3    0  502 -0.74419487781E+03  0.46661146836E+03  0.60727283470E+03  0.10678635560E+04  0.25500000920E-02 0.  1.
</event>
<event>
 5   0  0.1573981E-04  0.1795415E+04  0.7818609E-02  0.8708741E-01
       -2   -1    0    0    0  501  0.00000000000E+00  0.00000000000E+00  0.96761489482E+03  0.96761489482E+03  0.25500000920E-02 0.  1.
        2   -1    0    0  501    0  0.00000000000E+00  0.00000000000E+00 -0.83285096582E+03  0.83285096583E+03  0.25500000920E-02 0. -1.
    10030    2    1    2    0    0  0.00000000000E+00  0.00000000000E+00  0.13476392899E+03  0.18004658607E+04  0.17954152720E+04 0.  0.
        1    1    3    3  502    0 -0.55968339624E+03 -0.65259040650E+03 -0.19172299342E+03  0.88083905960E+03  0.50400001928E-02 0.  1.
       -1    1    3    3    0  502  0.55968339624E+03  0.65259040650E+03  0.32648692241E+03  0.91962680105E+03  0.50400001928E-02 0. -1.
</event>
<event>
 5   0  0.8430513E-05  0.1800977E+04  0.7818609E-02  0.8705780E-01
       -1   -1    0    0    0  501  0.00000000000E+00  0.00000000000E+00  0.16432587496E+04  0.16432587496E+04  0.50400001928E-02 0. -1.
        1   -1    0    0  501    0  0.00000000000E+00  0.00000000000E+00 -0.49345796418E+03  0.49345796420E+03  0.50400001928E-02 0.  1.
    10030    2    1    2    0    0  0.00000000000E+00  0.00000000000E+00  0.11498007855E+04  0.21367167138E+04  0.18009765320E+04 0.  0.
        5    1    3    3  502    0 -0.16457375567E+02 -0.75020422504E+03  0.11654710226E+04  0.13861536780E+04  0.46999998093E+01 0. -1.
       -5    1    3    3    0  502  0.16457375567E+02  0.75020422504E+03 -0.15670237137E+02  0.75056303586E+03  0.46999998093E+01 0.  1.
</event>
<event>
 5   0  0.5820500E-05  0.1803507E+04  0.7818609E-02  0.8704437E-01
       -4   -1    0    0    0  501  0.00000000000E+00  0.00000000000E+00  0.91880729955E+03  0.91880817727E+03  0.12699999809E+01 0. -1.
        4   -1    0    0  501    0  0.00000000000E+00  0.00000000000E+00 -0.88501438642E+03  0.88501529765E+03  0.12699999809E+01 0.  1.
    10030    2    1    2    0    0  0.00000000000E+00  0.00000000000E+00  0.33792913135E+02  0.18038234749E+04  0.18035069081E+04 0.  0.
        5    1    3    3  502    0  0.36002917125E+03 -0.82533677358E+03 -0.31438084744E+02  0.90100623590E+03  0.46999998093E+01 0.  1.
       -5    1    3    3    0  502 -0.36002917125E+03  0.82533677358E+03  0.65230997879E+02  0.90281723901E+03  0.46999998093E+01 0. -1.
</event>
<event>
 5   0  0.1608627E-04  0.1805028E+04  0.7818609E-02  0.8703630E-01
        2   -1    0    0  501    0  0.00000000000E+00  0.00000000000E+00  0.11317516294E+04  0.11317516294E+04  0.25500000920E-02 0. -1.
       -2   -1    0    0    0  501  0.00000000000E+00  0.00000000000E+00 -0.71970906624E+03  0.71970906625E+03  0.25500000920E-02 0.  1.
    10030    2    1    2    0    0  0.00000000000E+00  0.00000000000E+00  0.41204256320E+03  0.18514606957E+04  0.18050284302E+04 0.  0.
        2    1    3    3  502    0  0.21216576777E+03 -0.26535909515E+03  0.10636528686E+04  0.11165962507E+04  0.25500000920E-02 0. -1.
       -2    1    3    3    0  502 -0.21216576777E+03  0.26535909515E+03 -0.65161030535E+03  0.73486444494E+03  0.25500000920E-02 0.  1.
</event>
<event>
 5   0  0.1608627E-04  0.1755505E+04  0.7818609E-02  0.8730326E-01
       -2   -1    0    0    0  501  0.00000000000E+00  0.00000000000E+00  0.56004572301E+03  0.56004572301E+03  0.25500000920E-02 0.  1.
        2   -1    0    0  501    0  0.00000000000E+00  0.00000000000E+00 -0.13756898029E+04  0.13756898029E+04  0.25500000920E-02 0. -1.
    10030    2    1    2    0    0  0.00000000000E+00  0.00000000000E+00 -0.81564407990E+03  0.19357355259E+04  0.17555047027E+04 0.  0.
        2    1    3    3  502    0 -0.82877367541E+03  0.28220816533E+03 -0.47705275937E+03  0.99703891040E+03  0.25500000920E-02 0. -1.
       -2    1    3    3    0  502  0.82877367541E+03 -0.28220816533E+03 -0.33859132053E+03  0.93869661551E+03  0.25500000920E-02 0.  1.
</event>
<event>
 5   0  0.1549012E-04  0.1895885E+04  0.7818609E-02  0.8656908E-01
       -2   -1    0    0    0  501  0.00000000000E+00  0.00000000000E+00  0.10933811951E+04  0.10933811951E+04  0.25500000920E-02 0. -1.
        2   -1    0    0  501    0  0.00000000000E+00  0.00000000000E+00 -0.82184931593E+03  0.82184931593E+03  0.25500000920E-02 0.  1.
    10030    2    1    2    0    0  0.00000000000E+00  0.00000000000E+00  0.27153187917E+03  0.19152305110E+04  0.18958845822E+04 0.  0.
        4    1    3    3  502    0  0.15114871745E+03  0.26546173333E+03  0.10422952146E+04  0.10861384783E+04  0.12699999809E+01 0. -1.
       -4    1    3    3    0  502 -0.15114871745E+03 -0.26546173333E+03 -0.77076333544E+03  0.82909203278E+03  0.12699999809E+01 0.  1.
</event>
<event>
 5   0  0.1608627E-04  0.1819802E+04  0.7818609E-02  0.8695839E-01
        2   -1    0    0  501    0  0.00000000000E+00  0.00000000000E+00  0.15849350609E+04  0.15849350609E+04  0.25500000920E-02 0. -1.
       -2   -1    0    0    0  501  0.00000000000E+00  0.00000000000E+00 -0.52236817738E+03  0.52236817739E+03  0.25500000920E-02 0.  1.
    10030    2    1    2    0    0  0.00000000000E+00  0.00000000000E+00  0.10625668835E+04  0.21073032383E+04  0.18198017904E+04 0.  0.
        2    1    3    3  502    0  0.53224211745E+03 -0.54681505038E+03  0.11051947364E+04  0.13430352848E+04  0.25500000920E-02 0. -1.
       -2    1    3    3    0  502 -0.53224211745E+03  0.54681505038E+03 -0.42627852843E+02  0.76426795350E+03  0.25500000920E-02 0.  1.
</event>
<event>
 5   0  0.1608627E-04  0.1795375E+04  0.7818609E-02  0.8708763E-01
        2   -1    0    0  501    0  0.00000000000E+00  0.00000000000E+00  0.13118089186E+04  0.13118089186E+04  0.25500000920E-02 0. -1.
       -2   -1    0    0    0  501  0.00000000000E+00  0.00000000000E+00 -0.61429870097E+03  0.61429870098E+03  0.25500000920E-02 0.  1.
    10030    2    1    2    0    0  0.00000000000E+00  0.00000000000E+00  0.69751021759E+03  0.19261076195E+04  0.17953746290E+04 0.  0.
        2    1    3    3  502    0 -0.61408301715E+03  0.10666200191E+03  0.10418375959E+04  0.12140429609E+04  0.25500000920E-02 0. -1.
       -2    1    3    3    0  502  0.61408301715E+03 -0.10666200191E+03 -0.34432737835E+03  0.71206465864E+03  0.25500000920E-02 0.  1.
</event>
<event>
 5   0  0.1628397E-04  0.1794856E+04  0.7818609E-02  0.8709040E-01
       -2   -1    0    0    0  501  0.00000000000E+00  0.00000000000E+00  0.82003746789E+03  0.82003746789E+03  0.25500000920E-02 0.  1.
        2   -1    0    0  501    0  0.00000000000E+00  0.00000000000E+00 -0.98212221125E+03  0.98212221125E+03  0.25500000920E-02 0. -1.
    10030    2    1    2    0    0  0.00000000000E+00  0.00000000000E+00 -0.16208474336E+03  0.18021596791E+04  0.17948559956E+04 0.  0.
        3    1    3    3  502    0  0.54001582682E+03 -0.18153158711E+03 -0.77726588110E+03  0.96369760322E+03  0.10100000352E+00 0. -1.
       -3    1    3    3    0  502 -0.54001582682E+03  0.18153158711E+03  0.61518113774E+03  0.83846207592E+03  0.10100000352E+00 0.  1.
</event>
<event>
 5   0  0.8254914E-05  0.1793010E+04  0.7818609E-02  0.8710026E-01
       -1   -1    0    0    0  501  0.00000000000E+00  0.00000000000E+00  0.94677333513E+03  0.94677333515E+03  0.50400001928E-02 0.  1.
        1   -1    0    0  501    0  0.00000000000E+00  0.00000000000E+00 -0.84890532746E+03  0.84890532747E+03  0.50400001928E-02 0. -1.
    10030    2    1    2    0    0  0.00000000000E+00  0.00000000000E+00  0.97868007679E+02  0.17956786626E+04  0.17930096800E+04 0.  0.
        4    1    3    3  502    0  0.37738077380E+03  0.50599483417E+03 -0.58862362324E+03  0.86309119065E+03  0.12699999809E+01 0. -1.
       -4    1    3    3    0  502 -0.37738077380E+03 -0.50599483417E+03  0.68649163092E+03  0.93258747197E+03  0.12699999809E+01 0.  1.
</event>
<event>
 5   0  0.8206783E-05  0.1810745E+04  0.7818609E-02  0.8700606E-01
        1   -1    0    0  501    0  0.00000000000E+00  0.00000000000E+00  0.17936344537E+04  0.17936344537E+04  0.50400001928E-02 0. -1.
       -1   -1    0    0    0  501  0.00000000000E+00  0.00000000000E+00 -0.45700476676E+03  0.45700476679E+03  0.50400001928E-02 0.  1.
    10030    2    1    2    0    0  0.00000000000E+00  0.00000000000E+00  0.13366296869E+04  0.22506392205E+04  0.18107451452E+04 0.  0.
        1    1    3    3  502    0 -0.26947802860E+03 -0.84921585965E+03  0.46823115587E+03  0.10064921259E+04  0.50400001928E-02 0. -1.
       -1    1    3    3    0  502  0.26947802860E+03  0.84921585965E+03  0.86839853108E+03  0.12441470946E+04  0.50400001928E-02 0.  1.
</event>
<event>
 5   0  0.8132598E-05  0.1801442E+04  0.7818609E-02  0.8705533E-01
       -1   -1    0    0    0  501  0.00000000000E+00  0.00000000000E+00  0.39091677538E+03  0.39091677541E+03  0.50400001928E-02 0. -1.
        1   -1    0    0  501    0  0.00000000000E+00  0.00000000000E+00 -0.20753744322E+04  0.20753744322E+04  0.50400001928E-02 0.  1.
    10030    2    1    2    0    0  0.00000000000E+00  0.00000000000E+00 -0.16844576568E+04  0.24662912076E+04  0.18014424007E+04 0.  0.
        3    1    3    3  502    0  0.35580829364E+03  0.66917394570E+02  0.28691444802E+03  0.46194955374E+03  0.10100000352E+00 0. -1.
       -3    1    3    3    0  502 -0.35580829364E+03 -0.66917394570E+02 -0.19713721048E+04  0.20043416539E+04  0.10100000352E+00 0.  1.
</event>
<event>
 5   0  0.8492114E-05  0.1810865E+04  0.7818609E-02  0.8700543E-01
       -1   -1    0    0    0  501  0.00000000000E+00  0.00000000000E+00  0.10830699129E+04  0.10830699129E+04  0.50400001928E-02 0. -1.
        1   -1    0    0  501    0  0.00000000000E+00  0.00000000000E+00 -0.75692956252E+03  0.75692956254E+03  0.50400001928E-02 0.  1.
    10030    2    1    2    0    0  0.00000000000E+00  0.00000000000E+00  0.32614035041E+03  0.18399994755E+04  0.18108645840E+04 0.  0.
        2    1    3    3  502    0  0.15957706651E+02 -0.35359623477E+03 -0.68371830922E+03  0.76990627483E+03  0.25500000920E-02 0.  1.
       -2    1    3    3    0  502 -0.15957706651E+02  0.35359623477E+03  0.10098586596E+04  0.10700932007E+04  0.25500000920E-02 0. -1.
</event>
<event>
 5   0  0.8132598E-05  0.1723050E+04  0.7818609E-02  0.8748326E-01
        1   -1    0    0  501    0  0.00000000000E+00  0.00000000000E+00  0.20029603809E+04  0.20029603809E+04  0.50400001928E-02 0. -1.
       -1   -1    0    0    0  501  0.00000000000E+00  0.00000000000E+00 -0.37056414689E+03  0.37056414693E+03  0.50400001928E-02 0.  1.
    10030    2    1    2    0    0  0.00000000000E+00  0.00000000000E+00  0.16323962340E+04  0.23735245278E+04  0.17230499759E+04 0.  0.
        3    1    3    3  502    0  0.74736302317E+03 -0.22495824272E+03  0.13186934174E+04  0.15323544102E+04  0.10100000352E+00 0. -1.
       -3    1    3    3    0  502 -0.74736302317E+03  0.22495824272E+03  0.31370281664E+03  0.84117011760E+03  0.10100000352E+00 0.  1.
</event>
<event>
 5   0  0.1549012E-04  0.1783873E+04  0.7818609E-02  0.8714923E-01
        2   -1    0    0  501    0  0.00000000000E+00  0.00000000000E+00  0.25291626761E+03  0.25291626762E+03  0.25500000920E-02 0. -1.
       -2   -1    0    0    0  501  0.00000000000E+00  0.00000000000E+00 -0.31455088685E+04  0.31455088685E+04  0.25500000920E-02 0.  1.
    10030    2    1    2    0    0  0.00000000000E+00  0.00000000000E+00 -0.28925926009E+04  0.33984251361E+04  0.17838725995E+04 0.  0.
        4    1    3    3  502    0 -0.72082646386E+03  0.21296518334E+03 -0.53145219850E+03  0.92053680671E+03  0.12699999809E+01 0. -1.
       -4    1    3    3    0  502  0.72082646386E+03 -0.21296518334E+03 -0.23611404024E+04  0.24778883294E+04  0.12699999809E+01 0.  1.
</event>
<event>
 5   0  0.1549012E-04  0.1808053E+04  0.7818609E-02  0.8702029E-01
       -2   -1    0    0    0  501  0.00000000000E+00  0.00000000000E+00  0.48831737261E+03  0.48831737262E+03  0.25500000920E-02 0.  1.
        2   -1    0    0  501    0  0.00000000000E+00  0.00000000000E+00 -0.16736326670E+04  0.16736326670E+04  0.25500000920E-02 0. -1.
    10030    2    1    2    0    0  0.00000000000E+00  0.00000000000E+00 -0.11853152944E+04  0.21619500396E+04  0.18080529933E+04 0.  0.
        4    1    3    3  502    0 -0.23020562860E+03 -0.80148056711E+03 -0.10101324117E+04  0.13098606158E+04  0.12699999809E+01 0.  1.
       -4    1    3    3    0  502  0.23020562860E+03  0.80148056711E+03 -0.17518288276E+03  0.85208942383E+03  0.12699999809E+01 0. -1.
</event>
<event>
 5   0  0.1608627E-04  0.1817624E+04  0.7818609E-02  0.8696983E-01
        2   -1    0    0  501    0  0.00000000000E+00  0.00000000000E+00  0.56487274791E+03  0.56487274792E+03  0.25500000920E-02 0.  1.
       -2   -1    0    0    0  501  0.00000000000E+00  0.00000000000E+00 -0.14621694973E+04  0.14621694973E+04  0.25500000920E-02 0. -1.
    10030    2    1    2    0    0  0.00000000000E+00  0.00000000000E+00 -0.89729674939E+03  0.20270422452E+04  0.18176244957E+04 0.  0.
        2    1    3    3  502    0 -0.35859841478E+03  0.41730272781E+03  0.35801939527E+03  0.65643908866E+03  0.25500000920E-02 0.  1.
       -2    1    3    3    0  502  0.35859841478E+03 -0.41730272781E+03 -0.12553161447E+04  0.13706031566E+04  0.25500000920E-02 0. -1.
</event>
<event>
 5   0  0.5820500E-05  0.1898662E+04  0.7818609E-02  0.8655523E-01
       -3   -1    0    0    0  501  0.00000000000E+00  0.00000000000E+00  0.17122307470E+04  0.17122307500E+04  0.10100000352E+00 0.  1.
        3   -1    0    0  501    0  0.00000000000E+00  0.00000000000E+00 -0.52634815474E+03  0.52634816443E+03  0.10100000352E+00 0. -1.
    10030    2    1    2    0    0  0.00000000000E+00  0.00000000000E+00  0.11858825922E+04  0.22385789144E+04  0.18986621694E+04 0.  0.
        3    1    3    3  502    0 -0.14601238389E+03 -0.93790155124E+03  0.61160433572E+03  0.11291761642E+04  0.10100000352E+00 0. -1.
       -3    1    3    3    0  502  0.14601238389E+03  0.93790155124E+03  0.57427825651E+03  0.11094027502E+04  0.10100000352E+00 0.  1.
</event>
<event>
 5   0  0.8254914E-05  0.1819205E+04  0.7818609E-02  0.8696153E-01
       -1   -1    0    0    0  501  0.00000000000E+00  0.00000000000E+00  0.50327235691E+03  0.50327235693E+03  0.50400001928E-02 0.  1.
        1   -1    0    0  501    0  0.00000000000E+00  0.00000000000E+00 -0.16439935315E+04  0.16439935315E+04  0.50400001928E-02 0. -1.
    10030    2    1    2    0    0  0.00000000000E+00  0.00000000000E+00 -0.11407211746E+04  0.21472658884E+04  0.18192047706E+04 0.  0.
        4    1    3    3  502    0  0.42562402062E+03 -0.24800886307E+03  0.33219665040E+03  0.59415522427E+03  0.12699999809E+01 0.  1.
       -4    1    3    3    0  502 -0.42562402062E+03  0.24800886307E+03 -0.14729178250E+04  0.15531106642E+04  0.12699999809E+01 0. -1.
</event>
<event>
 5   0  0.8132598E-05  0.1794366E+04  0.7818609E-02  0.8709301E-01
        1   -1    0    0  501    0  0.00000000000E+00  0.00000000000E+00  0.14327625370E+04  0.14327625370E+04  0.50400001928E-02 0. -1.
       -1   -1    0    0    0  501  0.00000000000E+00  0.00000000000E+00 -0.56180779661E+03  0.56180779663E+03  0.50400001928E-02 0.  1.
    10030    2    1    2    0    0  0.00000000000E+00  0.00000000000E+00  0.87095474035E+03  0.19945703336E+04  0.17943658088E+04 0.  0.
        3    1    3    3  502    0  0.49459518011E+03 -0.58189397532E+03 -0.87921920184E+02  0.76873614781E+03  0.10100000352E+00 0.  1.
       -3    1    3    3    0  502 -0.49459518011E+03  0.58189397532E+03  0.95887666053E+03  0.12258341858E+04  0.10100000352E+00 0. -1.
</event>
<event>
 5   0  0.8254914E-05  0.1793376E+04  0.7818609E-02  0.8709830E-01
        1   -1    0    0  501    0  0.00000000000E+00  0.00000000000E+00  0.14421548768E+04  0.14421548768E+04  0.50400001928E-02 0.  1.
       -1   -1    0    0    0  501  0.00000000000E+00  0.00000000000E+00 -0.55753352511E+03  0.55753352513E+03  0.50400001928E-02 0. -1.
    10030    2    1    2    0    0  0.00000000000E+00  0.00000000000E+00  0.88462135165E+03  0.19996884019E+04  0.17933763601E+04 0.  0.
        4    1    3    3  502    0 -0.62645830544E+03 -0.30497508701E+02  0.11568667317E+04  0.13159492218E+04  0.12699999809E+01 0.  1.
       -4    1    3    3    0  502  0.62645830544E+03  0.30497508701E+02 -0.27224538010E+03  0.68373918008E+03  0.12699999809E+01 0. -1.
</event>
<event>
 5   0  0.8254914E-05  0.1818530E+04  0.7818609E-02  0.8696507E-01
       -1   -1    0    0    0  501  0.00000000000E+00  0.00000000000E+00  0.62115208735E+03  0.62115208737E+03  0.50400001928E-02 0. -1.
        1   -1    0    0  501    0  0.00000000000E+00  0.00000000000E+00 -0.13310152462E+04  0.13310152462E+04  0.50400001928E-02 0.  1.
    10030    2    1    2    0    0  0.00000000000E+00  0.00000000000E+00 -0.70986315884E+03  0.19521673336E+04  0.18185300641E+04 0.  0.
        4    1    3    3  502    0  0.27074236471E+03 -0.10080090854E+03 -0.12804356652E+04  0.13126230825E+04  0.12699999809E+01 0.  1.
       -4    1    3    3    0  502 -0.27074236471E+03  0.10080090854E+03  0.57057250632E+03  0.63954425107E+03  0.12699999809E+01 0. -1.
</event>
<event>
 5   0  0.1573981E-04  0.1801129E+04  0.7818609E-02  0.8705700E-01
        2   -1    0    0  501    0  0.00000000000E+00  0.00000000000E+00  0.10168434439E+04  0.10168434440E+04  0.25500000920E-02 0. -1.
       -2   -1    0    0    0  501  0.00000000000E+00  0.00000000000E+00 -0.79758198362E+03  0.79758198363E+03  0.25500000920E-02 0.  1.
    10030    2    1    2    0    0  0.00000000000E+00  0.00000000000E+00  0.21926146032E+03  0.18144254276E+04  0.18011285474E+04 0.  0.
        1    1    3    3  502    0 -0.33239617675E+03  0.28610533960E+03  0.90199490110E+03  0.10029647478E+04  0.50400001928E-02 0. -1.
       -1    1    3    3    0  502  0.33239617675E+03 -0.28610533960E+03 -0.68273344078E+03  0.81146067979E+03  0.50400001928E-02 0.  1.
</event>
<event>
 5   0  0.1608627E-04  0.1798102E+04  0.7818609E-02  0.8707309E-01
       -2   -1    0    0    0  501  0.00000000000E+00  0.00000000000E+00  0.12370221287E+04  0.12370221287E+04  0.25500000920E-02 0.  1.
        2   -1    0    0  501    0  0.00000000000E+00  0.00000000000E+00 -0.65341822637E+03  0.65341822638E+03  0.25500000920E-02 0. -1.
    10030    2    1    2    0    0  0.00000000000E+00  0.00000000000E+00  0.58360390236E+03  0.18904403551E+04  0.17981021165E+04 0.  0.
        2    1    3    3  502    0  0.30396258941E+03 -0.14533542159E+03 -0.58453554698E+03  0.67468321916E+03  0.25500000920E-02 0. -1.
       -2    1    3    3    0  502 -0.30396258941E+03  0.14533542159E+03  0.11681394493E+04  0.12157571360E+04  0.25500000920E-02 0.  1.
</event>
<event>
 5   0  0.1628397E-04  0.1802188E+04  0.7818609E-02  0.8705137E-01
       -2   -1    0    0    0  501  0.00000000000E+00  0.00000000000E+00  0.47383796179E+03  0.47383796180E+03  0.25500000920E-02 0.  1.
        2   -1    0    0  501    0  0.00000000000E+00  0.00000000000E+00 -0.17136032227E+04  0.17136032228E+04  0.25500000920E-02 0. -1.
    10030    2    1    2    0    0  0.00000000000E+00  0.00000000000E+00 -0.12397652610E+04  0.21874411845E+04  0.18021878464E+04 0.  0.
        3    1    3    3  502    0  0.25385684061E+03  0.85905404296E+03 -0.73851646819E+03  0.11609581079E+04  0.10100000352E+00 0. -1.
       -3    1    3    3    0  502 -0.25385684061E+03 -0.85905404296E+03 -0.50124879277E+03  0.10264830767E+04  0.10100000352E+00 0.  1.
</event>
<event>
 5   0  0.1603564E-04  0.1803553E+04  0.7818609E-02  0.8704412E-01
       -2   -1    0    0    0  501  0.00000000000E+00  0.00000000000E+00  0.85663588880E+03  0.85663588880E+03  0.25500000920E-02 0.  1.
        2   -1    0    0  501    0  0.00000000000E+00  0.00000000000E+00 -0.94929602680E+03  0.94929602681E+03  0.25500000920E-02 0. -1.
    10030    2    1    2    0    0  0.00000000000E+00  0.00000000000E+00 -0.92660138004E+02  0.18059319156E+04  0.18035532104E+04 0.  0.
        5    1    3    3  502    0 -0.61439579670E+03 -0.64409642106E+03  0.98209060437E+02  0.89554983344E+03  0.46999998093E+01 0. -1.
       -5    1    3    3    0  502  0.61439579670E+03  0.64409642106E+03 -0.19086919844E+03  0.91038208217E+03  0.46999998093E+01 0.  1.
</event>
<event>
 5   0  0.8430513E-05  0.1777741E+04  0.7818609E-02  0.8718227E-01
        1   -1    0    0  501    0  0.00000000000E+00  0.00000000000E+00  0.70224762456E+03  0.70224762458E+03  0.50400001928E-02 0. -1.
       -1   -1    0    0    0  501  0.00000000000E+00  0.00000000000E+00 -0.11250879421E+04  0.11250879421E+04  0.50400001928E-02 0.  1.
    10030    2    1    2    0    0  0.00000000000E+00  0.00000000000E+00 -0.42284031756E+03  0.18273355667E+04  0.17777405152E+04 0.  0.
        5    1    3    3  502    0  0.64698742503E+02  0.84285391855E+03 -0.49382016497E+03  0.97901435159E+03  0.46999998093E+01 0.  1.
       -5    1    3    3    0  502 -0.64698742503E+02 -0.84285391855E+03  0.70979847406E+02  0.84832121512E+03  0.46999998093E+01 0. -1.
</event>
<event>
 5   0  0.8492114E-05  0.1790476E+04  0.7818609E-02  0.8711381E-01
       -1   -1    0    0    0  501  0.00000000000E+00  0.00000000000E+00  0.63248337272E+03  0.63248337274E+03  0.50400001928E-02 0. -1.
        1   -1    0    0  501    0  0.00000000000E+00  0.00000000000E+00 -0.12671490924E+04  0.12671490924E+04  0.50400001928E-02 0.  1.
    10030    2    1    2    0    0  0.00000000000E+00  0.00000000000E+00 -0.63466571971E+03  0.18996324652E+04  0.17904756147E+04 0.  0.
        2    1    3    3  502    0 -0.57701862398E+03  0.37195113335E+03 -0.92695190922E+03  0.11534894798E+04  0.25500000920E-02 0.  1.
       -2    1    3    3    0  502  0.57701862398E+03 -0.37195113335E+03  0.29228618951E+03  0.74614298537E+03  0.25500000920E-02 0. -1.
</event>
<event>
 5   0  0.8430513E-05  0.1796048E+04  0.7818609E-02  0.8708404E-01
       -1   -1    0    0    0  501  0.00000000000E+00  0.00000000000E+00  0.34082056165E+03  0.34082056169E+03  0.50400001928E-02 0.  1.
        1   -1    0    0  501    0  0.00000000000E+00  0.00000000000E+00 -0.23661924729E+04  0.23661924729E+04  0.50400001928E-02 0. -1.
    10030    2    1    2    0    0  0.00000000000E+00  0.00000000000E+00 -0.20253719112E+04  0.27070130346E+04  0.17960479366E+04 0.  0.
        5    1    3    3  502    0  0.33898732211E+02 -0.27556554249E+03  0.27448810832E+03  0.39045012980E+03  0.46999998093E+01 0.  1.
       -5    1    3    3    0  502 -0.33898732211E+02  0.27556554249E+03 -0.22998600195E+04  0.23165629048E+04  0.46999998093E+01 0. -1.
</event>
<event>
 5   0  0.1608627E-04  0.1803485E+04  0.7818609E-02  0.8704449E-01
       -2   -1    0    0    0  501  0.00000000000E+00  0.00000000000E+00  0.90079247194E+03  0.90079247195E+03  0.25500000920E-02 0.  1.
        2   -1    0    0  501    0  0.00000000000E+00  0.00000000000E+00 -0.90269313488E+03  0.90269313489E+03  0.25500000920E-02 0. -1.
    10030    2    1    2    0    0  0.00000000000E+00  0.00000000000E+00 -0.19006629419E+01  0.18034856068E+04  0.18034846053E+04 0.  0.
        2    1    3    3  502    0  0.38390026831E+03  0.62029325973E+03  0.52914055545E+03  0.90118414961E+03  0.25500000920E-02 0.  1.
       -2    1    3    3    0  502 -0.38390026831E+03 -0.62029325973E+03 -0.53104121839E+03  0.90230145723E+03  0.25500000920E-02 0. -1.
</event>
<event>
 5   0  0.1573981E-04  0.1806728E+04  0.7818609E-02  0.8702730E-01
       -2   -1    0    0    0  501  0.00000000000E+00  0.00000000000E+00  0.84129037509E+03  0.84129037509E+03  0.25500000920E-02 0.  1.
        2   -1    0    0  501    0  0.00000000000E+00  0.00000000000E+00 -0.97001756111E+03  0.97001756111E+03  0.25500000920E-02 0. -1.
    10030    2    1    2    0    0  0.00000000000E+00  0.00000000000E+00 -0.12872718602E+03  0.18113079362E+04  0.18067279129E+04 0.  0.
        1    1    3    3  502    0  0.62695522721E+03  0.22596076412E+03  0.54704740047E+03  0.86220182221E+03  0.50400001928E-02 0.  1.
       -1    1    3    3    0  502 -0.62695522721E+03 -0.22596076412E+03 -0.67577458649E+03  0.94910611399E+03  0.50400001928E-02 0. -1.
</event>
<event>
 5   0  0.1573981E-04  0.1796178E+04  0.7818609E-02  0.8708335E-01
       -2   -1    0    0    0  501  0.00000000000E+00  0.00000000000E+00  0.35518883327E+03  0.35518883328E+03  0.25500000920E-02 0.  1.
        2   -1    0    0  501    0  0.00000000000E+00  0.00000000000E+00 -0.22708024031E+04  0.22708024031E+04  0.25500000920E-02 0. -1.
    10030    2    1    2    0    0  0.00000000000E+00  0.00000000000E+00 -0.19156135698E+04  0.26259912364E+04  0.17961777820E+04 0.  0.
        1    1    3    3  502    0 -0.70208035652E+03  0.28455790054E+03 -0.25259828957E+03  0.79855865264E+03  0.50400001928E-02 0.  1.
       -1    1    3    3    0  502  0.70208035652E+03 -0.28455790054E+03 -0.16630152803E+04  0.18274325838E+04  0.50400001928E-02 0. -1.
</event>
<event>
 5   0  0.1628397E-04  0.1662945E+04  0.7818609E-02  0.8782785E-01
        2   -1    0    0  501    0  0.00000000000E+00  0.00000000000E+00  0.10793394280E+04  0.10793394280E+04  0.25500000920E-02 0.  1.
       -2   -1    0    0    0  501  0.00000000000E+00  0.00000000000E+00 -0.64052718564E+03  0.64052718565E+03  0.25500000920E-02 0. -1.
    10030    2    1    2    0    0  0.00000000000E+00  0.00000000000E+00  0.43881224238E+03  0.17198666137E+04  0.16629446728E+04 0.  0.
        3    1    3    3  502    0  0.26683072538E+03 -0.78727462226E+03  0.20016085821E+03  0.85502300918E+03  0.10100000352E+00 0. -1.
       -3    1    3    3    0  502 -0.26683072538E+03  0.78727462226E+03  0.23865138416E+03  0.86484360449E+03  0.10100000352E+00 0.  1.
</event>
<event>
 5   0  0.8254914E-05  0.1795441E+04  0.7818609E-02  0.8708728E-01
        1   -1    0    0  501    0  0.00000000000E+00  0.00000000000E+00  0.17587604369E+04  0.17587604369E+04  0.50400001928E-02 0.  1.
       -1   -1    0    0    0  501  0.00000000000E+00  0.00000000000E+00 -0.45822140693E+03  0.45822140695E+03  0.50400001928E-02 0. -1.
    10030    2    1    2    0    0  0.00000000000E+00  0.00000000000E+00  0.13005390300E+04  0.22169818438E+04  0.17954405386E+04 0.  0.
        4    1    3    3  502    0  0.61948381993E+03 -0.22100532566E+03  0.14046979963E+04  0.15510582294E+04  0.12699999809E+01 0.  1.
       -4    1    3    3    0  502 -0.61948381993E+03  0.22100532566E+03 -0.10415896638E+03  0.66592361446E+03  0.12699999809E+01 0. -1.
</event>
<event>
 5   0  0.1628397E-04  0.1825807E+04  0.7818609E-02  0.8692695E-01
       -2   -1    0    0    0  501  0.00000000000E+00  0.00000000000E+00  0.40941907455E+03  0.40941907456E+03  0.25500000920E-02 0. -1.
        2   -1    0    0  501    0  0.00000000000E+00  0.00000000000E+00 -0.20355493396E+04  0.20355493396E+04  0.25500000920E-02 0.  1.
    10030    2    1    2    0    0  0.00000000000E+00  0.00000000000E+00 -0.16261302650E+04  0.24449684141E+04  0.18258069195E+04 0.  0.
        3    1    3    3  502    0  0.10174090946E+03  0.82861708732E+03 -0.31843375537E+03  0.89350856561E+03  0.10100000352E+00 0. -1.
       -3    1    3    3    0  502 -0.10174090946E+03 -0.82861708732E+03 -0.13076965097E+04  0.15514598485E+04  0.10100000352E+00 0.  1.
</event>
<event>
 5   0  0.8492114E-05  0.1796238E+04  0.7818609E-02  0.8708302E-01
       -1   -1    0    0    0  501  0.00000000000E+00  0.00000000000E+00  0.45781591278E+03  0.45781591281E+03  0.50400001928E-02 0. -1.
        1   -1    0    0  501    0  0.00000000000E+00  0.00000000000E+00 -0.17618828429E+04  0.17618828429E+04  0.50400001928E-02 0.  1.
    10030    2    1    2    0    0  0.00000000000E+00  0.00000000000E+00 -0.13040669301E+04  0.22196987557E+04  0.17962382937E+04 0.  0.
        2    1    3    3  502    0 -0.52647590176E+03 -0.28332804595E+03 -0.14802305393E+04  0.15964128871E+04  0.25500000920E-02 0.  1.
       -2    1    3    3    0  502  0.52647590176E+03  0.28332804595E+03  0.17616360917E+03  0.62328586857E+03  0.25500000920E-02 0. -1.
</event>
<event>
 5   0  0.1603564E-04  0.1804624E+04  0.7818609E-02  0.8703844E-01
       -2   -1    0    0    0  501  0.00000000000E+00  0.00000000000E+00  0.34233004312E+03  0.34233004313E+03  0.25500000920E-02 0. -1.
        2   -1    0    0  501    0  0.00000000000E+00  0.00000000000E+00 -0.23783103318E+04  0.23783103318E+04  0.25500000920E-02 0.  1.
    10030    2    1    2    0    0  0.00000000000E+00  0.00000000000E+00 -0.20359802886E+04  0.27206403749E+04  0.18046241475E+04 0.  0.
        5    1    3    3  502    0  0.25551377071E+03  0.65156368645E+03 -0.15942571831E+03  0.71781695033E+03  0.46999998093E+01 0. -1.
       -5    1    3    3    0  502 -0.25551377071E+03 -0.65156368645E+03 -0.18765545703E+04  0.20028234246E+04  0.46999998093E+01 0.  1.
</event>
<event>
 5   0  0.1628397E-04  0.1815389E+04  0.7818609E-02  0.8698159E-01
        2   -1    0    0  501    0  0.00000000000E+00  0.00000000000E+00  0.22764162484E+04  0.22764162484E+04  0.25500000920E-02 0. -1.
       -2   -1    0    0    0  501  0.00000000000E+00  0.00000000000E+00 -0.36193245972E+03  0.36193245973E+03  0.25500000920E-02 0.  1.
    10030    2    1    2    0    0  0.00000000000E+00  0.00000000000E+00  0.19144837887E+04  0.26383487082E+04  0.18153885889E+04 0.  0.
        3    1    3    3  502    0 -0.55387457699E+03  0.29194155374E+03  0.19123558784E+04  0.20122405258E+04  0.10100000352E+00 0. -1.
       -3    1    3    3    0  502  0.55387457699E+03 -0.29194155374E+03  0.21279103373E+01  0.62610818238E+03  0.10100000352E+00 0.  1.
</event>
<event>
 5   0  0.8492114E-05  0.1803732E+04  0.7818609E-02  0.8704318E-01
       -1   -1    0    0    0  501  0.00000000000E+00  0.00000000000E+00  0.38172508035E+03  0.38172508039E+03  0.50400001928E-02 0.  1.
        1   -1    0    0  501    0  0.00000000000E+00  0.00000000000E+00 -0.21307533595E+04  0.21307533595E+04  0.50400001928E-02 0. -1.
    10030    2    1    2    0    0  0.00000000000E+00  0.00000000000E+00 -0.17490282791E+04  0.25124784399E+04  0.18037316845E+04 0.  0.
        2    1    3    3  502    0  0.14135885173E+02  0.85153347210E+03 -0.46117903559E+03  0.96850151276E+03  0.25500000920E-02 0.  1.
       -2    1    3    3    0  502 -0.14135885173E+02 -0.85153347210E+03 -0.12878492435E+04  0.15439769271E+04  0.25500000920E-02 0. -1.
</event>
<event>
 5   0  0.8492114E-05  0.1796334E+04  0.7818609E-02  0.8708251E-01
       -1   -1    0    0    0  501  0.00000000000E+00  0.00000000000E+00  0.84640196052E+03  0.84640196054E+03  0.50400001928E-02 0. -1.
        1   -1    0    0  501    0  0.00000000000E+00  0.00000000000E+00 -0.95309802017E+03  0.95309802019E+03  0.50400001928E-02 0.  1.
    10030    2    1    2    0    0  0.00000000000E+00  0.00000000000E+00 -0.10669605965E+03  0.17994999807E+04  0.17963340813E+04 0.  0.
        2    1    3    3  502    0  0.21690795602E+03 -0.73051244666E+03 -0.52958733599E+03  0.92798719957E+03  0.25500000920E-02 0.  1.
       -2    1    3    3    0  502 -0.21690795602E+03  0.73051244666E+03  0.42289127634E+03  0.87151278116E+03  0.25500000920E-02 0. -1.
</event>
<event>
 5   0  0.5820500E-05  0.1780473E+04  0.7818609E-02  0.8716753E-01
       -3   -1    0    0    0  501  0.00000000000E+00  0.00000000000E+00  0.11399704397E+04  0.11399704442E+04  0.10100000352E+00 0. -1.
        3   -1    0    0  501    0  0.00000000000E+00  0.00000000000E+00 -0.69521158443E+03  0.69521159177E+03  0.10100000352E+00 0.  1.
    10030    2    1    2    0    0  0.00000000000E+00  0.00000000000E+00  0.44475885529E+03  0.18351820360E+04  0.17804725962E+04 0.  0.
        2    1    3    3  502    0 -0.76561049563E+03  0.42166623136E+03  0.39656573857E+03  0.95980530667E+03  0.25500000920E-02 0. -1.
       -2    1    3    3    0  502  0.76561049563E+03 -0.42166623136E+03  0.48193116722E+02  0.87537672930E+03  0.25500000920E-02 0.  1.
</event>
<event>
 5   0  0.1608627E-04  0.1806926E+04  0.7818609E-02  0.8702625E-01
       -2   -1    0    0    0  501  0.00000000000E+00  0.00000000000E+00  0.30942661799E+03  0.30942661800E+03  0.25500000920E-02 0. -1.
        2   -1    0    0  501    0  0.00000000000E+00  0.00000000000E+00 -0.26379280262E+04  0.26379280262E+04  0.25500000920E-02 0.  1.
    10030    2    1    2    0    0  0.00000000000E+00  0.00000000000E+00 -0.23285014083E+04  0.29473546442E+04  0.18069257292E+04 0.  0.
        2    1    3    3  502    0  0.48140110456E+03 -0.68952767547E+03 -0.62560357498E+03  0.10481294156E+04  0.25500000920E-02 0. -1.
       -2    1    3    3    0  502 -0.48140110456E+03  0.68952767547E+03 -0.17028978333E+04  0.18992252287E+04  0.25500000920E-02 0.  1.
</event>
<event>
 5   0  0.1608627E-04  0.1783666E+04  0.7818609E-02  0.8715034E-01
        2   -1    0    0  501    0  0.00000000000E+00  0.00000000000E+00  0.11280393390E+04  0.11280393390E+04  0.25500000920E-02 0. -1.
       -2   -1    0    0    0  501  0.00000000000E+00  0.00000000000E+00 -0.70508697931E+03  0.70508697931E+03  0.25500000920E-02 0.  1.
    10030    2    1    2    0    0  0.00000000000E+00  0.00000000000E+00  0.42295235967E+03  0.18331263183E+04  0.17836657199E+04 0.  0.
        2    1    3    3  502    0  0.58606511620E+03  0.60142904727E+03 -0.97145143605E+02  0.84535578206E+03  0.25500000920E-02 0.  1.
       -2    1    3    3    0  502 -0.58606511620E+03 -0.60142904727E+03  0.52009750327E+03  0.98777053623E+03  0.25500000920E-02 0. -1.
</event>
<event>
 5   0  0.8132598E-05  0.1763151E+04  0.7818609E-02  0.8726145E-01
        1   -1    0    0  501    0  0.00000000000E+00  0.00000000000E+00  0.98837252097E+03  0.98837252099E+03  0.50400001928E-02 0. -1.
       -1   -1    0    0    0  501  0.00000000000E+00  0.00000000000E+00 -0.78631782286E+03  0.78631782288E+03  0.50400001928E-02 0.  1.
    10030    2    1    2    0    0  0.00000000000E+00  0.00000000000E+00  0.20205469811E+03  0.17746903439E+04  0.17631505085E+04 0.  0.
        3    1    3    3  502    0 -0.82234314389E+03  0.17525222991E+03  0.36773960924E+03  0.91771129490E+03  0.10100000352E+00 0.  1.
       -3    1    3    3    0  502  0.82234314389E+03 -0.17525222991E+03 -0.16568491113E+03  0.85697904896E+03  0.10100000352E+00 0. -1.
</event>
<event>
 5   0  0.1549012E-04  0.1811578E+04  0.7818609E-02  0.8700166E-01
       -2   -1    0    0    0  501  0.00000000000E+00  0.00000000000E+00  0.14846743573E+04  0.14846743573E+04  0.25500000920E-02 0. -1.
        2   -1    0    0  501    0  0.00000000000E+00  0.00000000000E+00 -0.55261543160E+03  0.55261543161E+03  0.25500000920E-02 0.  1.
    10030    2    1    2    0    0  0.00000000000E+00  0.00000000000E+00  0.93205892569E+03  0.20372897889E+04  0.18115782741E+04 0.  0.
        4    1    3    3  502    0 -0.63870089793E+03 -0.25130392659E+03 -0.19868051723E+03  0.71454045467E+03  0.12699999809E+01 0.  1.
       -4    1    3    3    0  502  0.63870089793E+03  0.25130392659E+03  0.11307394429E+04  0.13227493342E+04  0.12699999809E+01 0. -1.
</event>
<event>
 5   0  0.8206783E-05  0.1827530E+04  0.7818609E-02  0.8691795E-01
       -1   -1    0    0    0  501  0.00000000000E+00  0.00000000000E+00  0.66729722834E+03  0.66729722836E+03  0.50400001928E-02 0.  1.
        1   -1    0    0  501    0  0.00000000000E+00  0.00000000000E+00 -0.12512668503E+04  0.12512668503E+04  0.50400001928E-02 0. -1.
    10030    2    1    2    0    0  0.00000000000E+00  0.00000000000E+00 -0.58396962198E+03  0.19185640787E+04  0.18275304661E+04 0.  0.
        1    1    3    3  502    0 -0.36214096396E+03  0.74171843434E+03  0.11955581257E+03  0.83401792904E+03  0.50400001928E-02 0.  1.
       -1    1    3    3    0  502  0.36214096396E+03 -0.74171843434E+03 -0.70352543455E+03  0.10845461496E+04  0.50400001928E-02 0. -1.
</event>
<event>
 5   0  0.1608627E-04  0.1767240E+04  0.7818609E-02  0.8723917E-01
        2   -1    0    0  501    0  0.00000000000E+00  0.00000000000E+00  0.13292084241E+04  0.13292084241E+04  0.25500000920E-02 0. -1.
       -2   -1    0    0    0  501  0.00000000000E+00  0.00000000000E+00 -0.58740552753E+03  0.58740552754E+03  0.25500000920E-02 0.  1.
    10030    2    1    2    0    0  0.00000000000E+00  0.00000000000E+00  0.74180289654E+03  0.19166139516E+04  0.17672400805E+04 0.  0.
        2    1    3    3  502    0  0.87989021566E+03  0.37869454133E+02  0.29312144192E+03  0.92820313880E+03  0.25500000920E-02 0. -1.
       -2    1    3    3    0  502 -0.87989021566E+03 -0.37869454133E+02  0.44868145462E+03  0.98841081281E+03  0.25500000920E-02 0.  1.
</event>
<event>
 5   0  0.8430513E-05  0.1801402E+04  0.7818609E-02  0.8705554E-01
        1   -1    0    0  501    0  0.00000000000E+00  0.00000000000E+00  0.54469104631E+03  0.54469104634E+03  0.50400001928E-02 0. -1.
       -1   -1    0    0    0  501  0.00000000000E+00  0.00000000000E+00 -0.14893992662E+04  0.14893992662E+04  0.50400001928E-02 0.  1.
    10030    2    1    2    0    0  0.00000000000E+00  0.00000000000E+00 -0.94470821987E+03  0.20340903125E+04  0.18014021702E+04 0.  0.
        5    1    3    3  502    0  0.48317385335E+03  0.36240485134E+03 -0.12268277474E+04  0.13674511548E+04  0.46999998093E+01 0.  1.
       -5    1    3    3    0  502 -0.48317385335E+03 -0.36240485134E+03  0.28211952755E+03  0.66663915776E+03  0.46999998093E+01 0. -1.
</event>
<event>
 5   0  0.1573981E-04  0.1802534E+04  0.7818609E-02  0.8704953E-01
        2   -1    0    0  501    0  0.00000000000E+00  0.00000000000E+00  0.65539226344E+03  0.65539226345E+03  0.25500000920E-02 0. -1.
       -2   -1    0    0    0  501  0.00000000000E+00  0.00000000000E+00 -0.12393825817E+04  0.12393825817E+04  0.25500000920E-02 0.  1.
    10030    2    1    2    0    0  0.00000000000E+00  0.00000000000E+00 -0.58399031829E+03  0.18947748452E+04  0.18025335010E+04 0.  0.
        1    1    3    3  502    0  0.20857154825E+03  0.13723442934E+03  0.61831496087E+03  0.66681989338E+03  0.50400001928E-02 0. -1.
       -1    1    3    3    0  502 -0.20857154825E+03 -0.13723442934E+03 -0.12023052792E+04  0.12279549518E+04  0.50400001928E-02 0.  1.
</event>
<event>
 5   0  0.1603564E-04  0.1810198E+04  0.7818609E-02  0.8700895E-01
       -2   -1    0    0    0  501  0.00000000000E+00  0.00000000000E+00  0.65411198594E+03  0.65411198594E+03  0.25500000920E-02 0. -1.
        2   -1    0    0  501    0  0.00000000000E+00  0.00000000000E+00 -0.12523908768E+04  0.12523908768E+04  0.25500000920E-02 0.  1.
    10030    2    1    2    0    0  0.00000000000E+00  0.00000000000E+00 -0.59827889085E+03  0.19065028627E+04  0.18101976506E+04 0.  0.
        5    1    3    3  502    0 -0.30342387740E+03 -0.67935083352E+03 -0.84191967417E+03  0.11235810750E+04  0.46999998093E+01 0.  1.
       -5    1    3    3    0  502  0.30342387740E+03  0.67935083352E+03  0.24364078332E+03  0.78292178771E+03  0.46999998093E+01 0. -1.
</event>
<event>
 5   0  0.8206783E-05  0.1856001E+04  0.7818609E-02  0.8677073E-01
       -1   -1    0    0    0  501  0.00000000000E+00  0.00000000000E+00  0.38371289803E+03  0.38371289807E+03  0.50400001928E-02 0.  1.
        1   -1    0    0  501    0  0.00000000000E+00  0.00000000000E+00 -0.22443472948E+04  0.22443472948E+04  0.50400001928E-02 0. -1.
    10030    2    1    2    0    0  0.00000000000E+00  0.00000000000E+00 -0.18606343968E+04  0.26280601929E+04  0.18560010827E+04 0.  0.
        1    1    3    3  502    0  0.59027315054E+03 -0.76839638117E+01  0.83571432571E+02  0.59620937591E+03  0.50400001928E-02 0.  1.
       -1    1    3    3    0  502 -0.59027315054E+03  0.76839638117E+01 -0.19442058294E+04  0.20318508170E+04  0.50400001928E-02 0. -1.
</event>
<event>
 5   0  0.8254914E-05  0.1776058E+04  0.7818609E-02  0.8719136E-01
       -1   -1    0    0    0  501  0.00000000000E+00  0.00000000000E+00  0.18430832442E+04  0.18430832442E+04  0.50400001928E-02 0.  1.
        1   -1    0    0  501    0  0.00000000000E+00  0.00000000000E+00 -0.42786766797E+03  0.42786766800E+03  0.50400001928E-02 0. -1.
    10030    2    1    2    0    0  0.00000000000E+00  0.00000000000E+00  0.14152155762E+04  0.22709509122E+04  0.17760582531E+04 0.  0.
        4    1    3    3  502    0  0.67519678237E+03 -0.34622035932E+03  0.12974990280E+04  0.15030850185E+04  0.12699999809E+01 0.  1.
       -4    1    3    3    0  502 -0.67519678237E+03  0.34622035932E+03  0.11771654820E+03  0.76786589373E+03  0.12699999809E+01 0. -1.
</event>
<event>
 5   0  0.8254914E-05  0.1816916E+04  0.7818609E-02  0.8697355E-01
        1   -1    0    0  501    0  0.00000000000E+00  0.00000000000E+00  0.13160907011E+04  0.13160907011E+04  0.50400001928E-02 0. -1.
       -1   -1    0    0    0  501  0.00000000000E+00  0.00000000000E+00 -0.62708103026E+03  0.62708103028E+03  0.50400001928E-02 0.  1.
    10030    2    1    2    0    0  0.00000000000E+00  0.00000000000E+00  0.68900967083E+03  0.19431717314E+04  0.18169155322E+04 0.  0.
        4    1    3    3  502    0  0.36135042424E+03 -0.29173973181E+03  0.11795340463E+04  0.12676704538E+04  0.12699999809E+01 0. -1.
       -4    1    3    3    0  502 -0.36135042424E+03  0.29173973181E+03 -0.49052437543E+03  0.67550127758E+03  0.12699999809E+01 0.  1.
</event>
<event>
 5   0  0.1608627E-04  0.1834776E+04  0.7818609E-02  0.8688021E-01
       -2   -1    0    0    0  501  0.00000000000E+00  0.00000000000E+00  0.97744314520E+03  0.97744314521E+03  0.25500000920E-02 0. -1.
        2   -1    0    0  501    0  0.00000000000E+00  0.00000000000E+00 -0.86102291389E+03  0.86102291389E+03  0.25500000920E-02 0.  1.
    10030    2    1    2    0    0  0.00000000000E+00  0.00000000000E+00  0.11642023131E+03  0.18384660591E+04  0.18347762207E+04 0.  0.
        2    1    3    3  502    0  0.49576799020E+03  0.36260541486E+03 -0.62457962727E+03  0.87599560375E+03  0.25500000920E-02 0.  1.
       -2    1    3    3    0  502 -0.49576799020E+03 -0.36260541486E+03  0.74099985858E+03  0.96247045535E+03  0.25500000920E-02 0. -1.
</event>
<event>
 5   0  0.1608627E-04  0.1757504E+04  0.7818609E-02  0.8729230E-01
       -2   -1    0    0    0  501  0.00000000000E+00  0.00000000000E+00  0.66566151740E+03  0.66566151741E+03  0.25500000920E-02 0.  1.
        2   -1    0    0  501    0  0.00000000000E+00  0.00000000000E+00 -0.11600571749E+04  0.11600571749E+04  0.25500000920E-02 0. -1.
    10030    2    1    2    0    0  0.00000000000E+00  0.00000000000E+00 -0.49439565753E+03  0.18257186923E+04  0.17575043890E+04 0.  0.
        2    1    3    3  502    0 -0.58981997494E+03  0.42920676614E+03 -0.75621560885E+03  0.10506988617E+04  0.25500000920E-02 0. -1.
       -2    1    3    3    0  502  0.58981997494E+03 -0.42920676614E+03  0.26181995132E+03  0.77501983062E+03  0.25500000920E-02 0.  1.
</event>
<event>
 5   0  0.1549012E-04  0.1799500E+04  0.7818609E-02  0.8706565E-01
        2   -1    0    0  501    0  0.00000000000E+00  0.00000000000E+00  0.21821201215E+04  0.21821201215E+04  0.25500000920E-02 0. -1.
       -2   -1    0    0    0  501  0.00000000000E+00  0.00000000000E+00 -0.37099244208E+03  0.37099244209E+03  0.25500000920E-02 0.  1.
    10030    2    1    2    0    0  0.00000000000E+00  0.00000000000E+00  0.18111276795E+04  0.25531125636E+04  0.17995000115E+04 0.  0.
        4    1    3    3  502    0 -0.80991102150E+03  0.38453534809E+03  0.10129163108E+04  0.13527100067E+04  0.12699999809E+01 0.  1.
       -4    1    3    3    0  502  0.80991102150E+03 -0.38453534809E+03  0.79821136870E+03  0.12004025569E+04  0.12699999809E+01 0. -1.
</event>
<event>
 5   0  0.1603564E-04  0.1797170E+04  0.7818609E-02  0.8707806E-01
        2   -1    0    0  501    0  0.00000000000E+00  0.00000000000E+00  0.94531045555E+03  0.94531045556E+03  0.25500000920E-02 0.  1.
       -2   -1    0    0    0  501  0.00000000000E+00  0.00000000000E+00 -0.85416888901E+03  0.85416888902E+03  0.25500000920E-02 0. -1.
    10030    2    1    2    0    0  0.00000000000E+00  0.00000000000E+00  0.91141566539E+02  0.17994793446E+04  0.17971697545E+04 0.  0.
        5    1    3    3  502    0 -0.95168347157E+02  0.38851178024E+03  0.85123784403E+03  0.94054578559E+03  0.46999998093E+01 0.  1.
       -5    1    3    3    0  502  0.95168347157E+02 -0.38851178024E+03 -0.76009627749E+03  0.85893355898E+03  0.46999998093E+01 0. -1.
</event>
<event>
 5   0  0.1608627E-04  0.1798391E+04  0.7818609E-02  0.8707156E-01
       -2   -1    0    0    0  501  0.00000000000E+00  0.00000000000E+00  0.62552369326E+03  0.62552369326E+03  0.25500000920E-02 0.  1.
        2   -1    0    0  501    0  0.00000000000E+00  0.00000000000E+00 -0.12926010385E+04  0.12926010385E+04  0.25500000920E-02 0. -1.
    10030    2    1    2    0    0  0.00000000000E+00  0.00000000000E+00 -0.66707734529E+03  0.19181247318E+04  0.17983910315E+04 0.  0.
        2    1    3    3  502    0 -0.27754624937E+03 -0.81843475346E+03 -0.59843945346E+03  0.10511884444E+04  0.25500000920E-02 0.  1.
       -2    1    3    3    0  502  0.27754624937E+03  0.81843475346E+03 -0.68637891824E+02  0.86693628740E+03  0.25500000920E-02 0. -1.
</event>
<event>
 5   0  0.1573981E-04  0.1802650E+04  0.7818609E-02  0.8704892E-01
        2   -1    0    0  501    0  0.00000000000E+00  0.00000000000E+00  0.84173135714E+03  0.84173135715E+03  0.25500000920E-02 0. -1.
       -2   -1    0    0    0  501  0.00000000000E+00  0.00000000000E+00 -0.96513777746E+03  0.96513777746E+03  0.25500000920E-02 0.  1.
    10030    2    1    2    0    0  0.00000000000E+00  0.00000000000E+00 -0.12340642031E+03  0.18068691346E+04  0.18026499730E+04 0.  0.
        1    1    3    3  502    0 -0.29173597456E+03  0.33496640732E+03 -0.84780557714E+03  0.95712416621E+03  0.50400001928E-02 0.  1.
       -1    1    3    3    0  502  0.29173597456E+03 -0.33496640732E+03  0.72439915682E+03  0.84974496840E+03  0.50400001928E-02 0. -1.
</event>
<event>
 5   0  0.1549012E-04  0.1773398E+04  0.7818609E-02  0.8720575E-01
       -2   -1    0    0    0  501  0.00000000000E+00  0.00000000000E+00  0.94002028884E+03  0.94002028884E+03  0.25500000920E-02 0. -1.
        2   -1    0    0  501    0  0.00000000000E+00  0.00000000000E+00 -0.83640275519E+03  0.83640275520E+03  0.25500000920E-02 0.  1.
    10030    2    1    2    0    0  0.00000000000E+00  0.00000000000E+00  0.10361753364E+03  0.17764230440E+04  0.17733984995E+04 0.  0.
        4    1    3    3  502    0  0.88439301760E+03 -0.57380989600E+02  0.23647493515E+02  0.88656889433E+03  0.12699999809E+01 0.  1.
       -4    1    3    3    0  502 -0.88439301760E+03  0.57380989600E+02  0.79970040129E+02  0.88985414971E+03  0.12699999809E+01 0. -1.
</event>
<event>
 5   0  0.1549012E-04  0.1855477E+04  0.7818609E-02  0.8677342E-01
       -2   -1    0    0    0  501  0.00000000000E+00  0.00000000000E+00  0.72698619398E+03  0.72698619398E+03  0.25500000920E-02 0. -1.
        2   -1    0    0  501    0  0.00000000000E+00  0.00000000000E+00 -0.11839266856E+04  0.11839266856E+04  0.25500000920E-02 0.  1.
    10030    2    1    2    0    0  0.00000000000E+00  0.00000000000E+00 -0.45694049158E+03  0.19109128796E+04  0.18554766019E+04 0.  0.
        4    1    3    3  502    0  0.50867052743E+03  0.18260127329E+03 -0.10050602859E+04  0.11411558709E+04  0.12699999809E+01 0.  1.
       -4    1    3    3    0  502 -0.50867052743E+03 -0.18260127329E+03  0.54811979435E+03  0.76975700863E+03  0.12699999809E+01 0. -1.
</event>
<event>
 5   0  0.1603564E-04  0.1820716E+04  0.7818609E-02  0.8695360E-01
       -2   -1    0    0    0  501  0.00000000000E+00  0.00000000000E+00  0.40233342659E+03  0.40233342660E+03  0.25500000920E-02 0.  1.
        2   -1    0    0  501    0  0.00000000000E+00  0.00000000000E+00 -0.20598620719E+04  0.20598620719E+04  0.25500000920E-02 0. -1.
    10030    2    1    2    0    0  0.00000000000E+00  0.00000000000E+00 -0.16575286453E+04  0.24621954985E+04  0.18207156458E+04 0.  0.
        5    1    3    3  502    0 -0.90542898230E+03  0.93787703498E+02 -0.81325674504E+03  0.12206581826E+04  0.46999998093E+01 0. -1.
       -5    1    3    3    0  502  0.90542898230E+03 -0.93787703498E+02 -0.84427190029E+03  0.12415373160E+04  0.46999998093E+01 0.  1.
</event>
<event>
 5   0  0.8254914E-05  0.1799294E+04  0.7818609E-02  0.8706675E-01
        1   -1    0    0  501    0  0.00000000000E+00  0.00000000000E+00  0.15932312705E+04  0.15932312705E+04  0.50400001928E-02 0.  1.
       -1   -1    0    0    0  501  0.00000000000E+00  0.00000000000E+00 -0.50800191972E+03  0.50800191974E+03  0.50400001928E-02 0. -1.
    10030    2    1    2    0    0  0.00000000000E+00  0.00000000000E+00  0.10852293508E+04  0.21012331903E+04  0.17992937993E+04 0.  0.
        4    1    3    3  502    0  0.76953287834E+03  0.69642075145E+02  0.10807356959E+04  0.13285413530E+04  0.12699999809E+01 0.  1.
       -4    1    3    3    0  502 -0.76953287834E+03 -0.69642075145E+02  0.44936549128E+01  0.77269183722E+03  0.12699999809E+01 0. -1.
</event>
<event>
 5   0  0.1603564E-04  0.1796388E+04  0.7818609E-02  0.8708223E-01
       -2   -1    0    0    0  501  0.00000000000E+00  0.00000000000E+00  0.88167825897E+03  0.88167825898E+03  0.25500000920E-02 0. -1.
        2   -1    0    0  501    0  0.00000000000E+00  0.00000000000E+00 -0.91501882447E+03  0.91501882448E+03  0.25500000920E-02 0.  1.
    10030    2    1    2    0    0  0.00000000000E+00  0.00000000000E+00 -0.33340565498E+02  0.17966970835E+04  0.17963877133E+04 0.  0.
        5    1    3    3  502    0  0.73878607869E+03 -0.46678244630E+03 -0.22416538496E+03  0.90219894262E+03  0.46999998093E+01 0. -1.
       -5    1    3    3    0  502 -0.73878607869E+03  0.46678244630E+03  0.19082481946E+03  0.89449814084E+03  0.46999998093E+01 0.  1.
</event>
<event>
 5   0  0.1628397E-04  0.1807047E+04  0.7818609E-02  0.8702561E-01
       -2   -1    0    0    0  501  0.00000000000E+00  0.00000000000E+00  0.54533533241E+03  0.54533533241E+03  0.25500000920E-02 0. -1.
        2   -1    0    0  501    0  0.00000000000E+00  0.00000000000E+00 -0.14969776121E+04  0.14969776121E+04  0.25500000920E-02 0.  1.
    10030    2    1    2    0    0  0.00000000000E+00  0.00000000000E+00 -0.95164227966E+03  0.20423129445E+04  0.18070470760E+04 0.  0.
        3    1    3    3  502    0 -0.31995030009E+03  0.71074132237E+03  0.40657961055E+02  0.78049631764E+03  0.10100000352E+00 0. -1.
       -3    1    3    3    0  502  0.31995030009E+03 -0.71074132237E+03 -0.99230024072E+03  0.12618166268E+04  0.10100000352E+00 0.  1.
</event>
<event>
 5   0  0.5820500E-05  0.1864336E+04  0.7818609E-02  0.8672815E-01
        4   -1    0    0  501    0  0.00000000000E+00  0.00000000000E+00  0.12503989298E+04  0.12503995747E+04  0.12699999809E+01 0. -1.
       -4   -1    0    0    0  501  0.00000000000E+00  0.00000000000E+00 -0.69492686011E+03  0.69492802059E+03  0.12699999809E+01 0.  1.
    10030    2    1    2    0    0  0.00000000000E+00  0.00000000000E+00  0.55547206967E+03  0.19453275953E+04  0.18643364055E+04 0.  0.
        2    1    3    3  502    0  0.43984712055E+03 -0.60541880386E+03  0.85770617873E+03  0.11382694350E+04  0.25500000920E-02 0. -1.
       -2    1    3    3    0  502 -0.43984712055E+03  0.60541880386E+03 -0.30223410907E+03  0.80705816037E+03  0.25500000920E-02 0.  1.
</event>
<event>
 5   0  0.8206783E-05  0.1788531E+04  0.7818609E-02  0.8712422E-01
       -1   -1    0    0    0  501  0.00000000000E+00  0.00000000000E+00  0.56695606700E+03  0.56695606702E+03  0.50400001928E-02 0. -1.
        1   -1    0    0  501    0  0.00000000000E+00  0.00000000000E+00 -0.14105341870E+04  0.14105341870E+04  0.50400001928E-02 0.  1.
    10030    2    1    2    0    0  0.00000000000E+00  0.00000000000E+00 -0.84357812004E+03  0.19774902541E+04  0.17885311460E+04 0.  0.
        1    1    3    3  502    0  0.67348607362E+02 -0.70907149947E+03 -0.10196512640E+04  0.12437873317E+04  0.50400001928E-02 0.  1.
       -1    1    3    3    0  502 -0.67348607362E+02  0.70907149947E+03  0.17607314395E+03  0.73370292238E+03  0.50400001928E-02 0. -1.
</event>
<event>
 5   0  0.8430513E-05  0.1805389E+04  0.7818609E-02  0.8703439E-01
        1   -1    0    0  501    0  0.00000000000E+00  0.00000000000E+00  0.64824851507E+03  0.64824851508E+03  0.50400001928E-02 0.  1.
       -1   -1    0    0    0  501  0.00000000000E+00  0.00000000000E+00 -0.12570135534E+04  0.12570135534E+04  0.50400001928E-02 0. -1.
    10030    2    1    2    0    0  0.00000000000E+00  0.00000000000E+00 -0.60876503834E+03  0.19052620685E+04  0.18053887885E+04 0.  0.
        5    1    3    3  502    0  0.87995864119E+03  0.14276028525E+03 -0.15466331937E+03  0.90479309326E+03  0.46999998093E+01 0.  1.
       -5    1    3    3    0  502 -0.87995864119E+03 -0.14276028525E+03 -0.45410171897E+03  0.10004689752E+04  0.46999998093E+01 0. -1.
</event>
<event>
 5   0  0.8430513E-05  0.1804054E+04  0.7818609E-02  0.8704147E-01
       -1   -1    0    0    0  501  0.00000000000E+00  0.00000000000E+00  0.11417233995E+04  0.11417233995E+04  0.50400001928E-02 0.  1.
        1   -1    0    0  501    0  0.00000000000E+00  0.00000000000E+00 -0.71265273023E+03  0.71265273025E+03  0.50400001928E-02 0. -1.
    10030    2    1    2    0    0  0.00000000000E+00  0.00000000000E+00  0.42907066926E+03  0.18543761298E+04  0.18040535445E+04 0.  0.
        5    1    3    3  502    0 -0.71879226842E+03 -0.24162377546E+02  0.77413291505E+03  0.10566692982E+04  0.46999998093E+01 0.  1.
       -5    1    3    3    0  502  0.71879226842E+03  0.24162377546E+02 -0.34506224579E+03  0.79770683154E+03  0.46999998093E+01 0. -1.
</event>
<event>
 5   0  0.1573981E-04  0.1764274E+04  0.7818609E-02  0.8725532E-01
        2   -1    0    0  501    0  0.00000000000E+00  0.00000000000E+00  0.18048207618E+04  0.18048207618E+04  0.25500000920E-02 0.  1.
       -2   -1    0    0    0  501  0.00000000000E+00  0.00000000000E+00 -0.43115953626E+03  0.43115953627E+03  0.25500000920E-02 0. -1.
    10030    2    1    2    0    0  0.00000000000E+00  0.00000000000E+00  0.13736612255E+04  0.22359802980E+04  0.17642739954E+04 0.  0.
        1    1    3    3  502    0 -0.64275559088E+03  0.59299472694E+03  0.54018711107E+03  0.10279005841E+04  0.50400001928E-02 0.  1.
       -1    1    3    3    0  502  0.64275559088E+03 -0.59299472694E+03  0.83347411442E+03  0.12080797139E+04  0.50400001928E-02 0. -1.
</event>
<event>
 5   0  0.1573981E-04  0.1800599E+04  0.7818609E-02  0.8705981E-01
        2   -1    0    0  501    0  0.00000000000E+00  0.00000000000E+00  0.15685924647E+04  0.15685924647E+04  0.25500000920E-02 0. -1.
       -2   -1    0    0    0  501  0.00000000000E+00  0.00000000000E+00 -0.51673006192E+03  0.51673006193E+03  0.25500000920E-02 0.  1.
    10030    2    1    2    0    0  0.00000000000E+00  0.00000000000E+00  0.10518624028E+04  0.20853225266E+04  0.18005986576E+04 0.  0.
        1    1    3    3  502    0 -0.54943333682E+03 -0.20878178258E+03 -0.26386753753E+03  0.64427703803E+03  0.50400001928E-02 0.  1.
       -1    1    3    3    0  502  0.54943333682E+03  0.20878178258E+03  0.13157299403E+04  0.14410454886E+04  0.50400001928E-02 0. -1.
</event>
<event>
 5   0  0.8254914E-05  0.1804052E+04  0.7818609E-02  0.8704148E-01
       -1   -1    0    0    0  501  0.00000000000E+00  0.00000000000E+00  0.14943981579E+04  0.14943981579E+04  0.50400001928E-02 0. -1.
        1   -1    0    0  501    0  0.00000000000E+00  0.00000000000E+00 -0.54446737271E+03  0.54446737273E+03  0.50400001928E-02 0.  1.
    10030    2    1    2    0    0  0.00000000000E+00  0.00000000000E+00  0.94993078523E+03  0.20388655307E+04  0.18040521488E+04 0.  0.
        4    1    3    3  502    0  0.20178515531E+03 -0.75793310979E+03  0.97845031522E+03  0.12540121531E+04  0.12699999809E+01 0. -1.
       -4    1    3    3    0  502 -0.20178515531E+03  0.75793310979E+03 -0.28519529998E+02  0.78485337759E+03  0.12699999809E+01 0.  1.
</event>
<event>
 5   0  0.1608627E-04  0.1790409E+04  0.7818609E-02  0.8711416E-01
        2   -1    0    0  501    0  0.00000000000E+00  0.00000000000E+00  0.11557583272E+04  0.11557583272E+04  0.25500000920E-02 0. -1.
       -2   -1    0    0    0  501  0.00000000000E+00  0.00000000000E+00 -0.69339023314E+03  0.69339023314E+03  0.25500000920E-02 0.  1.
    10030    2    1    2    0    0  0.00000000000E+00  0.00000000000E+00  0.46236809407E+03  0.18491485604E+04  0.17904094905E+04 0.  0.
        2    1    3    3  502    0 -0.81595862520E+03 -0.14265593436E+03 -0.11944211074E+03  0.83690239065E+03  0.25500000920E-02 0.  1.
       -2    1    3    3    0  502  0.81595862520E+03  0.14265593436E+03  0.58181020481E+03  0.10122461697E+04  0.25500000920E-02 0. -1.
</event>
<event>
 5   0  0.1603564E-04  0.1789403E+04  0.7818609E-02  0.8711955E-01
        2   -1    0    0  501    0  0.00000000000E+00  0.00000000000E+00  0.10939976866E+04  0.10939976866E+04  0.25500000920E-02 0.  1.
       -2   -1    0    0    0  501  0.00000000000E+00  0.00000000000E+00 -0.73171158358E+03  0.73171158358E+03  0.25500000920E-02 0. -1.
    10030    2    1    2    0    0  0.00000000000E+00  0.00000000000E+00  0.36228610298E+03  0.18257092701E+04  0.17894030062E+04 0.  0.
        5    1    3    3  502    0 -0.56231977737E+03 -0.50134796604E+03 -0.31126204190E+03  0.81514383013E+03  0.46999998093E+01 0. -1.
       -5    1    3    3    0  502  0.56231977737E+03  0.50134796604E+03  0.67354814488E+03  0.10105654400E+04  0.46999998093E+01 0.  1.
</event>
<event>
 5   0  0.1603564E-04  0.1796601E+04  0.7818609E-02  0.8708109E-01
       -2   -1    0    0    0  501  0.00000000000E+00  0.00000000000E+00  0.61557452821E+03  0.61557452822E+03  0.25500000920E-02 0. -1.
        2   -1    0    0  501    0  0.00000000000E+00  0.00000000000E+00 -0.13108790676E+04  0.13108790676E+04  0.25500000920E-02 0.  1.
    10030    2    1    2    0    0  0.00000000000E+00  0.00000000000E+00 -0.69530453938E+03  0.19264535958E+04  0.17966009725E+04 0.  0.
        5    1    3    3  502    0  0.73232803712E+02  0.53491707720E+03  0.42216658788E+03  0.68538021633E+03  0.46999998093E+01 0. -1.
       -5    1    3    3    0  502 -0.73232803712E+02 -0.53491707720E+03 -0.11174711273E+04  0.12410733795E+04  0.46999998093E+01 0.  1.
</event>
<event>
 5   0  0.8206783E-05  0.1801605E+04  0.7818609E-02  0.8705446E-01
        1   -1    0    0  501    0  0.00000000000E+00  0.00000000000E+00  0.14554756152E+04  0.14554756152E+04  0.50400001928E-02 0.  1.
       -1   -1    0    0    0  501  0.00000000000E+00  0.00000000000E+00 -0.55751220033E+03  0.55751220035E+03  0.50400001928E-02 0. -1.
    10030    2    1    2    0    0  0.00000000000E+00  0.00000000000E+00  0.89796341486E+03  0.20129878155E+04  0.18016052984E+04 0.  0.
        1    1    3    3  502    0 -0.79303434124E+03 -0.58301305127E+02  0.92189476017E+03  0.12174532670E+04  0.50400001928E-02 0.  1.
       -1    1    3    3    0  502  0.79303434124E+03  0.58301305127E+02 -0.23931345307E+02  0.79553454851E+03  0.50400001928E-02 0. -1.
</event>
<event>
 5   0  0.8254914E-05  0.1806304E+04  0.7818609E-02  0.8702954E-01
       -1   -1    0    0    0  501  0.00000000000E+00  0.00000000000E+00  0.10280633140E+04  0.10280633140E+04  0.50400001928E-02 0.  1.
        1   -1    0    0  501    0  0.00000000000E+00  0.00000000000E+00 -0.79341773415E+03  0.79341773417E+03  0.50400001928E-02 0. -1.
    10030    2    1    2    0    0  0.00000000000E+00  0.00000000000E+00  0.23464557983E+03  0.18214810482E+04  0.18063041440E+04 0.  0.
        4    1    3    3  502    0  0.93056105248E+02  0.64986307278E+01 -0.78854593718E+03  0.79404532545E+03  0.12699999809E+01 0. -1.
       -4    1    3    3    0  502 -0.93056105248E+02 -0.64986307278E+01  0.10231915170E+04  0.10274357227E+04  0.12699999809E+01 0.  1.
</event>
<event>
 5   0  0.1628397E-04  0.1819558E+04  0.7818609E-02  0.8695967E-01
       -2   -1    0    0    0  501  0.00000000000E+00  0.00000000000E+00  0.76454230954E+03  0.76454230955E+03  0.25500000920E-02 0.  1.
        2   -1    0    0  501    0  0.00000000000E+00  0.00000000000E+00 -0.10826055029E+04  0.10826055029E+04  0.25500000920E-02 0. -1.
    10030    2    1    2    0    0  0.00000000000E+00  0.00000000000E+00 -0.31806319340E+03  0.18471478125E+04  0.18195578711E+04 0.  0.
        3    1    3    3  502    0  0.53714762447E+03  0.95832092214E+02  0.58000869365E+03  0.79631743375E+03  0.10100000352E+00 0.  1.
       -3    1    3    3    0  502 -0.53714762447E+03 -0.95832092214E+02 -0.89807188706E+03  0.10508303787E+04  0.10100000352E+00 0. -1.
</event>
<event>
 5   0  0.1573981E-04  0.1795829E+04  0.7818609E-02  0.8708521E-01
        2   -1    0    0  501    0  0.00000000000E+00  0.00000000000E+00  0.13149905910E+04  0.13149905910E+04  0.25500000920E-02 0.  1.
       -2   -1    0    0    0  501  0.00000000000E+00  0.00000000000E+00 -0.61312230554E+03  0.61312230555E+03  0.25500000920E-02 0. -1.
    10030    2    1    2    0    0  0.00000000000E+00  0.00000000000E+00  0.70186828544E+03  0.19281128965E+04  0.17958285697E+04 0.  0.
        1    1    3    3  502    0 -0.55727010547E+02  0.54181921503E+02 -0.60950370755E+03  0.61443954126E+03  0.50400001928E-02 0. -1.
       -1    1    3    3    0  502  0.55727010547E+02 -0.54181921503E+02  0.13113719930E+04  0.13136733553E+04  0.50400001928E-02 0.  1.
</event>
<event>
 5   0  0.1603564E-04  0.1809839E+04  0.7818609E-02  0.8701085E-01
       -2   -1    0    0    0  501  0.00000000000E+00  0.00000000000E+00  0.39804327756E+03  0.39804327757E+03  0.25500000920E-02 0. -1.
        2   -1    0    0  501    0  0.00000000000E+00  0.00000000000E+00 -0.20572612204E+04  0.20572612205E+04  0.25500000920E-02 0.  1.
    10030    2    1    2    0    0  0.00000000000E+00  0.00000000000E+00 -0.16592179429E+04  0.24553044980E+04  0.18098386657E+04 0.  0.
        5    1    3    3  502    0  0.10296370646E+03 -0.89825112044E+03 -0.88037549251E+03  0.12619586753E+04  0.46999998093E+01 0.  1.
       -5    1    3    3    0  502 -0.10296370646E+03  0.89825112044E+03 -0.77884245037E+03  0.11933458228E+04  0.46999998093E+01 0. -1.
</event>
<event>
 5   0  0.5820500E-05  0.1793897E+04  0.7818609E-02  0.8709552E-01
        4   -1    0    0  501    0  0.00000000000E+00  0.00000000000E+00  0.13355842835E+04  0.13355848873E+04  0.12699999809E+01 0. -1.
       -4   -1    0    0    0  501  0.00000000000E+00  0.00000000000E+00 -0.60236894767E+03  0.60237028647E+03  0.12699999809E+01 0.  1.
    10030    2    1    2    0    0  0.00000000000E+00  0.00000000000E+00  0.73321533583E+03  0.19379551738E+04  0.17938967437E+04 0.  0.
        4    1    3    3  502    0  0.50805939895E+03  0.32304380305E+03  0.10848544515E+04  0.12407225497E+04  0.12699999809E+01 0. -1.
       -4    1    3    3    0  502 -0.50805939895E+03 -0.32304380305E+03 -0.35163911564E+03  0.69723262409E+03  0.12699999809E+01 0.  1.
</event>
<event>
 5   0  0.1628397E-04  0.1815008E+04  0.7818609E-02  0.8698359E-01
       -2   -1    0    0    0  501  0.00000000000E+00  0.00000000000E+00  0.46514102033E+03  0.46514102033E+03  0.25500000920E-02 0. -1.
        2   -1    0    0  501    0  0.00000000000E+00  0.00000000000E+00 -0.17705665111E+04  0.17705665111E+04  0.25500000920E-02 0.  1.
    10030    2    1    2    0    0  0.00000000000E+00  0.00000000000E+00 -0.13054254908E+04  0.22357075315E+04  0.18150075631E+04 0.  0.
        3    1    3    3  502    0  0.15943626178E+03  0.39167281623E+03 -0.16417835256E+04  0.16953703642E+04  0.10100000352E+00 0.  1.
       -3    1    3    3    0  502 -0.15943626178E+03 -0.39167281623E+03  0.33635803482E+03  0.54033716727E+03  0.10100000352E+00 0. -1.
</event>
<event>
 5   0  0.1549012E-04  0.1807369E+04  0.7818609E-02  0.8702390E-01
       -2   -1    0    0    0  501  0.00000000000E+00  0.00000000000E+00  0.65177701606E+03  0.65177701606E+03  0.25500000920E-02 0. -1.
        2   -1    0    0  501    0  0.00000000000E+00  0.00000000000E+00 -0.12529531424E+04  0.12529531424E+04  0.25500000920E-02 0.  1.
    10030    2    1    2    0    0  0.00000000000E+00  0.00000000000E+00 -0.60117612638E+03  0.19047301585E+04  0.18073694259E+04 0.  0.
        4    1    3    3  502    0  0.16533482943E+03  0.16992836821E+03  0.61841521222E+03  0.66230675956E+03  0.12699999809E+01 0. -1.
       -4    1    3    3    0  502 -0.16533482943E+03 -0.16992836821E+03 -0.12195913386E+04  0.12424233989E+04  0.12699999809E+01 0.  1.
</event>
<event>
 5   0  0.5820500E-05  0.1804921E+04  0.7818609E-02  0.8703687E-01
        3   -1    0    0  501    0  0.00000000000E+00  0.00000000000E+00  0.71541357932E+03  0.71541358645E+03  0.10100000352E+00 0. -1.
       -3   -1    0    0    0  501  0.00000000000E+00  0.00000000000E+00 -0.11384114027E+04  0.11384114072E+04  0.10100000352E+00 0.  1.
    10030    2    1    2    0    0  0.00000000000E+00  0.00000000000E+00 -0.42299782341E+03  0.18538249937E+04  0.18049210366E+04 0.  0.
        1    1    3    3  502    0 -0.48117106463E+03  0.69525017062E+03  0.11254354349E+03  0.85297388142E+03  0.50400001928E-02 0. -1.
       -1    1    3    3    0  502  0.48117106463E+03 -0.69525017062E+03 -0.53554136690E+03  0.10008511122E+04  0.50400001928E-02 0.  1.
</event>
<event>
 5   0  0.1628397E-04  0.1784379E+04  0.7818609E-02  0.8714651E-01
       -2   -1    0    0    0  501  0.00000000000E+00  0.00000000000E+00  0.53446403361E+03  0.53446403362E+03  0.25500000920E-02 0.  1.
        2   -1    0    0  501    0  0.00000000000E+00  0.00000000000E+00 -0.14893470079E+04  0.14893470079E+04  0.25500000920E-02 0. -1.
    10030    2    1    2    0    0  0.00000000000E+00  0.00000000000E+00 -0.95488297431E+03  0.20238110415E+04  0.17843793423E+04 0.  0.
        3    1    3    3  502    0 -0.19706923471E+03  0.17948627626E+03 -0.14431299407E+04  0.14675406783E+04  0.10100000352E+00 0. -1.
       -3    1    3    3    0  502  0.19706923471E+03 -0.17948627626E+03  0.48824696637E+03  0.55627036322E+03  0.10100000352E+00 0.  1.
</event>
<event>
 5   0  0.1549012E-04  0.1787796E+04  0.7818609E-02  0.8712816E-01
        2   -1    0    0  501    0  0.00000000000E+00  0.00000000000E+00  0.11398019335E+04  0.11398019335E+04  0.25500000920E-02 0.  1.
       -2   -1    0    0    0  501  0.00000000000E+00  0.00000000000E+00 -0.70104615707E+03  0.70104615708E+03  0.25500000920E-02 0. -1.
    10030    2    1    2    0    0  0.00000000000E+00  0.00000000000E+00  0.43875577642E+03  0.18408480906E+04  0.17877961464E+04 0.  0.
        4    1    3    3  502    0 -0.35295867793E+03  0.73059746949E+03 -0.16685253598E+03  0.82836819857E+03  0.12699999809E+01 0. -1.
       -4    1    3    3    0  502  0.35295867793E+03 -0.73059746949E+03  0.60560831240E+03  0.10124798920E+04  0.12699999809E+01 0.  1.
</event>
<event>
 5   0  0.1573981E-04  0.1800465E+04  0.7818609E-02  0.8706052E-01
        2   -1    0    0  501    0  0.00000000000E+00  0.00000000000E+00  0.18852946641E+04  0.18852946641E+04  0.25500000920E-02 0. -1.
       -2   -1    0    0    0  501  0.00000000000E+00  0.00000000000E+00 -0.42986307628E+03  0.42986307629E+03  0.25500000920E-02 0.  1.
    10030    2    1    2    0    0  0.00000000000E+00  0.00000000000E+00  0.14554315878E+04  0.23151577404E+04  0.18004650111E+04 0.  0.
        1    1    3    3  502    0  0.58640354449E+02 -0.65552614588E+03 -0.62088257356E+02  0.66106593531E+03  0.50400001928E-02 0.  1.
       -1    1    3    3    0  502 -0.58640354449E+02  0.65552614588E+03  0.15175198452E+04  0.16540918051E+04  0.50400001928E-02 0. -1.
</event>
<event>
 5   0  0.8254914E-05  0.1804592E+04  0.7818609E-02  0.8703861E-01
        1   -1    0    0  501    0  0.00000000000E+00  0.00000000000E+00  0.89417171084E+03  0.89417171085E+03  0.50400001928E-02 0.  1.
       -1   -1    0    0    0  501  0.00000000000E+00  0.00000000000E+00 -0.91049449207E+03  0.91049449208E+03  0.50400001928E-02 0. -1.
    10030    2    1    2    0    0  0.00000000000E+00  0.00000000000E+00 -0.16322781230E+02  0.18046662029E+04  0.18045923836E+04 0.  0.
        4    1    3    3  502    0 -0.30697290021E+03 -0.84270608443E+03 -0.10691206844E+03  0.90322627812E+03  0.12699999809E+01 0.  1.
       -4    1    3    3    0  502  0.30697290021E+03  0.84270608443E+03  0.90589287211E+02  0.90143992482E+03  0.12699999809E+01 0. -1.
</event>
<event>
 5   0  0.1628397E-04  0.1804672E+04  0.7818609E-02  0.8703819E-01
       -2   -1    0    0    0  501  0.00000000000E+00  0.00000000000E+00  0.45137477681E+03  0.45137477682E+03  0.25500000920E-02 0. -1.
        2   -1    0    0  501    0  0.00000000000E+00  0.00000000000E+00 -0.18038452018E+04  0.18038452018E+04  0.25500000920E-02 0.  1.
    10030    2    1    2    0    0  0.00000000000E+00  0.00000000000E+00 -0.13524704249E+04  0.22552199786E+04  0.18046719650E+04 0.  0.
        3    1    3    3  502    0 -0.85751152588E+03 -0.27256407121E+03 -0.59154366780E+03  0.10768199065E+04  0.10100000352E+00 0. -1.
       -3    1    3    3    0  502  0.85751152588E+03  0.27256407121E+03 -0.76092675715E+03  0.11784000721E+04  0.10100000352E+00 0.  1.
</event>
<event>
 5   0  0.1603564E-04  0.1828535E+04  0.7818609E-02  0.8691270E-01
       -2   -1    0    0    0  501  0.00000000000E+00  0.00000000000E+00  0.10317066058E+04  0.10317066058E+04  0.25500000920E-02 0. -1.
        2   -1    0    0  501    0  0.00000000000E+00  0.00000000000E+00 -0.81019653042E+03  0.81019653042E+03  0.25500000920E-02 0.  1.
    10030    2    1    2    0    0  0.00000000000E+00  0.00000000000E+00  0.22151007534E+03  0.18419031362E+04  0.18285350556E+04 0.  0.
        5    1    3    3  502    0  0.28679478458E+03  0.81956846065E+02  0.98130405337E+03  0.10256451181E+04  0.46999998093E+01 0. -1.
       -5    1    3    3    0  502 -0.28679478458E+03 -0.81956846065E+02 -0.75979397803E+03  0.81625801811E+03  0.46999998093E+01 0.  1.
</event>
<event>
 5   0  0.8132598E-05  0.1794422E+04  0.7818609E-02  0.8709271E-01
        1   -1    0    0  501    0  0.00000000000E+00  0.00000000000E+00  0.95761354688E+03  0.95761354689E+03  0.50400001928E-02 0. -1.
       -1   -1    0    0    0  501  0.00000000000E+00  0.00000000000E+00 -0.84061867112E+03  0.84061867114E+03  0.50400001928E-02 0.  1.
    10030    2    1    2    0    0  0.00000000000E+00  0.00000000000E+00  0.11699487575E+03  0.17982322180E+04  0.17944222772E+04 0.  0.
        3    1    3    3  502    0 -0.76449682715E+03 -0.46587286313E+03  0.11774058328E+03  0.90297053024E+03  0.10100000352E+00 0. -1.
       -3    1    3    3    0  502  0.76449682715E+03  0.46587286313E+03 -0.74570752603E+00  0.89526168778E+03  0.10100000352E+00 0.  1.
</event>
<event>
 5   0  0.8254914E-05  0.1801889E+04  0.7818609E-02  0.8705296E-01
        1   -1    0    0  501    0  0.00000000000E+00  0.00000000000E+00  0.95856929234E+03  0.95856929236E+03  0.50400001928E-02 0. -1.
       -1   -1    0    0    0  501  0.00000000000E+00  0.00000000000E+00 -0.84678363175E+03  0.84678363176E+03  0.50400001928E-02 0.  1.
    10030    2    1    2    0    0  0.00000000000E+00  0.00000000000E+00  0.11178566060E+03  0.18053529241E+04  0.18018887720E+04 0.  0.
        4    1    3    3  502    0  0.35166524460E+03 -0.47477591667E+03 -0.62557547230E+03  0.86048062136E+03  0.12699999809E+01 0.  1.
       -4    1    3    3    0  502 -0.35166524460E+03  0.47477591667E+03  0.73736113289E+03  0.94487230275E+03  0.12699999809E+01 0. -1.
</event>
<event>
 5   0  0.1549012E-04  0.1798225E+04  0.7818609E-02  0.8707244E-01
       -2   -1    0    0    0  501  0.00000000000E+00  0.00000000000E+00  0.80537466126E+03  0.80537466126E+03  0.25500000920E-02 0. -1.
        2   -1    0    0  501    0  0.00000000000E+00  0.00000000000E+00 -0.10037602930E+04  0.10037602930E+04  0.25500000920E-02 0.  1.
    10030    2    1    2    0    0  0.00000000000E+00  0.00000000000E+00 -0.19838563170E+03  0.18091349542E+04  0.17982247979E+04 0.  0.
        4    1    3    3  502    0 -0.89135348188E+03  0.97954744397E+02 -0.33256402157E+02  0.89733703969E+03  0.12699999809E+01 0.  1.
       -4    1    3    3    0  502  0.89135348188E+03 -0.97954744397E+02 -0.16512922955E+03  0.91179791454E+03  0.12699999809E+01 0. -1.
</event>
<event>
 5   0  0.8132598E-05  0.1782305E+04  0.7818609E-02  0.8715766E-01
        1   -1    0    0  501    0  0.00000000000E+00  0.00000000000E+00  0.20109157540E+04  0.20109157540E+04  0.50400001928E-02 0. -1.
       -1   -1    0    0    0  501  0.00000000000E+00  0.00000000000E+00 -0.39492113836E+03  0.39492113839E+03  0.50400001928E-02 0.  1.
    10030    2    1    2    0    0  0.00000000000E+00  0.00000000000E+00  0.16159946156E+04  0.24058368924E+04  0.17823054045E+04 0.  0.
        3    1    3    3  502    0 -0.82382690454E+03  0.31788592119E+03  0.64595455072E+03  0.10940747321E+04  0.10100000352E+00 0.  1.
       -3    1    3    3    0  502  0.82382690454E+03 -0.31788592119E+03  0.97004006491E+03  0.13117621603E+04  0.10100000352E+00 0. -1.
</event>
<event>
 5   0  0.1603564E-04  0.1800413E+04  0.7818609E-02  0.8706080E-01
       -2   -1    0    0    0  501  0.00000000000E+00  0.00000000000E+00  0.84141946768E+03  0.84141946769E+03  0.25500000920E-02 0. -1.
        2   -1    0    0  501    0  0.00000000000E+00  0.00000000000E+00 -0.96310096277E+03  0.96310096277E+03  0.25500000920E-02 0.  1.
    10030    2    1    2    0    0  0.00000000000E+00  0.00000000000E+00 -0.12168149508E+03  0.18045204305E+04  0.18004131742E+04 0.  0.
        5    1    3    3  502    0 -0.26621952801E+03 -0.89439341351E+02  0.79637497886E+03  0.84445688453E+03  0.46999998093E+01 0. -1.
       -5    1    3    3    0  502  0.26621952801E+03  0.89439341351E+02 -0.91805647394E+03  0.96006354593E+03  0.46999998093E+01 0.  1.
</event>
<event>
 5   0  0.1608627E-04  0.1797395E+04  0.7818609E-02  0.8707686E-01
       -2   -1    0    0    0  501  0.00000000000E+00  0.00000000000E+00  0.71856945497E+03  0.71856945497E+03  0.25500000920E-02 0. -1.
        2   -1    0    0  501    0  0.00000000000E+00  0.00000000000E+00 -0.11239794335E+04  0.11239794335E+04  0.25500000920E-02 0.  1.
    10030    2    1    2    0    0  0.00000000000E+00  0.00000000000E+00 -0.40540997856E+03  0.18425488885E+04  0.17973951029E+04 0.  0.
        2    1    3    3  502    0  0.29840411090E+00  0.74728124144E+03  0.30906384537E+03  0.80867162889E+03  0.25500000920E-02 0. -1.
       -2    1    3    3    0  502 -0.29840411090E+00 -0.74728124144E+03 -0.71447382394E+03  0.10338772596E+04  0.25500000920E-02 0.  1.
</event>
<event>
 5   0  0.1603564E-04  0.1794163E+04  0.7818609E-02  0.8709410E-01
       -2   -1    0    0    0  501  0.00000000000E+00  0.00000000000E+00  0.53470398593E+03  0.53470398594E+03  0.25500000920E-02 0. -1.
        2   -1    0    0  501    0  0.00000000000E+00  0.00000000000E+00 -0.15050476507E+04  0.15050476507E+04  0.25500000920E-02 0.  1.
    10030    2    1    2    0    0  0.00000000000E+00  0.00000000000E+00 -0.97034366473E+03  0.20397516366E+04  0.17941627327E+04 0.  0.
        5    1    3    3  502    0 -0.46654652550E+03  0.62545718311E+03  0.17981112045E+02  0.78051762232E+03  0.46999998093E+01 0. -1.
       -5    1    3    3    0  502  0.46654652550E+03 -0.62545718311E+03 -0.98832477678E+03  0.12592340143E+04  0.46999998093E+01 0.  1.
</event>
<event>
 5   0  0.8430513E-05  0.1795919E+04  0.7818609E-02  0.8708473E-01
        1   -1    0    0  501    0  0.00000000000E+00  0.00000000000E+00  0.14720746509E+04  0.14720746510E+04  0.50400001928E-02 0. -1.
       -1   -1    0    0    0  501  0.00000000000E+00  0.00000000000E+00 -0.54775150623E+03  0.54775150625E+03  0.50400001928E-02 0.  1.
    10030    2    1    2    0    0  0.00000000000E+00  0.00000000000E+00  0.92432314472E+03  0.20198261572E+04  0.17959188260E+04 0.  0.
        5    1    3    3  502    0 -0.26325633140E+03  0.18352292750E+03  0.14053645187E+04  0.14415464201E+04  0.46999998093E+01 0. -1.
       -5    1    3    3    0  502  0.26325633140E+03 -0.18352292750E+03 -0.48104137394E+03  0.57827973713E+03  0.46999998093E+01 0.  1.
</event>
<event>
 5   0  0.8254914E-05  0.1784593E+04  0.7818609E-02  0.8714536E-01
       -1   -1    0    0    0  501  0.00000000000E+00  0.00000000000E+00  0.70282544986E+03  0.70282544987E+03  0.50400001928E-02 0.  1.
        1   -1    0    0  501    0  0.00000000000E+00  0.00000000000E+00 -0.11328464218E+04  0.11328464219E+04  0.50400001928E-02 0. -1.
    10030    2    1    2    0    0  0.00000000000E+00  0.00000000000E+00 -0.43002097199E+03  0.18356718717E+04  0.17845932826E+04 0.  0.
        4    1    3    3  502    0  0.48360498532E+03 -0.19100884947E+03 -0.96090932864E+03  0.10925687682E+04  0.12699999809E+01 0. -1.
       -4    1    3    3    0  502 -0.48360498532E+03  0.19100884947E+03  0.53088835665E+03  0.74310310357E+03  0.12699999809E+01 0.  1.
</event>
<event>
 5   0  0.1628397E-04  0.1805385E+04  0.7818609E-02  0.8703441E-01
        2   -1    0    0  501    0  0.00000000000E+00  0.00000000000E+00  0.22286681910E+04  0.22286681910E+04  0.25500000920E-02 0.  1.
       -2   -1    0    0    0  501  0.00000000000E+00  0.00000000000E+00 -0.36562382063E+03  0.36562382064E+03  0.25500000920E-02 0. -1.
    10030    2    1    2    0    0  0.00000000000E+00  0.00000000000E+00  0.18630443704E+04  0.25942920117E+04  0.18053854757E+04 0.  0.
        3    1    3    3  502    0  0.48684484100E+03  0.17731656972E+03  0.19937124424E+04  0.20599389258E+04  0.10100000352E+00 0.  1.
       -3    1    3    3    0  502 -0.48684484100E+03 -0.17731656972E+03 -0.13066807197E+03  0.53435308583E+03  0.10100000352E+00 0. -1.
</event>
<event>
 5   0  0.8492114E-05  0.1792250E+04  0.7818609E-02  0.8710432E-01
       -1   -1    0    0    0  501  0.00000000000E+00  0.00000000000E+00  0.81043474926E+03  0.81043474928E+03  0.50400001928E-02 0. -1.
        1   -1    0    0  501    0  0.00000000000E+00  0.00000000000E+00 -0.99087548722E+03  0.99087548724E+03  0.50400001928E-02 0.  1.
    10030    2    1    2    0    0  0.00000000000E+00  0.00000000000E+00 -0.18044073796E+03  0.18013102365E+04  0.17922499012E+04 0.  0.
        2    1    3    3  502    0 -0.80969341990E+03  0.98884152340E+02 -0.46311947128E+03  0.93800914414E+03  0.25500000920E-02 0.  1.
       -2    1    3    3    0  502  0.80969341990E+03 -0.98884152340E+02  0.28267873332E+03  0.86330109237E+03  0.25500000920E-02 0. -1.
</event>
<event>
 5   0  0.1549012E-04  0.1769518E+04  0.7818609E-02  0.8722680E-01
       -2   -1    0    0    0  501  0.00000000000E+00  0.00000000000E+00  0.31587819723E+03  0.31587819724E+03  0.25500000920E-02 0.  1.
        2   -1    0    0  501    0  0.00000000000E+00  0.00000000000E+00 -0.24781655699E+04  0.24781655699E+04  0.25500000920E-02 0. -1.
    10030    2    1    2    0    0  0.00000000000E+00  0.00000000000E+00 -0.21622873727E+04  0.27940437672E+04  0.17695179826E+04 0.  0.
        4    1    3    3  502    0  0.73898767715E+02  0.47562612338E+02 -0.24712554066E+04  0.24728178516E+04  0.12699999809E+01 0. -1.
       -4    1    3    3    0  502 -0.73898767715E+02 -0.47562612338E+02  0.30896803387E+03  0.32122591554E+03  0.12699999809E+01 0.  1.
</event>
<event>
 5   0  0.8254914E-05  0.1798858E+04  0.7818609E-02  0.8706907E-01
        1   -1    0    0  501    0  0.00000000000E+00  0.00000000000E+00  0.13737235282E+04  0.13737235283E+04  0.50400001928E-02 0. -1.
       -1   -1    0    0    0  501  0.00000000000E+00  0.00000000000E+00 -0.58889017179E+03  0.58889017181E+03  0.50400001928E-02 0.  1.
    10030    2    1    2    0    0  0.00000000000E+00  0.00000000000E+00  0.78483335646E+03  0.19626137001E+04  0.17988577315E+04 0.  0.
        4    1    3    3  502    0  0.55940042233E+03  0.56798503385E+03  0.84678305041E+03  0.11630042900E+04  0.12699999809E+01 0. -1.
       -4    1    3    3    0  502 -0.55940042233E+03 -0.56798503385E+03 -0.61949693957E+02  0.79960941007E+03  0.12699999809E+01 0.  1.
</event>
<event>
 5   0  0.8206783E-05  0.1789208E+04  0.7818609E-02  0.8712060E-01
       -1   -1    0    0    0  501  0.00000000000E+00  0.00000000000E+00  0.43647339637E+03  0.43647339640E+03  0.50400001928E-02 0.  1.
        1   -1    0    0  501    0  0.00000000000E+00  0.00000000000E+00 -0.18335976281E+04  0.18335976281E+04  0.50400001928E-02 0. -1.
    10030    2    1    2    0    0  0.00000000000E+00  0.00000000000E+00 -0.13971242317E+04  0.22700710245E+04  0.17892082991E+04 0.  0.
        1    1    3    3  502    0  0.30952988660E+03 -0.83004383585E+03 -0.85669968832E+03  0.12323619096E+04  0.50400001928E-02 0. -1.
       -1    1    3    3    0  502 -0.30952988660E+03  0.83004383585E+03 -0.54042454341E+03  0.10377091150E+04  0.50400001928E-02 0.  1.
</event>
<event>
 5   0  0.8430513E-05  0.1803728E+04  0.7818609E-02  0.8704319E-01
        1   -1    0    0  501    0  0.00000000000E+00  0.00000000000E+00  0.11631012021E+04  0.11631012021E+04  0.50400001928E-02 0. -1.
       -1   -1    0    0    0  501  0.00000000000E+00  0.00000000000E+00 -0.69930204390E+03  0.69930204391E+03  0.50400001928E-02 0.  1.
    10030    2    1    2    0    0  0.00000000000E+00  0.00000000000E+00  0.46379915823E+03  0.18624032461E+04  0.18037284141E+04 0.  0.
        5    1    3    3  502    0 -0.65857172558E+03  0.56472600461E+03 -0.22498611238E+02  0.86784817538E+03  0.46999998093E+01 0.  1.
       -5    1    3    3    0  502  0.65857172558E+03 -0.56472600461E+03  0.48629776947E+03  0.99455507067E+03  0.46999998093E+01 0. -1.
</event>
<event>
 5   0  0.8132598E-05  0.1797928E+04  0.7818609E-02  0.8707402E-01
        1   -1    0    0  501    0  0.00000000000E+00  0.00000000000E+00  0.63407644809E+03  0.63407644811E+03  0.50400001928E-02 0. -1.
       -1   -1    0    0    0  501  0.00000000000E+00  0.00000000000E+00 -0.12745096253E+04  0.12745096253E+04  0.50400001928E-02 0.  1.
    10030    2    1    2    0    0  0.00000000000E+00  0.00000000000E+00 -0.64043317723E+03  0.19085860734E+04  0.17979282926E+04 0.  0.
        3    1    3    3  502    0 -0.58177531673E+02  0.41551918438E+03 -0.11641939643E+04  0.12374927937E+04  0.10100000352E+00 0.  1.
       -3    1    3    3    0  502  0.58177531673E+02 -0.41551918438E+03  0.52376078709E+03  0.67109327971E+03  0.10100000352E+00 0. -1.
</event>
<event>
 5   0  0.1608627E-04  0.1791675E+04  0.7818609E-02  0.8710739E-01
       -2   -1    0    0    0  501  0.00000000000E+00  0.00000000000E+00  0.42029822900E+03  0.42029822901E+03  0.25500000920E-02 0. -1.
        2   -1    0    0  501    0  0.00000000000E+00  0.00000000000E+00 -0.19094173474E+04  0.19094173474E+04  0.25500000920E-02 0.  1.
    10030    2    1    2    0    0  0.00000000000E+00  0.00000000000E+00 -0.14891191184E+04  0.23297155764E+04  0.17916748919E+04 0.  0.
        2    1    3    3  502    0  0.77724047640E+02  0.52591641124E+03 -0.16821254075E+04  0.17641357617E+04  0.25500000920E-02 0.  1.
       -2    1    3    3    0  502 -0.77724047640E+02 -0.52591641124E+03  0.19300628907E+03  0.56557981472E+03  0.25500000920E-02 0. -1.
</event>
<event>
 5   0  0.8254914E-05  0.1775279E+04  0.7818609E-02  0.8719557E-01
       -1   -1    0    0    0  501  0.00000000000E+00  0.00000000000E+00  0.36130632191E+03  0.36130632194E+03  0.50400001928E-02 0. -1.
        1   -1    0    0  501    0  0.00000000000E+00  0.00000000000E+00 -0.21807086692E+04  0.21807086692E+04  0.50400001928E-02 0.  1.
    10030    2    1    2    0    0  0.00000000000E+00  0.00000000000E+00 -0.18194023473E+04  0.25420149912E+04  0.17752789398E+04 0.  0.
        4    1    3    3  502    0 -0.67971543591E+03  0.11450009162E+03 -0.10888984163E+03  0.69784092407E+03  0.12699999809E+01 0. -1.
       -4    1    3    3    0  502  0.67971543591E+03 -0.11450009162E+03 -0.17105125057E+04  0.18441740671E+04  0.12699999809E+01 0.  1.
</event>
<event>
 5   0  0.1628397E-04  0.1781547E+04  0.7818609E-02  0.8716174E-01
        2   -1    0    0  501    0  0.00000000000E+00  0.00000000000E+00  0.16108746909E+04  0.16108746909E+04  0.25500000920E-02 0.  1.
       -2   -1    0    0    0  501  0.00000000000E+00  0.00000000000E+00 -0.49257559977E+03  0.49257559978E+03  0.25500000920E-02 0. -1.
    10030    2    1    2    0    0  0.00000000000E+00  0.00000000000E+00  0.11182990911E+04  0.21034502907E+04  0.17815471557E+04 0.  0.
        3    1    3    3  502    0  0.71029602764E+03 -0.30314474913E+03  0.10832741878E+04  0.13303759476E+04  0.10100000352E+00 0. -1.
       -3    1    3    3    0  502 -0.71029602764E+03  0.30314474913E+03  0.35024903279E+02  0.77307434303E+03  0.10100000352E+00 0.  1.
</event>
<event>
 5   0  0.1549012E-04  0.1799847E+04  0.7818609E-02  0.8706381E-01
        2   -1    0    0  501    0  0.00000000000E+00  0.00000000000E+00  0.13297766538E+04  0.13297766538E+04  0.25500000920E-02 0.  1.
       -2   -1    0    0    0  501  0.00000000000E+00  0.00000000000E+00 -0.60902146794E+03  0.60902146794E+03  0.25500000920E-02 0. -1.
    10030    2    1    2    0    0  0.00000000000E+00  0.00000000000E+00  0.72075518585E+03  0.19387981217E+04  0.17998472488E+04 0.  0.
        4    1    3    3  502    0 -0.59150728636E+03  0.31276506290E+03  0.10086328103E+04  0.12103902731E+04  0.12699999809E+01 0.  1.
       -4    1    3    3    0  502  0.59150728636E+03 -0.31276506290E+03 -0.28787762442E+03  0.72840784862E+03  0.12699999809E+01 0. -1.
</event>
<event>
 5   0  0.8206783E-05  0.1800082E+04  0.7818609E-02  0.8706256E-01
       -1   -1    0    0    0  501  0.00000000000E+00  0.00000000000E+00  0.71975016879E+03  0.71975016881E+03  0.50400001928E-02 0. -1.
        1   -1    0    0  501    0  0.00000000000E+00  0.00000000000E+00 -0.11254929784E+04  0.11254929785E+04  0.50400001928E-02 0.  1.
    10030    2    1    2    0    0  0.00000000000E+00  0.00000000000E+00 -0.40574280965E+03  0.18452431473E+04  0.18000819551E+04 0.  0.
        1    1    3    3  502    0  0.54350122778E+03 -0.25027331027E+03 -0.89208115331E+03  0.10741690270E+04  0.50400001928E-02 0.  1.
       -1    1    3    3    0  502 -0.54350122778E+03  0.25027331027E+03  0.48633834365E+03  0.77107412028E+03  0.50400001928E-02 0. -1.
</event>
<event>
 5   0  0.1603564E-04  0.1783137E+04  0.7818609E-02  0.8715319E-01
       -2   -1    0    0    0  501  0.00000000000E+00  0.00000000000E+00  0.73306302148E+03  0.73306302149E+03  0.25500000920E-02 0. -1.
        2   -1    0    0  501    0  0.00000000000E+00  0.00000000000E+00 -0.10843467576E+04  0.10843467576E+04  0.25500000920E-02 0.  1.
    10030    2    1    2    0    0  0.00000000000E+00  0.00000000000E+00 -0.35128373608E+03  0.18174097791E+04  0.17831371349E+04 0.  0.
        5    1    3    3  502    0 -0.17749341017E+03 -0.71774465291E+03 -0.68342554465E+03  0.10068534464E+04  0.46999998093E+01 0.  1.
       -5    1    3    3    0  502  0.17749341017E+03  0.71774465291E+03  0.33214180856E+03  0.81055633267E+03  0.46999998093E+01 0. -1.
</event>
<event>
 5   0  0.1573981E-04  0.1800686E+04  0.7818609E-02  0.8705935E-01
       -2   -1    0    0    0  501  0.00000000000E+00  0.00000000000E+00  0.12118121517E+04  0.12118121517E+04  0.25500000920E-02 0. -1.
        2   -1    0    0  501    0  0.00000000000E+00  0.00000000000E+00 -0.66892997261E+03  0.66892997261E+03  0.25500000920E-02 0.  1.
    10030    2    1    2    0    0  0.00000000000E+00  0.00000000000E+00  0.54288217909E+03  0.18807421243E+04  0.18006859465E+04 0.  0.
        1    1    3    3  502    0  0.86391328144E+03  0.81026716280E+02  0.20540490731E+02  0.86794780856E+03  0.50400001928E-02 0.  1.
       -1    1    3    3    0  502 -0.86391328144E+03 -0.81026716280E+02  0.52234168835E+03  0.10127943157E+04  0.50400001928E-02 0. -1.
</event>
<event>
 5   0  0.1628397E-04  0.1786046E+04  0.7818609E-02  0.8713755E-01
       -2   -1    0    0    0  501  0.00000000000E+00  0.00000000000E+00  0.70912145498E+03  0.70912145499E+03  0.25500000920E-02 0.  1.
        2   -1    0    0  501    0  0.00000000000E+00  0.00000000000E+00 -0.11246171821E+04  0.11246171821E+04  0.25500000920E-02 0. -1.
    10030    2    1    2    0    0  0.00000000000E+00  0.00000000000E+00 -0.41549572709E+03  0.18337386371E+04  0.17860461052E+04 0.  0.
        3    1    3    3  502    0  0.67389524676E+03  0.49469141143E+03  0.11470183938E+03  0.84380739408E+03  0.10100000352E+00 0.  1.
       -3    1    3    3    0  502 -0.67389524676E+03 -0.49469141143E+03 -0.53019756648E+03  0.98993124299E+03  0.10100000352E+00 0. -1.
</event>
<event>
 5   0  0.8206783E-05  0.1818571E+04  0.7818609E-02  0.8696486E-01
       -1   -1    0    0    0  501  0.00000000000E+00  0.00000000000E+00  0.84533288083E+03  0.84533288085E+03  0.50400001928E-02 0.  1.
        1   -1    0    0  501    0  0.00000000000E+00  0.00000000000E+00 -0.97807596797E+03  0.97807596798E+03  0.50400001928E-02 0. -1.
    10030    2    1    2    0    0  0.00000000000E+00  0.00000000000E+00 -0.13274308714E+03  0.18234088488E+04  0.18185706208E+04 0.  0.
        1    1    3    3  502    0 -0.61076530727E+03  0.40816505773E+03 -0.60367669234E+03  0.95081992187E+03  0.50400001928E-02 0. -1.
       -1    1    3    3    0  502  0.61076530727E+03 -0.40816505773E+03  0.47093360520E+03  0.87258892696E+03  0.50400001928E-02 0.  1.
</event>
<event>
 5   0  0.8492114E-05  0.1811453E+04  0.7818609E-02  0.8700233E-01
       -1   -1    0    0    0  501  0.00000000000E+00  0.00000000000E+00  0.93358915469E+03  0.93358915470E+03  0.50400001928E-02 0.  1.
        1   -1    0    0  501    0  0.00000000000E+00  0.00000000000E+00 -0.87869492500E+03  0.87869492502E+03  0.50400001928E-02 0. -1.
    10030    2    1    2    0    0  0.00000000000E+00  0.00000000000E+00  0.54894229681E+02  0.18122840797E+04  0.18114525136E+04 0.  0.
        2    1    3    3  502    0  0.65115195298E+03  0.59022848415E+03 -0.19167745401E+03  0.89950473915E+03  0.25500000920E-02 0. -1.
       -2    1    3    3    0  502 -0.65115195298E+03 -0.59022848415E+03  0.24657168369E+03  0.91277934057E+03  0.25500000920E-02 0.  1.
</event>
<event>
 5   0  0.1573981E-04  0.1786355E+04  0.7818609E-02  0.8713589E-01
       -2   -1    0    0    0  501  0.00000000000E+00  0.00000000000E+00  0.46044330817E+03  0.46044330818E+03  0.25500000920E-02 0. -1.
        2   -1    0    0  501    0  0.00000000000E+00  0.00000000000E+00 -0.17326048448E+04  0.17326048448E+04  0.25500000920E-02 0.  1.
    10030    2    1    2    0    0  0.00000000000E+00  0.00000000000E+00 -0.12721615366E+04  0.21930481530E+04  0.17863552911E+04 0.  0.
        1    1    3    3  502    0  0.17675314831E+03  0.93475889013E+01 -0.17108584264E+04  0.17199900023E+04  0.50400001928E-02 0.  1.
       -1    1    3    3    0  502 -0.17675314831E+03 -0.93475889013E+01  0.43869688973E+03  0.47305815070E+03  0.50400001928E-02 0. -1.
</event>
<event>
 5   0  0.1628397E-04  0.1797882E+04  0.7818609E-02  0.8707426E-01
        2   -1    0    0  501    0  0.00000000000E+00  0.00000000000E+00  0.89028150296E+03  0.89028150296E+03  0.25500000920E-02 0. -1.
       -2   -1    0    0    0  501  0.00000000000E+00  0.00000000000E+00 -0.90768516669E+03  0.90768516669E+03  0.25500000920E-02 0.  1.
    10030    2    1    2    0    0  0.00000000000E+00  0.00000000000E+00 -0.17403663732E+02  0.17979666696E+04  0.17978824371E+04 0.  0.
        3    1    3    3  502    0  0.82610232888E+03  0.31387131561E+03  0.15603306528E+03  0.89738876091E+03  0.10100000352E+00 0. -1.
       -3    1    3    3    0  502 -0.82610232888E+03 -0.31387131561E+03 -0.17343672901E+03  0.90057790874E+03  0.10100000352E+00 0.  1.
</event>
<event>
 5   0  0.8430513E-05  0.1800880E+04  0.7818609E-02  0.8705831E-01
        1   -1    0    0  501    0  0.00000000000E+00  0.00000000000E+00  0.71796257303E+03  0.71796257305E+03  0.50400001928E-02 0.  1.
       -1   -1    0    0    0  501  0.00000000000E+00  0.00000000000E+00 -0.11292963716E+04  0.11292963716E+04  0.50400001928E-02 0. -1.
    10030    2    1    2    0    0  0.00000000000E+00  0.00000000000E+00 -0.41133379857E+03  0.18472589446E+04  0.18008803721E+04 0.  0.
        5    1    3    3  502    0 -0.10897170915E+03 -0.84814202916E+03  0.83644087235E+02  0.85920786679E+03  0.46999998093E+01 0.  1.
       -5    1    3    3    0  502  0.10897170915E+03  0.84814202916E+03 -0.49497788580E+03  0.98805107786E+03  0.46999998093E+01 0. -1.
</event>
<event>
 5   0  0.1628397E-04  0.1803145E+04  0.7818609E-02  0.8704629E-01
       -2   -1    0    0    0  501  0.00000000000E+00  0.00000000000E+00  0.80450514837E+03  0.80450514837E+03  0.25500000920E-02 0. -1.
        2   -1    0    0  501    0  0.00000000000E+00  0.00000000000E+00 -0.10103514800E+04  0.10103514800E+04  0.25500000920E-02 0.  1.
    10030    2    1    2    0    0  0.00000000000E+00  0.00000000000E+00 -0.20584633158E+03  0.18148566283E+04  0.18031449939E+04 0.  0.
        3    1    3    3  502    0 -0.12173435325E+03  0.83376010305E+03  0.21987441868E+03  0.87081567073E+03  0.10100000352E+00 0. -1.
       -3    1    3    3    0  502  0.12173435325E+03 -0.83376010305E+03 -0.42572075026E+03  0.94404095759E+03  0.10100000352E+00 0.  1.
</event>
<event>
 5   0  0.8254914E-05  0.1786695E+04  0.7818609E-02  0.8713407E-01
       -1   -1    0    0    0  501  0.00000000000E+00  0.00000000000E+00  0.49302594587E+03  0.49302594589E+03  0.50400001928E-02 0. -1.
        1   -1    0    0  501    0  0.00000000000E+00  0.00000000000E+00 -0.16187170996E+04  0.16187170996E+04  0.50400001928E-02 0.  1.
    10030    2    1    2    0    0  0.00000000000E+00  0.00000000000E+00 -0.11256911537E+04  0.21117430455E+04  0.17866947463E+04 0.  0.
        4    1    3    3  502    0 -0.12071663811E+03 -0.29656920805E+03 -0.15485629881E+04  0.15813205693E+04  0.12699999809E+01 0.  1.
       -4    1    3    3    0  502  0.12071663811E+03  0.29656920805E+03  0.42287183446E+03  0.53042247611E+03  0.12699999809E+01 0. -1.
</event>
<event>
 5   0  0.8254914E-05  0.1799451E+04  0.7818609E-02  0.8706591E-01
       -1   -1    0    0    0  501  0.00000000000E+00  0.00000000000E+00  0.33245522537E+03  0.33245522541E+03  0.50400001928E-02 0.  1.
        1   -1    0    0  501    0  0.00000000000E+00  0.00000000000E+00 -0.24349335711E+04  0.24349335711E+04  0.50400001928E-02 0. -1.
    10030    2    1    2    0    0  0.00000000000E+00  0.00000000000E+00 -0.21024783458E+04  0.27673887965E+04  0.17994514600E+04 0.  0.
        4    1    3    3  502    0 -0.12196692869E+01  0.57125767303E+03 -0.21202426207E+04  0.21958522719E+04  0.12699999809E+01 0. -1.
       -4    1    3    3    0  502  0.12196692869E+01 -0.57125767303E+03  0.17764274959E+02  0.57153652460E+03  0.12699999809E+01 0.  1.
</event>
<event>
 5   0  0.1628397E-04  0.1694345E+04  0.7818609E-02  0.8764596E-01
       -2   -1    0    0    0  501  0.00000000000E+00  0.00000000000E+00  0.59000288266E+03  0.59000288267E+03  0.25500000920E-02 0.  1.
        2   -1    0    0  501    0  0.00000000000E+00  0.00000000000E+00 -0.12164369906E+04  0.12164369907E+04  0.25500000920E-02 0. -1.
    10030    2    1    2    0    0  0.00000000000E+00  0.00000000000E+00 -0.62643410799E+03  0.18064398733E+04  0.16943451019E+04 0.  0.
        3    1    3    3  502    0 -0.11583198552E+03 -0.25321124767E+03  0.53982164524E+03  0.60740464575E+03  0.10100000352E+00 0.  1.
       -3    1    3    3    0  502  0.11583198552E+03  0.25321124767E+03 -0.11662557532E+04  0.11990352276E+04  0.10100000352E+00 0. -1.
</event>
<event>
 5   0  0.8430513E-05  0.1776959E+04  0.7818609E-02  0.8718649E-01
       -1   -1    0    0    0  501  0.00000000000E+00  0.00000000000E+00  0.47251680995E+03  0.47251680998E+03  0.50400001928E-02 0. -1.
        1   -1    0    0  501    0  0.00000000000E+00  0.00000000000E+00 -0.16706188601E+04  0.16706188601E+04  0.50400001928E-02 0.  1.
    10030    2    1    2    0    0  0.00000000000E+00  0.00000000000E+00 -0.11981020502E+04  0.21431356701E+04  0.17769586314E+04 0.  0.
        5    1    3    3  502    0 -0.33128742369E+03 -0.35245002637E+03 -0.14978771487E+04  0.15740490529E+04  0.46999998093E+01 0.  1.
       -5    1    3    3    0  502  0.33128742369E+03  0.35245002637E+03  0.29977509857E+03  0.56908661722E+03  0.46999998093E+01 0. -1.
</event>
<event>
 5   0  0.8206783E-05  0.1789874E+04  0.7818609E-02  0.8711703E-01
        1   -1    0    0  501    0  0.00000000000E+00  0.00000000000E+00  0.14367331913E+04  0.14367331913E+04  0.50400001928E-02 0. -1.
       -1   -1    0    0    0  501  0.00000000000E+00  0.00000000000E+00 -0.55745398549E+03  0.55745398551E+03  0.50400001928E-02 0.  1.
    10030    2    1    2    0    0  0.00000000000E+00  0.00000000000E+00  0.87927920580E+03  0.19941871768E+04  0.17898744577E+04 0.  0.
        1    1    3    3  502    0 -0.42013818296E+03 -0.26439102950E+03  0.12692835493E+04  0.13629011108E+04  0.50400001928E-02 0. -1.
       -1    1    3    3    0  502  0.42013818296E+03  0.26439102950E+03 -0.39000434345E+03  0.63128606606E+03  0.50400001928E-02 0.  1.
</event>
<event>
 5   0  0.8254914E-05  0.1826155E+04  0.7818609E-02  0.8692513E-01
       -1   -1    0    0    0  501  0.00000000000E+00  0.00000000000E+00  0.85987227602E+03  0.85987227604E+03  0.50400001928E-02 0. -1.
        1   -1    0    0  501    0  0.00000000000E+00  0.00000000000E+00 -0.96957443640E+03  0.96957443641E+03  0.50400001928E-02 0.  1.
    10030    2    1    2    0    0  0.00000000000E+00  0.00000000000E+00 -0.10970216037E+03  0.18294467124E+04  0.18261546237E+04 0.  0.
        4    1    3    3  502    0  0.11397522446E+03  0.63513260569E+03 -0.70202246509E+03  0.95353077192E+03  0.12699999809E+01 0.  1.
       -4    1    3    3    0  502 -0.11397522446E+03 -0.63513260569E+03  0.59232030472E+03  0.87591594053E+03  0.12699999809E+01 0. -1.
</event>
<event>
 5   0  0.1608627E-04  0.1803085E+04  0.7818609E-02  0.8704660E-01
        2   -1    0    0  501    0  0.00000000000E+00  0.00000000000E+00  0.10728059602E+04  0.10728059602E+04  0.25500000920E-02 0. -1.
       -2   -1    0    0    0  501  0.00000000000E+00  0.00000000000E+00 -0.75761995563E+03  0.75761995563E+03  0.25500000920E-02 0.  1.
    10030    2    1    2    0    0  0.00000000000E+00  0.00000000000E+00  0.31518600461E+03  0.18304259159E+04  0.18030853601E+04 0.  0.
        2    1    3    3  502    0 -0.14670517436E+03 -0.88796470143E+03  0.21107471383E+03  0.92442211894E+03  0.25500000920E-02 0. -1.
       -2    1    3    3    0  502  0.14670517436E+03  0.88796470143E+03  0.10411129077E+03  0.90600379692E+03  0.25500000920E-02 0.  1.
</event>
<event>
 5   0  0.1608627E-04  0.1795023E+04  0.7818609E-02  0.8708951E-01
       -2   -1    0    0    0  501  0.00000000000E+00  0.00000000000E+00  0.66033113313E+03  0.66033113313E+03  0.25500000920E-02 0.  1.
        2   -1    0    0  501    0  0.00000000000E+00  0.00000000000E+00 -0.12198828903E+04  0.12198828903E+04  0.25500000920E-02 0. -1.
    10030    2    1    2    0    0  0.00000000000E+00  0.00000000000E+00 -0.55955175717E+03  0.18802140234E+04  0.17950227310E+04 0.  0.
        2    1    3    3  502    0 -0.52020959632E+03  0.24505443368E+03 -0.10015789655E+04  0.11549156349E+04  0.25500000920E-02 0. -1.
       -2    1    3    3    0  502  0.52020959632E+03 -0.24505443368E+03  0.44202720830E+03  0.72529838857E+03  0.25500000920E-02 0.  1.
</event>
<event>
 5   0  0.1608627E-04  0.1768324E+04  0.7818609E-02  0.8723328E-01
       -2   -1    0    0    0  501  0.00000000000E+00  0.00000000000E+00  0.48153514863E+03  0.48153514864E+03  0.25500000920E-02 0. -1.
        2   -1    0    0  501    0  0.00000000000E+00  0.00000000000E+00 -0.16234376405E+04  0.16234376405E+04  0.25500000920E-02 0.  1.
    10030    2    1    2    0    0  0.00000000000E+00  0.00000000000E+00 -0.11419024919E+04  0.21049727891E+04  0.17683238227E+04 0.  0.
        2    1    3    3  502    0 -0.16312116347E+03 -0.35797920100E+02 -0.16044924965E+04  0.16131603071E+04  0.25500000920E-02 0.  1.
       -2    1    3    3    0  502  0.16312116347E+03  0.35797920100E+02  0.46259000465E+03  0.49181248202E+03  0.25500000920E-02 0. -1.
</event>
<event>
 5   0  0.8492114E-05  0.1836711E+04  0.7818609E-02  0.8687017E-01
       -1   -1    0    0    0  501  0.00000000000E+00  0.00000000000E+00  0.93319667024E+03  0.93319667026E+03  0.50400001928E-02 0. -1.
        1   -1    0    0  501    0  0.00000000000E+00  0.00000000000E+00 -0.90375048468E+03  0.90375048469E+03  0.50400001928E-02 0.  1.
    10030    2    1    2    0    0  0.00000000000E+00  0.00000000000E+00  0.29446185565E+02  0.18369471549E+04  0.18367111292E+04 0.  0.
        2    1    3    3  502    0  0.76536281664E+03 -0.10250103612E+03 -0.48242250768E+03  0.91050435443E+03  0.25500000920E-02 0.  1.
       -2    1    3    3    0  502 -0.76536281664E+03  0.10250103612E+03  0.51186869325E+03  0.92644280052E+03  0.25500000920E-02 0. -1.
</event>
<event>
 5   0  0.8254914E-05  0.1798147E+04  0.7818609E-02  0.8707285E-01
       -1   -1    0    0    0  501  0.00000000000E+00  0.00000000000E+00  0.14455554222E+04  0.14455554222E+04  0.50400001928E-02 0. -1.
        1   -1    0    0  501    0  0.00000000000E+00  0.00000000000E+00 -0.55918537236E+03  0.55918537238E+03  0.50400001928E-02 0.  1.
    10030    2    1    2    0    0  0.00000000000E+00  0.00000000000E+00  0.88637004980E+03  0.20047407946E+04  0.17981473210E+04 0.  0.
        4    1    3    3  502    0  0.19261863752E+03 -0.48342777040E+03 -0.37421245724E+03  0.64096873931E+03  0.12699999809E+01 0.  1.
       -4    1    3    3    0  502 -0.19261863752E+03  0.48342777040E+03  0.12605825070E+04  0.13637720552E+04  0.12699999809E+01 0. -1.
</event>
<event>
 5   0  0.8132598E-05  0.1799574E+04  0.7818609E-02  0.8706526E-01
       -1   -1    0    0    0  501  0.00000000000E+00  0.00000000000E+00  0.12392326210E+04  0.12392326210E+04  0.50400001928E-02 0.  1.
        1   -1    0    0  501    0  0.00000000000E+00  0.00000000000E+00 -0.65332076410E+03  0.65332076412E+03  0.50400001928E-02 0. -1.
    10030    2    1    2    0    0  0.00000000000E+00  0.00000000000E+00  0.58591185690E+03  0.18925533851E+04  0.17995737305E+04 0.  0.
        3    1    3    3  502    0 -0.80112882800E+03 -0.23156661726E+03  0.64832917097E+03  0.10562959914E+04  0.10100000352E+00 0.  1.
       -3    1    3    3    0  502  0.80112882800E+03  0.23156661726E+03 -0.62417314068E+02  0.83625739374E+03  0.10100000352E+00 0. -1.
</event>
<event>
 5   0  0.1603564E-04  0.1799467E+04  0.7818609E-02  0.8706583E-01
        2   -1    0    0  501    0  0.00000000000E+00  0.00000000000E+00  0.18885494576E+04  0.18885494576E+04  0.25500000920E-02 0. -1.
       -2   -1    0    0    0  501  0.00000000000E+00  0.00000000000E+00 -0.42864686413E+03  0.42864686413E+03  0.25500000920E-02 0.  1.
    10030    2    1    2    0    0  0.00000000000E+00  0.00000000000E+00  0.14599025935E+04  0.23171963217E+04  0.17994674799E+04 0.  0.
        5    1    3    3  502    0  0.10356519170E+03 -0.39296213691E+02  0.18797195417E+04  0.18829863480E+04  0.46999998093E+01 0. -1.
       -5    1    3    3    0  502 -0.10356519170E+03  0.39296213691E+02 -0.41981694818E+03  0.43420997377E+03  0.46999998093E+01 0.  1.
</event>
<event>
 5   0  0.8254914E-05  0.1803697E+04  0.7818609E-02  0.8704336E-01
       -1   -1    0    0    0  501  0.00000000000E+00  0.00000000000E+00  0.13693292815E+04  0.13693292815E+04  0.50400001928E-02 0.  1.
        1   -1    0    0  501    0  0.00000000000E+00  0.00000000000E+00 -0.59396276151E+03  0.59396276153E+03  0.50400001928E-02 0. -1.
    10030    2    1    2    0    0  0.00000000000E+00  0.00000000000E+00  0.77536651996E+03  0.19632920430E+04  0.18036968720E+04 0.  0.
        4    1    3    3  502    0 -0.24582195629E+03 -0.71646059578E+03 -0.14510047383E+03  0.77123276636E+03  0.12699999809E+01 0. -1.
       -4    1    3    3    0  502  0.24582195629E+03  0.71646059578E+03  0.92046699379E+03  0.11920592767E+04  0.12699999809E+01 0.  1.
</event>
<event>
 5   0  0.1603564E-04  0.1818190E+04  0.7818609E-02  0.8696686E-01
        2   -1    0    0  501    0  0.00000000000E+00  0.00000000000E+00  0.18271579563E+04  0.18271579563E+04  0.25500000920E-02 0.  1.
       -2   -1    0    0    0  501  0.00000000000E+00  0.00000000000E+00 -0.45231653783E+03  0.45231653784E+03  0.25500000920E-02 0. -1.
    10030    2    1    2    0    0  0.00000000000E+00  0.00000000000E+00  0.13748414184E+04  0.22794744941E+04  0.18181900460E+04 0.  0.
        5    1    3    3  502    0  0.61937601508E+03  0.65229388353E+03  0.85240428864E+03  0.12392453832E+04  0.46999998093E+01 0. -1.
       -5    1    3    3    0  502 -0.61937601508E+03 -0.65229388353E+03  0.52243712978E+03  0.10402291109E+04  0.46999998093E+01 0.  1.
</event>
<event>
 5   0  0.8254914E-05  0.1795825E+04  0.7818609E-02  0.8708523E-01
        1   -1    0    0  501    0  0.00000000000E+00  0.00000000000E+00  0.75482113467E+03  0.75482113469E+03  0.50400001928E-02 0.  1.
       -1   -1    0    0    0  501  0.00000000000E+00  0.00000000000E+00 -0.10681294956E+04  0.10681294956E+04  0.50400001928E-02 0. -1.
    10030    2    1    2    0    0  0.00000000000E+00  0.00000000000E+00 -0.31330836088E+03  0.18229506303E+04  0.17958248443E+04 0.  0.
        4    1    3    3  502    0  0.11349919971E+03 -0.74303516013E+03  0.34194918107E+03  0.82578094726E+03  0.12699999809E+01 0.  1.
       -4    1    3    3    0  502 -0.11349919971E+03  0.74303516013E+03 -0.65525754194E+03  0.99716968300E+03  0.12699999809E+01 0. -1.
</event>
<event>
 5   0  0.5820500E-05  0.1807991E+04  0.7818609E-02  0.8702062E-01
       -3   -1    0    0    0  501  0.00000000000E+00  0.00000000000E+00  0.13259226663E+04  0.13259226701E+04  0.10100000352E+00 0. -1.
        3   -1    0    0  501    0  0.00000000000E+00  0.00000000000E+00 -0.61633112276E+03  0.61633113103E+03  0.10100000352E+00 0.  1.
    10030    2    1    2    0    0  0.00000000000E+00  0.00000000000E+00  0.70959154353E+03  0.19422538012E+04  0.18079905059E+04 0.  0.
        4    1    3    3  502    0  0.77548166712E+03 -0.96268689783E+02 -0.13345124568E+03  0.79274858848E+03  0.12699999809E+01 0.  1.
       -4    1    3    3    0  502 -0.77548166712E+03  0.96268689783E+02  0.84304278921E+03  0.11495052127E+04  0.12699999809E+01 0. -1.
</event>
<event>
 5   0  0.8132598E-05  0.1816351E+04  0.7818609E-02  0.8697652E-01
       -1   -1    0    0    0  501  0.00000000000E+00  0.00000000000E+00  0.44458015275E+03  0.44458015278E+03  0.50400001928E-02 0.  1.
        1   -1    0    0  501    0  0.00000000000E+00  0.00000000000E+00 -0.18551945410E+04  0.18551945411E+04  0.50400001928E-02 0. -1.
    10030    2    1    2    0    0  0.00000000000E+00  0.00000000000E+00 -0.14106143883E+04  0.22997746938E+04  0.18163509270E+04 0.  0.
        3    1    3    3  502    0 -0.31974162145E+03 -0.69675441030E+03 -0.13218086899E+04  0.15280312941E+04  0.10100000352E+00 0. -1.
       -3    1    3    3    0  502  0.31974162145E+03  0.69675441030E+03 -0.88805698354E+02  0.77174339972E+03  0.10100000352E+00 0.  1.
</event>
<event>
 5   0  0.8132598E-05  0.1798082E+04  0.7818609E-02  0.8707320E-01
       -1   -1    0    0    0  501  0.00000000000E+00  0.00000000000E+00  0.71740043514E+03  0.71740043515E+03  0.50400001928E-02 0.  1.
        1   -1    0    0  501    0  0.00000000000E+00  0.00000000000E+00 -0.11266718856E+04  0.11266718856E+04  0.50400001928E-02 0. -1.
    10030    2    1    2    0    0  0.00000000000E+00  0.00000000000E+00 -0.40927145044E+03  0.18440723207E+04  0.17980822017E+04 0.  0.
        3    1    3    3  502    0 -0.14847227431E+03  0.87249952273E+03 -0.42557328417E+02  0.88606465329E+03  0.10100000352E+00 0.  1.
       -3    1    3    3    0  502  0.14847227431E+03 -0.87249952273E+03 -0.36671412202E+03  0.95800766745E+03  0.10100000352E+00 0. -1.
</event>
<event>
 5   0  0.1549012E-04  0.1750256E+04  0.7818609E-02  0.8733209E-01
        2   -1    0    0  501    0  0.00000000000E+00  0.00000000000E+00  0.95834390537E+03  0.95834390538E+03  0.25500000920E-02 0. -1.
       -2   -1    0    0    0  501  0.00000000000E+00  0.00000000000E+00 -0.79913831613E+03  0.79913831613E+03  0.25500000920E-02 0.  1.
    10030    2    1    2    0    0  0.00000000000E+00  0.00000000000E+00  0.15920558924E+03  0.17574822215E+04  0.17502563639E+04 0.  0.
        4    1    3    3  502    0 -0.67100802392E+03 -0.58675111714E+02 -0.48141050934E+03  0.82792042390E+03  0.12699999809E+01 0.  1.
       -4    1    3    3    0  502  0.67100802392E+03  0.58675111714E+02  0.64061609859E+03  0.92956179761E+03  0.12699999809E+01 0. -1.
</event>
<event>
 5   0  0.1608627E-04  0.1731136E+04  0.7818609E-02  0.8743803E-01
       -2   -1    0    0    0  501  0.00000000000E+00  0.00000000000E+00  0.78596108530E+03  0.78596108530E+03  0.25500000920E-02 0. -1.
        2   -1    0    0  501    0  0.00000000000E+00  0.00000000000E+00 -0.95323779586E+03  0.95323779586E+03  0.25500000920E-02 0.  1.
    10030    2    1    2    0    0  0.00000000000E+00  0.00000000000E+00 -0.16727671056E+03  0.17391988812E+04  0.17311358267E+04 0.  0.
        2    1    3    3  502    0  0.51360933815E+03  0.68431052598E+03  0.47861947989E+02  0.85695169891E+03  0.25500000920E-02 0.  1.
       -2    1    3    3    0  502 -0.51360933815E+03 -0.68431052598E+03 -0.21513865855E+03  0.88224718226E+03  0.25500000920E-02 0. -1.
</event>
<event>
 5   0  0.8132598E-05  0.1813594E+04  0.7818609E-02  0.8699103E-01
       -1   -1    0    0    0  501  0.00000000000E+00  0.00000000000E+00  0.15474349345E+04  0.15474349345E+04  0.50400001928E-02 0. -1.
        1   -1    0    0  501    0  0.00000000000E+00  0.00000000000E+00 -0.53138331343E+03  0.53138331346E+03  0.50400001928E-02 0.  1.
    10030    2    1    2    0    0  0.00000000000E+00  0.00000000000E+00  0.10160516211E+04  0.20788182480E+04  0.18135943349E+04 0.  0.
        3    1    3    3  502    0  0.37888952222E+03  0.27518294437E+03 -0.38206510158E+03  0.60436468706E+03  0.10100000352E+00 0.  1.
       -3    1    3    3    0  502 -0.37888952222E+03 -0.27518294437E+03  0.13981167227E+04  0.14744535609E+04  0.10100000352E+00 0. -1.
</event>
<event>
 5   0  0.1628397E-04  0.1790277E+04  0.7818609E-02  0.8711487E-01
       -2   -1    0    0    0  501  0.00000000000E+00  0.00000000000E+00  0.61750268991E+03  0.61750268991E+03  0.25500000920E-02 0.  1.
        2   -1    0    0  501    0  0.00000000000E+00  0.00000000000E+00 -0.12976019974E+04  0.12976019974E+04  0.25500000920E-02 0. -1.
    10030    2    1    2    0    0  0.00000000000E+00  0.00000000000E+00 -0.68009930751E+03  0.19151046873E+04  0.17902767650E+04 0.  0.
        3    1    3    3  502    0  0.13796941321E+03  0.43095094817E+03 -0.11662479192E+04  0.12509550344E+04  0.10100000352E+00 0. -1.
       -3    1    3    3    0  502 -0.13796941321E+03 -0.43095094817E+03  0.48614861170E+03  0.66414965299E+03  0.10100000352E+00 0.  1.
</event>
<event>
 5   0  0.8206783E-05  0.1802173E+04  0.7818609E-02  0.8705144E-01
       -1   -1    0    0    0  501  0.00000000000E+00  0.00000000000E+00  0.72693078074E+03  0.72693078075E+03  0.50400001928E-02 0.  1.
        1   -1    0    0  501    0  0.00000000000E+00  0.00000000000E+00 -0.11169664735E+04  0.11169664735E+04  0.50400001928E-02 0. -1.
    10030    2    1    2    0    0  0.00000000000E+00  0.00000000000E+00 -0.39003569274E+03  0.18438972542E+04  0.18021734774E+04 0.  0.
        1    1    3    3  502    0  0.75548308687E+03 -0.38387377899E+03  0.11841341455E+03  0.85564917432E+03  0.50400001928E-02 0.  1.
       -1    1    3    3    0  502 -0.75548308687E+03  0.38387377899E+03 -0.50844910730E+03  0.98824807993E+03  0.50400001928E-02 0. -1.
</event>
<event>
 5   0  0.8254914E-05  0.1794570E+04  0.7818609E-02  0.8709192E-01
        1   -1    0    0  501    0  0.00000000000E+00  0.00000000000E+00  0.10374728335E+04  0.10374728335E+04  0.50400001928E-02 0.  1.
       -1   -1    0    0    0  501  0.00000000000E+00  0.00000000000E+00 -0.77603991814E+03  0.77603991816E+03  0.50400001928E-02 0. -1.
    10030    2    1    2    0    0  0.00000000000E+00  0.00000000000E+00  0.26143291539E+03  0.18135127517E+04  0.17945699572E+04 0.  0.
        4    1    3    3  502    0 -0.13174057882E+03  0.42711853885E+03  0.91696048196E+03  0.10200999778E+04  0.12699999809E+01 0.  1.
       -4    1    3    3    0  502  0.13174057882E+03 -0.42711853885E+03 -0.65552756657E+03  0.79341277389E+03  0.12699999809E+01 0. -1.
</event>
<event>
 5   0  0.8430513E-05  0.1786258E+04  0.7818609E-02  0.8713641E-01
        1   -1    0    0  501    0  0.00000000000E+00  0.00000000000E+00  0.27891965842E+04  0.27891965842E+04  0.50400001928E-02 0. -1.
       -1   -1    0    0    0  501  0.00000000000E+00  0.00000000000E+00 -0.28598903079E+03  0.28598903084E+03  0.50400001928E-02 0.  1.
    10030    2    1    2    0    0  0.00000000000E+00  0.00000000000E+00  0.25032075534E+04  0.30751856151E+04  0.17862582432E+04 0.  0.
        5    1    3    3  502    0 -0.53862014037E+03  0.55599531340E+03  0.20184608748E+04  0.21618160970E+04  0.46999998093E+01 0. -1.
       -5    1    3    3    0  502  0.53862014037E+03 -0.55599531340E+03  0.48474667868E+03  0.91336951812E+03  0.46999998093E+01 0.  1.
</event>
<event>
 5   0  0.1628397E-04  0.1821599E+04  0.7818609E-02  0.8694897E-01
       -2   -1    0    0    0  501  0.00000000000E+00  0.00000000000E+00  0.62397497142E+03  0.62397497142E+03  0.25500000920E-02 0. -1.
        2   -1    0    0  501    0  0.00000000000E+00  0.00000000000E+00 -0.13294692638E+04  0.13294692638E+04  0.25500000920E-02 0.  1.
    10030    2    1    2    0    0  0.00000000000E+00  0.00000000000E+00 -0.70549429242E+03  0.19534442353E+04  0.18215987988E+04 0.  0.
        3    1    3    3  502    0  0.60608500794E+03  0.66140853404E+03 -0.52147312055E+03  0.10376581862E+04  0.10100000352E+00 0. -1.
       -3    1    3    3    0  502 -0.60608500794E+03 -0.66140853404E+03 -0.18402117187E+03  0.91578604906E+03  0.10100000352E+00 0.  1.
</event>
<event>
 5   0  0.8206783E-05  0.1797277E+04  0.7818609E-02  0.8707749E-01
        1   -1    0    0  501    0  0.00000000000E+00  0.00000000000E+00  0.17132864469E+04  0.17132864469E+04  0.50400001928E-02 0.  1.
       -1   -1    0    0    0  501  0.00000000000E+00  0.00000000000E+00 -0.47134651451E+03  0.47134651454E+03  0.50400001928E-02 0. -1.
    10030    2    1    2    0    0  0.00000000000E+00  0.00000000000E+00  0.12419399324E+04  0.21846329615E+04  0.17972774913E+04 0.  0.
        1    1    3    3  502    0  0.29483280714E+03  0.54595654162E+03 -0.16917326683E+03  0.64312869920E+03  0.50400001928E-02 0. -1.
       -1    1    3    3    0  502 -0.29483280714E+03 -0.54595654162E+03  0.14111131992E+04  0.15415042623E+04  0.50400001928E-02 0.  1.
</event>
<event>
 5   0  0.1573981E-04  0.1779953E+04  0.7818609E-02  0.8717034E-01
       -2   -1    0    0    0  501  0.00000000000E+00  0.00000000000E+00  0.74638424919E+03  0.74638424919E+03  0.25500000920E-02 0. -1.
        2   -1    0    0  501    0  0.00000000000E+00  0.00000000000E+00 -0.10611931548E+04  0.10611931548E+04  0.25500000920E-02 0.  1.
    10030    2    1    2    0    0  0.00000000000E+00  0.00000000000E+00 -0.31480890565E+03  0.18075774040E+04  0.17799526467E+04 0.  0.
        1    1    3    3  502    0  0.48985899905E+03 -0.73471007866E+03 -0.44791041142E+02  0.88417587392E+03  0.50400001928E-02 0. -1.
       -1    1    3    3    0  502 -0.48985899905E+03  0.73471007866E+03 -0.27001786451E+03  0.92340153011E+03  0.50400001928E-02 0.  1.
</event>
<event>
 5   0  0.8254914E-05  0.1804811E+04  0.7818609E-02  0.8703745E-01
       -1   -1    0    0    0  501  0.00000000000E+00  0.00000000000E+00  0.64196686677E+03  0.64196686679E+03  0.50400001928E-02 0. -1.
        1   -1    0    0  501    0  0.00000000000E+00  0.00000000000E+00 -0.12685005780E+04  0.12685005780E+04  0.50400001928E-02 0.  1.
    10030    2    1    2    0    0  0.00000000000E+00  0.00000000000E+00 -0.62653371122E+03  0.19104674448E+04  0.18048106178E+04 0.  0.
        4    1    3    3  502    0 -0.23546685248E+03  0.82447658822E+02 -0.12312682414E+04  0.12562903129E+04  0.12699999809E+01 0.  1.
       -4    1    3    3    0  502  0.23546685248E+03 -0.82447658822E+02  0.60473453016E+03  0.65417713193E+03  0.12699999809E+01 0. -1.
</event>
<event>
 5   0  0.8430513E-05  0.1595636E+04  0.7818609E-02  0.8823234E-01
        1   -1    0    0  501    0  0.00000000000E+00  0.00000000000E+00  0.11791737691E+04  0.11791737691E+04  0.50400001928E-02 0.  1.
       -1   -1    0    0    0  501  0.00000000000E+00  0.00000000000E+00 -0.53979604969E+03  0.53979604971E+03  0.50400001928E-02 0. -1.
    10030    2    1    2    0    0  0.00000000000E+00  0.00000000000E+00  0.63937771942E+03  0.17189698188E+04  0.15956357260E+04 0.  0.
        5    1    3    3  502    0  0.21448649114E+03 -0.13999774968E+03  0.11336613727E+04  0.11622452507E+04  0.46999998093E+01 0.  1.
       -5    1    3    3    0  502 -0.21448649114E+03  0.13999774968E+03 -0.49428365332E+03  0.55672456811E+03  0.46999998093E+01 0. -1.
</event>
<event>
 5   0  0.8492114E-05  0.1743456E+04  0.7818609E-02  0.8736961E-01
       -1   -1    0    0    0  501  0.00000000000E+00  0.00000000000E+00  0.52117104589E+03  0.52117104592E+03  0.50400001928E-02 0.  1.
        1   -1    0    0  501    0  0.00000000000E+00  0.00000000000E+00 -0.14580815983E+04  0.14580815983E+04  0.50400001928E-02 0. -1.
    10030    2    1    2    0    0  0.00000000000E+00  0.00000000000E+00 -0.93691055244E+03  0.19792526443E+04  0.17434562359E+04 0.  0.
        2    1    3    3  502    0 -0.43391439667E+03  0.45774679703E+03 -0.11515832878E+04  0.13129957740E+04  0.25500000920E-02 0. -1.
       -2    1    3    3    0  502  0.43391439667E+03 -0.45774679703E+03  0.21467273536E+03  0.66625687024E+03  0.25500000920E-02 0.  1.
</event>
<event>
 5   0  0.8254914E-05  0.1797490E+04  0.7818609E-02  0.8707635E-01
       -1   -1    0    0    0  501  0.00000000000E+00  0.00000000000E+00  0.90129720426E+03  0.90129720427E+03  0.50400001928E-02 0. -1.
        1   -1    0    0  501    0  0.00000000000E+00  0.00000000000E+00 -0.89619995272E+03  0.89619995273E+03  0.50400001928E-02 0.  1.
    10030    2    1    2    0    0  0.00000000000E+00  0.00000000000E+00  0.50972515406E+01  0.17974971570E+04  0.17974899297E+04 0.  0.
        4    1    3    3  502    0 -0.43727548525E+03 -0.77425257720E+03 -0.12808112920E+03  0.89837814525E+03  0.12699999809E+01 0.  1.
       -4    1    3    3    0  502  0.43727548525E+03  0.77425257720E+03  0.13317838074E+03  0.89911901176E+03  0.12699999809E+01 0. -1.
</event>
<event>
 5   0  0.8430513E-05  0.1783080E+04  0.7818609E-02  0.8715350E-01
       -1   -1    0    0    0  501  0.00000000000E+00  0.00000000000E+00  0.53667044551E+03  0.53667044554E+03  0.50400001928E-02 0.  1.
        1   -1    0    0  501    0  0.00000000000E+00  0.00000000000E+00 -0.14810640826E+04  0.14810640826E+04  0.50400001928E-02 0. -1.
    10030    2    1    2    0    0  0.00000000000E+00  0.00000000000E+00 -0.94439363705E+03  0.20177345281E+04  0.17830797190E+04 0.  0.
        5    1    3    3  502    0  0.28453131518E+03 -0.71177726443E+03  0.42944241638E+02  0.76775728025E+03  0.46999998093E+01 0.  1.
       -5    1    3    3    0  502 -0.28453131518E+03  0.71177726443E+03 -0.98733787868E+03  0.12499772479E+04  0.46999998093E+01 0. -1.
</event>
<event>
 5   0  0.1608627E-04  0.1806239E+04  0.7818609E-02  0.8702989E-01
        2   -1    0    0  501    0  0.00000000000E+00  0.00000000000E+00  0.20001876427E+04  0.20001876427E+04  0.25500000920E-02 0. -1.
       -2   -1    0    0    0  501  0.00000000000E+00  0.00000000000E+00 -0.40777409077E+03  0.40777409078E+03  0.25500000920E-02 0.  1.
    10030    2    1    2    0    0  0.00000000000E+00  0.00000000000E+00  0.15924135519E+04  0.24079617335E+04  0.18062388517E+04 0.  0.
        2    1    3    3  502    0 -0.37899954687E+03 -0.71625926523E+03  0.13277196991E+04  0.15554766443E+04  0.25500000920E-02 0. -1.
       -2    1    3    3    0  502  0.37899954687E+03  0.71625926523E+03  0.26469385284E+03  0.85248508919E+03  0.25500000920E-02 0.  1.
</event>
<event>
 5   0  0.8206783E-05  0.1797190E+04  0.7818609E-02  0.8707795E-01
        1   -1    0    0  501    0  0.00000000000E+00  0.00000000000E+00  0.18325404316E+04  0.18325404316E+04  0.50400001928E-02 0. -1.
       -1   -1    0    0    0  501  0.00000000000E+00  0.00000000000E+00 -0.44063055061E+03  0.44063055064E+03  0.50400001928E-02 0.  1.
    10030    2    1    2    0    0  0.00000000000E+00  0.00000000000E+00  0.13919098810E+04  0.22731709823E+04  0.17971903621E+04 0.  0.
        1    1    3    3  502    0  0.21152826917E+01  0.32044962255E+03  0.17578095938E+04  0.17867811850E+04  0.50400001928E-02 0. -1.
       -1    1    3    3    0  502 -0.21152826917E+01 -0.32044962255E+03 -0.36589971280E+03  0.48638979725E+03  0.50400001928E-02 0.  1.
</event>
<event>
 5   0  0.8206783E-05  0.1791854E+04  0.7818609E-02  0.8710644E-01
       -1   -1    0    0    0  501  0.00000000000E+00  0.00000000000E+00  0.91317139020E+03  0.91317139021E+03  0.50400001928E-02 0. -1.
        1   -1    0    0  501    0  0.00000000000E+00  0.00000000000E+00 -0.87900799564E+03  0.87900799565E+03  0.50400001928E-02 0.  1.
    10030    2    1    2    0    0  0.00000000000E+00  0.00000000000E+00  0.34163394560E+02  0.17921793859E+04  0.17918537367E+04 0.  0.
        1    1    3    3  502    0 -0.13495245436E+03 -0.80442849696E+03  0.38778038391E+03  0.90315613148E+03  0.50400001928E-02 0. -1.
       -1    1    3    3    0  502  0.13495245436E+03  0.80442849696E+03 -0.35361698935E+03  0.88902325438E+03  0.50400001928E-02 0.  1.
</event>
<event>
 5   0  0.8206783E-05  0.1798646E+04  0.7818609E-02  0.8707020E-01
        1   -1    0    0  501    0  0.00000000000E+00  0.00000000000E+00  0.18457096030E+04  0.18457096030E+04  0.50400001928E-02 0.  1.
       -1   -1    0    0    0  501  0.00000000000E+00  0.00000000000E+00 -0.43819575136E+03  0.43819575138E+03  0.50400001928E-02 0. -1.
    10030    2    1    2    0    0  0.00000000000E+00  0.00000000000E+00  0.14075138517E+04  0.22839053544E+04  0.17986462758E+04 0.  0.
        1    1    3    3  502    0  0.18195089722E+03  0.15212821585E+03  0.18052838318E+04  0.18207962094E+04  0.50400001928E-02 0.  1.
       -1    1    3    3    0  502 -0.18195089722E+03 -0.15212821585E+03 -0.39776998010E+03  0.46310914497E+03  0.50400001928E-02 0. -1.
</event>
<event>
 5   0  0.1549012E-04  0.1789790E+04  0.7818609E-02  0.8711748E-01
       -2   -1    0    0    0  501  0.00000000000E+00  0.00000000000E+00  0.62653253911E+03  0.62653253911E+03  0.25500000920E-02 0. -1.
        2   -1    0    0  501    0  0.00000000000E+00  0.00000000000E+00 -0.12782050996E+04  0.12782050996E+04  0.25500000920E-02 0.  1.
    10030    2    1    2    0    0  0.00000000000E+00  0.00000000000E+00 -0.65167256046E+03  0.19047376387E+04  0.17897900285E+04 0.  0.
        4    1    3    3  502    0 -0.59708778187E+03  0.64686689869E+03 -0.15461565771E+03  0.89378868777E+03  0.12699999809E+01 0.  1.
       -4    1    3    3    0  502  0.59708778187E+03 -0.64686689869E+03 -0.49705690275E+03  0.10109489509E+04  0.12699999809E+01 0. -1.
</event>
<event>
 5   0  0.8132598E-05  0.1820362E+04  0.7818609E-02  0.8695545E-01
       -1   -1    0    0    0  501  0.00000000000E+00  0.00000000000E+00  0.77122010386E+03  0.77122010388E+03  0.50400001928E-02 0.  1.
        1   -1    0    0  501    0  0.00000000000E+00  0.00000000000E+00 -0.10741805676E+04  0.10741805676E+04  0.50400001928E-02 0. -1.
    10030    2    1    2    0    0  0.00000000000E+00  0.00000000000E+00 -0.30296046369E+03  0.18454006714E+04  0.18203622155E+04 0.  0.
        3    1    3    3  502    0  0.14563645406E+03  0.21115390783E+03 -0.10367810283E+04  0.10680406642E+04  0.10100000352E+00 0. -1.
       -3    1    3    3    0  502 -0.14563645406E+03 -0.21115390783E+03  0.73382056463E+03  0.77736000722E+03  0.10100000352E+00 0.  1.
</event>
<event>
 5   0  0.1549012E-04  0.1797895E+04  0.7818609E-02  0.8707420E-01
       -2   -1    0    0    0  501  0.00000000000E+00  0.00000000000E+00  0.70539821111E+03  0.70539821112E+03  0.25500000920E-02 0. -1.
        2   -1    0    0  501    0  0.00000000000E+00  0.00000000000E+00 -0.11456036035E+04  0.11456036035E+04  0.25500000920E-02 0.  1.
    10030    2    1    2    0    0  0.00000000000E+00  0.00000000000E+00 -0.44020539243E+03  0.18510018147E+04  0.17978951389E+04 0.  0.
        4    1    3    3  502    0 -0.36470796438E+03  0.73535496446E+03 -0.59746223810E+03  0.10152445823E+04  0.12699999809E+01 0.  1.
       -4    1    3    3    0  502  0.36470796438E+03 -0.73535496446E+03  0.15725684567E+03  0.83575723236E+03  0.12699999809E+01 0. -1.
</event>
<event>
 5   0  0.1628397E-04  0.1811856E+04  0.7818609E-02  0.8700020E-01
       -2   -1    0    0    0  501  0.00000000000E+00  0.00000000000E+00  0.16623328982E+04  0.16623328982E+04  0.25500000920E-02 0.  1.
        2   -1    0    0  501    0  0.00000000000E+00  0.00000000000E+00 -0.49370692655E+03  0.49370692655E+03  0.25500000920E-02 0. -1.
    10030    2    1    2    0    0  0.00000000000E+00  0.00000000000E+00  0.11686259717E+04  0.21560398248E+04  0.18118556963E+04 0.  0.
        3    1    3    3  502    0  0.81613405798E+03  0.12755278379E+03  0.10269417316E+04  0.13179354474E+04  0.10100000352E+00 0.  1.
       -3    1    3    3    0  502 -0.81613405798E+03 -0.12755278379E+03  0.14168424005E+03  0.83810437734E+03  0.10100000352E+00 0. -1.
</event>
<event>
 5   0  0.1573981E-04  0.1970846E+04  0.7818609E-02  0.8620374E-01
        2   -1    0    0  501    0  0.00000000000E+00  0.00000000000E+00  0.19372940865E+04  0.19372940865E+04  0.25500000920E-02 0. -1.
       -2   -1    0    0    0  501  0.00000000000E+00  0.00000000000E+00 -0.50124480851E+03  0.50124480852E+03  0.25500000920E-02 0.  1.
    10030    2    1    2    0    0  0.00000000000E+00  0.00000000000E+00  0.14360492780E+04  0.24385388950E+04  0.19708461162E+04 0.  0.
        1    1    3    3  502    0  0.27006289161E+03 -0.94621435360E+03  0.65251710750E+03  0.11806922308E+04  0.50400001928E-02 0. -1.
       -1    1    3    3    0  502 -0.27006289161E+03  0.94621435360E+03  0.78353217051E+03  0.12578466642E+04  0.50400001928E-02 0.  1.
</event>
<event>
 5   0  0.1549012E-04  0.1852506E+04  0.7818609E-02  0.8678865E-01
       -2   -1    0    0    0  501  0.00000000000E+00  0.00000000000E+00  0.14497393780E+04  0.14497393780E+04  0.25500000920E-02 0.  1.
        2   -1    0    0  501    0  0.00000000000E+00  0.00000000000E+00 -0.59179200139E+03  0.59179200139E+03  0.25500000920E-02 0. -1.
    10030    2    1    2    0    0  0.00000000000E+00  0.00000000000E+00  0.85794737659E+03  0.20415313794E+04  0.18525055120E+04 0.  0.
        4    1    3    3  502    0 -0.62584235237E+03 -0.38593648340E+03  0.10497614931E+04  0.12816498837E+04  0.12699999809E+01 0.  1.
       -4    1    3    3    0  502  0.62584235237E+03  0.38593648340E+03 -0.19181411647E+03  0.75988149564E+03  0.12699999809E+01 0. -1.
</event>
<event>
 5   0  0.8132598E-05  0.1800885E+04  0.7818609E-02  0.8705829E-01
       -1   -1    0    0    0  501  0.00000000000E+00  0.00000000000E+00  0.76899418672E+03  0.76899418674E+03  0.50400001928E-02 0. -1.
        1   -1    0    0  501    0  0.00000000000E+00  0.00000000000E+00 -0.10543602804E+04  0.10543602804E+04  0.50400001928E-02 0.  1.
    10030    2    1    2    0    0  0.00000000000E+00  0.00000000000E+00 -0.28536609365E+03  0.18233544671E+04  0.18008852560E+04 0.  0.
        3    1    3    3  502    0  0.37775559447E+03 -0.51983828856E+03  0.49595289573E+03  0.81172681389E+03  0.10100000352E+00 0. -1.
       -3    1    3    3    0  502 -0.37775559447E+03  0.51983828856E+03 -0.78131898938E+03  0.10116276532E+04  0.10100000352E+00 0.  1.
</event>
<event>
 5   0  0.1628397E-04  0.1796824E+04  0.7818609E-02  0.8707991E-01
       -2   -1    0    0    0  501  0.00000000000E+00  0.00000000000E+00  0.50850940761E+03  0.50850940761E+03  0.25500000920E-02 0. -1.
        2   -1    0    0  501    0  0.00000000000E+00  0.00000000000E+00 -0.15872738304E+04  0.15872738304E+04  0.25500000920E-02 0.  1.
    10030    2    1    2    0    0  0.00000000000E+00  0.00000000000E+00 -0.10787644228E+04  0.20957832380E+04  0.17968235030E+04 0.  0.
        3    1    3    3  502    0 -0.41376888037E+03  0.21534899513E+03 -0.14349662473E+04  0.15088764089E+04  0.10100000352E+00 0.  1.
       -3    1    3    3    0  502  0.41376888037E+03 -0.21534899513E+03  0.35620182455E+03  0.58690682913E+03  0.10100000352E+00 0. -1.
</event>
<event>
 5   0  0.8132598E-05  0.1798304E+04  0.7818609E-02  0.8707202E-01
        1   -1    0    0  501    0  0.00000000000E+00  0.00000000000E+00  0.23217368324E+04  0.23217368324E+04  0.50400001928E-02 0.  1.
       -1   -1    0    0    0  501  0.00000000000E+00  0.00000000000E+00 -0.34821956368E+03  0.34821956372E+03  0.50400001928E-02 0. -1.
    10030    2    1    2    0    0  0.00000000000E+00  0.00000000000E+00  0.19735172687E+04  0.26699563961E+04  0.17983038529E+04 0.  0.
        3    1    3    3  502    0 -0.30697380005E+03  0.77586036066E+03  0.48925518832E+03  0.96724498585E+03  0.10100000352E+00 0. -1.
       -3    1    3    3    0  502  0.30697380005E+03 -0.77586036066E+03  0.14842620804E+04  0.17027114103E+04  0.10100000352E+00 0.  1.
</event>
<event>
 5   0  0.1549012E-04  0.1770405E+04  0.7818609E-02  0.8722198E-01
        2   -1    0    0  501    0  0.00000000000E+00  0.00000000000E+00  0.14103049151E+04  0.14103049151E+04  0.25500000920E-02 0.  1.
       -2   -1    0    0    0  501  0.00000000000E+00  0.00000000000E+00 -0.55561250735E+03  0.55561250736E+03  0.25500000920E-02 0. -1.
    10030    2    1    2    0    0  0.00000000000E+00  0.00000000000E+00  0.85469240774E+03  0.19659174225E+04  0.17704045301E+04 0.  0.
        4    1    3    3  502    0 -0.19124330641E+03  0.35979394613E+03  0.12999776208E+04  0.13623395735E+04  0.12699999809E+01 0.  1.
       -4    1    3    3    0  502  0.19124330641E+03 -0.35979394613E+03 -0.44528521307E+03  0.60357784899E+03  0.12699999809E+01 0. -1.
</event>
<event>
 5   0  0.1608627E-04  0.1806195E+04  0.7818609E-02  0.8703012E-01
        2   -1    0    0  501    0  0.00000000000E+00  0.00000000000E+00  0.11364754236E+04  0.11364754236E+04  0.25500000920E-02 0.  1.
       -2   -1    0    0    0  501  0.00000000000E+00  0.00000000000E+00 -0.71764434753E+03  0.71764434753E+03  0.25500000920E-02 0. -1.
    10030    2    1    2    0    0  0.00000000000E+00  0.00000000000E+00  0.41883107612E+03  0.18541197712E+04  0.18061950768E+04 0.  0.
        2    1    3    3  502    0  0.34277348127E+03  0.12516941810E+03 -0.63859317663E+03  0.73550138540E+03  0.25500000920E-02 0. -1.
       -2    1    3    3    0  502 -0.34277348127E+03 -0.12516941810E+03  0.10574242527E+04  0.11186183858E+04  0.25500000920E-02 0.  1.
</event>
<event>
 5   0  0.1573981E-04  0.1776145E+04  0.7818609E-02  0.8719089E-01
       -2   -1    0    0    0  501  0.00000000000E+00  0.00000000000E+00  0.82995623644E+03  0.82995623644E+03  0.25500000920E-02 0. -1.
        2   -1    0    0  501    0  0.00000000000E+00  0.00000000000E+00 -0.95025846971E+03  0.95025846971E+03  0.25500000920E-02 0.  1.
    10030    2    1    2    0    0  0.00000000000E+00  0.00000000000E+00 -0.12030223327E+03  0.17802147062E+04  0.17761452003E+04 0.  0.
        1    1    3    3  502    0 -0.51650816943E+03 -0.44234601573E+03 -0.63261845242E+03  0.92879319177E+03  0.50400001928E-02 0.  1.
       -1    1    3    3    0  502  0.51650816943E+03  0.44234601573E+03  0.51231621915E+03  0.85142151438E+03  0.50400001928E-02 0. -1.
</event>
<event>
 5   0  0.1628397E-04  0.1792794E+04  0.7818609E-02  0.8710141E-01
       -2   -1    0    0    0  501  0.00000000000E+00  0.00000000000E+00  0.60974233122E+03  0.60974233122E+03  0.25500000920E-02 0.  1.
        2   -1    0    0  501    0  0.00000000000E+00  0.00000000000E+00 -0.13178144967E+04  0.13178144967E+04  0.25500000920E-02 0. -1.
    10030    2    1    2    0    0  0.00000000000E+00  0.00000000000E+00 -0.70807216550E+03  0.19275568279E+04  0.17927936673E+04 0.  0.
        3    1    3    3  502    0  0.73474572827E+03 -0.51093768022E+03 -0.40905571350E+03  0.98398942333E+03  0.10100000352E+00 0. -1.
       -3    1    3    3    0  502 -0.73474572827E+03  0.51093768022E+03 -0.29901645201E+03  0.94356740462E+03  0.10100000352E+00 0.  1.
</event>
<event>
 5   0  0.1608627E-04  0.1843650E+04  0.7818609E-02  0.8683425E-01
        2   -1    0    0  501    0  0.00000000000E+00  0.00000000000E+00  0.28881779006E+04  0.28881779006E+04  0.25500000920E-02 0.  1.
       -2   -1    0    0    0  501  0.00000000000E+00  0.00000000000E+00 -0.29422049858E+03  0.29422049859E+03  0.25500000920E-02 0. -1.
    10030    2    1    2    0    0  0.00000000000E+00  0.00000000000E+00  0.25939574020E+04  0.31823983992E+04  0.18436497953E+04 0.  0.
        2    1    3    3  502    0  0.79408076287E+03  0.22050043502E+03  0.58406716285E+03  0.10101084845E+04  0.25500000920E-02 0. -1.
       -2    1    3    3    0  502 -0.79408076287E+03 -0.22050043502E+03  0.20098902391E+04  0.21722899146E+04  0.25500000920E-02 0.  1.
</event>
<event>
 5   0  0.8492114E-05  0.1808722E+04  0.7818609E-02  0.8701675E-01
       -1   -1    0    0    0  501  0.00000000000E+00  0.00000000000E+00  0.96118426430E+03  0.96118426431E+03  0.50400001928E-02 0. -1.
        1   -1    0    0  501    0  0.00000000000E+00  0.00000000000E+00 -0.85089716950E+03  0.85089716951E+03  0.50400001928E-02 0.  1.
    10030    2    1    2    0    0  0.00000000000E+00  0.00000000000E+00  0.11028709480E+03  0.18120814338E+04  0.18087221676E+04 0.  0.
        2    1    3    3  502    0  0.69915445653E+03 -0.27013551765E+02 -0.51891479076E+03  0.87110231669E+03  0.25500000920E-02 0.  1.
       -2    1    3    3    0  502 -0.69915445653E+03  0.27013551765E+02  0.62920188556E+03  0.94097911713E+03  0.25500000920E-02 0. -1.
</event>
<event>
 5   0  0.8492114E-05  0.1783787E+04  0.7818609E-02  0.8714969E-01
        1   -1    0    0  501    0  0.00000000000E+00  0.00000000000E+00  0.76341164874E+03  0.76341164876E+03  0.50400001928E-02 0.  1.
       -1   -1    0    0    0  501  0.00000000000E+00  0.00000000000E+00 -0.10419985098E+04  0.10419985098E+04  0.50400001928E-02 0. -1.
    10030    2    1    2    0    0  0.00000000000E+00  0.00000000000E+00 -0.27858686107E+03  0.18054101586E+04  0.17837867590E+04 0.  0.
        2    1    3    3  502    0 -0.45325915643E+03  0.45032000588E+03 -0.76912449601E+03  0.99989222467E+03  0.25500000920E-02 0. -1.
       -2    1    3    3    0  502  0.45325915643E+03 -0.45032000588E+03  0.49053763494E+03  0.80551793393E+03  0.25500000920E-02 0.  1.
</event>
<event>
 5   0  0.8254914E-05  0.1600337E+04  0.7818609E-02  0.8820341E-01
        1   -1    0    0  501    0  0.00000000000E+00  0.00000000000E+00  0.18571221150E+04  0.18571221150E+04  0.50400001928E-02 0. -1.
       -1   -1    0    0    0  501  0.00000000000E+00  0.00000000000E+00 -0.34476448682E+03  0.34476448685E+03  0.50400001928E-02 0.  1.
    10030    2    1    2    0    0  0.00000000000E+00  0.00000000000E+00  0.15123576282E+04  0.22018866019E+04  0.16003371557E+04 0.  0.
        4    1    3    3  502    0 -0.42720528668E+03  0.28905516958E+03 -0.85490846192E+02  0.52284562321E+03  0.12699999809E+01 0.  1.
       -4    1    3    3    0  502  0.42720528668E+03 -0.28905516958E+03  0.15978484744E+04  0.16790409787E+04  0.12699999809E+01 0. -1.
</event>
<event>
 5   0  0.8430513E-05  0.1811540E+04  0.7818609E-02  0.8700187E-01
        1   -1    0    0  501    0  0.00000000000E+00  0.00000000000E+00  0.15652449398E+04  0.15652449399E+04  0.50400001928E-02 0. -1.
       -1   -1    0    0    0  501  0.00000000000E+00  0.00000000000E+00 -0.52414728996E+03  0.52414728999E+03  0.50400001928E-02 0.  1.
    10030    2    1    2    0    0  0.00000000000E+00  0.00000000000E+00  0.10410976499E+04  0.20893922298E+04  0.18115395589E+04 0.  0.
        5    1    3    3  502    0 -0.54349018637E+03 -0.18245179674E+03  0.13293355001E+04  0.14476965161E+04  0.46999998093E+01 0. -1.
       -5    1    3    3    0  502  0.54349018637E+03  0.18245179674E+03 -0.28823785019E+03  0.64169571379E+03  0.46999998093E+01 0.  1.
</event>
<event>
 5   0  0.8430513E-05  0.1793903E+04  0.7818609E-02  0.8709549E-01
       -1   -1    0    0    0  501  0.00000000000E+00  0.00000000000E+00  0.72215492490E+03  0.72215492491E+03  0.50400001928E-02 0.  1.
        1   -1    0    0  501    0  0.00000000000E+00  0.00000000000E+00 -0.11140568614E+04  0.11140568614E+04  0.50400001928E-02 0. -1.
    10030    2    1    2    0    0  0.00000000000E+00  0.00000000000E+00 -0.39190193649E+03  0.18362117863E+04  0.17939026162E+04 0.  0.
        5    1    3    3  502    0  0.55973294338E+02  0.69163243966E+03 -0.77769594621E+03  0.10422674878E+04  0.46999998093E+01 0. -1.
       -5    1    3    3    0  502 -0.55973294338E+02 -0.69163243966E+03  0.38579400972E+03  0.79394429856E+03  0.46999998093E+01 0.  1.
</event>
<event>
 5   0  0.1628397E-04  0.1779037E+04  0.7818609E-02  0.8717527E-01
       -2   -1    0    0    0  501  0.00000000000E+00  0.00000000000E+00  0.44044628838E+03  0.44044628838E+03  0.25500000920E-02 0. -1.
        2   -1    0    0  501    0  0.00000000000E+00  0.00000000000E+00 -0.17964581771E+04  0.17964581771E+04  0.25500000920E-02 0.  1.
    10030    2    1    2    0    0  0.00000000000E+00  0.00000000000E+00 -0.13560118887E+04  0.22369044655E+04  0.17790371962E+04 0.  0.
        3    1    3    3  502    0 -0.16766011672E+03  0.39944198578E+03 -0.16548599297E+04  0.17106212941E+04  0.10100000352E+00 0.  1.
       -3    1    3    3    0  502  0.16766011672E+03 -0.39944198578E+03  0.29884804093E+03  0.52628317142E+03  0.10100000352E+00 0. -1.
</event>
<event>
 5   0  0.1628397E-04  0.1808709E+04  0.7818609E-02  0.8701682E-01
       -2   -1    0    0    0  501  0.00000000000E+00  0.00000000000E+00  0.57737539468E+03  0.57737539469E+03  0.25500000920E-02 0.  1.
        2   -1    0    0  501    0  0.00000000000E+00  0.00000000000E+00 -0.14165090582E+04  0.14165090582E+04  0.25500000920E-02 0. -1.
    10030    2    1    2    0    0  0.00000000000E+00  0.00000000000E+00 -0.83913366353E+03  0.19938844529E+04  0.18087094588E+04 0.  0.
        3    1    3    3  502    0 -0.33953292356E+03  0.57978295885E+03 -0.10868722672E+04  0.12777801927E+04  0.10100000352E+00 0. -1.
       -3    1    3    3    0  502  0.33953292356E+03 -0.57978295885E+03  0.24773860362E+03  0.71610426020E+03  0.10100000352E+00 0.  1.
</event>
<event>
 5   0  0.5820500E-05  0.1796015E+04  0.7818609E-02  0.8708422E-01
        3   -1    0    0  501    0  0.00000000000E+00  0.00000000000E+00  0.34660572772E+03  0.34660574244E+03  0.10100000352E+00 0. -1.
       -3   -1    0    0    0  501  0.00000000000E+00  0.00000000000E+00 -0.23266121901E+04  0.23266121923E+04  0.10100000352E+00 0.  1.
    10030    2    1    2    0    0  0.00000000000E+00  0.00000000000E+00 -0.19800064624E+04  0.26732179348E+04  0.17960146256E+04 0.  0.
        4    1    3    3  502    0  0.39606206887E+03  0.48576826993E+03 -0.32800291922E+02  0.62762524369E+03  0.12699999809E+01 0. -1.
       -4    1    3    3    0  502 -0.39606206887E+03 -0.48576826993E+03 -0.19472061705E+04  0.20455926911E+04  0.12699999809E+01 0.  1.
</event>
<event>
 5   0  0.1573981E-04  0.1888090E+04  0.7818609E-02  0.8660807E-01
        2   -1    0    0  501    0  0.00000000000E+00  0.00000000000E+00  0.84751416095E+03  0.84751416095E+03  0.25500000920E-02 0.  1.
       -2   -1    0    0    0  501  0.00000000000E+00  0.00000000000E+00 -0.10515710908E+04  0.10515710908E+04  0.25500000920E-02 0. -1.
    10030    2    1    2    0    0  0.00000000000E+00  0.00000000000E+00 -0.20405692984E+03  0.18990852517E+04  0.18880904541E+04 0.  0.
        1    1    3    3  502    0 -0.18951576605E+02 -0.91402339758E+03  0.13476432282E+03  0.92409921345E+03  0.50400001928E-02 0.  1.
       -1    1    3    3    0  502  0.18951576605E+02  0.91402339758E+03 -0.33882125266E+03  0.97498603828E+03  0.50400001928E-02 0. -1.
</event>
<event>
 5   0  0.8492114E-05  0.1800644E+04  0.7818609E-02  0.8705957E-01
        1   -1    0    0  501    0  0.00000000000E+00  0.00000000000E+00  0.21298799865E+04  0.21298799865E+04  0.50400001928E-02 0.  1.
       -1   -1    0    0    0  501  0.00000000000E+00  0.00000000000E+00 -0.38057547183E+03  0.38057547186E+03  0.50400001928E-02 0. -1.
    10030    2    1    2    0    0  0.00000000000E+00  0.00000000000E+00  0.17493045147E+04  0.25104554584E+04  0.18006444189E+04 0.  0.
        2    1    3    3  502    0  0.75728013424E+03 -0.39535772299E+03  0.47834871242E+03  0.97908039584E+03  0.25500000920E-02 0.  1.
       -2    1    3    3    0  502 -0.75728013424E+03  0.39535772299E+03  0.12709558023E+04  0.15313750625E+04  0.25500000920E-02 0. -1.
</event>
<event>
 5   0  0.1628397E-04  0.1763781E+04  0.7818609E-02  0.8725801E-01
       -2   -1    0    0    0  501  0.00000000000E+00  0.00000000000E+00  0.56901839644E+03  0.56901839645E+03  0.25500000920E-02 0.  1.
        2   -1    0    0  501    0  0.00000000000E+00  0.00000000000E+00 -0.13667941456E+04  0.13667941456E+04  0.25500000920E-02 0. -1.
    10030    2    1    2    0    0  0.00000000000E+00  0.00000000000E+00 -0.79777574914E+03  0.19358125420E+04  0.17637811803E+04 0.  0.
        3    1    3    3  502    0  0.70251776039E+03  0.28521910090E+03 -0.89320533952E+03  0.11716214952E+04  0.10100000352E+00 0. -1.
       -3    1    3    3    0  502 -0.70251776039E+03 -0.28521910090E+03  0.95429590385E+02  0.76419104686E+03  0.10100000352E+00 0.  1.
</event>
<event>
 5   0  0.1549012E-04  0.1804101E+04  0.7818609E-02  0.8704122E-01
        2   -1    0    0  501    0  0.00000000000E+00  0.00000000000E+00  0.75157143129E+03  0.75157143129E+03  0.25500000920E-02 0. -1.
       -2   -1    0    0    0  501  0.00000000000E+00  0.00000000000E+00 -0.10826578448E+04  0.10826578448E+04  0.25500000920E-02 0.  1.
    10030    2    1    2    0    0  0.00000000000E+00  0.00000000000E+00 -0.33108641349E+03  0.18342292761E+04  0.18041005582E+04 0.  0.
        4    1    3    3  502    0  0.34746981724E+03  0.74811748384E+03 -0.53671263193E+03  0.98411234404E+03  0.12699999809E+01 0.  1.
       -4    1    3    3    0  502 -0.34746981724E+03 -0.74811748384E+03  0.20562621845E+03  0.85011693203E+03  0.12699999809E+01 0. -1.
</event>
<event>
 5   0  0.1603564E-04  0.1824748E+04  0.7818609E-02  0.8693248E-01
        2   -1    0    0  501    0  0.00000000000E+00  0.00000000000E+00  0.12820284840E+04  0.12820284840E+04  0.25500000920E-02 0.  1.
       -2   -1    0    0    0  501  0.00000000000E+00  0.00000000000E+00 -0.64930425456E+03  0.64930425456E+03  0.25500000920E-02 0. -1.
    10030    2    1    2    0    0  0.00000000000E+00  0.00000000000E+00  0.63272422942E+03  0.19313327385E+04  0.18247482556E+04 0.  0.
        5    1    3    3  502    0  0.42887204682E+03 -0.50760164620E+02  0.11669822431E+04  0.12443381665E+04  0.46999998093E+01 0.  1.
       -5    1    3    3    0  502 -0.42887204682E+03  0.50760164620E+02 -0.53425801368E+03  0.68699457206E+03  0.46999998093E+01 0. -1.
</event>
<event>
 5   0  0.8206783E-05  0.1750197E+04  0.7818609E-02  0.8733242E-01
        1   -1    0    0  501    0  0.00000000000E+00  0.00000000000E+00  0.89934049129E+03  0.89934049130E+03  0.50400001928E-02 0.  1.
       -1   -1    0    0    0  501  0.00000000000E+00  0.00000000000E+00 -0.85150956430E+03  0.85150956431E+03  0.50400001928E-02 0. -1.
    10030    2    1    2    0    0  0.00000000000E+00  0.00000000000E+00  0.47830926989E+02  0.17508500556E+04  0.17501965946E+04 0.  0.
        1    1    3    3  502    0  0.63169838718E+03  0.60453221439E+03  0.59914720136E+02  0.87640848028E+03  0.50400001928E-02 0. -1.
       -1    1    3    3    0  502 -0.63169838718E+03 -0.60453221439E+03 -0.12083793147E+02  0.87444157533E+03  0.50400001928E-02 0.  1.
</event>
<event>
 5   0  0.8132598E-05  0.1808061E+04  0.7818609E-02  0.8702025E-01
        1   -1    0    0  501    0  0.00000000000E+00  0.00000000000E+00  0.98906516804E+03  0.98906516805E+03  0.50400001928E-02 0. -1.
       -1   -1    0    0    0  501  0.00000000000E+00  0.00000000000E+00 -0.82630639417E+03  0.82630639419E+03  0.50400001928E-02 0.  1.
    10030    2    1    2    0    0  0.00000000000E+00  0.00000000000E+00  0.16275877387E+03  0.18153715622E+04  0.18080606988E+04 0.  0.
        3    1    3    3  502    0  0.52073837158E+02  0.56598001360E+03  0.78723395428E+03  0.97096980864E+03  0.10100000352E+00 0. -1.
       -3    1    3    3    0  502 -0.52073837158E+02 -0.56598001360E+03 -0.62447518042E+03  0.84440175359E+03  0.10100000352E+00 0.  1.
</event>
<event>
 5   0  0.8254914E-05  0.1790546E+04  0.7818609E-02  0.8711343E-01
        1   -1    0    0  501    0  0.00000000000E+00  0.00000000000E+00  0.64137376632E+03  0.64137376634E+03  0.50400001928E-02 0. -1.
       -1   -1    0    0    0  501  0.00000000000E+00  0.00000000000E+00 -0.12496830097E+04  0.12496830097E+04  0.50400001928E-02 0.  1.
    10030    2    1    2    0    0  0.00000000000E+00  0.00000000000E+00 -0.60830924340E+03  0.18910567761E+04  0.17905461722E+04 0.  0.
        4    1    3    3  502    0  0.73071327368E+03  0.13817771479E+03  0.22230178806E+03  0.77617953275E+03  0.12699999809E+01 0. -1.
       -4    1    3    3    0  502 -0.73071327368E+03 -0.13817771479E+03 -0.83061103145E+03  0.11148772433E+04  0.12699999809E+01 0.  1.
</event>
<event>
 5   0  0.8430513E-05  0.1801792E+04  0.7818609E-02  0.8705347E-01
        1   -1    0    0  501    0  0.00000000000E+00  0.00000000000E+00  0.10626665112E+04  0.10626665112E+04  0.50400001928E-02 0. -1.
       -1   -1    0    0    0  501  0.00000000000E+00  0.00000000000E+00 -0.76375197965E+03  0.76375197967E+03  0.50400001928E-02 0.  1.
    10030    2    1    2    0    0  0.00000000000E+00  0.00000000000E+00  0.29891453152E+03  0.18264184909E+04  0.18017920542E+04 0.  0.
        5    1    3    3  502    0  0.47295206462E+03 -0.71470094205E+03 -0.13202581921E+03  0.86714127968E+03  0.46999998093E+01 0.  1.
       -5    1    3    3    0  502 -0.47295206462E+03  0.71470094205E+03  0.43094035073E+03  0.95927721117E+03  0.46999998093E+01 0. -1.
</event>
<event>
 5   0  0.1628397E-04  0.1798872E+04  0.7818609E-02  0.8706899E-01
        2   -1    0    0  501    0  0.00000000000E+00  0.00000000000E+00  0.89003671866E+03  0.89003671867E+03  0.25500000920E-02 0.  1.
       -2   -1    0    0    0  501  0.00000000000E+00  0.00000000000E+00 -0.90893476944E+03  0.90893476945E+03  0.25500000920E-02 0. -1.
    10030    2    1    2    0    0  0.00000000000E+00  0.00000000000E+00 -0.18898050780E+02  0.17989714881E+04  0.17988722241E+04 0.  0.
        3    1    3    3  502    0 -0.79327561098E+02  0.31723576840E+03 -0.84738183733E+03  0.90828816085E+03  0.10100000352E+00 0. -1.
       -3    1    3    3    0  502  0.79327561098E+02 -0.31723576840E+03  0.82848378655E+03  0.89068332727E+03  0.10100000352E+00 0.  1.
</event>
<event>
 5   0  0.8492114E-05  0.1804149E+04  0.7818609E-02  0.8704096E-01
       -1   -1    0    0    0  501  0.00000000000E+00  0.00000000000E+00  0.66729794897E+03  0.66729794899E+03  0.50400001928E-02 0.  1.
        1   -1    0    0  501    0  0.00000000000E+00  0.00000000000E+00 -0.12194532691E+04  0.12194532691E+04  0.50400001928E-02 0. -1.
    10030    2    1    2    0    0  0.00000000000E+00  0.00000000000E+00 -0.55215532011E+03  0.18867512181E+04  0.18041492902E+04 0.  0.
        2    1    3    3  502    0  0.20943669706E+03  0.62240236584E+03  0.37069602336E+03  0.75409812148E+03  0.25500000920E-02 0.  1.
       -2    1    3    3    0  502 -0.20943669706E+03 -0.62240236584E+03 -0.92285134348E+03  0.11326530966E+04  0.25500000920E-02 0. -1.
</event>
<event>
 5   0  0.8254914E-05  0.1795010E+04  0.7818609E-02  0.8708957E-01
        1   -1    0    0  501    0  0.00000000000E+00  0.00000000000E+00  0.15773231836E+04  0.15773231837E+04  0.50400001928E-02 0. -1.
       -1   -1    0    0    0  501  0.00000000000E+00  0.00000000000E+00 -0.51068520764E+03  0.51068520766E+03  0.50400001928E-02 0.  1.
    10030    2    1    2    0    0  0.00000000000E+00  0.00000000000E+00  0.10666379760E+04  0.20880083913E+04  0.17950104374E+04 0.  0.
        4    1    3    3  502    0  0.45179321616E+03  0.45729844224E+03 -0.19523307652E+03  0.67183073948E+03  0.12699999809E+01 0.  1.
       -4    1    3    3    0  502 -0.45179321616E+03 -0.45729844224E+03  0.12618710525E+04  0.14161776518E+04  0.12699999809E+01 0. -1.
</event>
<event>
 5   0  0.8132598E-05  0.1844691E+04  0.7818609E-02  0.8682888E-01
        1   -1    0    0  501    0  0.00000000000E+00  0.00000000000E+00  0.21221334968E+04  0.21221334968E+04  0.50400001928E-02 0.  1.
       -1   -1    0    0    0  501  0.00000000000E+00  0.00000000000E+00 -0.40088012763E+03  0.40088012766E+03  0.50400001928E-02 0. -1.
    10030    2    1    2    0    0  0.00000000000E+00  0.00000000000E+00  0.17212533691E+04  0.25230136244E+04  0.18446909195E+04 0.  0.
        3    1    3    3  502    0  0.20834262554E+02 -0.69434450899E+03  0.30734221924E+02  0.69533658487E+03  0.10100000352E+00 0. -1.
       -3    1    3    3    0  502 -0.20834262554E+02  0.69434450899E+03  0.16905191472E+04  0.18276770396E+04  0.10100000352E+00 0.  1.
</event>
<event>
 5   0  0.8254914E-05  0.1803912E+04  0.7818609E-02  0.8704222E-01
        1   -1    0    0  501    0  0.00000000000E+00  0.00000000000E+00  0.14472388579E+04  0.14472388579E+04  0.50400001928E-02 0. -1.
       -1   -1    0    0    0  501  0.00000000000E+00  0.00000000000E+00 -0.56212162504E+03  0.56212162507E+03  0.50400001928E-02 0.  1.
    10030    2    1    2    0    0  0.00000000000E+00  0.00000000000E+00  0.88511723288E+03  0.20093604830E+04  0.18039115928E+04 0.  0.
        4    1    3    3  502    0  0.43990454716E+03  0.10934690924E+03  0.13111433944E+04  0.13872892167E+04  0.12699999809E+01 0. -1.
       -4    1    3    3    0  502 -0.43990454716E+03 -0.10934690924E+03 -0.42602616151E+03  0.62207126631E+03  0.12699999809E+01 0.  1.
</event>
<event>
 5   0  0.1608627E-04  0.1806271E+04  0.7818609E-02  0.8702972E-01
        2   -1    0    0  501    0  0.00000000000E+00  0.00000000000E+00  0.22995968777E+04  0.22995968777E+04  0.25500000920E-02 0. -1.
       -2   -1    0    0    0  501  0.00000000000E+00  0.00000000000E+00 -0.35469406126E+03  0.35469406127E+03  0.25500000920E-02 0.  1.
    10030    2    1    2    0    0  0.00000000000E+00  0.00000000000E+00  0.19449028164E+04  0.26542909389E+04  0.18062705842E+04 0.  0.
        2    1    3    3  502    0  0.62952449806E+02 -0.83615214731E+03  0.14654197594E+04  0.16883626671E+04  0.25500000920E-02 0. -1.
       -2    1    3    3    0  502 -0.62952449806E+02  0.83615214731E+03  0.47948305700E+03  0.96592827184E+03  0.25500000920E-02 0.  1.
</event>
<event>
 5   0  0.1603564E-04  0.1798772E+04  0.7818609E-02  0.8706953E-01
       -2   -1    0    0    0  501  0.00000000000E+00  0.00000000000E+00  0.41556518703E+03  0.41556518704E+03  0.25500000920E-02 0. -1.
        2   -1    0    0  501    0  0.00000000000E+00  0.00000000000E+00 -0.19464950430E+04  0.19464950430E+04  0.25500000920E-02 0.  1.
    10030    2    1    2    0    0  0.00000000000E+00  0.00000000000E+00 -0.15309298560E+04  0.23620602301E+04  0.17987724443E+04 0.  0.
        5    1    3    3  502    0  0.86157693785E+03 -0.10237787808E+03 -0.45450185523E+03  0.97948459720E+03  0.46999998093E+01 0. -1.
       -5    1    3    3    0  502 -0.86157693785E+03  0.10237787808E+03 -0.10764280008E+04  0.13825756329E+04  0.46999998093E+01 0.  1.
</event>
<event>
 5   0  0.1628397E-04  0.1793257E+04  0.7818609E-02  0.8709894E-01
       -2   -1    0    0    0  501  0.00000000000E+00  0.00000000000E+00  0.82338868653E+03  0.82338868654E+03  0.25500000920E-02 0.  1.
        2   -1    0    0  501    0  0.00000000000E+00  0.00000000000E+00 -0.97638258159E+03  0.97638258159E+03  0.25500000920E-02 0. -1.
    10030    2    1    2    0    0  0.00000000000E+00  0.00000000000E+00 -0.15299389505E+03  0.17997712681E+04  0.17932566703E+04 0.  0.
        3    1    3    3  502    0 -0.78978691171E+03 -0.38692228502E+03 -0.25168806748E+03  0.91477817752E+03  0.10100000352E+00 0. -1.
       -3    1    3    3    0  502  0.78978691171E+03  0.38692228502E+03  0.98694172427E+02  0.88499309061E+03  0.10100000352E+00 0.  1.
</event>
<event>
 5   0  0.1603564E-04  0.1810230E+04  0.7818609E-02  0.8700878E-01
        2   -1    0    0  501    0  0.00000000000E+00  0.00000000000E+00  0.11344629266E+04  0.11344629266E+04  0.25500000920E-02 0. -1.
       -2   -1    0    0    0  501  0.00000000000E+00  0.00000000000E+00 -0.72213339563E+03  0.72213339564E+03  0.25500000920E-02 0.  1.
    10030    2    1    2    0    0  0.00000000000E+00  0.00000000000E+00  0.41232953094E+03  0.18565963222E+04  0.18102304443E+04 0.  0.
        5    1    3    3  502    0 -0.77017004926E+03  0.46119753995E+03  0.32465039646E+03  0.95461251068E+03  0.46999998093E+01 0. -1.
       -5    1    3    3    0  502  0.77017004926E+03 -0.46119753995E+03  0.87679134479E+02  0.90198381152E+03  0.46999998093E+01 0.  1.
</event>
<event>
 5   0  0.8254914E-05  0.1796813E+04  0.7818609E-02  0.8707996E-01
       -1   -1    0    0    0  501  0.00000000000E+00  0.00000000000E+00  0.50896372935E+03  0.50896372937E+03  0.50400001928E-02 0.  1.
        1   -1    0    0  501    0  0.00000000000E+00  0.00000000000E+00 -0.15858381733E+04  0.15858381733E+04  0.50400001928E-02 0. -1.
    10030    2    1    2    0    0  0.00000000000E+00  0.00000000000E+00 -0.10768744439E+04  0.20948019026E+04  0.17968128571E+04 0.  0.
        4    1    3    3  502    0  0.60548395256E+03  0.66103979429E+03 -0.60788147229E+03  0.10831001448E+04  0.12699999809E+01 0. -1.
       -4    1    3    3    0  502 -0.60548395256E+03 -0.66103979429E+03 -0.46899297162E+03  0.10117017578E+04  0.12699999809E+01 0.  1.
</event>
<event>
 5   0  0.8430513E-05  0.1827613E+04  0.7818609E-02  0.8691752E-01
       -1   -1    0    0    0  501  0.00000000000E+00  0.00000000000E+00  0.79513319371E+03  0.79513319372E+03  0.50400001928E-02 0.  1.
        1   -1    0    0  501    0  0.00000000000E+00  0.00000000000E+00 -0.10501916686E+04  0.10501916686E+04  0.50400001928E-02 0. -1.
    10030    2    1    2    0    0  0.00000000000E+00  0.00000000000E+00 -0.25505847488E+03  0.18453248623E+04  0.18276129300E+04 0.  0.
        5    1    3    3  502    0  0.14446263779E+03 -0.62487448589E+03  0.52968796074E+03  0.83182269901E+03  0.46999998093E+01 0.  1.
       -5    1    3    3    0  502 -0.14446263779E+03  0.62487448589E+03 -0.78474643563E+03  0.10135021633E+04  0.46999998093E+01 0. -1.
</event>
<event>
 5   0  0.8132598E-05  0.1795526E+04  0.7818609E-02  0.8708682E-01
        1   -1    0    0  501    0  0.00000000000E+00  0.00000000000E+00  0.16338535225E+04  0.16338535225E+04  0.50400001928E-02 0.  1.
       -1   -1    0    0    0  501  0.00000000000E+00  0.00000000000E+00 -0.49329898956E+03  0.49329898958E+03  0.50400001928E-02 0. -1.
    10030    2    1    2    0    0  0.00000000000E+00  0.00000000000E+00  0.11405545329E+04  0.21271525121E+04  0.17955258748E+04 0.  0.
        3    1    3    3  502    0 -0.45792174468E+03  0.68563835315E+03  0.99111295074E+03  0.12892234744E+04  0.10100000352E+00 0.  1.
       -3    1    3    3    0  502  0.45792174468E+03 -0.68563835315E+03  0.14944158221E+03  0.83792903772E+03  0.10100000352E+00 0. -1.
</event>
<event>
 5   0  0.8430513E-05  0.1802154E+04  0.7818609E-02  0.8705155E-01
       -1   -1    0    0    0  501  0.00000000000E+00  0.00000000000E+00  0.67772728156E+03  0.67772728158E+03  0.50400001928E-02 0. -1.
        1   -1    0    0  501    0  0.00000000000E+00  0.00000000000E+00 -0.11980335765E+04  0.11980335765E+04  0.50400001928E-02 0.  1.
    10030    2    1    2    0    0  0.00000000000E+00  0.00000000000E+00 -0.52030629494E+03  0.18757608581E+04  0.18021543098E+04 0.  0.
        5    1    3    3  502    0  0.12884065889E+03  0.55071659982E+03  0.46994451767E+03  0.73536292291E+03  0.46999998093E+01 0. -1.
       -5    1    3    3    0  502 -0.12884065889E+03 -0.55071659982E+03 -0.99025081261E+03  0.11403979352E+04  0.46999998093E+01 0.  1.
</event>
<event>
 5   0  0.1608627E-04  0.1803612E+04  0.7818609E-02  0.8704381E-01
        2   -1    0    0  501    0  0.00000000000E+00  0.00000000000E+00  0.16393226818E+04  0.16393226819E+04  0.25500000920E-02 0.  1.
       -2   -1    0    0    0  501  0.00000000000E+00  0.00000000000E+00 -0.49609140597E+03  0.49609140598E+03  0.25500000920E-02 0. -1.
    10030    2    1    2    0    0  0.00000000000E+00  0.00000000000E+00  0.11432312759E+04  0.21354140878E+04  0.18036118142E+04 0.  0.
        2    1    3    3  502    0  0.26564843482E+03  0.54073644341E+03 -0.22286744430E+03  0.64236663198E+03  0.25500000920E-02 0. -1.
       -2    1    3    3    0  502 -0.26564843482E+03 -0.54073644341E+03  0.13660987202E+04  0.14930474558E+04  0.25500000920E-02 0.  1.
</event>
<event>
 5   0  0.1628397E-04  0.1806231E+04  0.7818609E-02  0.8702993E-01
       -2   -1    0    0    0  501  0.00000000000E+00  0.00000000000E+00  0.65101373902E+03  0.65101373902E+03  0.25500000920E-02 0.  1.
        2   -1    0    0  501    0  0.00000000000E+00  0.00000000000E+00 -0.12528422344E+04  0.12528422344E+04  0.25500000920E-02 0. -1.
    10030    2    1    2    0    0  0.00000000000E+00  0.00000000000E+00 -0.60182849535E+03  0.19038559734E+04  0.18062308904E+04 0.  0.
        3    1    3    3  502    0 -0.28615864782E+03  0.37736843451E+03 -0.11114524736E+04  0.12081474737E+04  0.10100000352E+00 0.  1.
       -3    1    3    3    0  502  0.28615864782E+03 -0.37736843451E+03  0.50962397823E+03  0.69570849964E+03  0.10100000352E+00 0. -1.
</event>
<event>
 5   0  0.1628397E-04  0.1658532E+04  0.7818609E-02  0.8785375E-01
       -2   -1    0    0    0  501  0.00000000000E+00  0.00000000000E+00  0.48974081264E+03  0.48974081264E+03  0.25500000920E-02 0. -1.
        2   -1    0    0  501    0  0.00000000000E+00  0.00000000000E+00 -0.14041749350E+04  0.14041749350E+04  0.25500000920E-02 0.  1.
    10030    2    1    2    0    0  0.00000000000E+00  0.00000000000E+00 -0.91443412241E+03  0.18939157477E+04  0.16585316081E+04 0.  0.
        3    1    3    3  502    0  0.36252247373E+03  0.73046134316E+03 -0.62920997784E+03  0.10300007399E+04  0.10100000352E+00 0.  1.
       -3    1    3    3    0  502 -0.36252247373E+03 -0.73046134316E+03 -0.28522414457E+03  0.86391500777E+03  0.10100000352E+00 0. -1.
</event>
<event>
 5   0  0.8492114E-05  0.1801329E+04  0.7818609E-02  0.8705593E-01
        1   -1    0    0  501    0  0.00000000000E+00  0.00000000000E+00  0.12089821333E+04  0.12089821333E+04  0.50400001928E-02 0. -1.
       -1   -1    0    0    0  501  0.00000000000E+00  0.00000000000E+00 -0.67097494532E+03  0.67097494534E+03  0.50400001928E-02 0.  1.
    10030    2    1    2    0    0  0.00000000000E+00  0.00000000000E+00  0.53800718799E+03  0.18799570787E+04  0.18013291990E+04 0.  0.
        2    1    3    3  502    0  0.27846840812E+03  0.84465817098E+03  0.12065603285E+03  0.89752434975E+03  0.25500000920E-02 0.  1.
       -2    1    3    3    0  502 -0.27846840812E+03 -0.84465817098E+03  0.41735115514E+03  0.98243272891E+03  0.25500000920E-02 0. -1.
</event>
<event>
 5   0  0.1549012E-04  0.1748657E+04  0.7818609E-02  0.8734090E-01
        2   -1    0    0  501    0  0.00000000000E+00  0.00000000000E+00  0.17522476251E+04  0.17522476251E+04  0.25500000920E-02 0. -1.
       -2   -1    0    0    0  501  0.00000000000E+00  0.00000000000E+00 -0.43626854816E+03  0.43626854817E+03  0.25500000920E-02 0.  1.
    10030    2    1    2    0    0  0.00000000000E+00  0.00000000000E+00  0.13159790769E+04  0.21885161733E+04  0.17486572305E+04 0.  0.
        4    1    3    3  502    0 -0.55140086102E+03  0.50832846184E+03  0.95480441575E+02  0.75601512040E+03  0.12699999809E+01 0.  1.
       -4    1    3    3    0  502  0.55140086102E+03 -0.50832846184E+03  0.12204986353E+04  0.14325010529E+04  0.12699999809E+01 0. -1.
</event>
<event>
 5   0  0.1628397E-04  0.1800052E+04  0.7818609E-02  0.8706272E-01
       -2   -1    0    0    0  501  0.00000000000E+00  0.00000000000E+00  0.68451200920E+03  0.68451200920E+03  0.25500000920E-02 0.  1.
        2   -1    0    0  501    0  0.00000000000E+00  0.00000000000E+00 -0.11833937145E+04  0.11833937145E+04  0.25500000920E-02 0. -1.
    10030    2    1    2    0    0  0.00000000000E+00  0.00000000000E+00 -0.49888170535E+03  0.18679057238E+04  0.18000524539E+04 0.  0.
        3    1    3    3  502    0  0.55653483782E+03  0.62001805412E+03  0.10382354191E+03  0.83960273415E+03  0.10100000352E+00 0.  1.
       -3    1    3    3    0  502 -0.55653483782E+03 -0.62001805412E+03 -0.60270524726E+03  0.10283029896E+04  0.10100000352E+00 0. -1.
</event>
<event>
 5   0  0.1628397E-04  0.1817172E+04  0.7818609E-02  0.8697221E-01
       -2   -1    0    0    0  501  0.00000000000E+00  0.00000000000E+00  0.96349466348E+03  0.96349466348E+03  0.25500000920E-02 0.  1.
        2   -1    0    0  501    0  0.00000000000E+00  0.00000000000E+00 -0.85680639688E+03  0.85680639688E+03  0.25500000920E-02 0. -1.
    10030    2    1    2    0    0  0.00000000000E+00  0.00000000000E+00  0.10668826660E+03  0.18203010604E+04  0.18171718587E+04 0.  0.
        3    1    3    3  502    0 -0.75714694880E+03  0.23258181459E+03 -0.39257698609E+03  0.88401499013E+03  0.10100000352E+00 0. -1.
       -3    1    3    3    0  502  0.75714694880E+03 -0.23258181459E+03  0.49926525270E+03  0.93628607023E+03  0.10100000352E+00 0.  1.
</event>
<event>
 5   0  0.1628397E-04  0.1808923E+04  0.7818609E-02  0.8701569E-01
        2   -1    0    0  501    0  0.00000000000E+00  0.00000000000E+00  0.93732491881E+03  0.93732491882E+03  0.25500000920E-02 0.  1.
       -2   -1    0    0    0  501  0.00000000000E+00  0.00000000000E+00 -0.87274994887E+03  0.87274994887E+03  0.25500000920E-02 0. -1.
    10030    2    1    2    0    0  0.00000000000E+00  0.00000000000E+00  0.64574969943E+02  0.18100748677E+04  0.18089226351E+04 0.  0.
        3    1    3    3  502    0 -0.47307262230E+03  0.50789758028E+03 -0.54798931187E+03  0.88433588311E+03  0.10100000352E+00 0. -1.
       -3    1    3    3    0  502  0.47307262230E+03 -0.50789758028E+03  0.61256428182E+03  0.92573898458E+03  0.10100000352E+00 0.  1.
</event>
<event>
 5   0  0.1603564E-04  0.1804018E+04  0.7818609E-02  0.8704166E-01
        2   -1    0    0  501    0  0.00000000000E+00  0.00000000000E+00  0.10705691162E+04  0.10705691162E+04  0.25500000920E-02 0.  1.
       -2   -1    0    0    0  501  0.00000000000E+00  0.00000000000E+00 -0.75998853073E+03  0.75998853074E+03  0.25500000920E-02 0. -1.
    10030    2    1    2    0    0  0.00000000000E+00  0.00000000000E+00  0.31058058549E+03  0.18305576470E+04  0.18040180151E+04 0.  0.
        5    1    3    3  502    0 -0.34190821652E+03 -0.67488903987E+03  0.65365897165E+03  0.99983427921E+03  0.46999998093E+01 0. -1.
       -5    1    3    3    0  502  0.34190821652E+03  0.67488903987E+03 -0.34307838617E+03  0.83072336775E+03  0.46999998093E+01 0.  1.
</event>
<event>
 5   0  0.8132598E-05  0.1808005E+04  0.7818609E-02  0.8702054E-01
       -1   -1    0    0    0  501  0.00000000000E+00  0.00000000000E+00  0.10840736146E+04  0.10840736146E+04  0.50400001928E-02 0.  1.
        1   -1    0    0  501    0  0.00000000000E+00  0.00000000000E+00 -0.75384244659E+03  0.75384244661E+03  0.50400001928E-02 0. -1.
    10030    2    1    2    0    0  0.00000000000E+00  0.00000000000E+00  0.33023116803E+03  0.18379160612E+04  0.18080052057E+04 0.  0.
        3    1    3    3  502    0 -0.59822713264E+02  0.82480977612E+03 -0.20607007889E+03  0.85226451963E+03  0.10100000352E+00 0. -1.
       -3    1    3    3    0  502  0.59822713264E+02 -0.82480977612E+03  0.53630124692E+03  0.98565154160E+03  0.10100000352E+00 0.  1.
</event>
<event>
 5   0  0.8492114E-05  0.1798116E+04  0.7818609E-02  0.8707302E-01
        1   -1    0    0  501    0  0.00000000000E+00  0.00000000000E+00  0.82281929762E+03  0.82281929764E+03  0.50400001928E-02 0. -1.
       -1   -1    0    0    0  501  0.00000000000E+00  0.00000000000E+00 -0.98236098203E+03  0.98236098204E+03  0.50400001928E-02 0.  1.
    10030    2    1    2    0    0  0.00000000000E+00  0.00000000000E+00 -0.15954168441E+03  0.18051802797E+04  0.17981163180E+04 0.  0.
        2    1    3    3  502    0  0.58451423981E+03 -0.21655134998E+03 -0.73020047349E+03  0.96007505707E+03  0.25500000920E-02 0.  1.
       -2    1    3    3    0  502 -0.58451423981E+03  0.21655134998E+03  0.57065878908E+03  0.84510522261E+03  0.25500000920E-02 0. -1.
</event>
<event>
 5   0  0.8254914E-05  0.1792957E+04  0.7818609E-02  0.8710054E-01
       -1   -1    0    0    0  501  0.00000000000E+00  0.00000000000E+00  0.99900234885E+03  0.99900234887E+03  0.50400001928E-02 0. -1.
        1   -1    0    0  501    0  0.00000000000E+00  0.00000000000E+00 -0.80447641705E+03  0.80447641706E+03  0.50400001928E-02 0.  1.
    10030    2    1    2    0    0  0.00000000000E+00  0.00000000000E+00  0.19452593181E+03  0.18034787659E+04  0.17929571442E+04 0.  0.
        4    1    3    3  502    0  0.47606940663E+03  0.75918683501E+03  0.12321138487E+03  0.90453821846E+03  0.12699999809E+01 0.  1.
       -4    1    3    3    0  502 -0.47606940663E+03 -0.75918683501E+03  0.71314546941E+02  0.89894054747E+03  0.12699999809E+01 0. -1.
</event>
<event>
 5   0  0.1628397E-04  0.1873192E+04  0.7818609E-02  0.8668317E-01
       -2   -1    0    0    0  501  0.00000000000E+00  0.00000000000E+00  0.72803791938E+03  0.72803791938E+03  0.25500000920E-02 0.  1.
        2   -1    0    0  501    0  0.00000000000E+00  0.00000000000E+00 -0.12048987821E+04  0.12048987821E+04  0.25500000920E-02 0. -1.
    10030    2    1    2    0    0  0.00000000000E+00  0.00000000000E+00 -0.47686086272E+03  0.19329367015E+04  0.18731919308E+04 0.  0.
        3    1    3    3  502    0  0.14424779849E+03  0.15819884464E+02 -0.11932281532E+04  0.12020196055E+04  0.10100000352E+00 0. -1.
       -3    1    3    3    0  502 -0.14424779849E+03 -0.15819884464E+02  0.71636729051E+03  0.73091709600E+03  0.10100000352E+00 0.  1.
</event>
<event>
 5   0  0.1628397E-04  0.1804655E+04  0.7818609E-02  0.8703828E-01
       -2   -1    0    0    0  501  0.00000000000E+00  0.00000000000E+00  0.90742898626E+03  0.90742898626E+03  0.25500000920E-02 0.  1.
        2   -1    0    0  501    0  0.00000000000E+00  0.00000000000E+00 -0.89725439135E+03  0.89725439135E+03  0.25500000920E-02 0. -1.
    10030    2    1    2    0    0  0.00000000000E+00  0.00000000000E+00  0.10174594907E+02  0.18046833776E+04  0.18046546958E+04 0.  0.
        3    1    3    3  502    0  0.19608421492E+03 -0.87543912331E+03  0.10179433894E+03  0.90288691186E+03  0.10100000352E+00 0. -1.
       -3    1    3    3    0  502 -0.19608421492E+03  0.87543912331E+03 -0.91619744031E+02  0.90179646576E+03  0.10100000352E+00 0.  1.
</event>
<event>
 5   0  0.1573981E-04  0.1797999E+04  0.7818609E-02  0.8707364E-01
       -2   -1    0    0    0  501  0.00000000000E+00  0.00000000000E+00  0.96685809301E+03  0.96685809301E+03  0.25500000920E-02 0. -1.
        2   -1    0    0  501    0  0.00000000000E+00  0.00000000000E+00 -0.83590380724E+03  0.83590380725E+03  0.25500000920E-02 0.  1.
    10030    2    1    2    0    0  0.00000000000E+00  0.00000000000E+00  0.13095428577E+03  0.18027619003E+04  0.17979992892E+04 0.  0.
        1    1    3    3  502    0  0.75346859971E+02  0.89455030784E+03  0.11359340758E+03  0.90487615994E+03  0.50400001928E-02 0. -1.
       -1    1    3    3    0  502 -0.75346859971E+02 -0.89455030784E+03  0.17360878190E+02  0.89788574032E+03  0.50400001928E-02 0.  1.
</event>
<event>
 5   0  0.8206783E-05  0.1796098E+04  0.7818609E-02  0.8708377E-01
       -1   -1    0    0    0  501  0.00000000000E+00  0.00000000000E+00  0.97859934863E+03  0.97859934864E+03  0.50400001928E-02 0. -1.
        1   -1    0    0  501    0  0.00000000000E+00  0.00000000000E+00 -0.82412876078E+03  0.82412876079E+03  0.50400001928E-02 0.  1.
    10030    2    1    2    0    0  0.00000000000E+00  0.00000000000E+00  0.15447058785E+03  0.18027281094E+04  0.17960978465E+04 0.  0.
        1    1    3    3  502    0 -0.50386375458E+03  0.42736067304E+03  0.68773722017E+03  0.95367620924E+03  0.50400001928E-02 0. -1.
       -1    1    3    3    0  502  0.50386375458E+03 -0.42736067304E+03 -0.53326663232E+03  0.84905190019E+03  0.50400001928E-02 0.  1.
</event>
<event>
 5   0  0.1608627E-04  0.1802289E+04  0.7818609E-02  0.8705083E-01
       -2   -1    0    0    0  501  0.00000000000E+00  0.00000000000E+00  0.51400606936E+03  0.51400606936E+03  0.25500000920E-02 0.  1.
        2   -1    0    0  501    0  0.00000000000E+00  0.00000000000E+00 -0.15798669286E+04  0.15798669286E+04  0.25500000920E-02 0. -1.
    10030    2    1    2    0    0  0.00000000000E+00  0.00000000000E+00 -0.10658608593E+04  0.20938729980E+04  0.18022887561E+04 0.  0.
        2    1    3    3  502    0  0.90053714279E+03  0.29677073570E+02 -0.54989869797E+03  0.10555739919E+04  0.25500000920E-02 0.  1.
       -2    1    3    3    0  502 -0.90053714279E+03 -0.29677073570E+02 -0.51596216128E+03  0.10382990061E+04  0.25500000920E-02 0. -1.
</event>
<event>
 5   0  0.1628397E-04  0.1803036E+04  0.7818609E-02  0.8704687E-01
        2   -1    0    0  501    0  0.00000000000E+00  0.00000000000E+00  0.21025878135E+04  0.21025878135E+04  0.25500000920E-02 0. -1.
       -2   -1    0    0    0  501  0.00000000000E+00  0.00000000000E+00 -0.38654008476E+03  0.38654008477E+03  0.25500000920E-02 0.  1.
    10030    2    1    2    0    0  0.00000000000E+00  0.00000000000E+00  0.17160477287E+04  0.24891278982E+04  0.18030357419E+04 0.  0.
        3    1    3    3  502    0 -0.52181907087E+03 -0.32984307405E+03 -0.48971693147E+02  0.61926555947E+03  0.10100000352E+00 0.  1.
       -3    1    3    3    0  502  0.52181907087E+03  0.32984307405E+03  0.17650194219E+04  0.18698623388E+04  0.10100000352E+00 0. -1.
</event>
<event>
 5   0  0.8206783E-05  0.1795977E+04  0.7818609E-02  0.8708442E-01
        1   -1    0    0  501    0  0.00000000000E+00  0.00000000000E+00  0.93518539708E+03  0.93518539709E+03  0.50400001928E-02 0.  1.
       -1   -1    0    0    0  501  0.00000000000E+00  0.00000000000E+00 -0.86227086911E+03  0.86227086913E+03  0.50400001928E-02 0. -1.
    10030    2    1    2    0    0  0.00000000000E+00  0.00000000000E+00  0.72914527968E+02  0.17974562662E+04  0.17959767539E+04 0.  0.
        1    1    3    3  502    0  0.42823380639E+03 -0.76305049794E+03  0.23849696615E+03  0.90692395394E+03  0.50400001928E-02 0.  1.
       -1    1    3    3    0  502 -0.42823380639E+03  0.76305049794E+03 -0.16558243819E+03  0.89053231228E+03  0.50400001928E-02 0. -1.
</event>
<event>
 5   0  0.1549012E-04  0.1801542E+04  0.7818609E-02  0.8705480E-01
       -2   -1    0    0    0  501  0.00000000000E+00  0.00000000000E+00  0.43072780879E+03  0.43072780880E+03  0.25500000920E-02 0. -1.
        2   -1    0    0  501    0  0.00000000000E+00  0.00000000000E+00 -0.18837603937E+04  0.18837603937E+04  0.25500000920E-02 0.  1.
    10030    2    1    2    0    0  0.00000000000E+00  0.00000000000E+00 -0.14530325850E+04  0.23144882025E+04  0.18015415473E+04 0.  0.
        4    1    3    3  502    0  0.20022682366E+03 -0.36397110257E+03 -0.17533500913E+04  0.18018889810E+04  0.12699999809E+01 0.  1.
       -4    1    3    3    0  502 -0.20022682366E+03  0.36397110257E+03  0.30031750631E+03  0.51259922154E+03  0.12699999809E+01 0. -1.
</event>
<event>
 5   0  0.5820500E-05  0.1786989E+04  0.7818609E-02  0.8713249E-01
       -3   -1    0    0    0  501  0.00000000000E+00  0.00000000000E+00  0.79514665520E+03  0.79514666161E+03  0.10100000352E+00 0.  1.
        3   -1    0    0  501    0  0.00000000000E+00  0.00000000000E+00 -0.10040067768E+04  0.10040067819E+04  0.10100000352E+00 0. -1.
    10030    2    1    2    0    0  0.00000000000E+00  0.00000000000E+00 -0.20886012159E+03  0.17991534435E+04  0.17869892453E+04 0.  0.
        1    1    3    3  502    0  0.78123961888E+03  0.43329576599E+03 -0.88445028850E+02  0.89772105138E+03  0.50400001928E-02 0. -1.
       -1    1    3    3    0  502 -0.78123961888E+03 -0.43329576599E+03 -0.12041509274E+03  0.90143239210E+03  0.50400001928E-02 0.  1.
</event>
<event>
 5   0  0.1603564E-04  0.1800375E+04  0.7818609E-02  0.8706100E-01
        2   -1    0    0  501    0  0.00000000000E+00  0.00000000000E+00  0.15944255009E+04  0.15944255009E+04  0.25500000920E-02 0. -1.
       -2   -1    0    0    0  501  0.00000000000E+00  0.00000000000E+00 -0.50823155914E+03  0.50823155914E+03  0.25500000920E-02 0.  1.
    10030    2    1    2    0    0  0.00000000000E+00  0.00000000000E+00  0.10861939418E+04  0.21026570601E+04  0.18003748035E+04 0.  0.
        5    1    3    3  502    0 -0.71373305226E+03  0.46300970631E+03  0.88663104818E+03  0.12287919123E+04  0.46999998093E+01 0. -1.
       -5    1    3    3    0  502  0.71373305226E+03 -0.46300970631E+03  0.19956289359E+03  0.87386514780E+03  0.46999998093E+01 0.  1.
</event>
<event>
 5   0  0.1549012E-04  0.1769052E+04  0.7818609E-02  0.8722933E-01
        2   -1    0    0  501    0  0.00000000000E+00  0.00000000000E+00  0.17604462732E+04  0.17604462732E+04  0.25500000920E-02 0. -1.
       -2   -1    0    0    0  501  0.00000000000E+00  0.00000000000E+00 -0.44442487337E+03  0.44442487338E+03  0.25500000920E-02 0.  1.
    10030    2    1    2    0    0  0.00000000000E+00  0.00000000000E+00  0.13160213999E+04  0.22048711466E+04  0.17690518501E+04 0.  0.
        4    1    3    3  502    0 -0.30489237076E+03 -0.50612347919E+03  0.14783982054E+04  0.15921002483E+04  0.12699999809E+01 0. -1.
       -4    1    3    3    0  502  0.30489237076E+03  0.50612347919E+03 -0.16237680555E+03  0.61277089831E+03  0.12699999809E+01 0.  1.
</event>
<event>
 5   0  0.1628397E-04  0.1851659E+04  0.7818609E-02  0.8679300E-01
        2   -1    0    0  501    0  0.00000000000E+00  0.00000000000E+00  0.61968388161E+03  0.61968388162E+03  0.25500000920E-02 0.  1.
       -2   -1    0    0    0  501  0.00000000000E+00  0.00000000000E+00 -0.13832222686E+04  0.13832222686E+04  0.25500000920E-02 0. -1.
    10030    2    1    2    0    0  0.00000000000E+00  0.00000000000E+00 -0.76353838700E+03  0.20029061502E+04  0.18516593040E+04 0.  0.
        3    1    3    3  502    0  0.91086353495E+02  0.32803235268E+03 -0.13130580082E+04  0.13564745819E+04  0.10100000352E+00 0. -1.
       -3    1    3    3    0  502 -0.91086353495E+02 -0.32803235268E+03  0.54951962123E+03  0.64643156832E+03  0.10100000352E+00 0.  1.
</event>
<event>
 5   0  0.1628397E-04  0.1806171E+04  0.7818609E-02  0.8703025E-01
        2   -1    0    0  501    0  0.00000000000E+00  0.00000000000E+00  0.15238704603E+04  0.15238704603E+04  0.25500000920E-02 0. -1.
       -2   -1    0    0    0  501  0.00000000000E+00  0.00000000000E+00 -0.53519179639E+03  0.53519179639E+03  0.25500000920E-02 0.  1.
    10030    2    1    2    0    0  0.00000000000E+00  0.00000000000E+00  0.98867866392E+03  0.20590622567E+04  0.18061705004E+04 0.  0.
        3    1    3    3  502    0 -0.57055354214E+03 -0.69332458911E+03  0.60447112879E+03  0.10824119761E+04  0.10100000352E+00 0. -1.
       -3    1    3    3    0  502  0.57055354214E+03  0.69332458911E+03  0.38420753513E+03  0.97665028058E+03  0.10100000352E+00 0.  1.
</event>
<event>
 5   0  0.1549012E-04  0.1790368E+04  0.7818609E-02  0.8711438E-01
        2   -1    0    0  501    0  0.00000000000E+00  0.00000000000E+00  0.12175797945E+04  0.12175797945E+04  0.25500000920E-02 0.  1.
       -2   -1    0    0    0  501  0.00000000000E+00  0.00000000000E+00 -0.65815374346E+03  0.65815374346E+03  0.25500000920E-02 0. -1.
    10030    2    1    2    0    0  0.00000000000E+00  0.00000000000E+00  0.55942605104E+03  0.18757335380E+04  0.17903683417E+04 0.  0.
        4    1    3    3  502    0 -0.67581500883E+03  0.27830599527E+03 -0.26182004502E+03  0.77635784406E+03  0.12699999809E+01 0. -1.
       -4    1    3    3    0  502  0.67581500883E+03 -0.27830599527E+03  0.82124609606E+03  0.10993756939E+04  0.12699999809E+01 0.  1.
</event>
<event>
 5   0  0.1628397E-04  0.1792264E+04  0.7818609E-02  0.8710424E-01
        2   -1    0    0  501    0  0.00000000000E+00  0.00000000000E+00  0.21215105305E+04  0.21215105305E+04  0.25500000920E-02 0. -1.
       -2   -1    0    0    0  501  0.00000000000E+00  0.00000000000E+00 -0.37852855260E+03  0.37852855261E+03  0.25500000920E-02 0.  1.
    10030    2    1    2    0    0  0.00000000000E+00  0.00000000000E+00  0.17429819779E+04  0.25000390831E+04  0.17922637199E+04 0.  0.
        3    1    3    3  502    0 -0.49692961648E+03  0.32251503651E+03 -0.66418316693E+02  0.59612615737E+03  0.10100000352E+00 0.  1.
       -3    1    3    3    0  502  0.49692961648E+03 -0.32251503651E+03  0.18094002946E+04  0.19039129257E+04  0.10100000352E+00 0. -1.
</event>
<event>
 5   0  0.8430513E-05  0.1781834E+04  0.7818609E-02  0.8716020E-01
       -1   -1    0    0    0  501  0.00000000000E+00  0.00000000000E+00  0.11300641972E+04  0.11300641972E+04  0.50400001928E-02 0.  1.
        1   -1    0    0  501    0  0.00000000000E+00  0.00000000000E+00 -0.70237838108E+03  0.70237838110E+03  0.50400001928E-02 0. -1.
    10030    2    1    2    0    0  0.00000000000E+00  0.00000000000E+00  0.42768581610E+03  0.18324425783E+04  0.17818335066E+04 0.  0.
        5    1    3    3  502    0 -0.23192014957E+03 -0.59575562932E+03 -0.42426329541E+03  0.76728948870E+03  0.46999998093E+01 0. -1.
       -5    1    3    3    0  502  0.23192014957E+03  0.59575562932E+03  0.85194911151E+03  0.10651530896E+04  0.46999998093E+01 0.  1.
</event>
<event>
 5   0  0.1573981E-04  0.1796716E+04  0.7818609E-02  0.8708048E-01
        2   -1    0    0  501    0  0.00000000000E+00  0.00000000000E+00  0.10735655720E+04  0.10735655720E+04  0.25500000920E-02 0.  1.
       -2   -1    0    0    0  501  0.00000000000E+00  0.00000000000E+00 -0.75174472858E+03  0.75174472858E+03  0.25500000920E-02 0. -1.
    10030    2    1    2    0    0  0.00000000000E+00  0.00000000000E+00  0.32182084343E+03  0.18253103006E+04  0.17967161819E+04 0.  0.
        1    1    3    3  502    0 -0.48793082888E+03 -0.88453705840E+02 -0.60010846482E+03  0.77847975017E+03  0.50400001928E-02 0. -1.
       -1    1    3    3    0  502  0.48793082888E+03  0.88453705840E+02  0.92192930826E+03  0.10468305504E+04  0.50400001928E-02 0.  1.
</event>
<event>
 5   0  0.8132598E-05  0.1792240E+04  0.7818609E-02  0.8710437E-01
        1   -1    0    0  501    0  0.00000000000E+00  0.00000000000E+00  0.70397712711E+03  0.70397712713E+03  0.50400001928E-02 0.  1.
       -1   -1    0    0    0  501  0.00000000000E+00  0.00000000000E+00 -0.11407056257E+04  0.11407056257E+04  0.50400001928E-02 0. -1.
    10030    2    1    2    0    0  0.00000000000E+00  0.00000000000E+00 -0.43672849858E+03  0.18446827528E+04  0.17922395702E+04 0.  0.
        3    1    3    3  502    0  0.11024743880E+03 -0.64454409961E+03 -0.84902434931E+03  0.10716501062E+04  0.10100000352E+00 0. -1.
       -3    1    3    3    0  502 -0.11024743880E+03  0.64454409961E+03  0.41229585073E+03  0.77303264668E+03  0.10100000352E+00 0.  1.
</event>
<event>
 5   0  0.1549012E-04  0.1797001E+04  0.7818609E-02  0.8707896E-01
        2   -1    0    0  501    0  0.00000000000E+00  0.00000000000E+00  0.16686335505E+04  0.16686335505E+04  0.25500000920E-02 0.  1.
       -2   -1    0    0    0  501  0.00000000000E+00  0.00000000000E+00 -0.48381107179E+03  0.48381107179E+03  0.25500000920E-02 0. -1.
    10030    2    1    2    0    0  0.00000000000E+00  0.00000000000E+00  0.11848224787E+04  0.21524446222E+04  0.17970012649E+04 0.  0.
        4    1    3    3  502    0 -0.56989639474E+02  0.27922126010E+03  0.16130655287E+04  0.16380458918E+04  0.12699999809E+01 0.  1.
       -4    1    3    3    0  502  0.56989639474E+02 -0.27922126010E+03 -0.42824304999E+03  0.51439873042E+03  0.12699999809E+01 0. -1.
</event>
<event>
 5   0  0.1549012E-04  0.1782565E+04  0.7818609E-02  0.8715627E-01
        2   -1    0    0  501    0  0.00000000000E+00  0.00000000000E+00  0.14702312663E+04  0.14702312663E+04  0.25500000920E-02 0.  1.
       -2   -1    0    0    0  501  0.00000000000E+00  0.00000000000E+00 -0.54031239725E+03  0.54031239726E+03  0.25500000920E-02 0. -1.
    10030    2    1    2    0    0  0.00000000000E+00  0.00000000000E+00  0.92991886906E+03  0.20105436636E+04  0.17825646468E+04 0.  0.
        4    1    3    3  502    0 -0.78517516686E+03  0.38429128003E+03  0.66097536457E+03  0.10959333356E+04  0.12699999809E+01 0. -1.
       -4    1    3    3    0  502  0.78517516686E+03 -0.38429128003E+03  0.26894350449E+03  0.91461032800E+03  0.12699999809E+01 0.  1.
</event>
<event>
 5   0  0.1549012E-04  0.1808760E+04  0.7818609E-02  0.8701655E-01
        2   -1    0    0  501    0  0.00000000000E+00  0.00000000000E+00  0.94579759593E+03  0.94579759593E+03  0.25500000920E-02 0. -1.
       -2   -1    0    0    0  501  0.00000000000E+00  0.00000000000E+00 -0.86477660268E+03  0.86477660268E+03  0.25500000920E-02 0.  1.
    10030    2    1    2    0    0  0.00000000000E+00  0.00000000000E+00  0.81020993254E+02  0.18105741986E+04  0.18087604947E+04 0.  0.
        4    1    3    3  502    0 -0.55827901140E+03 -0.23851471431E+03 -0.63048792208E+03  0.87526073618E+03  0.12699999809E+01 0.  1.
       -4    1    3    3    0  502  0.55827901140E+03  0.23851471431E+03  0.71150891533E+03  0.93531346243E+03  0.12699999809E+01 0. -1.
</event>
<event>
 5   0  0.1573981E-04  0.1803182E+04  0.7818609E-02  0.8704609E-01
        2   -1    0    0  501    0  0.00000000000E+00  0.00000000000E+00  0.10048045244E+04  0.10048045244E+04  0.25500000920E-02 0. -1.
       -2   -1    0    0    0  501  0.00000000000E+00  0.00000000000E+00 -0.80897941255E+03  0.80897941255E+03  0.25500000920E-02 0.  1.
    10030    2    1    2    0    0  0.00000000000E+00  0.00000000000E+00  0.19582511185E+03  0.18137839370E+04  0.18031818254E+04 0.  0.
        1    1    3    3  502    0  0.33466915629E+03  0.76029032247E+03  0.45043191562E+03  0.94495170737E+03  0.50400001928E-02 0. -1.
       -1    1    3    3    0  502 -0.33466915629E+03 -0.76029032247E+03 -0.25460680378E+03  0.86883222959E+03  0.50400001928E-02 0.  1.
</event>
<event>
 5   0  0.8254914E-05  0.1782875E+04  0.7818609E-02  0.8715460E-01
       -1   -1    0    0    0  501  0.00000000000E+00  0.00000000000E+00  0.47252269554E+03  0.47252269556E+03  0.50400001928E-02 0.  1.
        1   -1    0    0  501    0  0.00000000000E+00  0.00000000000E+00 -0.16817406511E+04  0.16817406512E+04  0.50400001928E-02 0. -1.
    10030    2    1    2    0    0  0.00000000000E+00  0.00000000000E+00 -0.12092179556E+04  0.21542633467E+04  0.17828747861E+04 0.  0.
        4    1    3    3  502    0  0.70639820136E+01  0.68654497336E+03 -0.12916099755E+04  0.14627548810E+04  0.12699999809E+01 0. -1.
       -4    1    3    3    0  502 -0.70639820136E+01 -0.68654497336E+03  0.82392019877E+02  0.69150846569E+03  0.12699999809E+01 0.  1.
</event>
<event>
 5   0  0.8430513E-05  0.1790096E+04  0.7818609E-02  0.8711584E-01
        1   -1    0    0  501    0  0.00000000000E+00  0.00000000000E+00  0.41200408409E+03  0.41200408412E+03  0.50400001928E-02 0.  1.
       -1   -1    0    0    0  501  0.00000000000E+00  0.00000000000E+00 -0.19444237804E+04  0.19444237804E+04  0.50400001928E-02 0. -1.
    10030    2    1    2    0    0  0.00000000000E+00  0.00000000000E+00 -0.15324196963E+04  0.23564278645E+04  0.17900955715E+04 0.  0.
        5    1    3    3  502    0  0.70334818873E+03  0.74969618026E+02 -0.44280485495E+02  0.70873265030E+03  0.46999998093E+01 0.  1.
       -5    1    3    3    0  502 -0.70334818873E+03 -0.74969618026E+02 -0.14881392108E+04  0.16476952142E+04  0.46999998093E+01 0. -1.
</event>
<event>
 5   0  0.1549012E-04  0.1794081E+04  0.7818609E-02  0.8709453E-01
       -2   -1    0    0    0  501  0.00000000000E+00  0.00000000000E+00  0.39818598525E+03  0.39818598525E+03  0.25500000920E-02 0.  1.
        2   -1    0    0  501    0  0.00000000000E+00  0.00000000000E+00 -0.20208694774E+04  0.20208694775E+04  0.25500000920E-02 0. -1.
    10030    2    1    2    0    0  0.00000000000E+00  0.00000000000E+00 -0.16226834922E+04  0.24190554627E+04  0.17940812735E+04 0.  0.
        4    1    3    3  502    0 -0.21156929063E+02  0.36327565731E+03 -0.19168792239E+04  0.19511136284E+04  0.12699999809E+01 0. -1.
       -4    1    3    3    0  502  0.21156929063E+02 -0.36327565731E+03  0.29419573172E+03  0.46794183432E+03  0.12699999809E+01 0.  1.
</event>
<event>
 5   0  0.1573981E-04  0.1587396E+04  0.7818609E-02  0.8828329E-01
       -2   -1    0    0    0  501  0.00000000000E+00  0.00000000000E+00  0.92067095473E+03  0.92067095474E+03  0.25500000920E-02 0. -1.
        2   -1    0    0  501    0  0.00000000000E+00  0.00000000000E+00 -0.68423599012E+03  0.68423599012E+03  0.25500000920E-02 0.  1.
    10030    2    1    2    0    0  0.00000000000E+00  0.00000000000E+00  0.23643496461E+03  0.16049069449E+04  0.15873956058E+04 0.  0.
        1    1    3    3  502    0  0.26524837677E+03  0.53483432934E+03  0.64700893203E+03  0.88035505302E+03  0.50400001928E-02 0. -1.
       -1    1    3    3    0  502 -0.26524837677E+03 -0.53483432934E+03 -0.41057396742E+03  0.72455189184E+03  0.50400001928E-02 0.  1.
</event>
<event>
 5   0  0.1608627E-04  0.1805248E+04  0.7818609E-02  0.8703514E-01
        2   -1    0    0  501    0  0.00000000000E+00  0.00000000000E+00  0.80066622888E+03  0.80066622888E+03  0.25500000920E-02 0. -1.
       -2   -1    0    0    0  501  0.00000000000E+00  0.00000000000E+00 -0.10175651693E+04  0.10175651693E+04  0.25500000920E-02 0.  1.
    10030    2    1    2    0    0  0.00000000000E+00  0.00000000000E+00 -0.21689894042E+03  0.18182313982E+04  0.18052479794E+04 0.  0.
        2    1    3    3  502    0 -0.12451715344E+03  0.18019099200E+03  0.77349469221E+03  0.80390755313E+03  0.25500000920E-02 0. -1.
       -2    1    3    3    0  502  0.12451715344E+03 -0.18019099200E+03 -0.99039363263E+03  0.10143238451E+04  0.25500000920E-02 0.  1.
</event>
<event>
 5   0  0.1603564E-04  0.1796301E+04  0.7818609E-02  0.8708269E-01
        2   -1    0    0  501    0  0.00000000000E+00  0.00000000000E+00  0.13033442289E+04  0.13033442289E+04  0.25500000920E-02 0.  1.
       -2   -1    0    0    0  501  0.00000000000E+00  0.00000000000E+00 -0.61892652324E+03  0.61892652324E+03  0.25500000920E-02 0. -1.
    10030    2    1    2    0    0  0.00000000000E+00  0.00000000000E+00  0.68441770566E+03  0.19222707521E+04  0.17963009906E+04 0.  0.
        5    1    3    3  502    0 -0.12785806406E+03 -0.74722546617E+03  0.85760447574E+03  0.11446401656E+04  0.46999998093E+01 0.  1.
       -5    1    3    3    0  502  0.12785806406E+03  0.74722546617E+03 -0.17318677008E+03  0.77763058657E+03  0.46999998093E+01 0. -1.
</event>
<event>
 5   0  0.1608627E-04  0.1818326E+04  0.7818609E-02  0.8696614E-01
        2   -1    0    0  501    0  0.00000000000E+00  0.00000000000E+00  0.25564775034E+04  0.25564775034E+04  0.25500000920E-02 0. -1.
       -2   -1    0    0    0  501  0.00000000000E+00  0.00000000000E+00 -0.32332669724E+03  0.32332669725E+03  0.25500000920E-02 0.  1.
    10030    2    1    2    0    0  0.00000000000E+00  0.00000000000E+00  0.22331508062E+04  0.28798042007E+04  0.18183260739E+04 0.  0.
        2    1    3    3  502    0  0.44695794601E+03 -0.43903538474E+03  0.21600047626E+04  0.22490318025E+04  0.25500000920E-02 0.  1.
       -2    1    3    3    0  502 -0.44695794601E+03  0.43903538474E+03  0.73146043630E+02  0.63077239814E+03  0.25500000920E-02 0. -1.
</event>
<event>
 5   0  0.8132598E-05  0.1799215E+04  0.7818609E-02  0.8706717E-01
        1   -1    0    0  501    0  0.00000000000E+00  0.00000000000E+00  0.11035977478E+04  0.11035977478E+04  0.50400001928E-02 0. -1.
       -1   -1    0    0    0  501  0.00000000000E+00  0.00000000000E+00 -0.73332309476E+03  0.73332309478E+03  0.50400001928E-02 0.  1.
    10030    2    1    2    0    0  0.00000000000E+00  0.00000000000E+00  0.37027465303E+03  0.18369208426E+04  0.17992150686E+04 0.  0.
        3    1    3    3  502    0 -0.89632991706E+03 -0.86855536904E+00  0.26346295311E+03  0.93424879580E+03  0.10100000352E+00 0.  1.
       -3    1    3    3    0  502  0.89632991706E+03  0.86855536904E+00  0.10681169992E+03  0.90267204678E+03  0.10100000352E+00 0. -1.
</event>
<event>
 5   0  0.1573981E-04  0.1800883E+04  0.7818609E-02  0.8705830E-01
        2   -1    0    0  501    0  0.00000000000E+00  0.00000000000E+00  0.10749894358E+04  0.10749894358E+04  0.25500000920E-02 0. -1.
       -2   -1    0    0    0  501  0.00000000000E+00  0.00000000000E+00 -0.75423529345E+03  0.75423529346E+03  0.25500000920E-02 0.  1.
    10030    2    1    2    0    0  0.00000000000E+00  0.00000000000E+00  0.32075414233E+03  0.18292247292E+04  0.18008830862E+04 0.  0.
        1    1    3    3  502    0 -0.98237218738E+02  0.35093102015E+03  0.99673808106E+03  0.10612680784E+04  0.50400001928E-02 0. -1.
       -1    1    3    3    0  502  0.98237218738E+02 -0.35093102015E+03 -0.67598393874E+03  0.76795665080E+03  0.50400001928E-02 0.  1.
</event>
<event>
 5   0  0.8492114E-05  0.1809179E+04  0.7818609E-02  0.8701433E-01
        1   -1    0    0  501    0  0.00000000000E+00  0.00000000000E+00  0.11994284290E+04  0.11994284290E+04  0.50400001928E-02 0. -1.
       -1   -1    0    0    0  501  0.00000000000E+00  0.00000000000E+00 -0.68222685833E+03  0.68222685835E+03  0.50400001928E-02 0.  1.
    10030    2    1    2    0    0  0.00000000000E+00  0.00000000000E+00  0.51720157069E+03  0.18816552874E+04  0.18091791387E+04 0.  0.
        2    1    3    3  502    0 -0.89424920307E+03  0.13379616816E+03  0.28610319448E+03  0.94838709908E+03  0.25500000920E-02 0.  1.
       -2    1    3    3    0  502  0.89424920307E+03 -0.13379616816E+03  0.23109837621E+03  0.93326818830E+03  0.25500000920E-02 0. -1.
</event>
<event>
 5   0  0.8254914E-05  0.1794423E+04  0.7818609E-02  0.8709271E-01
        1   -1    0    0  501    0  0.00000000000E+00  0.00000000000E+00  0.88729766120E+03  0.88729766121E+03  0.50400001928E-02 0.  1.
       -1   -1    0    0    0  501  0.00000000000E+00  0.00000000000E+00 -0.90723630720E+03  0.90723630722E+03  0.50400001928E-02 0. -1.
    10030    2    1    2    0    0  0.00000000000E+00  0.00000000000E+00 -0.19938646006E+02  0.17945339684E+04  0.17944231982E+04 0.  0.
        4    1    3    3  502    0 -0.52582205490E+03 -0.68008602405E+03 -0.26685325295E+03  0.90012116130E+03  0.12699999809E+01 0. -1.
       -4    1    3    3    0  502  0.52582205490E+03  0.68008602405E+03  0.24691460695E+03  0.89441280712E+03  0.12699999809E+01 0.  1.
</event>
<event>
 5   0  0.1628397E-04  0.1803800E+04  0.7818609E-02  0.8704281E-01
       -2   -1    0    0    0  501  0.00000000000E+00  0.00000000000E+00  0.55309571748E+03  0.55309571749E+03  0.25500000920E-02 0.  1.
        2   -1    0    0  501    0  0.00000000000E+00  0.00000000000E+00 -0.14706747894E+04  0.14706747894E+04  0.25500000920E-02 0. -1.
    10030    2    1    2    0    0  0.00000000000E+00  0.00000000000E+00 -0.91757907195E+03  0.20237705069E+04  0.18038003524E+04 0.  0.
        3    1    3    3  502    0 -0.39315672453E+03 -0.64708491648E+03 -0.10085817107E+04  0.12611614395E+04  0.10100000352E+00 0. -1.
       -3    1    3    3    0  502  0.39315672453E+03  0.64708491648E+03  0.91002638779E+02  0.76260906738E+03  0.10100000352E+00 0.  1.
</event>
<event>
 5   0  0.1603564E-04  0.1815935E+04  0.7818609E-02  0.8697871E-01
       -2   -1    0    0    0  501  0.00000000000E+00  0.00000000000E+00  0.71244224642E+03  0.71244224642E+03  0.25500000920E-02 0. -1.
        2   -1    0    0  501    0  0.00000000000E+00  0.00000000000E+00 -0.11571537325E+04  0.11571537325E+04  0.25500000920E-02 0.  1.
    10030    2    1    2    0    0  0.00000000000E+00  0.00000000000E+00 -0.44471148610E+03  0.18695959789E+04  0.18159352463E+04 0.  0.
        5    1    3    3  502    0  0.10554812718E+03 -0.90142170534E+03 -0.19547647116E+03  0.92840435091E+03  0.46999998093E+01 0.  1.
       -5    1    3    3    0  502 -0.10554812718E+03  0.90142170534E+03 -0.24923501494E+03  0.94119162803E+03  0.46999998093E+01 0. -1.
</event>
<event>
 5   0  0.1603564E-04  0.1806226E+04  0.7818609E-02  0.8702995E-01
        2   -1    0    0  501    0  0.00000000000E+00  0.00000000000E+00  0.13072729654E+04  0.13072729655E+04  0.25500000920E-02 0. -1.
       -2   -1    0    0    0  501  0.00000000000E+00  0.00000000000E+00 -0.62390432038E+03  0.62390432038E+03  0.25500000920E-02 0.  1.
    10030    2    1    2    0    0  0.00000000000E+00  0.00000000000E+00  0.68336864507E+03  0.19311772858E+04  0.18062261775E+04 0.  0.
        5    1    3    3  502    0 -0.14593179850E+03  0.15128828775E+03  0.12807409437E+04  0.12978843133E+04  0.46999998093E+01 0. -1.
       -5    1    3    3    0  502  0.14593179850E+03 -0.15128828775E+03 -0.59737229866E+03  0.63329297251E+03  0.46999998093E+01 0.  1.
</event>
<event>
 5   0  0.1573981E-04  0.1806213E+04  0.7818609E-02  0.8703002E-01
        2   -1    0    0  501    0  0.00000000000E+00  0.00000000000E+00  0.75181005900E+03  0.75181005901E+03  0.25500000920E-02 0.  1.
       -2   -1    0    0    0  501  0.00000000000E+00  0.00000000000E+00 -0.10848505886E+04  0.10848505886E+04  0.25500000920E-02 0. -1.
    10030    2    1    2    0    0  0.00000000000E+00  0.00000000000E+00 -0.33304052963E+03  0.18366606476E+04  0.18062132599E+04 0.  0.
        1    1    3    3  502    0  0.64423946898E+03 -0.26115078196E+03 -0.75274284878E+03  0.10246296993E+04  0.50400001928E-02 0. -1.
       -1    1    3    3    0  502 -0.64423946898E+03  0.26115078196E+03  0.41970231915E+03  0.81203094832E+03  0.50400001928E-02 0.  1.
</event>
<event>
 5   0  0.8254914E-05  0.1806850E+04  0.7818609E-02  0.8702665E-01
        1   -1    0    0  501    0  0.00000000000E+00  0.00000000000E+00  0.10346745601E+04  0.10346745601E+04  0.50400001928E-02 0. -1.
       -1   -1    0    0    0  501  0.00000000000E+00  0.00000000000E+00 -0.78882416280E+03  0.78882416282E+03  0.50400001928E-02 0.  1.
    10030    2    1    2    0    0  0.00000000000E+00  0.00000000000E+00  0.24585039728E+03  0.18234987229E+04  0.18068495163E+04 0.  0.
        4    1    3    3  502    0  0.61196985825E+02 -0.14401656141E+03 -0.77504255466E+03  0.79068224684E+03  0.12699999809E+01 0.  1.
       -4    1    3    3    0  502 -0.61196985825E+02  0.14401656141E+03  0.10208929519E+04  0.10328164761E+04  0.12699999809E+01 0. -1.
</event>
<event>
 5   0  0.5820500E-05  0.1898956E+04  0.7818609E-02  0.8655376E-01
       -3   -1    0    0    0  501  0.00000000000E+00  0.00000000000E+00  0.99045346151E+03  0.99045346666E+03  0.10100000352E+00 0.  1.
        3   -1    0    0  501    0  0.00000000000E+00  0.00000000000E+00 -0.91019742186E+03  0.91019742746E+03  0.10100000352E+00 0. -1.
    10030    2    1    2    0    0  0.00000000000E+00  0.00000000000E+00  0.80256039656E+02  0.19006508941E+04  0.18989557102E+04 0.  0.
        4    1    3    3  502    0 -0.81211620168E+03 -0.71104464680E+02  0.52730477758E+03  0.97089675624E+03  0.12699999809E+01 0. -1.
       -4    1    3    3    0  502  0.81211620168E+03  0.71104464680E+02 -0.44704873792E+03  0.92975413788E+03  0.12699999809E+01 0.  1.
</event>
<event>
 5   0  0.1603564E-04  0.1766792E+04  0.7818609E-02  0.8724161E-01
       -2   -1    0    0    0  501  0.00000000000E+00  0.00000000000E+00  0.77740231209E+03  0.77740231209E+03  0.25500000920E-02 0.  1.
        2   -1    0    0  501    0  0.00000000000E+00  0.00000000000E+00 -0.10038411643E+04  0.10038411643E+04  0.25500000920E-02 0. -1.
    10030    2    1    2    0    0  0.00000000000E+00  0.00000000000E+00 -0.22643885221E+03  0.17812434764E+04  0.17667919426E+04 0.  0.
        5    1    3    3  502    0  0.21161668396E+03 -0.53533783697E+03  0.56233468873E+03  0.80474257547E+03  0.46999998093E+01 0.  1.
       -5    1    3    3    0  502 -0.21161668396E+03  0.53533783697E+03 -0.78877354093E+03  0.97650090092E+03  0.46999998093E+01 0. -1.
</event>
<event>
 5   0  0.1608627E-04  0.1841311E+04  0.7818609E-02  0.8684634E-01
        2   -1    0    0  501    0  0.00000000000E+00  0.00000000000E+00  0.72651340076E+03  0.72651340076E+03  0.25500000920E-02 0.  1.
       -2   -1    0    0    0  501  0.00000000000E+00  0.00000000000E+00 -0.11666771047E+04  0.11666771047E+04  0.25500000920E-02 0. -1.
    10030    2    1    2    0    0  0.00000000000E+00  0.00000000000E+00 -0.44016370398E+03  0.18931905055E+04  0.18413110014E+04 0.  0.
        2    1    3    3  502    0 -0.37887183504E+03  0.56450019888E+03 -0.85838100715E+03  0.10949987650E+04  0.25500000920E-02 0. -1.
       -2    1    3    3    0  502  0.37887183504E+03 -0.56450019888E+03  0.41821730317E+03  0.79819174050E+03  0.25500000920E-02 0.  1.
</event>
<event>
 5   0  0.1628397E-04  0.1805540E+04  0.7818609E-02  0.8703359E-01
       -2   -1    0    0    0  501  0.00000000000E+00  0.00000000000E+00  0.28198246209E+03  0.28198246210E+03  0.25500000920E-02 0. -1.
        2   -1    0    0  501    0  0.00000000000E+00  0.00000000000E+00 -0.28902269654E+04  0.28902269654E+04  0.25500000920E-02 0.  1.
    10030    2    1    2    0    0  0.00000000000E+00  0.00000000000E+00 -0.26082445033E+04  0.31722094275E+04  0.18055396044E+04 0.  0.
        3    1    3    3  502    0  0.85926092031E+03 -0.24024262625E+03 -0.10622810476E+04  0.13872587657E+04  0.10100000352E+00 0. -1.
       -3    1    3    3    0  502 -0.85926092031E+03  0.24024262625E+03 -0.15459634557E+04  0.17849506619E+04  0.10100000352E+00 0.  1.
</event>
<event>
 5   0  0.8206783E-05  0.1846690E+04  0.7818609E-02  0.8681857E-01
       -1   -1    0    0    0  501  0.00000000000E+00  0.00000000000E+00  0.13125228111E+04  0.13125228111E+04  0.50400001928E-02 0. -1.
        1   -1    0    0  501    0  0.00000000000E+00  0.00000000000E+00 -0.64956289888E+03  0.64956289889E+03  0.50400001928E-02 0.  1.
    10030    2    1    2    0    0  0.00000000000E+00  0.00000000000E+00  0.66295991221E+03  0.19620857100E+04  0.18466901441E+04 0.  0.
        1    1    3    3  502    0  0.43154623557E+03  0.67811127701E+03 -0.15133752704E+03  0.81790592647E+03  0.50400001928E-02 0. -1.
       -1    1    3    3    0  502 -0.43154623557E+03 -0.67811127701E+03  0.81429743925E+03  0.11441797835E+04  0.50400001928E-02 0.  1.
</event>
<event>
 5   0  0.1628397E-04  0.1793303E+04  0.7818609E-02  0.8709869E-01
        2   -1    0    0  501    0  0.00000000000E+00  0.00000000000E+00  0.10796252759E+04  0.10796252759E+04  0.25500000920E-02 0. -1.
       -2   -1    0    0    0  501  0.00000000000E+00  0.00000000000E+00 -0.74468793011E+03  0.74468793011E+03  0.25500000920E-02 0.  1.
    10030    2    1    2    0    0  0.00000000000E+00  0.00000000000E+00  0.33493734576E+03  0.18243132060E+04  0.17933029995E+04 0.  0.
        3    1    3    3  502    0 -0.44596648827E+03 -0.20825387874E+03 -0.59497683098E+03  0.77217434966E+03  0.10100000352E+00 0.  1.
       -3    1    3    3    0  502  0.44596648827E+03  0.20825387874E+03  0.92991417674E+03  0.10521388563E+04  0.10100000352E+00 0. -1.
</event>
<event>
 5   0  0.1603564E-04  0.1822428E+04  0.7818609E-02  0.8694463E-01
       -2   -1    0    0    0  501  0.00000000000E+00  0.00000000000E+00  0.82942212503E+03  0.82942212503E+03  0.25500000920E-02 0. -1.
        2   -1    0    0  501    0  0.00000000000E+00  0.00000000000E+00 -0.10010718200E+04  0.10010718200E+04  0.25500000920E-02 0.  1.
    10030    2    1    2    0    0  0.00000000000E+00  0.00000000000E+00 -0.17164969500E+03  0.18304939451E+04  0.18224281783E+04 0.  0.
        5    1    3    3  502    0  0.40657934844E+03  0.80291035951E+03  0.57344470283E+02  0.90182165102E+03  0.46999998093E+01 0. -1.
       -5    1    3    3    0  502 -0.40657934844E+03 -0.80291035951E+03 -0.22899416528E+03  0.92867229404E+03  0.46999998093E+01 0.  1.
</event>
<event>
 5   0  0.8206783E-05  0.1798721E+04  0.7818609E-02  0.8706980E-01
       -1   -1    0    0    0  501  0.00000000000E+00  0.00000000000E+00  0.53470513958E+03  0.53470513960E+03  0.50400001928E-02 0.  1.
        1   -1    0    0  501    0  0.00000000000E+00  0.00000000000E+00 -0.15127013693E+04  0.15127013693E+04  0.50400001928E-02 0. -1.
    10030    2    1    2    0    0  0.00000000000E+00  0.00000000000E+00 -0.97799622972E+03  0.20474065089E+04  0.17987208753E+04 0.  0.
        1    1    3    3  502    0  0.59369756633E+03  0.67362303221E+03 -0.43090900328E+03  0.99595550047E+03  0.50400001928E-02 0. -1.
       -1    1    3    3    0  502 -0.59369756633E+03 -0.67362303221E+03 -0.54708722645E+03  0.10514510084E+04  0.50400001928E-02 0.  1.
</event>
<event>
 5   0  0.8492114E-05  0.1805926E+04  0.7818609E-02  0.8703154E-01
        1   -1    0    0  501    0  0.00000000000E+00  0.00000000000E+00  0.91981918622E+03  0.91981918623E+03  0.50400001928E-02 0. -1.
       -1   -1    0    0    0  501  0.00000000000E+00  0.00000000000E+00 -0.88641570131E+03  0.88641570132E+03  0.50400001928E-02 0.  1.
    10030    2    1    2    0    0  0.00000000000E+00  0.00000000000E+00  0.33403484909E+02  0.18062348876E+04  0.18059259886E+04 0.  0.
        2    1    3    3  502    0 -0.80337109152E+03 -0.40166040281E+03 -0.76082542222E+02  0.90140154377E+03  0.25500000920E-02 0. -1.
       -2    1    3    3    0  502  0.80337109152E+03  0.40166040281E+03  0.10948602713E+03  0.90483334378E+03  0.25500000920E-02 0.  1.
</event>
<event>
 5   0  0.1549012E-04  0.1811636E+04  0.7818609E-02  0.8700136E-01
       -2   -1    0    0    0  501  0.00000000000E+00  0.00000000000E+00  0.11467665573E+04  0.11467665573E+04  0.25500000920E-02 0. -1.
        2   -1    0    0  501    0  0.00000000000E+00  0.00000000000E+00 -0.71549506740E+03  0.71549506740E+03  0.25500000920E-02 0.  1.
    10030    2    1    2    0    0  0.00000000000E+00  0.00000000000E+00  0.43127148986E+03  0.18622616247E+04  0.18116355209E+04 0.  0.
        4    1    3    3  502    0  0.40186998614E+03  0.72513979341E+03 -0.15949656795E+03  0.84425586988E+03  0.12699999809E+01 0.  1.
       -4    1    3    3    0  502 -0.40186998614E+03 -0.72513979341E+03  0.59076805782E+03  0.10180057548E+04  0.12699999809E+01 0. -1.
</event>
<event>
 5   0  0.1549012E-04  0.1806192E+04  0.7818609E-02  0.8703014E-01
        2   -1    0    0  501    0  0.00000000000E+00  0.00000000000E+00  0.91903887424E+03  0.91903887424E+03  0.25500000920E-02 0.  1.
       -2   -1    0    0    0  501  0.00000000000E+00  0.00000000000E+00 -0.88742946054E+03  0.88742946054E+03  0.25500000920E-02 0. -1.
    10030    2    1    2    0    0  0.00000000000E+00  0.00000000000E+00  0.31609413700E+02  0.18064683348E+04  0.18061917643E+04 0.  0.
        4    1    3    3  502    0 -0.21300725195E+02  0.54706955875E+03  0.73413591429E+03  0.91580345957E+03  0.12699999809E+01 0.  1.
       -4    1    3    3    0  502  0.21300725195E+02 -0.54706955875E+03 -0.70252650059E+03  0.89066487521E+03  0.12699999809E+01 0. -1.
</event>
<event>
 5   0  0.1608627E-04  0.1801185E+04  0.7818609E-02  0.8705670E-01
       -2   -1    0    0    0  501  0.00000000000E+00  0.00000000000E+00  0.15126687502E+04  0.15126687502E+04  0.25500000920E-02 0. -1.
        2   -1    0    0  501    0  0.00000000000E+00  0.00000000000E+00 -0.53618255390E+03  0.53618255390E+03  0.25500000920E-02 0.  1.
    10030    2    1    2    0    0  0.00000000000E+00  0.00000000000E+00  0.97648619630E+03  0.20488513041E+04  0.18011847142E+04 0.  0.
        2    1    3    3  502    0 -0.70968190932E+03 -0.54507934950E+03  0.60372439932E+03  0.10794642467E+04  0.25500000920E-02 0. -1.
       -2    1    3    3    0  502  0.70968190932E+03  0.54507934950E+03  0.37276179699E+03  0.96938705736E+03  0.25500000920E-02 0.  1.
</event>
<event>
 5   0  0.1573981E-04  0.1790188E+04  0.7818609E-02  0.8711535E-01
        2   -1    0    0  501    0  0.00000000000E+00  0.00000000000E+00  0.70638135056E+03  0.70638135056E+03  0.25500000920E-02 0. -1.
       -2   -1    0    0    0  501  0.00000000000E+00  0.00000000000E+00 -0.11342221218E+04  0.11342221218E+04  0.25500000920E-02 0.  1.
    10030    2    1    2    0    0  0.00000000000E+00  0.00000000000E+00 -0.42784077123E+03  0.18406034723E+04  0.17901880954E+04 0.  0.
        1    1    3    3  502    0 -0.67062234294E+03  0.37227432376E+03 -0.68829307156E+03  0.10305677325E+04  0.50400001928E-02 0.  1.
       -1    1    3    3    0  502  0.67062234294E+03 -0.37227432376E+03  0.26045230033E+03  0.81003573980E+03  0.50400001928E-02 0. -1.
</event>
<event>
 5   0  0.1549012E-04  0.1828388E+04  0.7818609E-02  0.8691347E-01
        2   -1    0    0  501    0  0.00000000000E+00  0.00000000000E+00  0.81901058158E+03  0.81901058158E+03  0.25500000920E-02 0.  1.
       -2   -1    0    0    0  501  0.00000000000E+00  0.00000000000E+00 -0.10204388825E+04  0.10204388825E+04  0.25500000920E-02 0. -1.
    10030    2    1    2    0    0  0.00000000000E+00  0.00000000000E+00 -0.20142830088E+03  0.18394494640E+04  0.18283875329E+04 0.  0.
        4    1    3    3  502    0 -0.26193727312E+03 -0.84780661300E+03 -0.32195699242E+03  0.94395185574E+03  0.12699999809E+01 0. -1.
       -4    1    3    3    0  502  0.26193727312E+03  0.84780661300E+03  0.12052869154E+03  0.89549760830E+03  0.12699999809E+01 0.  1.
</event>
<event>
 5   0  0.1628397E-04  0.1809277E+04  0.7818609E-02  0.8701382E-01
       -2   -1    0    0    0  501  0.00000000000E+00  0.00000000000E+00  0.63495279642E+03  0.63495279642E+03  0.25500000920E-02 0.  1.
        2   -1    0    0  501    0  0.00000000000E+00  0.00000000000E+00 -0.12888681764E+04  0.12888681764E+04  0.25500000920E-02 0. -1.
    10030    2    1    2    0    0  0.00000000000E+00  0.00000000000E+00 -0.65391538002E+03  0.19238209729E+04  0.18092765989E+04 0.  0.
        3    1    3    3  502    0 -0.22098832838E+02  0.55002439893E+01  0.63464795506E+03  0.63505641337E+03  0.10100000352E+00 0.  1.
       -3    1    3    3    0  502  0.22098832838E+02 -0.55002439893E+01 -0.12885633351E+04  0.12887645595E+04  0.10100000352E+00 0. -1.
</event>
<event>
 5   0  0.8132598E-05  0.1802030E+04  0.7818609E-02  0.8705221E-01
        1   -1    0    0  501    0  0.00000000000E+00  0.00000000000E+00  0.13342632613E+04  0.13342632614E+04  0.50400001928E-02 0. -1.
       -1   -1    0    0    0  501  0.00000000000E+00  0.00000000000E+00 -0.60844689222E+03  0.60844689224E+03  0.50400001928E-02 0.  1.
    10030    2    1    2    0    0  0.00000000000E+00  0.00000000000E+00  0.72581636912E+03  0.19427101536E+04  0.18020303380E+04 0.  0.
        3    1    3    3  502    0 -0.62010464005E+03  0.46255422215E+03  0.86085647661E+03  0.11573936481E+04  0.10100000352E+00 0.  1.
       -3    1    3    3    0  502  0.62010464005E+03 -0.46255422215E+03 -0.13504010749E+03  0.78531650554E+03  0.10100000352E+00 0. -1.
</event>
<event>
 5   0  0.8132598E-05  0.1834805E+04  0.7818609E-02  0.8688006E-01
       -1   -1    0    0    0  501  0.00000000000E+00  0.00000000000E+00  0.94952063318E+03  0.94952063319E+03  0.50400001928E-02 0. -1.
        1   -1    0    0  501    0  0.00000000000E+00  0.00000000000E+00 -0.88637119435E+03  0.88637119436E+03  0.50400001928E-02 0.  1.
    10030    2    1    2    0    0  0.00000000000E+00  0.00000000000E+00  0.63149438835E+02  0.18358918276E+04  0.18348054259E+04 0.  0.
        3    1    3    3  502    0 -0.77956793443E+03  0.92600852308E+02 -0.44339218404E+03  0.90160840796E+03  0.10100000352E+00 0. -1.
       -3    1    3    3    0  502  0.77956793443E+03 -0.92600852308E+02  0.50654162287E+03  0.93428341960E+03  0.10100000352E+00 0.  1.
</event>
<event>
 5   0  0.8254914E-05  0.1752524E+04  0.7818609E-02  0.8731962E-01
        1   -1    0    0  501    0  0.00000000000E+00  0.00000000000E+00  0.92338339419E+03  0.92338339420E+03  0.50400001928E-02 0. -1.
       -1   -1    0    0    0  501  0.00000000000E+00  0.00000000000E+00 -0.83154571188E+03  0.83154571190E+03  0.50400001928E-02 0.  1.
    10030    2    1    2    0    0  0.00000000000E+00  0.00000000000E+00  0.91837682306E+02  0.17549291061E+04  0.17525244670E+04 0.  0.
        4    1    3    3  502    0  0.80743440132E+03  0.32427050329E+03  0.14965740103E+03  0.88289332443E+03  0.12699999809E+01 0.  1.
       -4    1    3    3    0  502 -0.80743440132E+03 -0.32427050329E+03 -0.57819718729E+02  0.87203578167E+03  0.12699999809E+01 0. -1.
</event>
<event>
 5   0  0.8206783E-05  0.1825565E+04  0.7818609E-02  0.8692821E-01
       -1   -1    0    0    0  501  0.00000000000E+00  0.00000000000E+00  0.36945359204E+03  0.36945359208E+03  0.50400001928E-02 0.  1.
        1   -1    0    0  501    0  0.00000000000E+00  0.00000000000E+00 -0.22551454030E+04  0.22551454030E+04  0.50400001928E-02 0. -1.
    10030    2    1    2    0    0  0.00000000000E+00  0.00000000000E+00 -0.18856918109E+04  0.26245989951E+04  0.18255646466E+04 0.  0.
        1    1    3    3  502    0  0.89937647230E+03 -0.14038817027E+02 -0.71967262069E+03  0.11519565132E+04  0.50400001928E-02 0.  1.
       -1    1    3    3    0  502 -0.89937647230E+03  0.14038817027E+02 -0.11660191902E+04  0.14726424819E+04  0.50400001928E-02 0. -1.
</event>
<event>
 5   0  0.1573981E-04  0.1802955E+04  0.7818609E-02  0.8704729E-01
       -2   -1    0    0    0  501  0.00000000000E+00  0.00000000000E+00  0.70850562748E+03  0.70850562749E+03  0.25500000920E-02 0. -1.
        2   -1    0    0  501    0  0.00000000000E+00  0.00000000000E+00 -0.11470083981E+04  0.11470083981E+04  0.25500000920E-02 0.  1.
    10030    2    1    2    0    0  0.00000000000E+00  0.00000000000E+00 -0.43850277060E+03  0.18555140256E+04  0.18029552461E+04 0.  0.
        1    1    3    3  502    0  0.49642572504E+03  0.52069817753E+03  0.33981264876E+03  0.79563668144E+03  0.50400001928E-02 0. -1.
       -1    1    3    3    0  502 -0.49642572504E+03 -0.52069817753E+03 -0.77831541935E+03  0.10598773441E+04  0.50400001928E-02 0.  1.
</event>
<event>
 5   0  0.1549012E-04  0.1829433E+04  0.7818609E-02  0.8690802E-01
       -2   -1    0    0    0  501  0.00000000000E+00  0.00000000000E+00  0.10924988648E+04  0.10924988648E+04  0.25500000920E-02 0.  1.
        2   -1    0    0  501    0  0.00000000000E+00  0.00000000000E+00 -0.76586455907E+03  0.76586455907E+03  0.25500000920E-02 0. -1.
    10030    2    1    2    0    0  0.00000000000E+00  0.00000000000E+00  0.32663430568E+03  0.18583634238E+04  0.18294328753E+04 0.  0.
        4    1    3    3  502    0 -0.85467420420E+03  0.31302330107E+03  0.25559962077E+03  0.94540169313E+03  0.12699999809E+01 0. -1.
       -4    1    3    3    0  502  0.85467420420E+03 -0.31302330107E+03  0.71034684918E+02  0.91296173069E+03  0.12699999809E+01 0.  1.
</event>
<event>
 5   0  0.1608627E-04  0.1580456E+04  0.7818609E-02  0.8832646E-01
        2   -1    0    0  501    0  0.00000000000E+00  0.00000000000E+00  0.15990327548E+04  0.15990327548E+04  0.25500000920E-02 0. -1.
       -2   -1    0    0    0  501  0.00000000000E+00  0.00000000000E+00 -0.39052367307E+03  0.39052367308E+03  0.25500000920E-02 0.  1.
    10030    2    1    2    0    0  0.00000000000E+00  0.00000000000E+00  0.12085090818E+04  0.19895564279E+04  0.15804558137E+04 0.  0.
        2    1    3    3  502    0  0.39350479446E+03 -0.95127801099E+01  0.14668409858E+04  0.15187359856E+04  0.25500000920E-02 0. -1.
       -2    1    3    3    0  502 -0.39350479446E+03  0.95127801099E+01 -0.25833190406E+03  0.47082044232E+03  0.25500000920E-02 0.  1.
</event>
<event>
 5   0  0.5820500E-05  0.1821208E+04  0.7818609E-02  0.8695102E-01
        3   -1    0    0  501    0  0.00000000000E+00  0.00000000000E+00  0.53767140088E+03  0.53767141037E+03  0.10100000352E+00 0. -1.
       -3   -1    0    0    0  501  0.00000000000E+00  0.00000000000E+00 -0.15422060328E+04  0.15422060361E+04  0.10100000352E+00 0.  1.
    10030    2    1    2    0    0  0.00000000000E+00  0.00000000000E+00 -0.10045346320E+04  0.20798774465E+04  0.18212084905E+04 0.  0.
        2    1    3    3  502    0 -0.33145951376E+03 -0.50747155441E+03 -0.12783508654E+04  0.14147698481E+04  0.25500000920E-02 0.  1.
       -2    1    3    3    0  502  0.33145951376E+03  0.50747155441E+03  0.27381623349E+03  0.66510759845E+03  0.25500000920E-02 0. -1.
</event>
<event>
 5   0  0.8132598E-05  0.1822769E+04  0.7818609E-02  0.8694284E-01
       -1   -1    0    0    0  501  0.00000000000E+00  0.00000000000E+00  0.69688679583E+03  0.69688679585E+03  0.50400001928E-02 0.  1.
        1   -1    0    0  501    0  0.00000000000E+00  0.00000000000E+00 -0.11919033063E+04  0.11919033063E+04  0.50400001928E-02 0. -1.
    10030    2    1    2    0    0  0.00000000000E+00  0.00000000000E+00 -0.49501651043E+03  0.18887901021E+04  0.18227689662E+04 0.  0.
        3    1    3    3  502    0  0.18159713800E+02 -0.33397988598E+03  0.63098978651E+03  0.71415716780E+03  0.10100000352E+00 0.  1.
       -3    1    3    3    0  502 -0.18159713800E+02  0.33397988598E+03 -0.11260062969E+04  0.11746329343E+04  0.10100000352E+00 0. -1.
</event>
<event>
 5   0  0.1573981E-04  0.1797934E+04  0.7818609E-02  0.8707399E-01
       -2   -1    0    0    0  501  0.00000000000E+00  0.00000000000E+00  0.60078958858E+03  0.60078958859E+03  0.25500000920E-02 0. -1.
        2   -1    0    0  501    0  0.00000000000E+00  0.00000000000E+00 -0.13451328787E+04  0.13451328787E+04  0.25500000920E-02 0.  1.
    10030    2    1    2    0    0  0.00000000000E+00  0.00000000000E+00 -0.74434329012E+03  0.19459224673E+04  0.17979341799E+04 0.  0.
        1    1    3    3  502    0  0.82258553207E+03 -0.36127755125E+03 -0.33840422380E+03  0.96004471006E+03  0.50400001928E-02 0. -1.
       -1    1    3    3    0  502 -0.82258553207E+03  0.36127755125E+03 -0.40593906631E+03  0.98587775722E+03  0.50400001928E-02 0.  1.
</event>
<event>
 5   0  0.8254914E-05  0.1728545E+04  0.7818609E-02  0.8745250E-01
       -1   -1    0    0    0  501  0.00000000000E+00  0.00000000000E+00  0.84131651535E+03  0.84131651536E+03  0.50400001928E-02 0.  1.
        1   -1    0    0  501    0  0.00000000000E+00  0.00000000000E+00 -0.88785484782E+03  0.88785484783E+03  0.50400001928E-02 0. -1.
    10030    2    1    2    0    0  0.00000000000E+00  0.00000000000E+00 -0.46538332470E+02  0.17291713632E+04  0.17285449913E+04 0.  0.
        4    1    3    3  502    0  0.51593728296E+03 -0.25964831235E+03  0.61989211821E+03  0.84727585660E+03  0.12699999809E+01 0.  1.
       -4    1    3    3    0  502 -0.51593728296E+03  0.25964831235E+03 -0.66643045068E+03  0.88189550659E+03  0.12699999809E+01 0. -1.
</event>
<event>
 5   0  0.8132598E-05  0.1774729E+04  0.7818609E-02  0.8719855E-01
       -1   -1    0    0    0  501  0.00000000000E+00  0.00000000000E+00  0.71543232897E+03  0.71543232898E+03  0.50400001928E-02 0.  1.
        1   -1    0    0  501    0  0.00000000000E+00  0.00000000000E+00 -0.11006157908E+04  0.11006157908E+04  0.50400001928E-02 0. -1.
    10030    2    1    2    0    0  0.00000000000E+00  0.00000000000E+00 -0.38518346182E+03  0.18160481198E+04  0.17747294087E+04 0.  0.
        3    1    3    3  502    0 -0.28053003499E+03 -0.58519957593E+03 -0.81187625418E+03  0.10393741898E+04  0.10100000352E+00 0. -1.
       -3    1    3    3    0  502  0.28053003499E+03  0.58519957593E+03  0.42669279236E+03  0.77667392994E+03  0.10100000352E+00 0.  1.
</event>
<event>
 5   0  0.8206783E-05  0.1800369E+04  0.7818609E-02  0.8706103E-01
        1   -1    0    0  501    0  0.00000000000E+00  0.00000000000E+00  0.10644494460E+04  0.10644494460E+04  0.50400001928E-02 0.  1.
       -1   -1    0    0    0  501  0.00000000000E+00  0.00000000000E+00 -0.76126896179E+03  0.76126896180E+03  0.50400001928E-02 0. -1.
    10030    2    1    2    0    0  0.00000000000E+00  0.00000000000E+00  0.30318048419E+03  0.18257184078E+04  0.18003692117E+04 0.  0.
        1    1    3    3  502    0 -0.11858537861E+03  0.43182287078E+03  0.94348143725E+03  0.10443613868E+04  0.50400001928E-02 0.  1.
       -1    1    3    3    0  502  0.11858537861E+03 -0.43182287078E+03 -0.64030095307E+03  0.78135702100E+03  0.50400001928E-02 0. -1.
</event>
<event>
 5   0  0.5820500E-05  0.1811585E+04  0.7818609E-02  0.8700163E-01
       -3   -1    0    0    0  501  0.00000000000E+00  0.00000000000E+00  0.20729692642E+04  0.20729692667E+04  0.10100000352E+00 0. -1.
        3   -1    0    0  501    0  0.00000000000E+00  0.00000000000E+00 -0.39578990320E+03  0.39578991609E+03  0.10100000352E+00 0.  1.
    10030    2    1    2    0    0  0.00000000000E+00  0.00000000000E+00  0.16771793610E+04  0.24687591828E+04  0.18115852984E+04 0.  0.
        2    1    3    3  502    0 -0.36465384109E+03  0.65538311967E+03  0.15307343107E+04  0.17045958428E+04  0.25500000920E-02 0.  1.
       -2    1    3    3    0  502  0.36465384109E+03 -0.65538311967E+03  0.14644505031E+03  0.76416333996E+03  0.25500000920E-02 0. -1.
</event>
<event>
 5   0  0.8132598E-05  0.1803297E+04  0.7818609E-02  0.8704548E-01
       -1   -1    0    0    0  501  0.00000000000E+00  0.00000000000E+00  0.62398005261E+03  0.62398005263E+03  0.50400001928E-02 0. -1.
        1   -1    0    0  501    0  0.00000000000E+00  0.00000000000E+00 -0.13028776572E+04  0.13028776573E+04  0.50400001928E-02 0.  1.
    10030    2    1    2    0    0  0.00000000000E+00  0.00000000000E+00 -0.67889760463E+03  0.19268577099E+04  0.18032966136E+04 0.  0.
        3    1    3    3  502    0  0.16737615933E+03  0.50142843204E+03 -0.11199249304E+04  0.12384171798E+04  0.10100000352E+00 0.  1.
       -3    1    3    3    0  502 -0.16737615933E+03 -0.50142843204E+03  0.44102732581E+03  0.68844053010E+03  0.10100000352E+00 0. -1.
</event>
<event>
 5   0  0.1549012E-04  0.1779568E+04  0.7818609E-02  0.8717241E-01
       -2   -1    0    0    0  501  0.00000000000E+00  0.00000000000E+00  0.47354477932E+03  0.47354477933E+03  0.25500000920E-02 0.  1.
        2   -1    0    0  501    0  0.00000000000E+00  0.00000000000E+00 -0.16718919526E+04  0.16718919526E+04  0.25500000920E-02 0. -1.
    10030    2    1    2    0    0  0.00000000000E+00  0.00000000000E+00 -0.11983471733E+04  0.21454367319E+04  0.17795681563E+04 0.  0.
        4    1    3    3  502    0  0.23621191752E+03 -0.85223585697E+02 -0.16282841825E+04  0.16475345585E+04  0.12699999809E+01 0. -1.
       -4    1    3    3    0  502 -0.23621191752E+03  0.85223585697E+02  0.42993700921E+03  0.49790217345E+03  0.12699999809E+01 0.  1.
</event>
<event>
 5   0  0.1573981E-04  0.1813097E+04  0.7818609E-02  0.8699366E-01
        2   -1    0    0  501    0  0.00000000000E+00  0.00000000000E+00  0.76457837681E+03  0.76457837682E+03  0.25500000920E-02 0.  1.
       -2   -1    0    0    0  501  0.00000000000E+00  0.00000000000E+00 -0.10748800959E+04  0.10748800959E+04  0.25500000920E-02 0. -1.
    10030    2    1    2    0    0  0.00000000000E+00  0.00000000000E+00 -0.31030171913E+03  0.18394584728E+04  0.18130968855E+04 0.  0.
        1    1    3    3  502    0 -0.85896154842E+03  0.18646838261E+02 -0.44860970026E+03  0.96923336170E+03  0.50400001928E-02 0. -1.
       -1    1    3    3    0  502  0.85896154842E+03 -0.18646838261E+02  0.13830798113E+03  0.87022511106E+03  0.50400001928E-02 0.  1.
</event>
<event>
 5   0  0.8254914E-05  0.1798808E+04  0.7818609E-02  0.8706933E-01
       -1   -1    0    0    0  501  0.00000000000E+00  0.00000000000E+00  0.54607982124E+03  0.54607982126E+03  0.50400001928E-02 0.  1.
        1   -1    0    0  501    0  0.00000000000E+00  0.00000000000E+00 -0.14813364496E+04  0.14813364496E+04  0.50400001928E-02 0. -1.
    10030    2    1    2    0    0  0.00000000000E+00  0.00000000000E+00 -0.93525662840E+03  0.20274162709E+04  0.17988084319E+04 0.  0.
        4    1    3    3  502    0 -0.13391462849E+03  0.27305391768E+03 -0.14216238395E+04  0.14537907427E+04  0.12699999809E+01 0. -1.
       -4    1    3    3    0  502  0.13391462849E+03 -0.27305391768E+03  0.48636721109E+03  0.57362552820E+03  0.12699999809E+01 0.  1.
</event>
<event>
 5   0  0.1603564E-04  0.1781870E+04  0.7818609E-02  0.8716001E-01
        2   -1    0    0  501    0  0.00000000000E+00  0.00000000000E+00  0.20881582445E+04  0.20881582445E+04  0.25500000920E-02 0.  1.
       -2   -1    0    0    0  501  0.00000000000E+00  0.00000000000E+00 -0.38012671574E+03  0.38012671575E+03  0.25500000920E-02 0. -1.
    10030    2    1    2    0    0  0.00000000000E+00  0.00000000000E+00  0.17080315288E+04  0.24682849602E+04  0.17818695075E+04 0.  0.
        5    1    3    3  502    0 -0.52079637320E+03 -0.72271976101E+03  0.87310622287E+03  0.12473529098E+04  0.46999998093E+01 0.  1.
       -5    1    3    3    0  502  0.52079637320E+03  0.72271976101E+03  0.83492530588E+03  0.12209320504E+04  0.46999998093E+01 0. -1.
</event>
<event>
 5   0  0.8254914E-05  0.1786664E+04  0.7818609E-02  0.8713424E-01
        1   -1    0    0  501    0  0.00000000000E+00  0.00000000000E+00  0.19687094878E+04  0.19687094878E+04  0.50400001928E-02 0.  1.
       -1   -1    0    0    0  501  0.00000000000E+00  0.00000000000E+00 -0.40536289363E+03  0.40536289366E+03  0.50400001928E-02 0. -1.
    10030    2    1    2    0    0  0.00000000000E+00  0.00000000000E+00  0.15633465941E+04  0.23740723815E+04  0.17866636782E+04 0.  0.
        4    1    3    3  502    0 -0.79440225946E+03  0.28945128733E+03  0.11649115622E+04  0.14394018057E+04  0.12699999809E+01 0.  1.
       -4    1    3    3    0  502  0.79440225946E+03 -0.28945128733E+03  0.39843503190E+03  0.93467057572E+03  0.12699999809E+01 0. -1.
</event>
<event>
 5   0  0.8206783E-05  0.1794951E+04  0.7818609E-02  0.8708989E-01
        1   -1    0    0  501    0  0.00000000000E+00  0.00000000000E+00  0.25556266945E+04  0.25556266946E+04  0.50400001928E-02 0. -1.
       -1   -1    0    0    0  501  0.00000000000E+00  0.00000000000E+00 -0.31517194790E+03  0.31517194794E+03  0.50400001928E-02 0.  1.
    10030    2    1    2    0    0  0.00000000000E+00  0.00000000000E+00  0.22404547466E+04  0.28707986425E+04  0.17949505213E+04 0.  0.
        1    1    3    3  502    0 -0.73319589038E+03 -0.49670466793E+03  0.88751914885E+03  0.12537870555E+04  0.50400001928E-02 0.  1.
       -1    1    3    3    0  502  0.73319589038E+03  0.49670466793E+03  0.13529355978E+04  0.16170115870E+04  0.50400001928E-02 0. -1.
</event>
<event>
 5   0  0.8206783E-05  0.1786706E+04  0.7818609E-02  0.8713401E-01
       -1   -1    0    0    0  501  0.00000000000E+00  0.00000000000E+00  0.39536681021E+03  0.39536681024E+03  0.50400001928E-02 0. -1.
        1   -1    0    0  501    0  0.00000000000E+00  0.00000000000E+00 -0.20185792242E+04  0.20185792242E+04  0.50400001928E-02 0.  1.
    10030    2    1    2    0    0  0.00000000000E+00  0.00000000000E+00 -0.16232124140E+04  0.24139460344E+04  0.17867056043E+04 0.  0.
        1    1    3    3  502    0  0.54943173983E+03  0.41259679089E+03 -0.40237597348E+02  0.68828076600E+03  0.50400001928E-02 0. -1.
       -1    1    3    3    0  502 -0.54943173983E+03 -0.41259679089E+03 -0.15829748166E+04  0.17256652684E+04  0.50400001928E-02 0.  1.
</event>
<event>
 5   0  0.8132598E-05  0.1794532E+04  0.7818609E-02  0.8709213E-01
       -1   -1    0    0    0  501  0.00000000000E+00  0.00000000000E+00  0.58283489791E+03  0.58283489793E+03  0.50400001928E-02 0. -1.
        1   -1    0    0  501    0  0.00000000000E+00  0.00000000000E+00 -0.13813286117E+04  0.13813286117E+04  0.50400001928E-02 0.  1.
    10030    2    1    2    0    0  0.00000000000E+00  0.00000000000E+00 -0.79849371380E+03  0.19641635097E+04  0.17945322738E+04 0.  0.
        3    1    3    3  502    0 -0.42984316683E+03 -0.46972501500E+02 -0.12597668948E+04  0.13319099832E+04  0.10100000352E+00 0.  1.
       -3    1    3    3    0  502  0.42984316683E+03  0.46972501500E+02  0.46127318100E+03  0.63225352643E+03  0.10100000352E+00 0. -1.
</event>
<event>
 5   0  0.1603564E-04  0.1785081E+04  0.7818609E-02  0.8714274E-01
       -2   -1    0    0    0  501  0.00000000000E+00  0.00000000000E+00  0.55876515740E+03  0.55876515741E+03  0.25500000920E-02 0. -1.
        2   -1    0    0  501    0  0.00000000000E+00  0.00000000000E+00 -0.14256942212E+04  0.14256942212E+04  0.25500000920E-02 0.  1.
    10030    2    1    2    0    0  0.00000000000E+00  0.00000000000E+00 -0.86692906378E+03  0.19844593786E+04  0.17850806771E+04 0.  0.
        5    1    3    3  502    0 -0.25511163433E+03  0.82115483488E+03 -0.16751925588E+03  0.87604908533E+03  0.46999998093E+01 0. -1.
       -5    1    3    3    0  502  0.25511163433E+03 -0.82115483488E+03 -0.69940980790E+03  0.11084102933E+04  0.46999998093E+01 0.  1.
</event>
<event>
 5   0  0.1573981E-04  0.1766843E+04  0.7818609E-02  0.8724133E-01
       -2   -1    0    0    0  501  0.00000000000E+00  0.00000000000E+00  0.44862466959E+03  0.44862466959E+03  0.25500000920E-02 0. -1.
        2   -1    0    0  501    0  0.00000000000E+00  0.00000000000E+00 -0.17396132932E+04  0.17396132932E+04  0.25500000920E-02 0.  1.
    10030    2    1    2    0    0  0.00000000000E+00  0.00000000000E+00 -0.12909886236E+04  0.21882379628E+04  0.17668428780E+04 0.  0.
        1    1    3    3  502    0  0.17612636866E+03 -0.48986476829E+03  0.23849184040E+03  0.57259614644E+03  0.50400001928E-02 0. -1.
       -1    1    3    3    0  502 -0.17612636866E+03  0.48986476829E+03 -0.15294804640E+04  0.16156418164E+04  0.50400001928E-02 0.  1.
</event>
<event>
 5   0  0.8254914E-05  0.1796212E+04  0.7818609E-02  0.8708317E-01
        1   -1    0    0  501    0  0.00000000000E+00  0.00000000000E+00  0.93835535641E+03  0.93835535642E+03  0.50400001928E-02 0. -1.
       -1   -1    0    0    0  501  0.00000000000E+00  0.00000000000E+00 -0.85958285543E+03  0.85958285545E+03  0.50400001928E-02 0.  1.
    10030    2    1    2    0    0  0.00000000000E+00  0.00000000000E+00  0.78772500977E+02  0.17979382119E+04  0.17962117656E+04 0.  0.
        4    1    3    3  502    0 -0.25670310258E+03  0.83671941437E+03  0.24106614505E+03  0.90780524368E+03  0.12699999809E+01 0. -1.
       -4    1    3    3    0  502  0.25670310258E+03 -0.83671941437E+03 -0.16229364408E+03  0.89013296819E+03  0.12699999809E+01 0.  1.
</event>
<event>
 5   0  0.8132598E-05  0.1804054E+04  0.7818609E-02  0.8704147E-01
        1   -1    0    0  501    0  0.00000000000E+00  0.00000000000E+00  0.13628348245E+04  0.13628348245E+04  0.50400001928E-02 0. -1.
       -1   -1    0    0    0  501  0.00000000000E+00  0.00000000000E+00 -0.59702947626E+03  0.59702947628E+03  0.50400001928E-02 0.  1.
    10030    2    1    2    0    0  0.00000000000E+00  0.00000000000E+00  0.76580534820E+03  0.19598643007E+04  0.18040538368E+04 0.  0.
        3    1    3    3  502    0 -0.47000682267E+03  0.77622987087E+02  0.12150347340E+04  0.13050828160E+04  0.10100000352E+00 0. -1.
       -3    1    3    3    0  502  0.47000682267E+03 -0.77622987087E+02 -0.44922938583E+03  0.65478148475E+03  0.10100000352E+00 0.  1.
</event>
<event>
 5   0  0.1603564E-04  0.1799928E+04  0.7818609E-02  0.8706338E-01
        2   -1    0    0  501    0  0.00000000000E+00  0.00000000000E+00  0.21332981168E+04  0.21332981168E+04  0.25500000920E-02 0.  1.
       -2   -1    0    0    0  501  0.00000000000E+00  0.00000000000E+00 -0.37966323372E+03  0.37966323373E+03  0.25500000920E-02 0. -1.
    10030    2    1    2    0    0  0.00000000000E+00  0.00000000000E+00  0.17536348831E+04  0.25129613505E+04  0.17999276225E+04 0.  0.
        5    1    3    3  502    0  0.51640181471E+03  0.73542230508E+03  0.94515689467E+03  0.13041704055E+04  0.46999998093E+01 0.  1.
       -5    1    3    3    0  502 -0.51640181471E+03 -0.73542230508E+03  0.80847798843E+03  0.12087909450E+04  0.46999998093E+01 0. -1.
</event>
<event>
 5   0  0.8132598E-05  0.1795606E+04  0.7818609E-02  0.8708639E-01
       -1   -1    0    0    0  501  0.00000000000E+00  0.00000000000E+00  0.54083291021E+03  0.54083291023E+03  0.50400001928E-02 0. -1.
        1   -1    0    0  501    0  0.00000000000E+00  0.00000000000E+00 -0.14903875203E+04  0.14903875203E+04  0.50400001928E-02 0.  1.
    10030    2    1    2    0    0  0.00000000000E+00  0.00000000000E+00 -0.94955461010E+03  0.20312204305E+04  0.17956064379E+04 0.  0.
        3    1    3    3  502    0  0.52646982603E+03  0.33080821422E+01  0.34788203989E+03  0.63103355300E+03  0.10100000352E+00 0. -1.
       -3    1    3    3    0  502 -0.52646982603E+03 -0.33080821422E+01 -0.12974366500E+04  0.14001868775E+04  0.10100000352E+00 0.  1.
</event>
<event>
 5   0  0.8132598E-05  0.1811569E+04  0.7818609E-02  0.8700171E-01
       -1   -1    0    0    0  501  0.00000000000E+00  0.00000000000E+00  0.46600548663E+03  0.46600548666E+03  0.50400001928E-02 0. -1.
        1   -1    0    0  501    0  0.00000000000E+00  0.00000000000E+00 -0.17605914614E+04  0.17605914614E+04  0.50400001928E-02 0.  1.
    10030    2    1    2    0    0  0.00000000000E+00  0.00000000000E+00 -0.12945859748E+04  0.22265969481E+04  0.18115686912E+04 0.  0.
        3    1    3    3  502    0  0.40336840582E+03 -0.24481867605E+02 -0.16436516507E+04  0.16926004229E+04  0.10100000352E+00 0.  1.
       -3    1    3    3    0  502 -0.40336840582E+03  0.24481867605E+02  0.34906567587E+03  0.53399652520E+03  0.10100000352E+00 0. -1.
</event>
<event>
 5   0  0.1549012E-04  0.1803446E+04  0.7818609E-02  0.8704469E-01
        2   -1    0    0  501    0  0.00000000000E+00  0.00000000000E+00  0.94242504327E+03  0.94242504328E+03  0.25500000920E-02 0.  1.
       -2   -1    0    0    0  501  0.00000000000E+00  0.00000000000E+00 -0.86277899267E+03  0.86277899268E+03  0.25500000920E-02 0. -1.
    10030    2    1    2    0    0  0.00000000000E+00  0.00000000000E+00  0.79646050600E+02  0.18052040360E+04  0.18034461783E+04 0.  0.
        4    1    3    3  502    0  0.39210937215E+03 -0.16218543691E+03  0.83624234659E+03  0.93774023632E+03  0.12699999809E+01 0.  1.
       -4    1    3    3    0  502 -0.39210937215E+03  0.16218543691E+03 -0.75659629599E+03  0.86746379964E+03  0.12699999809E+01 0. -1.
</event>
<event>
 5   0  0.1608627E-04  0.1802921E+04  0.7818609E-02  0.8704748E-01
       -2   -1    0    0    0  501  0.00000000000E+00  0.00000000000E+00  0.75276070129E+03  0.75276070130E+03  0.25500000920E-02 0.  1.
        2   -1    0    0  501    0  0.00000000000E+00  0.00000000000E+00 -0.10795338114E+04  0.10795338114E+04  0.25500000920E-02 0. -1.
    10030    2    1    2    0    0  0.00000000000E+00  0.00000000000E+00 -0.32677311007E+03  0.18322945127E+04  0.18029205517E+04 0.  0.
        2    1    3    3  502    0 -0.14318900315E+03 -0.77678339541E+03  0.27812799838E+03  0.83740713963E+03  0.25500000920E-02 0.  1.
       -2    1    3    3    0  502  0.14318900315E+03  0.77678339541E+03 -0.60490110845E+03  0.99488737303E+03  0.25500000920E-02 0. -1.
</event>
<event>
 5   0  0.8492114E-05  0.1801221E+04  0.7818609E-02  0.8705651E-01
        1   -1    0    0  501    0  0.00000000000E+00  0.00000000000E+00  0.78783731103E+03  0.78783731104E+03  0.50400001928E-02 0.  1.
       -1   -1    0    0    0  501  0.00000000000E+00  0.00000000000E+00 -0.10295258906E+04  0.10295258906E+04  0.50400001928E-02 0. -1.
    10030    2    1    2    0    0  0.00000000000E+00  0.00000000000E+00 -0.24168857956E+03  0.18173632016E+04  0.18012205965E+04 0.  0.
        2    1    3    3  502    0 -0.44571286155E+03 -0.68847507293E+03 -0.49625549736E+03  0.95860701002E+03  0.25500000920E-02 0. -1.
       -2    1    3    3    0  502  0.44571286155E+03  0.68847507293E+03  0.25456691781E+03  0.85875619162E+03  0.25500000920E-02 0.  1.
</event>
<event>
 5   0  0.1608627E-04  0.1797751E+04  0.7818609E-02  0.8707496E-01
       -2   -1    0    0    0  501  0.00000000000E+00  0.00000000000E+00  0.70261686086E+03  0.70261686087E+03  0.25500000920E-02 0.  1.
        2   -1    0    0  501    0  0.00000000000E+00  0.00000000000E+00 -0.11499546765E+04  0.11499546765E+04  0.25500000920E-02 0. -1.
    10030    2    1    2    0    0  0.00000000000E+00  0.00000000000E+00 -0.44733781559E+03  0.18525715373E+04  0.17977514232E+04 0.  0.
        2    1    3    3  502    0 -0.11841207349E+03  0.88191592555E+03 -0.35475008174E+03  0.95793775340E+03  0.25500000920E-02 0. -1.
       -2    1    3    3    0  502  0.11841207349E+03 -0.88191592555E+03 -0.92587733842E+02  0.89463378393E+03  0.25500000920E-02 0.  1.
</event>
<event>
 5   0  0.8492114E-05  0.1772511E+04  0.7818609E-02  0.8721056E-01
       -1   -1    0    0    0  501  0.00000000000E+00  0.00000000000E+00  0.89451770782E+03  0.89451770783E+03  0.50400001928E-02 0.  1.
        1   -1    0    0  501    0  0.00000000000E+00  0.00000000000E+00 -0.87806995416E+03  0.87806995417E+03  0.50400001928E-02 0. -1.
    10030    2    1    2    0    0  0.00000000000E+00  0.00000000000E+00  0.16447753662E+02  0.17725876620E+04  0.17725113514E+04 0.  0.
        2    1    3    3  502    0 -0.73737612848E+02 -0.52370917935E+03  0.71940889503E+03  0.89289288178E+03  0.25500000920E-02 0.  1.
       -2    1    3    3    0  502  0.73737612848E+02  0.52370917935E+03 -0.70296114136E+03  0.87969478022E+03  0.25500000920E-02 0. -1.
</event>
<event>
 5   0  0.8206783E-05  0.1794495E+04  0.7818609E-02  0.8709233E-01
       -1   -1    0    0    0  501  0.00000000000E+00  0.00000000000E+00  0.56424981455E+03  0.56424981457E+03  0.50400001928E-02 0.  1.
        1   -1    0    0  501    0  0.00000000000E+00  0.00000000000E+00 -0.14267666753E+04  0.14267666753E+04  0.50400001928E-02 0. -1.
    10030    2    1    2    0    0  0.00000000000E+00  0.00000000000E+00 -0.86251686076E+03  0.19910164899E+04  0.17944947277E+04 0.  0.
        1    1    3    3  502    0 -0.37572770206E+03  0.48586942290E+03 -0.11569621841E+04  0.13098862155E+04  0.50400001928E-02 0. -1.
       -1    1    3    3    0  502  0.37572770206E+03 -0.48586942290E+03  0.29444532332E+03  0.68113027436E+03  0.50400001928E-02 0.  1.
</event>
<event>
 5   0  0.1608627E-04  0.1754106E+04  0.7818609E-02  0.8731093E-01
        2   -1    0    0  501    0  0.00000000000E+00  0.00000000000E+00  0.10654396966E+04  0.10654396966E+04  0.25500000920E-02 0.  1.
       -2   -1    0    0    0  501  0.00000000000E+00  0.00000000000E+00 -0.72197609818E+03  0.72197609819E+03  0.25500000920E-02 0. -1.
    10030    2    1    2    0    0  0.00000000000E+00  0.00000000000E+00  0.34346359839E+03  0.17874157948E+04  0.17541060344E+04 0.  0.
        2    1    3    3  502    0  0.70555442789E+03 -0.66608794987E+02 -0.35477945585E+03  0.79253532702E+03  0.25500000920E-02 0. -1.
       -2    1    3    3    0  502 -0.70555442789E+03  0.66608794987E+02  0.69824305424E+03  0.99488046774E+03  0.25500000920E-02 0.  1.
</event>
<event>
 5   0  0.1549012E-04  0.1776067E+04  0.7818609E-02  0.8719131E-01
        2   -1    0    0  501    0  0.00000000000E+00  0.00000000000E+00  0.14667023860E+04  0.14667023860E+04  0.25500000920E-02 0. -1.
       -2   -1    0    0    0  501  0.00000000000E+00  0.00000000000E+00 -0.53767133275E+03  0.53767133275E+03  0.25500000920E-02 0.  1.
    10030    2    1    2    0    0  0.00000000000E+00  0.00000000000E+00  0.92903105326E+03  0.20043737188E+04  0.17760673711E+04 0.  0.
        4    1    3    3  502    0  0.22674373280E+03  0.11371938738E+03  0.14249455612E+04  0.14473480178E+04  0.12699999809E+01 0. -1.
       -4    1    3    3    0  502 -0.22674373280E+03 -0.11371938738E+03 -0.49591450793E+03  0.55702570094E+03  0.12699999809E+01 0.  1.
</event>
<event>
 5   0  0.1573981E-04  0.1838657E+04  0.7818609E-02  0.8686008E-01
        2   -1    0    0  501    0  0.00000000000E+00  0.00000000000E+00  0.78507293919E+03  0.78507293919E+03  0.25500000920E-02 0.  1.
       -2   -1    0    0    0  501  0.00000000000E+00  0.00000000000E+00 -0.10765432579E+04  0.10765432579E+04  0.25500000920E-02 0. -1.
    10030    2    1    2    0    0  0.00000000000E+00  0.00000000000E+00 -0.29147031873E+03  0.18616161971E+04  0.18386570965E+04 0.  0.
        1    1    3    3  502    0 -0.23390312462E+03 -0.84617882569E+03 -0.42197101741E+03  0.97405791219E+03  0.50400001928E-02 0. -1.
       -1    1    3    3    0  502  0.23390312462E+03  0.84617882569E+03  0.13050069868E+03  0.88755828492E+03  0.50400001928E-02 0.  1.
</event>
<event>
 5   0  0.1573981E-04  0.1748028E+04  0.7818609E-02  0.8734437E-01
        2   -1    0    0  501    0  0.00000000000E+00  0.00000000000E+00  0.19247564190E+04  0.19247564190E+04  0.25500000920E-02 0.  1.
       -2   -1    0    0    0  501  0.00000000000E+00  0.00000000000E+00 -0.39688146878E+03  0.39688146879E+03  0.25500000920E-02 0. -1.
    10030    2    1    2    0    0  0.00000000000E+00  0.00000000000E+00  0.15278749503E+04  0.23216378878E+04  0.17480276367E+04 0.  0.
        1    1    3    3  502    0 -0.22817826544E+03 -0.32686088136E+03 -0.26911581695E+03  0.48096432252E+03  0.50400001928E-02 0. -1.
       -1    1    3    3    0  502  0.22817826544E+03  0.32686088136E+03  0.17969907672E+04  0.18406735653E+04  0.50400001928E-02 0.  1.
</event>
<event>
 5   0  0.8492114E-05  0.1792024E+04  0.7818609E-02  0.8710553E-01
       -1   -1    0    0    0  501  0.00000000000E+00  0.00000000000E+00  0.88231891203E+03  0.88231891205E+03  0.50400001928E-02 0.  1.
        1   -1    0    0  501    0  0.00000000000E+00  0.00000000000E+00 -0.90991732728E+03  0.90991732730E+03  0.50400001928E-02 0. -1.
    10030    2    1    2    0    0  0.00000000000E+00  0.00000000000E+00 -0.27598415251E+02  0.17922362393E+04  0.17920237345E+04 0.  0.
        2    1    3    3  502    0 -0.74766997479E+02  0.35334253327E+03 -0.83389413900E+03  0.90874665600E+03  0.25500000920E-02 0. -1.
       -2    1    3    3    0  502  0.74766997479E+02 -0.35334253327E+03  0.80629572375E+03  0.88348958334E+03  0.25500000920E-02 0.  1.
</event>
<event>
 5   0  0.5820500E-05  0.1802578E+04  0.7818609E-02  0.8704930E-01
       -4   -1    0    0    0  501  0.00000000000E+00  0.00000000000E+00  0.10175254235E+04  0.10175262160E+04  0.12699999809E+01 0.  1.
        4   -1    0    0  501    0  0.00000000000E+00  0.00000000000E+00 -0.79832903509E+03  0.79833004526E+03  0.12699999809E+01 0. -1.
    10030    2    1    2    0    0  0.00000000000E+00  0.00000000000E+00  0.21919638838E+03  0.18158562613E+04  0.18025778499E+04 0.  0.
        4    1    3    3  502    0 -0.68683688393E+03  0.23328210101E+03 -0.42927658307E+03  0.84287925674E+03  0.12699999809E+01 0. -1.
       -4    1    3    3    0  502  0.68683688393E+03 -0.23328210101E+03  0.64847297145E+03  0.97297700455E+03  0.12699999809E+01 0.  1.
</event>
<event>
 5   0  0.1573981E-04  0.1789358E+04  0.7818609E-02  0.8711979E-01
        2   -1    0    0  501    0  0.00000000000E+00  0.00000000000E+00  0.19092963297E+04  0.19092963297E+04  0.25500000920E-02 0.  1.
       -2   -1    0    0    0  501  0.00000000000E+00  0.00000000000E+00 -0.41923865671E+03  0.41923865671E+03  0.25500000920E-02 0. -1.
    10030    2    1    2    0    0  0.00000000000E+00  0.00000000000E+00  0.14900576730E+04  0.23285349864E+04  0.17893583526E+04 0.  0.
        1    1    3    3  502    0  0.46368254291E+03 -0.69882091998E+03  0.11505299377E+04  0.14237525474E+04  0.50400001928E-02 0. -1.
       -1    1    3    3    0  502 -0.46368254291E+03  0.69882091998E+03  0.33952773530E+03  0.90478243897E+03  0.50400001928E-02 0.  1.
</event>
<event>
 5   0  0.1603564E-04  0.1795549E+04  0.7818609E-02  0.8708670E-01
        2   -1    0    0  501    0  0.00000000000E+00  0.00000000000E+00  0.13922361269E+04  0.13922361269E+04  0.25500000920E-02 0.  1.
       -2   -1    0    0    0  501  0.00000000000E+00  0.00000000000E+00 -0.57892416891E+03  0.57892416892E+03  0.25500000920E-02 0. -1.
    10030    2    1    2    0    0  0.00000000000E+00  0.00000000000E+00  0.81331195795E+03  0.19711602958E+04  0.17955491001E+04 0.  0.
        5    1    3    3  502    0  0.84703050287E+02 -0.51109706987E+03 -0.39825362605E+03  0.65346986328E+03  0.46999998093E+01 0. -1.
       -5    1    3    3    0  502 -0.84703050287E+02  0.51109706987E+03  0.12115655840E+04  0.13176904325E+04  0.46999998093E+01 0.  1.
</event>
<event>
 5   0  0.1549012E-04  0.1775301E+04  0.7818609E-02  0.8719546E-01
        2   -1    0    0  501    0  0.00000000000E+00  0.00000000000E+00  0.26556156957E+04  0.26556156957E+04  0.25500000920E-02 0.  1.
       -2   -1    0    0    0  501  0.00000000000E+00  0.00000000000E+00 -0.29670075391E+03  0.29670075392E+03  0.25500000920E-02 0. -1.
    10030    2    1    2    0    0  0.00000000000E+00  0.00000000000E+00  0.23589149418E+04  0.29523164496E+04  0.17753007396E+04 0.  0.
        4    1    3    3  502    0 -0.80208839601E+03 -0.31667926825E+03  0.82947695088E+03  0.11965221180E+04  0.12699999809E+01 0. -1.
       -4    1    3    3    0  502  0.80208839601E+03  0.31667926825E+03  0.15294379909E+04  0.17557943316E+04  0.12699999809E+01 0.  1.
</event>
<event>
 5   0  0.8206783E-05  0.1780620E+04  0.7818609E-02  0.8716674E-01
        1   -1    0    0  501    0  0.00000000000E+00  0.00000000000E+00  0.71248270522E+03  0.71248270524E+03  0.50400001928E-02 0. -1.
       -1   -1    0    0    0  501  0.00000000000E+00  0.00000000000E+00 -0.11125203586E+04  0.11125203586E+04  0.50400001928E-02 0.  1.
    10030    2    1    2    0    0  0.00000000000E+00  0.00000000000E+00 -0.40003765338E+03  0.18250030639E+04  0.17806195717E+04 0.  0.
        1    1    3    3  502    0  0.68637036041E+03  0.10607560706E+03 -0.77094504864E+03  0.10376476156E+04  0.50400001928E-02 0.  1.
       -1    1    3    3    0  502 -0.68637036041E+03 -0.10607560706E+03  0.37090739526E+03  0.78735544828E+03  0.50400001928E-02 0. -1.
</event>
<event>
 5   0  0.1628397E-04  0.1795994E+04  0.7818609E-02  0.8708433E-01
       -2   -1    0    0    0  501  0.00000000000E+00  0.00000000000E+00  0.92325078474E+03  0.92325078474E+03  0.25500000920E-02 0. -1.
        2   -1    0    0  501    0  0.00000000000E+00  0.00000000000E+00 -0.87343378367E+03  0.87343378367E+03  0.25500000920E-02 0.  1.
    10030    2    1    2    0    0  0.00000000000E+00  0.00000000000E+00  0.49817001071E+02  0.17966845684E+04  0.17959937931E+04 0.  0.
        3    1    3    3  502    0  0.54747283103E+03 -0.60390854493E+03  0.40183768739E+03  0.90879346859E+03  0.10100000352E+00 0. -1.
       -3    1    3    3    0  502 -0.54747283103E+03  0.60390854493E+03 -0.35202068632E+03  0.88789109982E+03  0.10100000352E+00 0.  1.
</event>
<event>
 5   0  0.1573981E-04  0.1794448E+04  0.7818609E-02  0.8709258E-01
       -2   -1    0    0    0  501  0.00000000000E+00  0.00000000000E+00  0.49523502002E+03  0.49523502003E+03  0.25500000920E-02 0.  1.
        2   -1    0    0  501    0  0.00000000000E+00  0.00000000000E+00 -0.16255120993E+04  0.16255120993E+04  0.25500000920E-02 0. -1.
    10030    2    1    2    0    0  0.00000000000E+00  0.00000000000E+00 -0.11302770793E+04  0.21207471193E+04  0.17944475663E+04 0.  0.
        1    1    3    3  502    0 -0.17471447385E+02 -0.48546742730E+03  0.32636775417E+03  0.58523481222E+03  0.50400001928E-02 0.  1.
       -1    1    3    3    0  502  0.17471447385E+02  0.48546742730E+03 -0.14566448334E+04  0.15355123071E+04  0.50400001928E-02 0. -1.
</event>
<event>
 5   0  0.8254914E-05  0.1863219E+04  0.7818609E-02  0.8673385E-01
        1   -1    0    0  501    0  0.00000000000E+00  0.00000000000E+00  0.15718304468E+04  0.15718304468E+04  0.50400001928E-02 0.  1.
       -1   -1    0    0    0  501  0.00000000000E+00  0.00000000000E+00 -0.55215615168E+03  0.55215615170E+03  0.50400001928E-02 0. -1.
    10030    2    1    2    0    0  0.00000000000E+00  0.00000000000E+00  0.10196742952E+04  0.21239865985E+04  0.18632185601E+04 0.  0.
        4    1    3    3  502    0 -0.77116430405E+03  0.13176499896E+03  0.10864314671E+04  0.13388022051E+04  0.12699999809E+01 0.  1.
       -4    1    3    3    0  502  0.77116430405E+03 -0.13176499896E+03 -0.66757171947E+02  0.78518439344E+03  0.12699999809E+01 0. -1.
</event>
<event>
 5   0  0.1628397E-04  0.1858223E+04  0.7818609E-02  0.8675935E-01
        2   -1    0    0  501    0  0.00000000000E+00  0.00000000000E+00  0.67477909827E+03  0.67477909827E+03  0.25500000920E-02 0. -1.
       -2   -1    0    0    0  501  0.00000000000E+00  0.00000000000E+00 -0.12793049692E+04  0.12793049692E+04  0.25500000920E-02 0.  1.
    10030    2    1    2    0    0  0.00000000000E+00  0.00000000000E+00 -0.60452587088E+03  0.19540840674E+04  0.18582230797E+04 0.  0.
        3    1    3    3  502    0 -0.41632238130E+03 -0.66428102112E+03 -0.82663999084E+03  0.11392661168E+04  0.10100000352E+00 0.  1.
       -3    1    3    3    0  502  0.41632238130E+03  0.66428102112E+03  0.22211411996E+03  0.81481795064E+03  0.10100000352E+00 0. -1.
</event>
<event>
 5   0  0.1573981E-04  0.1821386E+04  0.7818609E-02  0.8695009E-01
       -2   -1    0    0    0  501  0.00000000000E+00  0.00000000000E+00  0.39934695604E+03  0.39934695605E+03  0.25500000920E-02 0.  1.
        2   -1    0    0  501    0  0.00000000000E+00  0.00000000000E+00 -0.20767942190E+04  0.20767942190E+04  0.25500000920E-02 0. -1.
    10030    2    1    2    0    0  0.00000000000E+00  0.00000000000E+00 -0.16774472629E+04  0.24761411750E+04  0.18213856809E+04 0.  0.
        1    1    3    3  502    0  0.72553030329E+02  0.26321908737E+03 -0.20198414810E+04  0.20382119219E+04  0.50400001928E-02 0. -1.
       -1    1    3    3    0  502 -0.72553030329E+02 -0.26321908737E+03  0.34239421806E+03  0.43792925314E+03  0.50400001928E-02 0.  1.
</event>
<event>
 5   0  0.8492114E-05  0.1795953E+04  0.7818609E-02  0.8708455E-01
       -1   -1    0    0    0  501  0.00000000000E+00  0.00000000000E+00  0.47088506995E+03  0.47088506998E+03  0.50400001928E-02 0. -1.
        1   -1    0    0  501    0  0.00000000000E+00  0.00000000000E+00 -0.17124388445E+04  0.17124388445E+04  0.50400001928E-02 0.  1.
    10030    2    1    2    0    0  0.00000000000E+00  0.00000000000E+00 -0.12415537745E+04  0.21833239144E+04  0.17959531008E+04 0.  0.
        2    1    3    3  502    0 -0.54393190982E+03 -0.18496254781E+03 -0.14597699567E+04  0.15687579141E+04  0.25500000920E-02 0.  1.
       -2    1    3    3    0  502  0.54393190982E+03  0.18496254781E+03  0.21821618216E+03  0.61456600035E+03  0.25500000920E-02 0. -1.
</event>
<event>
 5   0  0.1603564E-04  0.1819124E+04  0.7818609E-02  0.8696195E-01
       -2   -1    0    0    0  501  0.00000000000E+00  0.00000000000E+00  0.90703126591E+03  0.90703126591E+03  0.25500000920E-02 0.  1.
        2   -1    0    0  501    0  0.00000000000E+00  0.00000000000E+00 -0.91210003295E+03  0.91210003295E+03  0.25500000920E-02 0. -1.
    10030    2    1    2    0    0  0.00000000000E+00  0.00000000000E+00 -0.50687670416E+01  0.18191312989E+04  0.18191242371E+04 0.  0.
        5    1    3    3  502    0 -0.83907704361E+03  0.22428875886E+03  0.26751374414E+03  0.90881319630E+03  0.46999998093E+01 0.  1.
       -5    1    3    3    0  502  0.83907704361E+03 -0.22428875886E+03 -0.27258251118E+03  0.91031810257E+03  0.46999998093E+01 0. -1.
</event>
<event>
 5   0  0.8206783E-05  0.1777401E+04  0.7818609E-02  0.8718411E-01
        1   -1    0    0  501    0  0.00000000000E+00  0.00000000000E+00  0.16404502634E+04  0.16404502634E+04  0.50400001928E-02 0.  1.
       -1   -1    0    0    0  501  0.00000000000E+00  0.00000000000E+00 -0.48144601065E+03  0.48144601068E+03  0.50400001928E-02 0. -1.
    10030    2    1    2    0    0  0.00000000000E+00  0.00000000000E+00  0.11590042527E+04  0.21218962740E+04  0.17774006133E+04 0.  0.
        1    1    3    3  502    0 -0.35253011399E+03 -0.58274383216E+02 -0.39191440229E+03  0.53034920925E+03  0.50400001928E-02 0. -1.
       -1    1    3    3    0  502  0.35253011399E+03  0.58274383216E+02  0.15509186550E+04  0.15915470648E+04  0.50400001928E-02 0.  1.
</event>
<event>
 5   0  0.1573981E-04  0.1869973E+04  0.7818609E-02  0.8669949E-01
       -2   -1    0    0    0  501  0.00000000000E+00  0.00000000000E+00  0.67502670846E+03  0.67502670847E+03  0.25500000920E-02 0.  1.
        2   -1    0    0  501    0  0.00000000000E+00  0.00000000000E+00 -0.12950599492E+04  0.12950599492E+04  0.25500000920E-02 0. -1.
    10030    2    1    2    0    0  0.00000000000E+00  0.00000000000E+00 -0.62003324078E+03  0.19700866577E+04  0.18699733205E+04 0.  0.
        1    1    3    3  502    0 -0.85585453198E+03 -0.28582538523E+03 -0.51917344510E+02  0.90381333329E+03  0.50400001928E-02 0.  1.
       -1    1    3    3    0  502  0.85585453198E+03  0.28582538523E+03 -0.56811589627E+03  0.10662733244E+04  0.50400001928E-02 0. -1.
</event>
<event>
 5   0  0.1608627E-04  0.1795483E+04  0.7818609E-02  0.8708705E-01
        2   -1    0    0  501    0  0.00000000000E+00  0.00000000000E+00  0.25800579588E+04  0.25800579588E+04  0.25500000920E-02 0. -1.
       -2   -1    0    0    0  501  0.00000000000E+00  0.00000000000E+00 -0.31237264024E+03  0.31237264025E+03  0.25500000920E-02 0.  1.
    10030    2    1    2    0    0  0.00000000000E+00  0.00000000000E+00  0.22676853186E+04  0.28924305991E+04  0.17954826834E+04 0.  0.
        2    1    3    3  502    0 -0.48832312022E+03  0.71725111934E+03  0.15048189357E+04  0.17370632306E+04  0.25500000920E-02 0. -1.
       -2    1    3    3    0  502  0.48832312022E+03 -0.71725111934E+03  0.76286638288E+03  0.11553673684E+04  0.25500000920E-02 0.  1.
</event>
<event>
 5   0  0.5820500E-05  0.1800412E+04  0.7818609E-02  0.8706080E-01
       -3   -1    0    0    0  501  0.00000000000E+00  0.00000000000E+00  0.15384799371E+04  0.15384799404E+04  0.10100000352E+00 0.  1.
        3   -1    0    0  501    0  0.00000000000E+00  0.00000000000E+00 -0.52673471215E+03  0.52673472184E+03  0.10100000352E+00 0. -1.
    10030    2    1    2    0    0  0.00000000000E+00  0.00000000000E+00  0.10117452249E+04  0.20652146622E+04  0.18004119531E+04 0.  0.
        2    1    3    3  502    0  0.58952470230E+03  0.67655167411E+03  0.42388047209E+03  0.99243951805E+03  0.25500000920E-02 0. -1.
       -2    1    3    3    0  502 -0.58952470230E+03 -0.67655167411E+03  0.58786475284E+03  0.10727751442E+04  0.25500000920E-02 0.  1.
</event>
<event>
 5   0  0.8132598E-05  0.1792616E+04  0.7818609E-02  0.8710236E-01
       -1   -1    0    0    0  501  0.00000000000E+00  0.00000000000E+00  0.95165489877E+03  0.95165489878E+03  0.50400001928E-02 0. -1.
        1   -1    0    0  501    0  0.00000000000E+00  0.00000000000E+00 -0.84418005750E+03  0.84418005752E+03  0.50400001928E-02 0.  1.
    10030    2    1    2    0    0  0.00000000000E+00  0.00000000000E+00  0.10747484127E+03  0.17958349563E+04  0.17926160628E+04 0.  0.
        3    1    3    3  502    0 -0.24766435652E+03  0.54865849960E+03  0.71901141406E+03  0.93773194806E+03  0.10100000352E+00 0. -1.
       -3    1    3    3    0  502  0.24766435652E+03 -0.54865849960E+03 -0.61153657280E+03  0.85810300823E+03  0.10100000352E+00 0.  1.
</event>
<event>
 5   0  0.1628397E-04  0.1808615E+04  0.7818609E-02  0.8701732E-01
        2   -1    0    0  501    0  0.00000000000E+00  0.00000000000E+00  0.79383665501E+03  0.79383665502E+03  0.25500000920E-02 0.  1.
       -2   -1    0    0    0  501  0.00000000000E+00  0.00000000000E+00 -0.10301514028E+04  0.10301514028E+04  0.25500000920E-02 0. -1.
    10030    2    1    2    0    0  0.00000000000E+00  0.00000000000E+00 -0.23631474777E+03  0.18239880578E+04  0.18086148775E+04 0.  0.
        3    1    3    3  502    0 -0.81355745946E+03  0.26246610501E+03 -0.41563535758E+03  0.95053508972E+03  0.10100000352E+00 0. -1.
       -3    1    3    3    0  502  0.81355745946E+03 -0.26246610501E+03  0.17932060981E+03  0.87345296807E+03  0.10100000352E+00 0.  1.
</event>
<event>
 5   0  0.1603564E-04  0.1877445E+04  0.7818609E-02  0.8666166E-01
       -2   -1    0    0    0  501  0.00000000000E+00  0.00000000000E+00  0.91204015920E+03  0.91204015920E+03  0.25500000920E-02 0.  1.
        2   -1    0    0  501    0  0.00000000000E+00  0.00000000000E+00 -0.96618561377E+03  0.96618561377E+03  0.25500000920E-02 0. -1.
    10030    2    1    2    0    0  0.00000000000E+00  0.00000000000E+00 -0.54145454574E+02  0.18782257730E+04  0.18774451587E+04 0.  0.
        5    1    3    3  502    0 -0.35318847546E+03 -0.84187483640E+03  0.19138164182E+03  0.93281528835E+03  0.46999998093E+01 0.  1.
       -5    1    3    3    0  502  0.35318847546E+03  0.84187483640E+03 -0.24552709640E+03  0.94541048462E+03  0.46999998093E+01 0. -1.
</event>
<event>
 5   0  0.5820500E-05  0.1806174E+04  0.7818609E-02  0.8703023E-01
        3   -1    0    0  501    0  0.00000000000E+00  0.00000000000E+00  0.89288539188E+03  0.89288539759E+03  0.10100000352E+00 0.  1.
       -3   -1    0    0    0  501  0.00000000000E+00  0.00000000000E+00 -0.91340536949E+03  0.91340537507E+03  0.10100000352E+00 0. -1.
    10030    2    1    2    0    0  0.00000000000E+00  0.00000000000E+00 -0.20519977612E+02  0.18062907727E+04  0.18061742125E+04 0.  0.
        2    1    3    3  502    0 -0.43783217408E+03 -0.74825505003E+03 -0.26322628593E+03  0.90601915551E+03  0.25500000920E-02 0.  1.
       -2    1    3    3    0  502  0.43783217408E+03  0.74825505003E+03  0.24270630832E+03  0.90027161715E+03  0.25500000920E-02 0. -1.
</event>
<event>
 5   0  0.1573981E-04  0.1798694E+04  0.7818609E-02  0.8706994E-01
        2   -1    0    0  501    0  0.00000000000E+00  0.00000000000E+00  0.66107704159E+03  0.66107704159E+03  0.25500000920E-02 0. -1.
       -2   -1    0    0    0  501  0.00000000000E+00  0.00000000000E+00 -0.12234964857E+04  0.12234964857E+04  0.25500000920E-02 0.  1.
    10030    2    1    2    0    0  0.00000000000E+00  0.00000000000E+00 -0.56241944415E+03  0.18845735273E+04  0.17986944568E+04 0.  0.
        1    1    3    3  502    0  0.44246696570E+03 -0.15039889222E+03  0.52387091429E+03  0.70202391511E+03  0.50400001928E-02 0. -1.
       -1    1    3    3    0  502 -0.44246696570E+03  0.15039889222E+03 -0.10862903584E+04  0.11825496122E+04  0.50400001928E-02 0.  1.
</event>
<event>
 5   0  0.8206783E-05  0.1816904E+04  0.7818609E-02  0.8697362E-01
        1   -1    0    0  501    0  0.00000000000E+00  0.00000000000E+00  0.10969447622E+04  0.10969447622E+04  0.50400001928E-02 0.  1.
       -1   -1    0    0    0  501  0.00000000000E+00  0.00000000000E+00 -0.75234838004E+03  0.75234838006E+03  0.50400001928E-02 0. -1.
    10030    2    1    2    0    0  0.00000000000E+00  0.00000000000E+00  0.34459638216E+03  0.18492931423E+04  0.18169035361E+04 0.  0.
        1    1    3    3  502    0 -0.82059575529E+03  0.49361162338E+02 -0.22120831637E+03  0.85132076046E+03  0.50400001928E-02 0. -1.
       -1    1    3    3    0  502  0.82059575529E+03 -0.49361162338E+02  0.56580469853E+03  0.99797238180E+03  0.50400001928E-02 0.  1.
</event>
<event>
 5   0  0.1628397E-04  0.1736829E+04  0.7818609E-02  0.8740634E-01
       -2   -1    0    0    0  501  0.00000000000E+00  0.00000000000E+00  0.51337357779E+03  0.51337357780E+03  0.25500000920E-02 0.  1.
        2   -1    0    0  501    0  0.00000000000E+00  0.00000000000E+00 -0.14689963436E+04  0.14689963437E+04  0.25500000920E-02 0. -1.
    10030    2    1    2    0    0  0.00000000000E+00  0.00000000000E+00 -0.95562276586E+03  0.19823699215E+04  0.17368291899E+04 0.  0.
        3    1    3    3  502    0 -0.71337079620E+03  0.34085051880E+03 -0.67763022985E+02  0.79351673361E+03  0.10100000352E+00 0.  1.
       -3    1    3    3    0  502  0.71337079620E+03 -0.34085051880E+03 -0.88785974287E+03  0.11888531878E+04  0.10100000352E+00 0. -1.
</event>
<event>
 5   0  0.1549012E-04  0.1806836E+04  0.7818609E-02  0.8702673E-01
       -2   -1    0    0    0  501  0.00000000000E+00  0.00000000000E+00  0.13239106645E+04  0.13239106645E+04  0.25500000920E-02 0.  1.
        2   -1    0    0  501    0  0.00000000000E+00  0.00000000000E+00 -0.61647939666E+03  0.61647939667E+03  0.25500000920E-02 0. -1.
    10030    2    1    2    0    0  0.00000000000E+00  0.00000000000E+00  0.70743126785E+03  0.19403900612E+04  0.18068355185E+04 0.  0.
        4    1    3    3  502    0 -0.61591233823E+03  0.22284758074E+02  0.10630838025E+04  0.12288178884E+04  0.12699999809E+01 0.  1.
       -4    1    3    3    0  502  0.61591233823E+03 -0.22284758074E+02 -0.35565253461E+03  0.71157217280E+03  0.12699999809E+01 0. -1.
</event>
<event>
 5   0  0.1608627E-04  0.1809578E+04  0.7818609E-02  0.8701223E-01
       -2   -1    0    0    0  501  0.00000000000E+00  0.00000000000E+00  0.61214466066E+03  0.61214466067E+03  0.25500000920E-02 0. -1.
        2   -1    0    0  501    0  0.00000000000E+00  0.00000000000E+00 -0.13373360887E+04  0.13373360887E+04  0.25500000920E-02 0.  1.
    10030    2    1    2    0    0  0.00000000000E+00  0.00000000000E+00 -0.72519142799E+03  0.19494807493E+04  0.18095780129E+04 0.  0.
        2    1    3    3  502    0 -0.56038627735E+03  0.26910471246E+03  0.34564438937E+03  0.71128065489E+03  0.25500000920E-02 0. -1.
       -2    1    3    3    0  502  0.56038627735E+03 -0.26910471246E+03 -0.10708358174E+04  0.12382000944E+04  0.25500000920E-02 0.  1.
</event>
<event>
 5   0  0.1608627E-04  0.1789285E+04  0.7818609E-02  0.8712019E-01
       -2   -1    0    0    0  501  0.00000000000E+00  0.00000000000E+00  0.50531006933E+03  0.50531006934E+03  0.25500000920E-02 0.  1.
        2   -1    0    0  501    0  0.00000000000E+00  0.00000000000E+00 -0.15839479429E+04  0.15839479429E+04  0.25500000920E-02 0. -1.
    10030    2    1    2    0    0  0.00000000000E+00  0.00000000000E+00 -0.10786378735E+04  0.20892580122E+04  0.17892845999E+04 0.  0.
        2    1    3    3  502    0  0.22920123727E+03  0.25539557469E+03 -0.15040442272E+04  0.15426954152E+04  0.25500000920E-02 0. -1.
       -2    1    3    3    0  502 -0.22920123727E+03 -0.25539557469E+03  0.42540635364E+03  0.54656259702E+03  0.25500000920E-02 0.  1.
</event>
<event>
 5   0  0.1573981E-04  0.1792476E+04  0.7818609E-02  0.8710311E-01
        2   -1    0    0  501    0  0.00000000000E+00  0.00000000000E+00  0.65922280659E+03  0.65922280659E+03  0.25500000920E-02 0.  1.
       -2   -1    0    0    0  501  0.00000000000E+00  0.00000000000E+00 -0.12184692431E+04  0.12184692431E+04  0.25500000920E-02 0. -1.
    10030    2    1    2    0    0  0.00000000000E+00  0.00000000000E+00 -0.55924643655E+03  0.18776920497E+04  0.17924761803E+04 0.  0.
        1    1    3    3  502    0  0.22601266099E+03  0.36913537780E+03  0.54247952791E+03  0.69399329124E+03  0.50400001928E-02 0. -1.
       -1    1    3    3    0  502 -0.22601266099E+03 -0.36913537780E+03 -0.11017259645E+04  0.11836987585E+04  0.50400001928E-02 0.  1.
</event>
<event>
 5   0  0.5820500E-05  0.1797104E+04  0.7818609E-02  0.8707841E-01
       -3   -1    0    0    0  501  0.00000000000E+00  0.00000000000E+00  0.45559048064E+03  0.45559049184E+03  0.10100000352E+00 0.  1.
        3   -1    0    0  501    0  0.00000000000E+00  0.00000000000E+00 -0.17721967488E+04  0.17721967517E+04  0.10100000352E+00 0. -1.
    10030    2    1    2    0    0  0.00000000000E+00  0.00000000000E+00 -0.13166062681E+04  0.22277872435E+04  0.17971043200E+04 0.  0.
        2    1    3    3  502    0 -0.13334156497E+03 -0.73961326498E+03 -0.47733379496E+02  0.75305127994E+03  0.25500000920E-02 0.  1.
       -2    1    3    3    0  502  0.13334156497E+03  0.73961326498E+03 -0.12688728886E+04  0.14747359636E+04  0.25500000920E-02 0. -1.
</event>
<event>
 5   0  0.8206783E-05  0.1816402E+04  0.7818609E-02  0.8697625E-01
       -1   -1    0    0    0  501  0.00000000000E+00  0.00000000000E+00  0.62291500579E+03  0.62291500581E+03  0.50400001928E-02 0.  1.
        1   -1    0    0  501    0  0.00000000000E+00  0.00000000000E+00 -0.13241444277E+04  0.13241444277E+04  0.50400001928E-02 0. -1.
    10030    2    1    2    0    0  0.00000000000E+00  0.00000000000E+00 -0.70122942193E+03  0.19470594335E+04  0.18164024156E+04 0.  0.
        1    1    3    3  502    0  0.24453410765E+03  0.37550183335E+03 -0.11973939025E+04  0.12784954886E+04  0.50400001928E-02 0. -1.
       -1    1    3    3    0  502 -0.24453410765E+03 -0.37550183335E+03  0.49616448056E+03  0.66856394492E+03  0.50400001928E-02 0.  1.
</event>
<event>
 5   0  0.1573981E-04  0.1799525E+04  0.7818609E-02  0.8706552E-01
        2   -1    0    0  501    0  0.00000000000E+00  0.00000000000E+00  0.17578939943E+04  0.17578939943E+04  0.25500000920E-02 0. -1.
       -2   -1    0    0    0  501  0.00000000000E+00  0.00000000000E+00 -0.46053545002E+03  0.46053545003E+03  0.25500000920E-02 0.  1.
    10030    2    1    2    0    0  0.00000000000E+00  0.00000000000E+00  0.12973585443E+04  0.22184294443E+04  0.17995249393E+04 0.  0.
        1    1    3    3  502    0  0.84575459332E+02 -0.22059370660E+03  0.17189747546E+04  0.17351336544E+04  0.50400001928E-02 0. -1.
       -1    1    3    3    0  502 -0.84575459332E+02  0.22059370660E+03 -0.42161621032E+03  0.48329578991E+03  0.50400001928E-02 0.  1.
</event>
<event>
 5   0  0.8492114E-05  0.1816487E+04  0.7818609E-02  0.8697581E-01
       -1   -1    0    0    0  501  0.00000000000E+00  0.00000000000E+00  0.48874559803E+03  0.48874559806E+03  0.50400001928E-02 0. -1.
        1   -1    0    0  501    0  0.00000000000E+00  0.00000000000E+00 -0.16878023342E+04  0.16878023342E+04  0.50400001928E-02 0.  1.
    10030    2    1    2    0    0  0.00000000000E+00  0.00000000000E+00 -0.11990567362E+04  0.21765479323E+04  0.18164866762E+04 0.  0.
        2    1    3    3  502    0  0.27729094762E+03  0.51604397108E+03  0.23210286900E+03  0.63012966247E+03  0.25500000920E-02 0. -1.
       -2    1    3    3    0  502 -0.27729094762E+03 -0.51604397108E+03 -0.14311596052E+04  0.15464182698E+04  0.25500000920E-02 0.  1.
</event>
<event>
 5   0  0.8132598E-05  0.1803883E+04  0.7818609E-02  0.8704237E-01
        1   -1    0    0  501    0  0.00000000000E+00  0.00000000000E+00  0.10276490139E+04  0.10276490139E+04  0.50400001928E-02 0. -1.
       -1   -1    0    0    0  501  0.00000000000E+00  0.00000000000E+00 -0.79161159933E+03  0.79161159935E+03  0.50400001928E-02 0.  1.
    10030    2    1    2    0    0  0.00000000000E+00  0.00000000000E+00  0.23603741457E+03  0.18192606133E+04  0.18038834546E+04 0.  0.
        3    1    3    3  502    0  0.15458730198E+03  0.72288219257E+03 -0.40314842345E+03  0.84201220882E+03  0.10100000352E+00 0.  1.
       -3    1    3    3    0  502 -0.15458730198E+03 -0.72288219257E+03  0.63918583802E+03  0.97724840445E+03  0.10100000352E+00 0. -1.
</event>
<event>
 5   0  0.8254914E-05  0.1797630E+04  0.7818609E-02  0.8707561E-01
       -1   -1    0    0    0  501  0.00000000000E+00  0.00000000000E+00  0.49052616016E+03  0.49052616019E+03  0.50400001928E-02 0.  1.
        1   -1    0    0  501    0  0.00000000000E+00  0.00000000000E+00 -0.16469433921E+04  0.16469433921E+04  0.50400001928E-02 0. -1.
    10030    2    1    2    0    0  0.00000000000E+00  0.00000000000E+00 -0.11564172319E+04  0.21374695523E+04  0.17976304605E+04 0.  0.
        4    1    3    3  502    0  0.66439783672E+03 -0.48893090429E+03 -0.10025994331E+04  0.12983393820E+04  0.12699999809E+01 0. -1.
       -4    1    3    3    0  502 -0.66439783672E+03  0.48893090429E+03 -0.15381779884E+03  0.83913017033E+03  0.12699999809E+01 0.  1.
</event>
<event>
 5   0  0.1573981E-04  0.1794960E+04  0.7818609E-02  0.8708984E-01
        2   -1    0    0  501    0  0.00000000000E+00  0.00000000000E+00  0.65612753550E+03  0.65612753550E+03  0.25500000920E-02 0.  1.
       -2   -1    0    0    0  501  0.00000000000E+00  0.00000000000E+00 -0.12276119717E+04  0.12276119717E+04  0.25500000920E-02 0. -1.
    10030    2    1    2    0    0  0.00000000000E+00  0.00000000000E+00 -0.57148443620E+03  0.18837395072E+04  0.17949596291E+04 0.  0.
        1    1    3    3  502    0 -0.50329231209E+03 -0.73645661179E+03 -0.38962570416E+03  0.97338567990E+03  0.50400001928E-02 0.  1.
       -1    1    3    3    0  502  0.50329231209E+03  0.73645661179E+03 -0.18185873204E+03  0.91035382731E+03  0.50400001928E-02 0. -1.
</event>
<event>
 5   0  0.8492114E-05  0.1969636E+04  0.7818609E-02  0.8620950E-01
        1   -1    0    0  501    0  0.00000000000E+00  0.00000000000E+00  0.15190623380E+04  0.15190623380E+04  0.50400001928E-02 0.  1.
       -1   -1    0    0    0  501  0.00000000000E+00  0.00000000000E+00 -0.63846378619E+03  0.63846378621E+03  0.50400001928E-02 0. -1.
    10030    2    1    2    0    0  0.00000000000E+00  0.00000000000E+00  0.88059855185E+03  0.21575261243E+04  0.19696357956E+04 0.  0.
        2    1    3    3  502    0 -0.20443521599E+03  0.54852451222E+03 -0.42720349823E+03  0.72469009028E+03  0.25500000920E-02 0. -1.
       -2    1    3    3    0  502  0.20443521599E+03 -0.54852451222E+03  0.13078020501E+04  0.14328360340E+04  0.25500000920E-02 0.  1.
</event>
<event>
 5   0  0.8430513E-05  0.1788786E+04  0.7818609E-02  0.8712286E-01
        1   -1    0    0  501    0  0.00000000000E+00  0.00000000000E+00  0.17562645662E+04  0.17562645662E+04  0.50400001928E-02 0. -1.
       -1   -1    0    0    0  501  0.00000000000E+00  0.00000000000E+00 -0.45547723318E+03  0.45547723320E+03  0.50400001928E-02 0.  1.
    10030    2    1    2    0    0  0.00000000000E+00  0.00000000000E+00  0.13007873331E+04  0.22117417994E+04  0.17887856500E+04 0.  0.
        5    1    3    3  502    0 -0.73117941769E+03 -0.45926185763E+03  0.36208191632E+03  0.93630667991E+03  0.46999998093E+01 0.  1.
       -5    1    3    3    0  502  0.73117941769E+03  0.45926185763E+03  0.93870541674E+03  0.12754351195E+04  0.46999998093E+01 0. -1.
</event>
<event>
 5   0  0.8430513E-05  0.1788307E+04  0.7818609E-02  0.8712542E-01
        1   -1    0    0  501    0  0.00000000000E+00  0.00000000000E+00  0.13745456839E+04  0.13745456839E+04  0.50400001928E-02 0.  1.
       -1   -1    0    0    0  501  0.00000000000E+00  0.00000000000E+00 -0.58165459663E+03  0.58165459665E+03  0.50400001928E-02 0. -1.
    10030    2    1    2    0    0  0.00000000000E+00  0.00000000000E+00  0.79289108724E+03  0.19562002805E+04  0.17883073733E+04 0.  0.
        5    1    3    3  502    0  0.30919074294E+02 -0.49862993713E+03 -0.41472724517E+03  0.64931393119E+03  0.46999998093E+01 0. -1.
       -5    1    3    3    0  502 -0.30919074294E+02  0.49862993713E+03  0.12076183324E+04  0.13068863494E+04  0.46999998093E+01 0.  1.
</event>
<event>
 5   0  0.1573981E-04  0.1795733E+04  0.7818609E-02  0.8708572E-01
       -2   -1    0    0    0  501  0.00000000000E+00  0.00000000000E+00  0.10224503548E+04  0.10224503548E+04  0.25500000920E-02 0.  1.
        2   -1    0    0  501    0  0.00000000000E+00  0.00000000000E+00 -0.78846299460E+03  0.78846299460E+03  0.25500000920E-02 0. -1.
    10030    2    1    2    0    0  0.00000000000E+00  0.00000000000E+00  0.23398736024E+03  0.18109133494E+04  0.17957330187E+04 0.  0.
        1    1    3    3  502    0 -0.19308555498E+03 -0.52205295865E+03  0.82746545419E+03  0.99725643697E+03  0.50400001928E-02 0.  1.
       -1    1    3    3    0  502  0.19308555498E+03  0.52205295865E+03 -0.59347809395E+03  0.81365691246E+03  0.50400001928E-02 0. -1.
</event>
<event>
 5   0  0.8430513E-05  0.1804068E+04  0.7818609E-02  0.8704139E-01
        1   -1    0    0  501    0  0.00000000000E+00  0.00000000000E+00  0.13300206769E+04  0.13300206769E+04  0.50400001928E-02 0. -1.
       -1   -1    0    0    0  501  0.00000000000E+00  0.00000000000E+00 -0.61176893052E+03  0.61176893054E+03  0.50400001928E-02 0.  1.
    10030    2    1    2    0    0  0.00000000000E+00  0.00000000000E+00  0.71825174633E+03  0.19417896074E+04  0.18040679888E+04 0.  0.
        5    1    3    3  502    0 -0.75974703150E+03  0.37797281713E+03  0.68835951558E+03  0.10926755763E+04  0.46999998093E+01 0. -1.
       -5    1    3    3    0  502  0.75974703150E+03 -0.37797281713E+03  0.29892230744E+02  0.84911403110E+03  0.46999998093E+01 0.  1.
</event>
<event>
 5   0  0.1608627E-04  0.1801902E+04  0.7818609E-02  0.8705288E-01
       -2   -1    0    0    0  501  0.00000000000E+00  0.00000000000E+00  0.20203316974E+04  0.20203316974E+04  0.25500000920E-02 0.  1.
        2   -1    0    0  501    0  0.00000000000E+00  0.00000000000E+00 -0.40177215401E+03  0.40177215402E+03  0.25500000920E-02 0. -1.
    10030    2    1    2    0    0  0.00000000000E+00  0.00000000000E+00  0.16185595434E+04  0.24221038514E+04  0.18019023480E+04 0.  0.
        2    1    3    3  502    0 -0.75495983223E+02 -0.87990417747E+03  0.10489158528E+04  0.13711876134E+04  0.25500000920E-02 0.  1.
       -2    1    3    3    0  502  0.75495983223E+02  0.87990417747E+03  0.56964369064E+03  0.10509162380E+04  0.25500000920E-02 0. -1.
</event>
<event>
 5   0  0.8492114E-05  0.1813039E+04  0.7818609E-02  0.8699396E-01
       -1   -1    0    0    0  501  0.00000000000E+00  0.00000000000E+00  0.10406232648E+04  0.10406232648E+04  0.50400001928E-02 0.  1.
        1   -1    0    0  501    0  0.00000000000E+00  0.00000000000E+00 -0.78969753812E+03  0.78969753814E+03  0.50400001928E-02 0. -1.
    10030    2    1    2    0    0  0.00000000000E+00  0.00000000000E+00  0.25092572666E+03  0.18303208029E+04  0.18130390292E+04 0.  0.
        2    1    3    3  502    0 -0.51696501002E+03  0.84601299329E+02  0.87235783933E+03  0.10175551097E+04  0.25500000920E-02 0. -1.
       -2    1    3    3    0  502  0.51696501002E+03 -0.84601299329E+02 -0.62143211267E+03  0.81276569323E+03  0.25500000920E-02 0.  1.
</event>
<event>
 5   0  0.1603564E-04  0.1795569E+04  0.7818609E-02  0.8708659E-01
       -2   -1    0    0    0  501  0.00000000000E+00  0.00000000000E+00  0.51974853199E+03  0.51974853199E+03  0.25500000920E-02 0. -1.
        2   -1    0    0  501    0  0.00000000000E+00  0.00000000000E+00 -0.15507828820E+04  0.15507828820E+04  0.25500000920E-02 0.  1.
    10030    2    1    2    0    0  0.00000000000E+00  0.00000000000E+00 -0.10310343500E+04  0.20705314140E+04  0.17955691313E+04 0.  0.
        5    1    3    3  502    0  0.47796100329E+03  0.22046181642E+02  0.36045646535E+03  0.59906903458E+03  0.46999998093E+01 0. -1.
       -5    1    3    3    0  502 -0.47796100329E+03 -0.22046181642E+02 -0.13914908154E+04  0.14714623794E+04  0.46999998093E+01 0.  1.
</event>
<event>
 5   0  0.1549012E-04  0.1776685E+04  0.7818609E-02  0.8718798E-01
        2   -1    0    0  501    0  0.00000000000E+00  0.00000000000E+00  0.70455540020E+03  0.70455540020E+03  0.25500000920E-02 0.  1.
       -2   -1    0    0    0  501  0.00000000000E+00  0.00000000000E+00 -0.11200709915E+04  0.11200709915E+04  0.25500000920E-02 0. -1.
    10030    2    1    2    0    0  0.00000000000E+00  0.00000000000E+00 -0.41551559131E+03  0.18246263917E+04  0.17766846267E+04 0.  0.
        4    1    3    3  502    0 -0.39967028899E+03 -0.13168953965E+03 -0.10112188980E+04  0.10952824966E+04  0.12699999809E+01 0. -1.
       -4    1    3    3    0  502  0.39967028899E+03  0.13168953965E+03  0.59570330673E+03  0.72934389509E+03  0.12699999809E+01 0.  1.
</event>
<event>
 5   0  0.1549012E-04  0.1786400E+04  0.7818609E-02  0.8713565E-01
       -2   -1    0    0    0  501  0.00000000000E+00  0.00000000000E+00  0.63961317207E+03  0.63961317208E+03  0.25500000920E-02 0.  1.
        2   -1    0    0  501    0  0.00000000000E+00  0.00000000000E+00 -0.12473260980E+04  0.12473260980E+04  0.25500000920E-02 0. -1.
    10030    2    1    2    0    0  0.00000000000E+00  0.00000000000E+00 -0.60771292593E+03  0.18869392701E+04  0.17863999576E+04 0.  0.
        4    1    3    3  502    0 -0.71302475171E+03 -0.53746845348E+03 -0.27958603944E+03  0.93565303472E+03  0.12699999809E+01 0.  1.
       -4    1    3    3    0  502  0.71302475171E+03  0.53746845348E+03 -0.32812688648E+03  0.95128623535E+03  0.12699999809E+01 0. -1.
</event>
<event>
 5   0  0.5820500E-05  0.1779646E+04  0.7818609E-02  0.8717199E-01
        3   -1    0    0  501    0  0.00000000000E+00  0.00000000000E+00  0.85041175769E+03  0.85041176369E+03  0.10100000352E+00 0.  1.
       -3   -1    0    0    0  501  0.00000000000E+00  0.00000000000E+00 -0.93106052580E+03  0.93106053128E+03  0.10100000352E+00 0. -1.
    10030    2    1    2    0    0  0.00000000000E+00  0.00000000000E+00 -0.80648768109E+02  0.17814722950E+04  0.17796458395E+04 0.  0.
        2    1    3    3  502    0  0.66934724691E+03  0.54656609036E+03  0.17208339727E+03  0.88112026631E+03  0.25500000920E-02 0. -1.
       -2    1    3    3    0  502 -0.66934724691E+03 -0.54656609036E+03 -0.25273216538E+03  0.90035202866E+03  0.25500000920E-02 0.  1.
</event>
<event>
 5   0  0.5820500E-05  0.1804110E+04  0.7818609E-02  0.8704117E-01
       -3   -1    0    0    0  501  0.00000000000E+00  0.00000000000E+00  0.13268190892E+04  0.13268190930E+04  0.10100000352E+00 0.  1.
        3   -1    0    0  501    0  0.00000000000E+00  0.00000000000E+00 -0.61327342252E+03  0.61327343084E+03  0.10100000352E+00 0. -1.
    10030    2    1    2    0    0  0.00000000000E+00  0.00000000000E+00  0.71354566667E+03  0.19400925239E+04  0.18041096371E+04 0.  0.
        1    1    3    3  502    0  0.62175662678E+03  0.28883507775E+03 -0.27367141288E+03  0.73817548546E+03  0.50400001928E-02 0. -1.
       -1    1    3    3    0  502 -0.62175662678E+03 -0.28883507775E+03  0.98721707954E+03  0.12019170384E+04  0.50400001928E-02 0.  1.
</event>
<event>
 5   0  0.8430513E-05  0.1821643E+04  0.7818609E-02  0.8694874E-01
        1   -1    0    0  501    0  0.00000000000E+00  0.00000000000E+00  0.14967345455E+04  0.14967345455E+04  0.50400001928E-02 0.  1.
       -1   -1    0    0    0  501  0.00000000000E+00  0.00000000000E+00 -0.55427023409E+03  0.55427023412E+03  0.50400001928E-02 0. -1.
    10030    2    1    2    0    0  0.00000000000E+00  0.00000000000E+00  0.94246431137E+03  0.20510047796E+04  0.18216425631E+04 0.  0.
        5    1    3    3  502    0  0.25308960905E+03 -0.77578346769E+03  0.92674429948E+03  0.12348163530E+04  0.46999998093E+01 0. -1.
       -5    1    3    3    0  502 -0.25308960905E+03  0.77578346769E+03  0.15720011883E+02  0.81618842661E+03  0.46999998093E+01 0.  1.
</event>
<event>
 5   0  0.1549012E-04  0.1801687E+04  0.7818609E-02  0.8705403E-01
        2   -1    0    0  501    0  0.00000000000E+00  0.00000000000E+00  0.13444667846E+04  0.13444667846E+04  0.25500000920E-02 0.  1.
       -2   -1    0    0    0  501  0.00000000000E+00  0.00000000000E+00 -0.60359939949E+03  0.60359939949E+03  0.25500000920E-02 0. -1.
    10030    2    1    2    0    0  0.00000000000E+00  0.00000000000E+00  0.74086738515E+03  0.19480661841E+04  0.18016873689E+04 0.  0.
        4    1    3    3  502    0  0.44642748009E+03  0.32396574051E+03 -0.39965782033E+03  0.68116024712E+03  0.12699999809E+01 0. -1.
       -4    1    3    3    0  502 -0.44642748009E+03 -0.32396574051E+03  0.11405252055E+04  0.12669059370E+04  0.12699999809E+01 0.  1.
</event>
<event>
 5   0  0.1603564E-04  0.1791593E+04  0.7818609E-02  0.8710783E-01
       -2   -1    0    0    0  501  0.00000000000E+00  0.00000000000E+00  0.55291346671E+03  0.55291346672E+03  0.25500000920E-02 0. -1.
        2   -1    0    0  501    0  0.00000000000E+00  0.00000000000E+00 -0.14513150696E+04  0.14513150696E+04  0.25500000920E-02 0.  1.
    10030    2    1    2    0    0  0.00000000000E+00  0.00000000000E+00 -0.89840160292E+03  0.20042285363E+04  0.17915933093E+04 0.  0.
        5    1    3    3  502    0  0.41244895868E+03  0.16438010827E+03 -0.13195453364E+04  0.13922488816E+04  0.46999998093E+01 0.  1.
       -5    1    3    3    0  502 -0.41244895868E+03 -0.16438010827E+03  0.42114373351E+03  0.61197965472E+03  0.46999998093E+01 0. -1.
</event>
<event>
 5   0  0.8430513E-05  0.1800683E+04  0.7818609E-02  0.8705936E-01
        1   -1    0    0  501    0  0.00000000000E+00  0.00000000000E+00  0.11008261727E+04  0.11008261727E+04  0.50400001928E-02 0. -1.
       -1   -1    0    0    0  501  0.00000000000E+00  0.00000000000E+00 -0.73636926377E+03  0.73636926379E+03  0.50400001928E-02 0.  1.
    10030    2    1    2    0    0  0.00000000000E+00  0.00000000000E+00  0.36445690896E+03  0.18371954365E+04  0.18006827132E+04 0.  0.
        5    1    3    3  502    0  0.33575280534E+03  0.46691106350E+03  0.88899159242E+03  0.10588031115E+04  0.46999998093E+01 0. -1.
       -5    1    3    3    0  502 -0.33575280534E+03 -0.46691106350E+03 -0.52453468346E+03  0.77839232503E+03  0.46999998093E+01 0.  1.
</event>
<event>
 5   0  0.1549012E-04  0.1805820E+04  0.7818609E-02  0.8703211E-01
       -2   -1    0    0    0  501  0.00000000000E+00  0.00000000000E+00  0.39608746011E+03  0.39608746012E+03  0.25500000920E-02 0.  1.
        2   -1    0    0  501    0  0.00000000000E+00  0.00000000000E+00 -0.20582478837E+04  0.20582478837E+04  0.25500000920E-02 0. -1.
    10030    2    1    2    0    0  0.00000000000E+00  0.00000000000E+00 -0.16621604235E+04  0.24543353438E+04  0.18058196771E+04 0.  0.
        4    1    3    3  502    0  0.45236538300E+03  0.63749718422E+03 -0.21690069766E+03  0.81122415224E+03  0.12699999809E+01 0.  1.
       -4    1    3    3    0  502 -0.45236538300E+03 -0.63749718422E+03 -0.14452597259E+04  0.16431111915E+04  0.12699999809E+01 0. -1.
</event>
<event>
 5   0  0.1573981E-04  0.1801296E+04  0.7818609E-02  0.8705611E-01
       -2   -1    0    0    0  501  0.00000000000E+00  0.00000000000E+00  0.71186595922E+03  0.71186595923E+03  0.25500000920E-02 0.  1.
        2   -1    0    0  501    0  0.00000000000E+00  0.00000000000E+00 -0.11394936518E+04  0.11394936518E+04  0.25500000920E-02 0. -1.
    10030    2    1    2    0    0  0.00000000000E+00  0.00000000000E+00 -0.42762769259E+03  0.18513596110E+04  0.18012959129E+04 0.  0.
        1    1    3    3  502    0  0.33445774921E+03 -0.35895247805E+03 -0.99009226208E+03  0.11049848664E+04  0.50400001928E-02 0. -1.
       -1    1    3    3    0  502 -0.33445774921E+03  0.35895247805E+03  0.56246456949E+03  0.74637474465E+03  0.50400001928E-02 0.  1.
</event>
<event>
 5   0  0.8132598E-05  0.1793358E+04  0.7818609E-02  0.8709840E-01
        1   -1    0    0  501    0  0.00000000000E+00  0.00000000000E+00  0.16658077574E+04  0.16658077574E+04  0.50400001928E-02 0.  1.
       -1   -1    0    0    0  501  0.00000000000E+00  0.00000000000E+00 -0.48266845120E+03  0.48266845122E+03  0.50400001928E-02 0. -1.
    10030    2    1    2    0    0  0.00000000000E+00  0.00000000000E+00  0.11831393062E+04  0.21484762086E+04  0.17933575776E+04 0.  0.
        3    1    3    3  502    0 -0.50274107768E+02 -0.35652751910E+03 -0.39226097543E+03  0.53245473125E+03  0.10100000352E+00 0. -1.
       -3    1    3    3    0  502  0.50274107768E+02  0.35652751910E+03  0.15754002816E+04  0.16160214774E+04  0.10100000352E+00 0.  1.
</event>
<event>
 5   0  0.1628397E-04  0.1796362E+04  0.7818609E-02  0.8708236E-01
        2   -1    0    0  501    0  0.00000000000E+00  0.00000000000E+00  0.13542114090E+04  0.13542114090E+04  0.25500000920E-02 0. -1.
       -2   -1    0    0    0  501  0.00000000000E+00  0.00000000000E+00 -0.59571884967E+03  0.59571884967E+03  0.25500000920E-02 0.  1.
    10030    2    1    2    0    0  0.00000000000E+00  0.00000000000E+00  0.75849255936E+03  0.19499302587E+04  0.17963621715E+04 0.  0.
        3    1    3    3  502    0  0.52196675318E+03  0.18646267193E+03  0.11464275316E+04  0.12733867107E+04  0.10100000352E+00 0. -1.
       -3    1    3    3    0  502 -0.52196675318E+03 -0.18646267193E+03 -0.38793497228E+03  0.67654354802E+03  0.10100000352E+00 0.  1.
</event>
<event>
 5   0  0.8132598E-05  0.1789316E+04  0.7818609E-02  0.8712002E-01
        1   -1    0    0  501    0  0.00000000000E+00  0.00000000000E+00  0.15276460070E+04  0.15276460070E+04  0.50400001928E-02 0. -1.
       -1   -1    0    0    0  501  0.00000000000E+00  0.00000000000E+00 -0.52395208748E+03  0.52395208751E+03  0.50400001928E-02 0.  1.
    10030    2    1    2    0    0  0.00000000000E+00  0.00000000000E+00  0.10036939195E+04  0.20515980945E+04  0.17893164218E+04 0.  0.
        3    1    3    3  502    0 -0.84376722536E+03  0.29272914836E+03  0.56229934184E+03  0.10553738887E+04  0.10100000352E+00 0. -1.
       -3    1    3    3    0  502  0.84376722536E+03 -0.29272914836E+03  0.44139457770E+03  0.99622420585E+03  0.10100000352E+00 0.  1.
</event>
<event>
 5   0  0.8430513E-05  0.1807130E+04  0.7818609E-02  0.8702517E-01
       -1   -1    0    0    0  501  0.00000000000E+00  0.00000000000E+00  0.65319837107E+03  0.65319837109E+03  0.50400001928E-02 0.  1.
        1   -1    0    0  501    0  0.00000000000E+00  0.00000000000E+00 -0.12498960757E+04  0.12498960757E+04  0.50400001928E-02 0. -1.
    10030    2    1    2    0    0  0.00000000000E+00  0.00000000000E+00 -0.59669770467E+03  0.19030944468E+04  0.18071304111E+04 0.  0.
        5    1    3    3  502    0  0.77095968017E+03 -0.41606933943E+03 -0.65435734048E+02  0.87851946418E+03  0.46999998093E+01 0. -1.
       -5    1    3    3    0  502 -0.77095968017E+03  0.41606933943E+03 -0.53126197062E+03  0.10245749827E+04  0.46999998093E+01 0.  1.
</event>
<event>
 5   0  0.8206783E-05  0.1794641E+04  0.7818609E-02  0.8709154E-01
        1   -1    0    0  501    0  0.00000000000E+00  0.00000000000E+00  0.19637228004E+04  0.19637228004E+04  0.50400001928E-02 0.  1.
       -1   -1    0    0    0  501  0.00000000000E+00  0.00000000000E+00 -0.41002955616E+03  0.41002955620E+03  0.50400001928E-02 0. -1.
    10030    2    1    2    0    0  0.00000000000E+00  0.00000000000E+00  0.15536932442E+04  0.23737523566E+04  0.17946413439E+04 0.  0.
        1    1    3    3  502    0  0.13869949541E+03  0.80773351050E+03  0.12601504016E+04  0.15032132280E+04  0.50400001928E-02 0.  1.
       -1    1    3    3    0  502 -0.13869949541E+03 -0.80773351050E+03  0.29354284261E+03  0.87053912863E+03  0.50400001928E-02 0. -1.
</event>
<event>
 5   0  0.8206783E-05  0.1792840E+04  0.7818609E-02  0.8710116E-01
        1   -1    0    0  501    0  0.00000000000E+00  0.00000000000E+00  0.17336148189E+04  0.17336148189E+04  0.50400001928E-02 0.  1.
       -1   -1    0    0    0  501  0.00000000000E+00  0.00000000000E+00 -0.46352218252E+03  0.46352218255E+03  0.50400001928E-02 0. -1.
    10030    2    1    2    0    0  0.00000000000E+00  0.00000000000E+00  0.12700926364E+04  0.21971370015E+04  0.17928401207E+04 0.  0.
        1    1    3    3  502    0 -0.20418471377E+03  0.45088365692E+03  0.15509690383E+04  0.16280333004E+04  0.50400001928E-02 0.  1.
       -1    1    3    3    0  502  0.20418471377E+03 -0.45088365692E+03 -0.28087640191E+03  0.56910370108E+03  0.50400001928E-02 0. -1.
</event>
<event>
 5   0  0.1628397E-04  0.1791119E+04  0.7818609E-02  0.8711037E-01
       -2   -1    0    0    0  501  0.00000000000E+00  0.00000000000E+00  0.29751035845E+03  0.29751035846E+03  0.25500000920E-02 0. -1.
        2   -1    0    0  501    0  0.00000000000E+00  0.00000000000E+00 -0.26957939622E+04  0.26957939622E+04  0.25500000920E-02 0.  1.
    10030    2    1    2    0    0  0.00000000000E+00  0.00000000000E+00 -0.23982836037E+04  0.29933043206E+04  0.17911187878E+04 0.  0.
        3    1    3    3  502    0  0.35397477276E+02  0.64925604453E+03 -0.16997994716E+03  0.67207111633E+03  0.10100000352E+00 0. -1.
       -3    1    3    3    0  502 -0.35397477276E+02 -0.64925604453E+03 -0.22283036566E+04  0.23212332043E+04  0.10100000352E+00 0.  1.
</event>
<event>
 5   0  0.8206783E-05  0.1793940E+04  0.7818609E-02  0.8709529E-01
       -1   -1    0    0    0  501  0.00000000000E+00  0.00000000000E+00  0.51729595710E+03  0.51729595712E+03  0.50400001928E-02 0. -1.
        1   -1    0    0  501    0  0.00000000000E+00  0.00000000000E+00 -0.15553085892E+04  0.15553085892E+04  0.50400001928E-02 0.  1.
    10030    2    1    2    0    0  0.00000000000E+00  0.00000000000E+00 -0.10380126321E+04  0.20726045463E+04  0.17939396258E+04 0.  0.
        1    1    3    3  502    0  0.56497175214E+03  0.19806527975E+03  0.25267905449E+03  0.64982277612E+03  0.50400001928E-02 0. -1.
       -1    1    3    3    0  502 -0.56497175214E+03 -0.19806527975E+03 -0.12906916866E+04  0.14227817702E+04  0.50400001928E-02 0.  1.
</event>
<event>
 5   0  0.8492114E-05  0.1759929E+04  0.7818609E-02  0.8727904E-01
       -1   -1    0    0    0  501  0.00000000000E+00  0.00000000000E+00  0.10707245963E+04  0.10707245963E+04  0.50400001928E-02 0.  1.
        1   -1    0    0  501    0  0.00000000000E+00  0.00000000000E+00 -0.72319009723E+03  0.72319009725E+03  0.50400001928E-02 0. -1.
    10030    2    1    2    0    0  0.00000000000E+00  0.00000000000E+00  0.34753449905E+03  0.17939146935E+04  0.17599288905E+04 0.  0.
        2    1    3    3  502    0 -0.40545897810E+03  0.23036691140E+03  0.93441603005E+03  0.10443175829E+04  0.25500000920E-02 0.  1.
       -2    1    3    3    0  502  0.40545897810E+03 -0.23036691140E+03 -0.58688153101E+03  0.74959711061E+03  0.25500000920E-02 0. -1.
</event>
<event>
 5   0  0.8430513E-05  0.1795746E+04  0.7818609E-02  0.8708565E-01
       -1   -1    0    0    0  501  0.00000000000E+00  0.00000000000E+00  0.66560535837E+03  0.66560535838E+03  0.50400001928E-02 0.  1.
        1   -1    0    0  501    0  0.00000000000E+00  0.00000000000E+00 -0.12111915710E+04  0.12111915710E+04  0.50400001928E-02 0. -1.
    10030    2    1    2    0    0  0.00000000000E+00  0.00000000000E+00 -0.54558621266E+03  0.18767969294E+04  0.17957456387E+04 0.  0.
        5    1    3    3  502    0 -0.35826884459E+03  0.63924733726E+03  0.26942941418E+03  0.78077398934E+03  0.46999998093E+01 0.  1.
       -5    1    3    3    0  502  0.35826884459E+03 -0.63924733726E+03 -0.81501562684E+03  0.10960229401E+04  0.46999998093E+01 0. -1.
</event>
<event>
 5   0  0.1549012E-04  0.1793267E+04  0.7818609E-02  0.8709888E-01
        2   -1    0    0  501    0  0.00000000000E+00  0.00000000000E+00  0.72756306802E+03  0.72756306803E+03  0.25500000920E-02 0.  1.
       -2   -1    0    0    0  501  0.00000000000E+00  0.00000000000E+00 -0.11049926325E+04  0.11049926325E+04  0.25500000920E-02 0. -1.
    10030    2    1    2    0    0  0.00000000000E+00  0.00000000000E+00 -0.37742956450E+03  0.18325557006E+04  0.17932672192E+04 0.  0.
        4    1    3    3  502    0 -0.10107437807E+03  0.68319581146E+03 -0.77306232455E+03  0.10366289197E+04  0.12699999809E+01 0. -1.
       -4    1    3    3    0  502  0.10107437807E+03 -0.68319581146E+03  0.39563276005E+03  0.79592678082E+03  0.12699999809E+01 0.  1.
</event>
<event>
 5   0  0.1628397E-04  0.1795257E+04  0.7818609E-02  0.8708826E-01
       -2   -1    0    0    0  501  0.00000000000E+00  0.00000000000E+00  0.10532327850E+04  0.10532327850E+04  0.25500000920E-02 0. -1.
        2   -1    0    0  501    0  0.00000000000E+00  0.00000000000E+00 -0.76501275643E+03  0.76501275643E+03  0.25500000920E-02 0.  1.
    10030    2    1    2    0    0  0.00000000000E+00  0.00000000000E+00  0.28822002860E+03  0.18182455415E+04  0.17952565455E+04 0.  0.
        3    1    3    3  502    0 -0.14795151148E+03  0.80777332792E+03 -0.22295211060E+03  0.85093774911E+03  0.10100000352E+00 0. -1.
       -3    1    3    3    0  502  0.14795151148E+03 -0.80777332792E+03  0.51117213920E+03  0.96730779235E+03  0.10100000352E+00 0.  1.
</event>
<event>
 5   0  0.8206783E-05  0.1794078E+04  0.7818609E-02  0.8709455E-01
       -1   -1    0    0    0  501  0.00000000000E+00  0.00000000000E+00  0.71389871996E+03  0.71389871998E+03  0.50400001928E-02 0.  1.
        1   -1    0    0  501    0  0.00000000000E+00  0.00000000000E+00 -0.11271616932E+04  0.11271616932E+04  0.50400001928E-02 0. -1.
    10030    2    1    2    0    0  0.00000000000E+00  0.00000000000E+00 -0.41326297327E+03  0.18410604132E+04  0.17940783595E+04 0.  0.
        1    1    3    3  502    0  0.50871614167E+03  0.23505778620E+03 -0.92542790001E+03  0.10818784931E+04  0.50400001928E-02 0. -1.
       -1    1    3    3    0  502 -0.50871614167E+03 -0.23505778620E+03  0.51216492674E+03  0.75918192013E+03  0.50400001928E-02 0.  1.
</event>
<event>
 5   0  0.8492114E-05  0.1798151E+04  0.7818609E-02  0.8707284E-01
       -1   -1    0    0    0  501  0.00000000000E+00  0.00000000000E+00  0.63335600909E+03  0.63335600911E+03  0.50400001928E-02 0. -1.
        1   -1    0    0  501    0  0.00000000000E+00  0.00000000000E+00 -0.12762750207E+04  0.12762750207E+04  0.50400001928E-02 0.  1.
    10030    2    1    2    0    0  0.00000000000E+00  0.00000000000E+00 -0.64291901157E+03  0.19096310298E+04  0.17981506651E+04 0.  0.
        2    1    3    3  502    0 -0.57421783057E+03 -0.31874938597E+03 -0.97353719224E+03  0.11743517159E+04  0.25500000920E-02 0.  1.
       -2    1    3    3    0  502  0.57421783057E+03  0.31874938597E+03  0.33061818067E+03  0.73527931386E+03  0.25500000920E-02 0. -1.
</event>
<event>
 5   0  0.8254914E-05  0.1959403E+04  0.7818609E-02  0.8625840E-01
        1   -1    0    0  501    0  0.00000000000E+00  0.00000000000E+00  0.12111318983E+04  0.12111318983E+04  0.50400001928E-02 0. -1.
       -1   -1    0    0    0  501  0.00000000000E+00  0.00000000000E+00 -0.79249426524E+03  0.79249426526E+03  0.50400001928E-02 0.  1.
    10030    2    1    2    0    0  0.00000000000E+00  0.00000000000E+00  0.41863763309E+03  0.20036261636E+04  0.19594030559E+04 0.  0.
        4    1    3    3  502    0  0.22830447479E+03 -0.41736564994E+03  0.10850925627E+04  0.11847972407E+04  0.12699999809E+01 0. -1.
       -4    1    3    3    0  502 -0.22830447479E+03  0.41736564994E+03 -0.66645492960E+03  0.81882892294E+03  0.12699999809E+01 0.  1.
</event>
<event>
 5   0  0.8132598E-05  0.1785571E+04  0.7818609E-02  0.8714010E-01
       -1   -1    0    0    0  501  0.00000000000E+00  0.00000000000E+00  0.63071039724E+03  0.63071039726E+03  0.50400001928E-02 0. -1.
        1   -1    0    0  501    0  0.00000000000E+00  0.00000000000E+00 -0.12637592862E+04  0.12637592862E+04  0.50400001928E-02 0.  1.
    10030    2    1    2    0    0  0.00000000000E+00  0.00000000000E+00 -0.63304888895E+03  0.18944696835E+04  0.17855711931E+04 0.  0.
        3    1    3    3  502    0  0.88212777224E+03 -0.11853043493E+03 -0.39054492493E+03  0.97196924805E+03  0.10100000352E+00 0.  1.
       -3    1    3    3    0  502 -0.88212777224E+03  0.11853043493E+03 -0.24250396402E+03  0.92250043541E+03  0.10100000352E+00 0. -1.
</event>
<event>
 5   0  0.8206783E-05  0.1798467E+04  0.7818609E-02  0.8707115E-01
       -1   -1    0    0    0  501  0.00000000000E+00  0.00000000000E+00  0.70630105740E+03  0.70630105742E+03  0.50400001928E-02 0.  1.
        1   -1    0    0  501    0  0.00000000000E+00  0.00000000000E+00 -0.11448669021E+04  0.11448669021E+04  0.50400001928E-02 0. -1.
    10030    2    1    2    0    0  0.00000000000E+00  0.00000000000E+00 -0.43856584469E+03  0.18511679595E+04  0.17984667954E+04 0.  0.
        1    1    3    3  502    0  0.29188423692E+03  0.12797504217E+03  0.64621782223E+03  0.72053555983E+03  0.50400001928E-02 0.  1.
       -1    1    3    3    0  502 -0.29188423692E+03 -0.12797504217E+03 -0.10847836669E+04  0.11306323997E+04  0.50400001928E-02 0. -1.
</event>
<event>
 5   0  0.1549012E-04  0.1805887E+04  0.7818609E-02  0.8703175E-01
        2   -1    0    0  501    0  0.00000000000E+00  0.00000000000E+00  0.78518263279E+03  0.78518263279E+03  0.25500000920E-02 0.  1.
       -2   -1    0    0    0  501  0.00000000000E+00  0.00000000000E+00 -0.10383656679E+04  0.10383656679E+04  0.25500000920E-02 0. -1.
    10030    2    1    2    0    0  0.00000000000E+00  0.00000000000E+00 -0.25318303507E+03  0.18235483007E+04  0.18058866951E+04 0.  0.
        4    1    3    3  502    0  0.53688272320E+03 -0.62512420623E+03 -0.49936551809E+03  0.96353041739E+03  0.12699999809E+01 0. -1.
       -4    1    3    3    0  502 -0.53688272320E+03  0.62512420623E+03  0.24618248301E+03  0.86001788326E+03  0.12699999809E+01 0.  1.
</event>
<event>
 5   0  0.1549012E-04  0.1769061E+04  0.7818609E-02  0.8722927E-01
       -2   -1    0    0    0  501  0.00000000000E+00  0.00000000000E+00  0.67605261034E+03  0.67605261035E+03  0.25500000920E-02 0.  1.
        2   -1    0    0  501    0  0.00000000000E+00  0.00000000000E+00 -0.11572983686E+04  0.11572983686E+04  0.25500000920E-02 0. -1.
    10030    2    1    2    0    0  0.00000000000E+00  0.00000000000E+00 -0.48124575823E+03  0.18333509789E+04  0.17690614269E+04 0.  0.
        4    1    3    3  502    0  0.18462361486E+03 -0.79926557273E+03 -0.58352750138E+03  0.10066862931E+04  0.12699999809E+01 0. -1.
       -4    1    3    3    0  502 -0.18462361486E+03  0.79926557273E+03  0.10228174316E+03  0.82666468583E+03  0.12699999809E+01 0.  1.
</event>
<event>
 5   0  0.8206783E-05  0.1798031E+04  0.7818609E-02  0.8707347E-01
       -1   -1    0    0    0  501  0.00000000000E+00  0.00000000000E+00  0.97279090636E+03  0.97279090637E+03  0.50400001928E-02 0.  1.
        1   -1    0    0  501    0  0.00000000000E+00  0.00000000000E+00 -0.83083507625E+03  0.83083507626E+03  0.50400001928E-02 0. -1.
    10030    2    1    2    0    0  0.00000000000E+00  0.00000000000E+00  0.14195583011E+03  0.18036259826E+04  0.17980309306E+04 0.  0.
        1    1    3    3  502    0  0.62991685119E+03  0.46482520844E+03 -0.37240553433E+03  0.86691614118E+03  0.50400001928E-02 0. -1.
       -1    1    3    3    0  502 -0.62991685119E+03 -0.46482520844E+03  0.51436136444E+03  0.93670984145E+03  0.50400001928E-02 0.  1.
</event>
<event>
 5   0  0.8254914E-05  0.1791221E+04  0.7818609E-02  0.8710982E-01
       -1   -1    0    0    0  501  0.00000000000E+00  0.00000000000E+00  0.36762250884E+03  0.36762250888E+03  0.50400001928E-02 0.  1.
        1   -1    0    0  501    0  0.00000000000E+00  0.00000000000E+00 -0.21819062169E+04  0.21819062169E+04  0.50400001928E-02 0. -1.
    10030    2    1    2    0    0  0.00000000000E+00  0.00000000000E+00 -0.18142837080E+04  0.25495287258E+04  0.17912206314E+04 0.  0.
        4    1    3    3  502    0 -0.57293414203E+03 -0.36690452532E+03 -0.17361652034E+04  0.18647100815E+04  0.12699999809E+01 0. -1.
       -4    1    3    3    0  502  0.57293414203E+03  0.36690452532E+03 -0.78118504635E+02  0.68481864422E+03  0.12699999809E+01 0.  1.
</event>
<event>
 5   0  0.1549012E-04  0.1807562E+04  0.7818609E-02  0.8702288E-01
        2   -1    0    0  501    0  0.00000000000E+00  0.00000000000E+00  0.83168050328E+03  0.83168050328E+03  0.25500000920E-02 0.  1.
       -2   -1    0    0    0  501  0.00000000000E+00  0.00000000000E+00 -0.98213188336E+03  0.98213188337E+03  0.25500000920E-02 0. -1.
    10030    2    1    2    0    0  0.00000000000E+00  0.00000000000E+00 -0.15045138009E+03  0.18138123866E+04  0.18075618264E+04 0.  0.
        4    1    3    3  502    0 -0.42957360547E+03 -0.79413139909E+03 -0.34586698701E+02  0.90353528662E+03  0.12699999809E+01 0.  1.
       -4    1    3    3    0  502  0.42957360547E+03  0.79413139909E+03 -0.11586468138E+03  0.91027710003E+03  0.12699999809E+01 0. -1.
</event>
<event>
 5   0  0.1549012E-04  0.1812912E+04  0.7818609E-02  0.8699463E-01
        2   -1    0    0  501    0  0.00000000000E+00  0.00000000000E+00  0.13126915076E+04  0.13126915076E+04  0.25500000920E-02 0. -1.
       -2   -1    0    0    0  501  0.00000000000E+00  0.00000000000E+00 -0.62593698408E+03  0.62593698408E+03  0.25500000920E-02 0.  1.
    10030    2    1    2    0    0  0.00000000000E+00  0.00000000000E+00  0.68675452356E+03  0.19386284917E+04  0.18129116507E+04 0.  0.
        4    1    3    3  502    0 -0.65164931010E+03 -0.15685705447E+02 -0.33019795319E+03  0.73070183105E+03  0.12699999809E+01 0.  1.
       -4    1    3    3    0  502  0.65164931010E+03  0.15685705447E+02  0.10169524767E+04  0.12079266607E+04  0.12699999809E+01 0. -1.
</event>
<event>
 5   0  0.1603564E-04  0.1816584E+04  0.7818609E-02  0.8697530E-01
        2   -1    0    0  501    0  0.00000000000E+00  0.00000000000E+00  0.15519285602E+04  0.15519285602E+04  0.25500000920E-02 0. -1.
       -2   -1    0    0    0  501  0.00000000000E+00  0.00000000000E+00 -0.53159287786E+03  0.53159287787E+03  0.25500000920E-02 0.  1.
    10030    2    1    2    0    0  0.00000000000E+00  0.00000000000E+00  0.10203356824E+04  0.20835214381E+04  0.18165837934E+04 0.  0.
        5    1    3    3  502    0 -0.44313190078E+03 -0.17118397605E+03  0.13980707734E+04  0.14765818002E+04  0.46999998093E+01 0. -1.
       -5    1    3    3    0  502  0.44313190078E+03  0.17118397605E+03 -0.37773509101E+03  0.60693963796E+03  0.46999998093E+01 0.  1.
</event>
<event>
 5   0  0.1573981E-04  0.1803838E+04  0.7818609E-02  0.8704261E-01
        2   -1    0    0  501    0  0.00000000000E+00  0.00000000000E+00  0.11584041528E+04  0.11584041528E+04  0.25500000920E-02 0. -1.
       -2   -1    0    0    0  501  0.00000000000E+00  0.00000000000E+00 -0.70222268514E+03  0.70222268514E+03  0.25500000920E-02 0.  1.
    10030    2    1    2    0    0  0.00000000000E+00  0.00000000000E+00  0.45618146768E+03  0.18606268380E+04  0.18038377695E+04 0.  0.
        1    1    3    3  502    0  0.37588757524E+03 -0.78663319822E+03 -0.10211644387E+02  0.87188734104E+03  0.50400001928E-02 0. -1.
       -1    1    3    3    0  502 -0.37588757524E+03  0.78663319822E+03  0.46639311207E+03  0.98873949692E+03  0.50400001928E-02 0.  1.
</event>
<event>
 5   0  0.5820500E-05  0.1799963E+04  0.7818609E-02  0.8706319E-01
        3   -1    0    0  501    0  0.00000000000E+00  0.00000000000E+00  0.17911672478E+04  0.17911672507E+04  0.10100000352E+00 0.  1.
       -3   -1    0    0    0  501  0.00000000000E+00  0.00000000000E+00 -0.45220035763E+03  0.45220036890E+03  0.10100000352E+00 0. -1.
    10030    2    1    2    0    0  0.00000000000E+00  0.00000000000E+00  0.13389668902E+04  0.22433676196E+04  0.17999627617E+04 0.  0.
        2    1    3    3  502    0  0.20049028773E+03 -0.87332320744E+03  0.77432959694E+03  0.11842618396E+04  0.25500000920E-02 0. -1.
       -2    1    3    3    0  502 -0.20049028773E+03  0.87332320744E+03  0.56463729325E+03  0.10591057799E+04  0.25500000920E-02 0.  1.
</event>
<event>
 5   0  0.1603564E-04  0.1812688E+04  0.7818609E-02  0.8699581E-01
        2   -1    0    0  501    0  0.00000000000E+00  0.00000000000E+00  0.11443226420E+04  0.11443226420E+04  0.25500000920E-02 0. -1.
       -2   -1    0    0    0  501  0.00000000000E+00  0.00000000000E+00 -0.71785615448E+03  0.71785615449E+03  0.25500000920E-02 0.  1.
    10030    2    1    2    0    0  0.00000000000E+00  0.00000000000E+00  0.42646648752E+03  0.18621787965E+04  0.18126875641E+04 0.  0.
        5    1    3    3  502    0  0.86763322558E+03 -0.57171725143E+02 -0.49444940392E+02  0.87093220885E+03  0.46999998093E+01 0.  1.
       -5    1    3    3    0  502 -0.86763322558E+03  0.57171725143E+02  0.47591142791E+03  0.99124658764E+03  0.46999998093E+01 0. -1.
</event>
<event>
 5   0  0.8492114E-05  0.1806736E+04  0.7818609E-02  0.8702726E-01
       -1   -1    0    0    0  501  0.00000000000E+00  0.00000000000E+00  0.88391724870E+03  0.88391724872E+03  0.50400001928E-02 0.  1.
        1   -1    0    0  501    0  0.00000000000E+00  0.00000000000E+00 -0.92324673916E+03  0.92324673918E+03  0.50400001928E-02 0. -1.
    10030    2    1    2    0    0  0.00000000000E+00  0.00000000000E+00 -0.39329490463E+02  0.18071639879E+04  0.18067359714E+04 0.  0.
        2    1    3    3  502    0  0.65518591977E+02  0.74354898600E+03  0.48929362852E+03  0.89250548200E+03  0.25500000920E-02 0.  1.
       -2    1    3    3    0  502 -0.65518591977E+02 -0.74354898600E+03 -0.52862311899E+03  0.91465850590E+03  0.25500000920E-02 0. -1.
</event>
<event>
 5   0  0.1603564E-04  0.1807358E+04  0.7818609E-02  0.8702396E-01
       -2   -1    0    0    0  501  0.00000000000E+00  0.00000000000E+00  0.45921008285E+03  0.45921008286E+03  0.25500000920E-02 0. -1.
        2   -1    0    0  501    0  0.00000000000E+00  0.00000000000E+00 -0.17783484250E+04  0.17783484250E+04  0.25500000920E-02 0.  1.
    10030    2    1    2    0    0  0.00000000000E+00  0.00000000000E+00 -0.13191383422E+04  0.22375585079E+04  0.18073577705E+04 0.  0.
        5    1    3    3  502    0  0.78494820341E+03 -0.40498107566E+03 -0.89596461470E+03  0.12581446795E+04  0.46999998093E+01 0.  1.
       -5    1    3    3    0  502 -0.78494820341E+03  0.40498107566E+03 -0.42317372748E+03  0.97941382842E+03  0.46999998093E+01 0. -1.
</event>
<event>
 5   0  0.8132598E-05  0.1815257E+04  0.7818609E-02  0.8698228E-01
        1   -1    0    0  501    0  0.00000000000E+00  0.00000000000E+00  0.73802608163E+03  0.73802608165E+03  0.50400001928E-02 0.  1.
       -1   -1    0    0    0  501  0.00000000000E+00  0.00000000000E+00 -0.11162062799E+04  0.11162062799E+04  0.50400001928E-02 0. -1.
    10030    2    1    2    0    0  0.00000000000E+00  0.00000000000E+00 -0.37818019823E+03  0.18542323615E+04  0.18152568381E+04 0.  0.
        3    1    3    3  502    0 -0.42784952809E+03 -0.53908656069E+03  0.41532375404E+03  0.80384287611E+03  0.10100000352E+00 0.  1.
       -3    1    3    3    0  502  0.42784952809E+03  0.53908656069E+03 -0.79350395227E+03  0.10503894854E+04  0.10100000352E+00 0. -1.
</event>
<event>
 5   0  0.8254914E-05  0.1792947E+04  0.7818609E-02  0.8710059E-01
        1   -1    0    0  501    0  0.00000000000E+00  0.00000000000E+00  0.53811620873E+03  0.53811620875E+03  0.50400001928E-02 0.  1.
       -1   -1    0    0    0  501  0.00000000000E+00  0.00000000000E+00 -0.14934780848E+04  0.14934780848E+04  0.50400001928E-02 0. -1.
    10030    2    1    2    0    0  0.00000000000E+00  0.00000000000E+00 -0.95536187611E+03  0.20315942936E+04  0.17929470320E+04 0.  0.
        4    1    3    3  502    0  0.57142258395E+02  0.23617727418E+03  0.50008825789E+03  0.55599893985E+03  0.12699999809E+01 0.  1.
       -4    1    3    3    0  502 -0.57142258395E+02 -0.23617727418E+03 -0.14554501340E+04  0.14755953537E+04  0.12699999809E+01 0. -1.
</event>
<event>
 5   0  0.8132598E-05  0.1793220E+04  0.7818609E-02  0.8709913E-01
        1   -1    0    0  501    0  0.00000000000E+00  0.00000000000E+00  0.89829765212E+03  0.89829765214E+03  0.50400001928E-02 0. -1.
       -1   -1    0    0    0  501  0.00000000000E+00  0.00000000000E+00 -0.89492519489E+03  0.89492519491E+03  0.50400001928E-02 0.  1.
    10030    2    1    2    0    0  0.00000000000E+00  0.00000000000E+00  0.33724572284E+01  0.17932228470E+04  0.17932196758E+04 0.  0.
        3    1    3    3  502    0 -0.16942846083E+03  0.87968024320E+03  0.38643804927E+02  0.89668092846E+03  0.10100000352E+00 0.  1.
       -3    1    3    3    0  502  0.16942846083E+03 -0.87968024320E+03 -0.35271347698E+02  0.89654191858E+03  0.10100000352E+00 0. -1.
</event>
<event>
 5   0  0.8132598E-05  0.1793926E+04  0.7818609E-02  0.8709536E-01
       -1   -1    0    0    0  501  0.00000000000E+00  0.00000000000E+00  0.14532349742E+04  0.14532349742E+04  0.50400001928E-02 0. -1.
        1   -1    0    0  501    0  0.00000000000E+00  0.00000000000E+00 -0.55362172626E+03  0.55362172628E+03  0.50400001928E-02 0.  1.
    10030    2    1    2    0    0  0.00000000000E+00  0.00000000000E+00  0.89961324798E+03  0.20068567005E+04  0.17939258124E+04 0.  0.
        3    1    3    3  502    0  0.36251168288E+03  0.59214770493E+03  0.10850925230E+04  0.12882078319E+04  0.10100000352E+00 0. -1.
       -3    1    3    3    0  502 -0.36251168288E+03 -0.59214770493E+03 -0.18547927498E+03  0.71864886859E+03  0.10100000352E+00 0.  1.
</event>
<event>
 5   0  0.1608627E-04  0.1794830E+04  0.7818609E-02  0.8709054E-01
        2   -1    0    0  501    0  0.00000000000E+00  0.00000000000E+00  0.25678133770E+04  0.25678133770E+04  0.25500000920E-02 0. -1.
       -2   -1    0    0    0  501  0.00000000000E+00  0.00000000000E+00 -0.31363400101E+03  0.31363400102E+03  0.25500000920E-02 0.  1.
    10030    2    1    2    0    0  0.00000000000E+00  0.00000000000E+00  0.22541793760E+04  0.28814473780E+04  0.17948298897E+04 0.  0.
        2    1    3    3  502    0 -0.16342600563E+02 -0.33272588187E+03 -0.21069431404E+03  0.39416454310E+03  0.25500000920E-02 0.  1.
       -2    1    3    3    0  502  0.16342600563E+02  0.33272588187E+03  0.24648736900E+04  0.24872828349E+04  0.25500000920E-02 0. -1.
</event>
<event>
 5   0  0.8430513E-05  0.1797728E+04  0.7818609E-02  0.8707509E-01
       -1   -1    0    0    0  501  0.00000000000E+00  0.00000000000E+00  0.44770293820E+03  0.44770293823E+03  0.50400001928E-02 0. -1.
        1   -1    0    0  501    0  0.00000000000E+00  0.00000000000E+00 -0.18046704386E+04  0.18046704386E+04  0.50400001928E-02 0.  1.
    10030    2    1    2    0    0  0.00000000000E+00  0.00000000000E+00 -0.13569675004E+04  0.22523733768E+04  0.17977277412E+04 0.  0.
        5    1    3    3  502    0  0.46346677452E+03 -0.65213815653E+03 -0.16517903796E+03  0.81694053080E+03  0.46999998093E+01 0. -1.
       -5    1    3    3    0  502 -0.46346677452E+03  0.65213815653E+03 -0.11917884625E+04  0.14354328460E+04  0.46999998093E+01 0.  1.
</event>
<event>
 5   0  0.8492114E-05  0.1833320E+04  0.7818609E-02  0.8688778E-01
       -1   -1    0    0    0  501  0.00000000000E+00  0.00000000000E+00  0.44435585335E+03  0.44435585338E+03  0.50400001928E-02 0.  1.
        1   -1    0    0  501    0  0.00000000000E+00  0.00000000000E+00 -0.18909744682E+04  0.18909744682E+04  0.50400001928E-02 0. -1.
    10030    2    1    2    0    0  0.00000000000E+00  0.00000000000E+00 -0.14466186149E+04  0.23353303216E+04  0.18333200196E+04 0.  0.
        2    1    3    3  502    0 -0.78416604919E+03  0.18449198007E+03 -0.12804707043E+04  0.15127983699E+04  0.25500000920E-02 0. -1.
       -2    1    3    3    0  502  0.78416604919E+03 -0.18449198007E+03 -0.16614791059E+03  0.82253195172E+03  0.25500000920E-02 0.  1.
</event>
<event>
 5   0  0.8132598E-05  0.1806201E+04  0.7818609E-02  0.8703009E-01
       -1   -1    0    0    0  501  0.00000000000E+00  0.00000000000E+00  0.10350695257E+04  0.10350695257E+04  0.50400001928E-02 0.  1.
        1   -1    0    0  501    0  0.00000000000E+00  0.00000000000E+00 -0.78795740648E+03  0.78795740649E+03  0.50400001928E-02 0. -1.
    10030    2    1    2    0    0  0.00000000000E+00  0.00000000000E+00  0.24711211919E+03  0.18230269322E+04  0.18062012058E+04 0.  0.
        3    1    3    3  502    0 -0.40539517762E+03 -0.88287074652E+02  0.93318242021E+03  0.10212586828E+04  0.10100000352E+00 0.  1.
       -3    1    3    3    0  502  0.40539517762E+03  0.88287074652E+02 -0.68607030101E+03  0.80176824938E+03  0.10100000352E+00 0. -1.
</event>
<event>
 5   0  0.1573981E-04  0.1801535E+04  0.7818609E-02  0.8705484E-01
       -2   -1    0    0    0  501  0.00000000000E+00  0.00000000000E+00  0.92863491961E+03  0.92863491962E+03  0.25500000920E-02 0.  1.
        2   -1    0    0  501    0  0.00000000000E+00  0.00000000000E+00 -0.87373611730E+03  0.87373611730E+03  0.25500000920E-02 0. -1.
    10030    2    1    2    0    0  0.00000000000E+00  0.00000000000E+00  0.54898802318E+02  0.18023710369E+04  0.18015347558E+04 0.  0.
        1    1    3    3  502    0  0.43396191223E+02 -0.16124313234E+03 -0.85811644566E+03  0.87421188020E+03  0.50400001928E-02 0. -1.
       -1    1    3    3    0  502 -0.43396191223E+02  0.16124313234E+03  0.91301524798E+03  0.92815915672E+03  0.50400001928E-02 0.  1.
</event>
<event>
 5   0  0.1608627E-04  0.1811437E+04  0.7818609E-02  0.8700241E-01
        2   -1    0    0  501    0  0.00000000000E+00  0.00000000000E+00  0.17149687940E+04  0.17149687940E+04  0.25500000920E-02 0.  1.
       -2   -1    0    0    0  501  0.00000000000E+00  0.00000000000E+00 -0.47833303484E+03  0.47833303485E+03  0.25500000920E-02 0. -1.
    10030    2    1    2    0    0  0.00000000000E+00  0.00000000000E+00  0.12366357591E+04  0.21933018288E+04  0.18114372503E+04 0.  0.
        2    1    3    3  502    0  0.66388626767E+02  0.42458382017E+03  0.15836643866E+04  0.16409362448E+04  0.25500000920E-02 0.  1.
       -2    1    3    3    0  502 -0.66388626767E+02 -0.42458382017E+03 -0.34702862748E+03  0.55236558402E+03  0.25500000920E-02 0. -1.
</event>
<event>
 5   0  0.8132598E-05  0.1790621E+04  0.7818609E-02  0.8711303E-01
        1   -1    0    0  501    0  0.00000000000E+00  0.00000000000E+00  0.78288468927E+03  0.78288468928E+03  0.50400001928E-02 0.  1.
       -1   -1    0    0    0  501  0.00000000000E+00  0.00000000000E+00 -0.10238809796E+04  0.10238809797E+04  0.50400001928E-02 0. -1.
    10030    2    1    2    0    0  0.00000000000E+00  0.00000000000E+00 -0.24099629038E+03  0.18067656689E+04  0.17906208338E+04 0.  0.
        3    1    3    3  502    0 -0.72428875461E+03 -0.51969213282E+03 -0.20435353071E+03  0.91456792459E+03  0.10100000352E+00 0.  1.
       -3    1    3    3    0  502  0.72428875461E+03  0.51969213282E+03 -0.36642759663E+02  0.89219774434E+03  0.10100000352E+00 0. -1.
</event>
<event>
 5   0  0.1573981E-04  0.1796012E+04  0.7818609E-02  0.8708423E-01
        2   -1    0    0  501    0  0.00000000000E+00  0.00000000000E+00  0.11131447406E+04  0.11131447406E+04  0.25500000920E-02 0.  1.
       -2   -1    0    0    0  501  0.00000000000E+00  0.00000000000E+00 -0.72444753354E+03  0.72444753355E+03  0.25500000920E-02 0. -1.
    10030    2    1    2    0    0  0.00000000000E+00  0.00000000000E+00  0.38869720707E+03  0.18375922742E+04  0.17960122069E+04 0.  0.
        1    1    3    3  502    0  0.20703472539E+03 -0.31825845921E+03 -0.63828735640E+03  0.74267258852E+03  0.50400001928E-02 0. -1.
       -1    1    3    3    0  502 -0.20703472539E+03  0.31825845921E+03  0.10269845635E+04  0.10949196856E+04  0.50400001928E-02 0.  1.
</event>
<event>
 5   0  0.8206783E-05  0.1806157E+04  0.7818609E-02  0.8703032E-01
       -1   -1    0    0    0  501  0.00000000000E+00  0.00000000000E+00  0.84735806595E+03  0.84735806597E+03  0.50400001928E-02 0.  1.
        1   -1    0    0  501    0  0.00000000000E+00  0.00000000000E+00 -0.96246268647E+03  0.96246268648E+03  0.50400001928E-02 0. -1.
    10030    2    1    2    0    0  0.00000000000E+00  0.00000000000E+00 -0.11510462052E+03  0.18098207524E+04  0.18061567159E+04 0.  0.
        1    1    3    3  502    0  0.62352070895E+03 -0.31083436292E+02  0.59630977857E+03  0.86332473991E+03  0.50400001928E-02 0.  1.
       -1    1    3    3    0  502 -0.62352070895E+03  0.31083436292E+02 -0.71141439909E+03  0.94649601254E+03  0.50400001928E-02 0. -1.
</event>
<event>
 5   0  0.8132598E-05  0.1778597E+04  0.7818609E-02  0.8717765E-01
        1   -1    0    0  501    0  0.00000000000E+00  0.00000000000E+00  0.10432655109E+04  0.10432655109E+04  0.50400001928E-02 0.  1.
       -1   -1    0    0    0  501  0.00000000000E+00  0.00000000000E+00 -0.75805424884E+03  0.75805424885E+03  0.50400001928E-02 0. -1.
    10030    2    1    2    0    0  0.00000000000E+00  0.00000000000E+00  0.28521126207E+03  0.18013197598E+04  0.17785970350E+04 0.  0.
        3    1    3    3  502    0 -0.61511534024E+03 -0.49782690231E+03  0.55356465094E+03  0.96572891612E+03  0.10100000352E+00 0.  1.
       -3    1    3    3    0  502  0.61511534024E+03  0.49782690231E+03 -0.26835338887E+03  0.83559084365E+03  0.10100000352E+00 0. -1.
</event>
<event>
 5   0  0.1549012E-04  0.1785739E+04  0.7818609E-02  0.8713920E-01
        2   -1    0    0  501    0  0.00000000000E+00  0.00000000000E+00  0.21433040505E+04  0.21433040505E+04  0.25500000920E-02 0. -1.
       -2   -1    0    0    0  501  0.00000000000E+00  0.00000000000E+00 -0.37195670778E+03  0.37195670778E+03  0.25500000920E-02 0.  1.
    10030    2    1    2    0    0  0.00000000000E+00  0.00000000000E+00  0.17713473427E+04  0.25152607583E+04  0.17857394193E+04 0.  0.
        4    1    3    3  502    0 -0.99282519163E+02  0.46478419499E+03 -0.17898332713E+03  0.50785628953E+03  0.12699999809E+01 0.  1.
       -4    1    3    3    0  502  0.99282519163E+02 -0.46478419499E+03  0.19503306698E+04  0.20074044687E+04  0.12699999809E+01 0. -1.
</event>
<event>
 5   0  0.1603564E-04  0.1841174E+04  0.7818609E-02  0.8684705E-01
        2   -1    0    0  501    0  0.00000000000E+00  0.00000000000E+00  0.17591843929E+04  0.17591843929E+04  0.25500000920E-02 0. -1.
       -2   -1    0    0    0  501  0.00000000000E+00  0.00000000000E+00 -0.48174616751E+03  0.48174616752E+03  0.25500000920E-02 0.  1.
    10030    2    1    2    0    0  0.00000000000E+00  0.00000000000E+00  0.12774382254E+04  0.22409305605E+04  0.18411739073E+04 0.  0.
        5    1    3    3  502    0  0.48689363361E+03  0.39059346846E+03 -0.18482243198E+03  0.65100698109E+03  0.46999998093E+01 0.  1.
       -5    1    3    3    0  502 -0.48689363361E+03 -0.39059346846E+03  0.14622606574E+04  0.15899235794E+04  0.46999998093E+01 0. -1.
</event>
<event>
 5   0  0.1573981E-04  0.1794966E+04  0.7818609E-02  0.8708981E-01
        2   -1    0    0  501    0  0.00000000000E+00  0.00000000000E+00  0.18975253811E+04  0.18975253811E+04  0.25500000920E-02 0.  1.
       -2   -1    0    0    0  501  0.00000000000E+00  0.00000000000E+00 -0.42448725761E+03  0.42448725761E+03  0.25500000920E-02 0. -1.
    10030    2    1    2    0    0  0.00000000000E+00  0.00000000000E+00  0.14730381235E+04  0.23220126387E+04  0.17949655654E+04 0.  0.
        1    1    3    3  502    0  0.39415973525E+02  0.25040665584E+03  0.18502531302E+04  0.18675368158E+04  0.50400001928E-02 0.  1.
       -1    1    3    3    0  502 -0.39415973525E+02 -0.25040665584E+03 -0.37721500677E+03  0.45447582292E+03  0.50400001928E-02 0. -1.
</event>
<event>
 5   0  0.1603564E-04  0.1796176E+04  0.7818609E-02  0.8708336E-01
        2   -1    0    0  501    0  0.00000000000E+00  0.00000000000E+00  0.19929330990E+04  0.19929330990E+04  0.25500000920E-02 0.  1.
       -2   -1    0    0    0  501  0.00000000000E+00  0.00000000000E+00 -0.40471112571E+03  0.40471112572E+03  0.25500000920E-02 0. -1.
    10030    2    1    2    0    0  0.00000000000E+00  0.00000000000E+00  0.15882219732E+04  0.23976442247E+04  0.17961761584E+04 0.  0.
        5    1    3    3  502    0  0.62695357846E+03 -0.60561691863E+03  0.50565306386E+03  0.10077448847E+04  0.46999998093E+01 0.  1.
       -5    1    3    3    0  502 -0.62695357846E+03  0.60561691863E+03  0.10825689094E+04  0.13898993400E+04  0.46999998093E+01 0. -1.
</event>
<event>
 5   0  0.1549012E-04  0.1789747E+04  0.7818609E-02  0.8711771E-01
       -2   -1    0    0    0  501  0.00000000000E+00  0.00000000000E+00  0.10227190437E+04  0.10227190437E+04  0.25500000920E-02 0.  1.
        2   -1    0    0  501    0  0.00000000000E+00  0.00000000000E+00 -0.78300898841E+03  0.78300898841E+03  0.25500000920E-02 0. -1.
    10030    2    1    2    0    0  0.00000000000E+00  0.00000000000E+00  0.23971005530E+03  0.18057280321E+04  0.17897465785E+04 0.  0.
        4    1    3    3  502    0  0.69039755729E+03  0.38350217498E+03 -0.30470397842E+03  0.84650388817E+03  0.12699999809E+01 0. -1.
       -4    1    3    3    0  502 -0.69039755729E+03 -0.38350217498E+03  0.54441403373E+03  0.95922414395E+03  0.12699999809E+01 0.  1.
</event>
<event>
 5   0  0.8132598E-05  0.1794462E+04  0.7818609E-02  0.8709250E-01
        1   -1    0    0  501    0  0.00000000000E+00  0.00000000000E+00  0.20008065117E+04  0.20008065117E+04  0.50400001928E-02 0. -1.
       -1   -1    0    0    0  501  0.00000000000E+00  0.00000000000E+00 -0.40234945165E+03  0.40234945169E+03  0.50400001928E-02 0.  1.
    10030    2    1    2    0    0  0.00000000000E+00  0.00000000000E+00  0.15984570600E+04  0.24031559634E+04  0.17944619281E+04 0.  0.
        3    1    3    3  502    0 -0.61808658973E+03 -0.64994499097E+03  0.76742781990E+03  0.11804257675E+04  0.10100000352E+00 0.  1.
       -3    1    3    3    0  502  0.61808658973E+03  0.64994499097E+03  0.83102924014E+03  0.12227301959E+04  0.10100000352E+00 0. -1.
</event>
<event>
 5   0  0.8132598E-05  0.1807499E+04  0.7818609E-02  0.8702322E-01
        1   -1    0    0  501    0  0.00000000000E+00  0.00000000000E+00  0.74139240310E+03  0.74139240311E+03  0.50400001928E-02 0. -1.
       -1   -1    0    0    0  501  0.00000000000E+00  0.00000000000E+00 -0.11016608345E+04  0.11016608345E+04  0.50400001928E-02 0.  1.
    10030    2    1    2    0    0  0.00000000000E+00  0.00000000000E+00 -0.36026843141E+03  0.18430532376E+04  0.18074987950E+04 0.  0.
        3    1    3    3  502    0 -0.32855746716E+03 -0.65039816846E+03 -0.72524818454E+03  0.10280820620E+04  0.10100000352E+00 0.  1.
       -3    1    3    3    0  502  0.32855746716E+03  0.65039816846E+03  0.36497975313E+03  0.81497117566E+03  0.10100000352E+00 0. -1.
</event>
<event>
 5   0  0.1628397E-04  0.1793771E+04  0.7818609E-02  0.8709619E-01
        2   -1    0    0  501    0  0.00000000000E+00  0.00000000000E+00  0.68316053639E+03  0.68316053639E+03  0.25500000920E-02 0. -1.
       -2   -1    0    0    0  501  0.00000000000E+00  0.00000000000E+00 -0.11774738829E+04  0.11774738829E+04  0.25500000920E-02 0.  1.
    10030    2    1    2    0    0  0.00000000000E+00  0.00000000000E+00 -0.49431334647E+03  0.18606344192E+04  0.17937710996E+04 0.  0.
        3    1    3    3  502    0  0.13501321170E+03  0.48549205541E+03  0.52243767888E+03  0.72585965704E+03  0.10100000352E+00 0. -1.
       -3    1    3    3    0  502 -0.13501321170E+03 -0.48549205541E+03 -0.10167510253E+04  0.11347747622E+04  0.10100000352E+00 0.  1.
</event>
<event>
 5   0  0.1549012E-04  0.1779667E+04  0.7818609E-02  0.8717188E-01
       -2   -1    0    0    0  501  0.00000000000E+00  0.00000000000E+00  0.66907121294E+03  0.66907121294E+03  0.25500000920E-02 0.  1.
        2   -1    0    0  501    0  0.00000000000E+00  0.00000000000E+00 -0.11834371372E+04  0.11834371372E+04  0.25500000920E-02 0. -1.
    10030    2    1    2    0    0  0.00000000000E+00  0.00000000000E+00 -0.51436592421E+03  0.18525083501E+04  0.17796670709E+04 0.  0.
        4    1    3    3  502    0  0.26561553652E+03 -0.10250180027E+03  0.62037936776E+03  0.68259095009E+03  0.12699999809E+01 0.  1.
       -4    1    3    3    0  502 -0.26561553652E+03  0.10250180027E+03 -0.11347452920E+04  0.11699174000E+04  0.12699999809E+01 0. -1.
</event>
<event>
 5   0  0.8492114E-05  0.1800053E+04  0.7818609E-02  0.8706271E-01
       -1   -1    0    0    0  501  0.00000000000E+00  0.00000000000E+00  0.18700931397E+04  0.18700931397E+04  0.50400001928E-02 0.  1.
        1   -1    0    0  501    0  0.00000000000E+00  0.00000000000E+00 -0.43315892180E+03  0.43315892183E+03  0.50400001928E-02 0. -1.
    10030    2    1    2    0    0  0.00000000000E+00  0.00000000000E+00  0.14369342179E+04  0.23032520616E+04  0.18000528082E+04 0.  0.
        2    1    3    3  502    0  0.50602736201E+02 -0.30969048177E+03 -0.36089630008E+03  0.47824154025E+03  0.25500000920E-02 0. -1.
       -2    1    3    3    0  502 -0.50602736201E+02  0.30969048177E+03  0.17978305180E+04  0.18250105213E+04  0.25500000920E-02 0.  1.
</event>
<event>
 5   0  0.8206783E-05  0.1828906E+04  0.7818609E-02  0.8691077E-01
       -1   -1    0    0    0  501  0.00000000000E+00  0.00000000000E+00  0.57238485681E+03  0.57238485683E+03  0.50400001928E-02 0. -1.
        1   -1    0    0  501    0  0.00000000000E+00  0.00000000000E+00 -0.14609471246E+04  0.14609471246E+04  0.50400001928E-02 0.  1.
    10030    2    1    2    0    0  0.00000000000E+00  0.00000000000E+00 -0.88856226781E+03  0.20333319815E+04  0.18289056955E+04 0.  0.
        1    1    3    3  502    0  0.63186190300E+03  0.25147123619E+03 -0.11239539328E+04  0.13136817309E+04  0.50400001928E-02 0.  1.
       -1    1    3    3    0  502 -0.63186190300E+03 -0.25147123619E+03  0.23539166500E+03  0.71965025052E+03  0.50400001928E-02 0. -1.
</event>
<event>
 5   0  0.8492114E-05  0.1800148E+04  0.7818609E-02  0.8706221E-01
        1   -1    0    0  501    0  0.00000000000E+00  0.00000000000E+00  0.10249630107E+04  0.10249630107E+04  0.50400001928E-02 0.  1.
       -1   -1    0    0    0  501  0.00000000000E+00  0.00000000000E+00 -0.79040276308E+03  0.79040276309E+03  0.50400001928E-02 0. -1.
    10030    2    1    2    0    0  0.00000000000E+00  0.00000000000E+00  0.23456024761E+03  0.18153657738E+04  0.18001484336E+04 0.  0.
        2    1    3    3  502    0  0.48419625526E+03  0.19286804024E+03  0.85730180934E+03  0.10032997991E+04  0.25500000920E-02 0.  1.
       -2    1    3    3    0  502 -0.48419625526E+03 -0.19286804024E+03 -0.62274156173E+03  0.81206597470E+03  0.25500000920E-02 0. -1.
</event>
<event>
 5   0  0.1549012E-04  0.1880387E+04  0.7818609E-02  0.8664681E-01
        2   -1    0    0  501    0  0.00000000000E+00  0.00000000000E+00  0.19451616791E+04  0.19451616791E+04  0.25500000920E-02 0.  1.
       -2   -1    0    0    0  501  0.00000000000E+00  0.00000000000E+00 -0.45444226682E+03  0.45444226683E+03  0.25500000920E-02 0. -1.
    10030    2    1    2    0    0  0.00000000000E+00  0.00000000000E+00  0.14907194123E+04  0.23996039460E+04  0.18803868568E+04 0.  0.
        4    1    3    3  502    0 -0.93032349093E+03  0.98923921440E+02  0.86421275539E+03  0.12736377191E+04  0.12699999809E+01 0.  1.
       -4    1    3    3    0  502  0.93032349093E+03 -0.98923921440E+02  0.62650665693E+03  0.11259662269E+04  0.12699999809E+01 0. -1.
</event>
<event>
 5   0  0.1549012E-04  0.1775043E+04  0.7818609E-02  0.8719685E-01
        2   -1    0    0  501    0  0.00000000000E+00  0.00000000000E+00  0.15679757165E+04  0.15679757165E+04  0.25500000920E-02 0.  1.
       -2   -1    0    0    0  501  0.00000000000E+00  0.00000000000E+00 -0.50236417449E+03  0.50236417450E+03  0.25500000920E-02 0. -1.
    10030    2    1    2    0    0  0.00000000000E+00  0.00000000000E+00  0.10656115420E+04  0.20703398910E+04  0.17750434659E+04 0.  0.
        4    1    3    3  502    0 -0.55365369272E+02 -0.68452558124E+03 -0.12290505495E+03  0.69767317629E+03  0.12699999809E+01 0. -1.
       -4    1    3    3    0  502  0.55365369272E+02  0.68452558124E+03  0.11885165969E+04  0.13726667147E+04  0.12699999809E+01 0.  1.
</event>
<event>
 5   0  0.1603564E-04  0.1759713E+04  0.7818609E-02  0.8728022E-01
        2   -1    0    0  501    0  0.00000000000E+00  0.00000000000E+00  0.13904556836E+04  0.13904556836E+04  0.25500000920E-02 0. -1.
       -2   -1    0    0    0  501  0.00000000000E+00  0.00000000000E+00 -0.55675820674E+03  0.55675820674E+03  0.25500000920E-02 0.  1.
    10030    2    1    2    0    0  0.00000000000E+00  0.00000000000E+00  0.83369747684E+03  0.19472138903E+04  0.17597131732E+04 0.  0.
        5    1    3    3  502    0 -0.60381891366E+03 -0.37387231744E+03 -0.15786380407E+03  0.72754440475E+03  0.46999998093E+01 0.  1.
       -5    1    3    3    0  502  0.60381891366E+03  0.37387231744E+03  0.99156128091E+03  0.12196694856E+04  0.46999998093E+01 0. -1.
</event>
<event>
 5   0  0.8132598E-05  0.1802125E+04  0.7818609E-02  0.8705170E-01
        1   -1    0    0  501    0  0.00000000000E+00  0.00000000000E+00  0.17117380077E+04  0.17117380077E+04  0.50400001928E-02 0.  1.
       -1   -1    0    0    0  501  0.00000000000E+00  0.00000000000E+00 -0.47432134755E+03  0.47432134758E+03  0.50400001928E-02 0. -1.
    10030    2    1    2    0    0  0.00000000000E+00  0.00000000000E+00  0.12374166601E+04  0.21860593552E+04  0.18021252770E+04 0.  0.
        3    1    3    3  502    0  0.84354571548E+03  0.24030540254E+03  0.36834507131E+03  0.95131181131E+03  0.10100000352E+00 0.  1.
       -3    1    3    3    0  502 -0.84354571548E+03 -0.24030540254E+03  0.86907158880E+03  0.12347475439E+04  0.10100000352E+00 0. -1.
</event>
<event>
 5   0  0.8492114E-05  0.1793988E+04  0.7818609E-02  0.8709503E-01
        1   -1    0    0  501    0  0.00000000000E+00  0.00000000000E+00  0.87230170732E+03  0.87230170734E+03  0.50400001928E-02 0. -1.
       -1   -1    0    0    0  501  0.00000000000E+00  0.00000000000E+00 -0.92238549624E+03  0.92238549625E+03  0.50400001928E-02 0.  1.
    10030    2    1    2    0    0  0.00000000000E+00  0.00000000000E+00 -0.50083788913E+02  0.17946872036E+04  0.17939882310E+04 0.  0.
        2    1    3    3  502    0  0.51748158702E+03 -0.14413518203E+03  0.69359465724E+03  0.87728883053E+03  0.25500000920E-02 0. -1.
       -2    1    3    3    0  502 -0.51748158702E+03  0.14413518203E+03 -0.74367844616E+03  0.91739837306E+03  0.25500000920E-02 0.  1.
</event>
<event>
 5   0  0.1573981E-04  0.1772969E+04  0.7818609E-02  0.8720808E-01
        2   -1    0    0  501    0  0.00000000000E+00  0.00000000000E+00  0.20988029804E+04  0.20988029804E+04  0.25500000920E-02 0. -1.
       -2   -1    0    0    0  501  0.00000000000E+00  0.00000000000E+00 -0.37442981047E+03  0.37442981048E+03  0.25500000920E-02 0.  1.
    10030    2    1    2    0    0  0.00000000000E+00  0.00000000000E+00  0.17243731699E+04  0.24732327909E+04  0.17729685865E+04 0.  0.
        1    1    3    3  502    0  0.52197269922E+03  0.41025781264E+03  0.42725139369E+02  0.66527619010E+03  0.50400001928E-02 0.  1.
       -1    1    3    3    0  502 -0.52197269922E+03 -0.41025781264E+03  0.16816480306E+04  0.18079566008E+04  0.50400001928E-02 0. -1.
</event>
<event>
 5   0  0.8254914E-05  0.1808293E+04  0.7818609E-02  0.8701902E-01
       -1   -1    0    0    0  501  0.00000000000E+00  0.00000000000E+00  0.74452373391E+03  0.74452373392E+03  0.50400001928E-02 0.  1.
        1   -1    0    0  501    0  0.00000000000E+00  0.00000000000E+00 -0.10979921763E+04  0.10979921763E+04  0.50400001928E-02 0. -1.
    10030    2    1    2    0    0  0.00000000000E+00  0.00000000000E+00 -0.35346844239E+03  0.18425159102E+04  0.18082933777E+04 0.  0.
        4    1    3    3  502    0  0.40258327588E+03  0.75902605075E+03 -0.46364047357E+03  0.97629808018E+03  0.12699999809E+01 0. -1.
       -4    1    3    3    0  502 -0.40258327588E+03 -0.75902605075E+03  0.11017203118E+03  0.86621783005E+03  0.12699999809E+01 0.  1.
</event>
<event>
 5   0  0.1549012E-04  0.1798223E+04  0.7818609E-02  0.8707245E-01
       -2   -1    0    0    0  501  0.00000000000E+00  0.00000000000E+00  0.44209942994E+03  0.44209942995E+03  0.25500000920E-02 0. -1.
        2   -1    0    0  501    0  0.00000000000E+00  0.00000000000E+00 -0.18285513027E+04  0.18285513027E+04  0.25500000920E-02 0.  1.
    10030    2    1    2    0    0  0.00000000000E+00  0.00000000000E+00 -0.13864518727E+04  0.22706507326E+04  0.17982229990E+04 0.  0.
        4    1    3    3  502    0 -0.48430356553E+03  0.10322834545E+03 -0.16408492512E+04  0.17139410471E+04  0.12699999809E+01 0.  1.
       -4    1    3    3    0  502  0.48430356553E+03 -0.10322834545E+03  0.25439737846E+03  0.55670968553E+03  0.12699999809E+01 0. -1.
</event>
<event>
 5   0  0.1608627E-04  0.1802539E+04  0.7818609E-02  0.8704951E-01
        2   -1    0    0  501    0  0.00000000000E+00  0.00000000000E+00  0.15789330549E+04  0.15789330549E+04  0.25500000920E-02 0.  1.
       -2   -1    0    0    0  501  0.00000000000E+00  0.00000000000E+00 -0.51445270079E+03  0.51445270079E+03  0.25500000920E-02 0. -1.
    10030    2    1    2    0    0  0.00000000000E+00  0.00000000000E+00  0.10644803541E+04  0.20933857557E+04  0.18025386259E+04 0.  0.
        2    1    3    3  502    0 -0.53179760335E+03  0.35289479042E+03  0.12712693907E+04  0.14224870080E+04  0.25500000920E-02 0.  1.
       -2    1    3    3    0  502  0.53179760335E+03 -0.35289479042E+03 -0.20678903662E+03  0.67089874773E+03  0.25500000920E-02 0. -1.
</event>
<event>
 5   0  0.8254914E-05  0.1815786E+04  0.7818609E-02  0.8697949E-01
       -1   -1    0    0    0  501  0.00000000000E+00  0.00000000000E+00  0.11760712686E+04  0.11760712686E+04  0.50400001928E-02 0.  1.
        1   -1    0    0  501    0  0.00000000000E+00  0.00000000000E+00 -0.70086749143E+03  0.70086749144E+03  0.50400001928E-02 0. -1.
    10030    2    1    2    0    0  0.00000000000E+00  0.00000000000E+00  0.47520377716E+03  0.18769387600E+04  0.18157864630E+04 0.  0.
        4    1    3    3  502    0 -0.72912674558E+02  0.69775162498E+03  0.83328658665E+03  0.10892849658E+04  0.12699999809E+01 0.  1.
       -4    1    3    3    0  502  0.72912674558E+02 -0.69775162498E+03 -0.35808280948E+03  0.78765379427E+03  0.12699999809E+01 0. -1.
</event>
<event>
 5   0  0.1549012E-04  0.1802895E+04  0.7818609E-02  0.8704761E-01
        2   -1    0    0  501    0  0.00000000000E+00  0.00000000000E+00  0.18245557306E+04  0.18245557306E+04  0.25500000920E-02 0.  1.
       -2   -1    0    0    0  501  0.00000000000E+00  0.00000000000E+00 -0.44537282373E+03  0.44537282373E+03  0.25500000920E-02 0. -1.
    10030    2    1    2    0    0  0.00000000000E+00  0.00000000000E+00  0.13791829069E+04  0.22699285543E+04  0.18028949363E+04 0.  0.
        4    1    3    3  502    0 -0.58022413181E+03  0.51831363626E+03  0.11634928915E+03  0.78666882400E+03  0.12699999809E+01 0. -1.
       -4    1    3    3    0  502  0.58022413181E+03 -0.51831363626E+03  0.12628336177E+04  0.14832597303E+04  0.12699999809E+01 0.  1.
</event>
<event>
 5   0  0.8132598E-05  0.1799356E+04  0.7818609E-02  0.8706642E-01
       -1   -1    0    0    0  501  0.00000000000E+00  0.00000000000E+00  0.66036739032E+03  0.66036739034E+03  0.50400001928E-02 0. -1.
        1   -1    0    0  501    0  0.00000000000E+00  0.00000000000E+00 -0.12257127854E+04  0.12257127854E+04  0.50400001928E-02 0.  1.
    10030    2    1    2    0    0  0.00000000000E+00  0.00000000000E+00 -0.56534539508E+03  0.18860801757E+04  0.17993562776E+04 0.  0.
        3    1    3    3  502    0 -0.85846047458E+03 -0.46688203933E+02 -0.56056668922E+03  0.10263377602E+04  0.10100000352E+00 0. -1.
       -3    1    3    3    0  502  0.85846047458E+03  0.46688203933E+02 -0.47787058572E+01  0.85974241551E+03  0.10100000352E+00 0.  1.
</event>
<event>
 5   0  0.1603564E-04  0.1802348E+04  0.7818609E-02  0.8705052E-01
        2   -1    0    0  501    0  0.00000000000E+00  0.00000000000E+00  0.13641999096E+04  0.13641999096E+04  0.25500000920E-02 0.  1.
       -2   -1    0    0    0  501  0.00000000000E+00  0.00000000000E+00 -0.59530470003E+03  0.59530470004E+03  0.25500000920E-02 0. -1.
    10030    2    1    2    0    0  0.00000000000E+00  0.00000000000E+00  0.76889520955E+03  0.19595046096E+04  0.18023480440E+04 0.  0.
        5    1    3    3  502    0  0.35445996284E+03  0.49804055411E+03  0.11043042330E+04  0.12622187559E+04  0.46999998093E+01 0.  1.
       -5    1    3    3    0  502 -0.35445996284E+03 -0.49804055411E+03 -0.33540902343E+03  0.69728585371E+03  0.46999998093E+01 0. -1.
</event>
<event>
 5   0  0.1603564E-04  0.1798056E+04  0.7818609E-02  0.8707334E-01
       -2   -1    0    0    0  501  0.00000000000E+00  0.00000000000E+00  0.10587032767E+04  0.10587032767E+04  0.25500000920E-02 0.  1.
        2   -1    0    0  501    0  0.00000000000E+00  0.00000000000E+00 -0.76343496325E+03  0.76343496326E+03  0.25500000920E-02 0. -1.
    10030    2    1    2    0    0  0.00000000000E+00  0.00000000000E+00  0.29526831349E+03  0.18221382400E+04  0.17980557246E+04 0.  0.
        5    1    3    3  502    0  0.36834016614E+02 -0.37294605906E+03  0.97575938863E+03  0.10452626379E+04  0.46999998093E+01 0.  1.
       -5    1    3    3    0  502 -0.36834016614E+02  0.37294605906E+03 -0.68049107514E+03  0.77687560207E+03  0.46999998093E+01 0. -1.
</event>
<event>
 5   0  0.1573981E-04  0.1801393E+04  0.7818609E-02  0.8705559E-01
        2   -1    0    0  501    0  0.00000000000E+00  0.00000000000E+00  0.91327841836E+03  0.91327841836E+03  0.25500000920E-02 0. -1.
       -2   -1    0    0    0  501  0.00000000000E+00  0.00000000000E+00 -0.88828744511E+03  0.88828744512E+03  0.25500000920E-02 0.  1.
    10030    2    1    2    0    0  0.00000000000E+00  0.00000000000E+00  0.24990973245E+02  0.18015658635E+04  0.18013925202E+04 0.  0.
        1    1    3    3  502    0  0.33199179753E+03 -0.17607748803E+03  0.83112902768E+03  0.91213885790E+03  0.50400001928E-02 0. -1.
       -1    1    3    3    0  502 -0.33199179753E+03  0.17607748803E+03 -0.80613805443E+03  0.88942700558E+03  0.50400001928E-02 0.  1.
</event>
<event>
 5   0  0.8254914E-05  0.1804658E+04  0.7818609E-02  0.8703826E-01
       -1   -1    0    0    0  501  0.00000000000E+00  0.00000000000E+00  0.10948704314E+04  0.10948704314E+04  0.50400001928E-02 0.  1.
        1   -1    0    0  501    0  0.00000000000E+00  0.00000000000E+00 -0.74364761572E+03  0.74364761574E+03  0.50400001928E-02 0. -1.
    10030    2    1    2    0    0  0.00000000000E+00  0.00000000000E+00  0.35122281570E+03  0.18385180472E+04  0.18046581791E+04 0.  0.
        4    1    3    3  502    0  0.56174542656E+03 -0.64375756880E+03 -0.12003065851E+03  0.86278079692E+03  0.12699999809E+01 0.  1.
       -4    1    3    3    0  502 -0.56174542656E+03  0.64375756880E+03  0.47125347421E+03  0.97573725024E+03  0.12699999809E+01 0. -1.
</event>
<event>
 5   0  0.8132598E-05  0.1801297E+04  0.7818609E-02  0.8705610E-01
        1   -1    0    0  501    0  0.00000000000E+00  0.00000000000E+00  0.50081444231E+03  0.50081444233E+03  0.50400001928E-02 0. -1.
       -1   -1    0    0    0  501  0.00000000000E+00  0.00000000000E+00 -0.16196967636E+04  0.16196967637E+04  0.50400001928E-02 0.  1.
    10030    2    1    2    0    0  0.00000000000E+00  0.00000000000E+00 -0.11188823213E+04  0.21205112060E+04  0.18012967900E+04 0.  0.
        3    1    3    3  502    0  0.27465495890E+03 -0.26396993713E+03 -0.15201889205E+04  0.15671917044E+04  0.10100000352E+00 0.  1.
       -3    1    3    3    0  502 -0.27465495890E+03  0.26396993713E+03  0.40130659913E+03  0.55331950161E+03  0.10100000352E+00 0. -1.
</event>
<event>
 5   0  0.8132598E-05  0.1796285E+04  0.7818609E-02  0.8708278E-01
        1   -1    0    0  501    0  0.00000000000E+00  0.00000000000E+00  0.13263042859E+04  0.13263042859E+04  0.50400001928E-02 0. -1.
       -1   -1    0    0    0  501  0.00000000000E+00  0.00000000000E+00 -0.60820116199E+03  0.60820116201E+03  0.50400001928E-02 0.  1.
    10030    2    1    2    0    0  0.00000000000E+00  0.00000000000E+00  0.71810312395E+03  0.19345054480E+04  0.17962848414E+04 0.  0.
        3    1    3    3  502    0 -0.94003325003E+02 -0.70840118360E+03 -0.22686254951E+03  0.74975695303E+03  0.10100000352E+00 0.  1.
       -3    1    3    3    0  502  0.94003325003E+02  0.70840118360E+03  0.94496567346E+03  0.11847484949E+04  0.10100000352E+00 0. -1.
</event>
<event>
 5   0  0.1549012E-04  0.1796861E+04  0.7818609E-02  0.8707970E-01
       -2   -1    0    0    0  501  0.00000000000E+00  0.00000000000E+00  0.43407465102E+03  0.43407465103E+03  0.25500000920E-02 0.  1.
        2   -1    0    0  501    0  0.00000000000E+00  0.00000000000E+00 -0.18595362435E+04  0.18595362435E+04  0.25500000920E-02 0. -1.
    10030    2    1    2    0    0  0.00000000000E+00  0.00000000000E+00 -0.14254615925E+04  0.22936108946E+04  0.17968612033E+04 0.  0.
        4    1    3    3  502    0 -0.21501546714E+03 -0.82887040794E+03 -0.10597717221E+04  0.13624887229E+04  0.12699999809E+01 0. -1.
       -4    1    3    3    0  502  0.21501546714E+03  0.82887040794E+03 -0.36568987039E+03  0.93112217161E+03  0.12699999809E+01 0.  1.
</event>
<event>
 5   0  0.8430513E-05  0.1792443E+04  0.7818609E-02  0.8710328E-01
        1   -1    0    0  501    0  0.00000000000E+00  0.00000000000E+00  0.80543781141E+03  0.80543781142E+03  0.50400001928E-02 0.  1.
       -1   -1    0    0    0  501  0.00000000000E+00  0.00000000000E+00 -0.99723820327E+03  0.99723820328E+03  0.50400001928E-02 0. -1.
    10030    2    1    2    0    0  0.00000000000E+00  0.00000000000E+00 -0.19180039186E+03  0.18026760147E+04  0.17924434227E+04 0.  0.
        5    1    3    3  502    0 -0.69867146757E+03  0.20830921885E+03 -0.62008261031E+03  0.95710975539E+03  0.46999998093E+01 0. -1.
       -5    1    3    3    0  502  0.69867146757E+03 -0.20830921885E+03  0.42828221845E+03  0.84556625932E+03  0.46999998093E+01 0.  1.
</event>
<event>
 5   0  0.8254914E-05  0.1728756E+04  0.7818609E-02  0.8745132E-01
        1   -1    0    0  501    0  0.00000000000E+00  0.00000000000E+00  0.74997038504E+03  0.74997038506E+03  0.50400001928E-02 0. -1.
       -1   -1    0    0    0  501  0.00000000000E+00  0.00000000000E+00 -0.99623832856E+03  0.99623832857E+03  0.50400001928E-02 0.  1.
    10030    2    1    2    0    0  0.00000000000E+00  0.00000000000E+00 -0.24626794351E+03  0.17462087136E+04  0.17287559028E+04 0.  0.
        4    1    3    3  502    0 -0.89625573162E+02 -0.82161663237E+03 -0.37879193134E+03  0.90915981769E+03  0.12699999809E+01 0.  1.
       -4    1    3    3    0  502  0.89625573162E+02  0.82161663237E+03  0.13252398783E+03  0.83704889594E+03  0.12699999809E+01 0. -1.
</event>
<event>
 5   0  0.8492114E-05  0.1802808E+04  0.7818609E-02  0.8704808E-01
       -1   -1    0    0    0  501  0.00000000000E+00  0.00000000000E+00  0.44456155101E+03  0.44456155104E+03  0.50400001928E-02 0.  1.
        1   -1    0    0  501    0  0.00000000000E+00  0.00000000000E+00 -0.18277083124E+04  0.18277083125E+04  0.50400001928E-02 0. -1.
    10030    2    1    2    0    0  0.00000000000E+00  0.00000000000E+00 -0.13831467614E+04  0.22722698635E+04  0.18028076350E+04 0.  0.
        2    1    3    3  502    0 -0.75368582531E+03 -0.37909259195E+03 -0.10916909530E+04  0.13796893322E+04  0.25500000920E-02 0. -1.
       -2    1    3    3    0  502  0.75368582531E+03  0.37909259195E+03 -0.29145580844E+03  0.89258053128E+03  0.25500000920E-02 0.  1.
</event>
<event>
 5   0  0.1628397E-04  0.1795733E+04  0.7818609E-02  0.8708572E-01
       -2   -1    0    0    0  501  0.00000000000E+00  0.00000000000E+00  0.10838250372E+04  0.10838250372E+04  0.25500000920E-02 0. -1.
        2   -1    0    0  501    0  0.00000000000E+00  0.00000000000E+00 -0.74381428219E+03  0.74381428219E+03  0.25500000920E-02 0.  1.
    10030    2    1    2    0    0  0.00000000000E+00  0.00000000000E+00  0.34001075496E+03  0.18276393193E+04  0.17957333232E+04 0.  0.
        3    1    3    3  502    0  0.17493831934E+02  0.72781636793E+03 -0.36482338117E+03  0.81432107257E+03  0.10100000352E+00 0.  1.
       -3    1    3    3    0  502 -0.17493831934E+02 -0.72781636793E+03  0.70483413613E+03  0.10133182468E+04  0.10100000352E+00 0. -1.
</event>
<event>
 5   0  0.1549012E-04  0.1815656E+04  0.7818609E-02  0.8698018E-01
       -2   -1    0    0    0  501  0.00000000000E+00  0.00000000000E+00  0.40616167800E+03  0.40616167801E+03  0.25500000920E-02 0.  1.
        2   -1    0    0  501    0  0.00000000000E+00  0.00000000000E+00 -0.20291226070E+04  0.20291226070E+04  0.25500000920E-02 0. -1.
    10030    2    1    2    0    0  0.00000000000E+00  0.00000000000E+00 -0.16229609290E+04  0.24352842850E+04  0.18156561821E+04 0.  0.
        4    1    3    3  502    0 -0.13418451645E+03 -0.63388982382E+03 -0.16643511689E+04  0.17860258171E+04  0.12699999809E+01 0. -1.
       -4    1    3    3    0  502  0.13418451645E+03  0.63388982382E+03  0.41390239922E+02  0.64925846784E+03  0.12699999809E+01 0.  1.
</event>
<event>
 5   0  0.1573981E-04  0.1798938E+04  0.7818609E-02  0.8706865E-01
        2   -1    0    0  501    0  0.00000000000E+00  0.00000000000E+00  0.57567556004E+03  0.57567556005E+03  0.25500000920E-02 0. -1.
       -2   -1    0    0    0  501  0.00000000000E+00  0.00000000000E+00 -0.14053822994E+04  0.14053822994E+04  0.25500000920E-02 0.  1.
    10030    2    1    2    0    0  0.00000000000E+00  0.00000000000E+00 -0.82970673932E+03  0.19810578594E+04  0.17989377335E+04 0.  0.
        1    1    3    3  502    0  0.73736547747E+03  0.49007888187E+03 -0.58952744168E+03  0.10636859322E+04  0.50400001928E-02 0.  1.
       -1    1    3    3    0  502 -0.73736547747E+03 -0.49007888187E+03 -0.24017929764E+03  0.91737192722E+03  0.50400001928E-02 0. -1.
</event>
<event>
 5   0  0.1628397E-04  0.1801356E+04  0.7818609E-02  0.8705579E-01
        2   -1    0    0  501    0  0.00000000000E+00  0.00000000000E+00  0.66270237739E+03  0.66270237740E+03  0.25500000920E-02 0.  1.
       -2   -1    0    0    0  501  0.00000000000E+00  0.00000000000E+00 -0.12241101951E+04  0.12241101951E+04  0.25500000920E-02 0. -1.
    10030    2    1    2    0    0  0.00000000000E+00  0.00000000000E+00 -0.56140781773E+03  0.18868125725E+04  0.18013558632E+04 0.  0.
        3    1    3    3  502    0  0.21466883453E+03 -0.55515146604E+03 -0.98874937437E+03  0.11540802374E+04  0.10100000352E+00 0. -1.
       -3    1    3    3    0  502 -0.21466883453E+03  0.55515146604E+03  0.42734155664E+03  0.73273233516E+03  0.10100000352E+00 0.  1.
</event>
<event>
 5   0  0.8430513E-05  0.1797331E+04  0.7818609E-02  0.8707720E-01
        1   -1    0    0  501    0  0.00000000000E+00  0.00000000000E+00  0.58618382368E+03  0.58618382370E+03  0.50400001928E-02 0. -1.
       -1   -1    0    0    0  501  0.00000000000E+00  0.00000000000E+00 -0.13777242852E+04  0.13777242852E+04  0.50400001928E-02 0.  1.
    10030    2    1    2    0    0  0.00000000000E+00  0.00000000000E+00 -0.79154046151E+03  0.19639081089E+04  0.17973310096E+04 0.  0.
        5    1    3    3  502    0 -0.24911810444E+03 -0.28024792127E+03  0.49660834364E+03  0.62228664160E+03  0.46999998093E+01 0. -1.
       -5    1    3    3    0  502  0.24911810444E+03  0.28024792127E+03 -0.12881488051E+04  0.13416214673E+04  0.46999998093E+01 0.  1.
</event>
<event>
 5   0  0.8254914E-05  0.1798380E+04  0.7818609E-02  0.8707161E-01
        1   -1    0    0  501    0  0.00000000000E+00  0.00000000000E+00  0.13434971651E+04  0.13434971651E+04  0.50400001928E-02 0. -1.
       -1   -1    0    0    0  501  0.00000000000E+00  0.00000000000E+00 -0.60181968424E+03  0.60181968426E+03  0.50400001928E-02 0.  1.
    10030    2    1    2    0    0  0.00000000000E+00  0.00000000000E+00  0.74167748086E+03  0.19453168494E+04  0.17983804266E+04 0.  0.
        4    1    3    3  502    0  0.36403953704E+02 -0.44928509783E+02  0.13414828412E+04  0.13427291778E+04  0.12699999809E+01 0. -1.
       -4    1    3    3    0  502 -0.36403953704E+02  0.44928509783E+02 -0.59980536029E+03  0.60258767160E+03  0.12699999809E+01 0.  1.
</event>
<event>
 5   0  0.8430513E-05  0.1818170E+04  0.7818609E-02  0.8696696E-01
        1   -1    0    0  501    0  0.00000000000E+00  0.00000000000E+00  0.11039339946E+04  0.11039339947E+04  0.50400001928E-02 0. -1.
       -1   -1    0    0    0  501  0.00000000000E+00  0.00000000000E+00 -0.74862764098E+03  0.74862764100E+03  0.50400001928E-02 0.  1.
    10030    2    1    2    0    0  0.00000000000E+00  0.00000000000E+00  0.35530635366E+03  0.18525616356E+04  0.18181699615E+04 0.  0.
        5    1    3    3  502    0  0.24538481231E+03 -0.61558117060E+03  0.81172615255E+03  0.10478908915E+04  0.46999998093E+01 0. -1.
       -5    1    3    3    0  502 -0.24538481231E+03  0.61558117060E+03 -0.45641979889E+03  0.80467074417E+03  0.46999998093E+01 0.  1.
</event>
<event>
 5   0  0.8206783E-05  0.1798563E+04  0.7818609E-02  0.8707064E-01
       -1   -1    0    0    0  501  0.00000000000E+00  0.00000000000E+00  0.79047765219E+03  0.79047765221E+03  0.50400001928E-02 0. -1.
        1   -1    0    0  501    0  0.00000000000E+00  0.00000000000E+00 -0.10230616011E+04  0.10230616011E+04  0.50400001928E-02 0.  1.
    10030    2    1    2    0    0  0.00000000000E+00  0.00000000000E+00 -0.23258394887E+03  0.18135392533E+04  0.17985631293E+04 0.  0.
        1    1    3    3  502    0  0.48345362187E+03  0.73219197939E+03  0.82516798007E+02  0.88127267129E+03  0.50400001928E-02 0.  1.
       -1    1    3    3    0  502 -0.48345362187E+03 -0.73219197939E+03 -0.31510074687E+03  0.93226658199E+03  0.50400001928E-02 0. -1.
</event>
<event>
 5   0  0.1549012E-04  0.1802795E+04  0.7818609E-02  0.8704815E-01
        2   -1    0    0  501    0  0.00000000000E+00  0.00000000000E+00  0.10316574120E+04  0.10316574120E+04  0.25500000920E-02 0.  1.
       -2   -1    0    0    0  501  0.00000000000E+00  0.00000000000E+00 -0.78758449708E+03  0.78758449708E+03  0.25500000920E-02 0. -1.
    10030    2    1    2    0    0  0.00000000000E+00  0.00000000000E+00  0.24407291492E+03  0.18192419091E+04  0.18027949234E+04 0.  0.
        4    1    3    3  502    0 -0.28956390249E+03  0.17665134284E+03  0.96479789746E+03  0.10226874138E+04  0.12699999809E+01 0.  1.
       -4    1    3    3    0  502  0.28956390249E+03 -0.17665134284E+03 -0.72072498254E+03  0.79655449526E+03  0.12699999809E+01 0. -1.
</event>
<event>
 5   0  0.1573981E-04  0.1807375E+04  0.7818609E-02  0.8702387E-01
        2   -1    0    0  501    0  0.00000000000E+00  0.00000000000E+00  0.97219387916E+03  0.97219387916E+03  0.25500000920E-02 0. -1.
       -2   -1    0    0    0  501  0.00000000000E+00  0.00000000000E+00 -0.84000886544E+03  0.84000886544E+03  0.25500000920E-02 0.  1.
    10030    2    1    2    0    0  0.00000000000E+00  0.00000000000E+00  0.13218501372E+03  0.18122027446E+04  0.18073754202E+04 0.  0.
        1    1    3    3  502    0  0.21461533104E+03 -0.10105647368E+03 -0.80823383344E+03  0.84232658793E+03  0.50400001928E-02 0.  1.
       -1    1    3    3    0  502 -0.21461533104E+03  0.10105647368E+03  0.94041884715E+03  0.96987615668E+03  0.50400001928E-02 0. -1.
</event>
<event>
 5   0  0.1608627E-04  0.1816234E+04  0.7818609E-02  0.8697714E-01
       -2   -1    0    0    0  501  0.00000000000E+00  0.00000000000E+00  0.35272258734E+03  0.35272258735E+03  0.25500000920E-02 0. -1.
        2   -1    0    0  501    0  0.00000000000E+00  0.00000000000E+00 -0.23380325683E+04  0.23380325683E+04  0.25500000920E-02 0.  1.
    10030    2    1    2    0    0  0.00000000000E+00  0.00000000000E+00 -0.19853099810E+04  0.26907551557E+04  0.18162344527E+04 0.  0.
        2    1    3    3  502    0  0.20549305310E+03 -0.92418718724E+02 -0.22959628632E+04  0.23069924325E+04  0.25500000920E-02 0.  1.
       -2    1    3    3    0  502 -0.20549305310E+03  0.92418718724E+02  0.31065288223E+03  0.38376272316E+03  0.25500000920E-02 0. -1.
</event>
<event>
 5   0  0.8132598E-05  0.1799633E+04  0.7818609E-02  0.8706495E-01
       -1   -1    0    0    0  501  0.00000000000E+00  0.00000000000E+00  0.13837356005E+04  0.13837356005E+04  0.50400001928E-02 0. -1.
        1   -1    0    0  501    0  0.00000000000E+00  0.00000000000E+00 -0.58513344839E+03  0.58513344841E+03  0.50400001928E-02 0.  1.
    10030    2    1    2    0    0  0.00000000000E+00  0.00000000000E+00  0.79860215215E+03  0.19688690490E+04  0.17996332778E+04 0.  0.
        3    1    3    3  502    0 -0.40186716608E+03  0.76116988111E+03  0.11235158016E+03  0.86804360193E+03  0.10100000352E+00 0.  1.
       -3    1    3    3    0  502  0.40186716608E+03 -0.76116988111E+03  0.68625057199E+03  0.11008254470E+04  0.10100000352E+00 0. -1.
</event>
<event>
 5   0  0.1628397E-04  0.1828659E+04  0.7818609E-02  0.8691206E-01
        2   -1    0    0  501    0  0.00000000000E+00  0.00000000000E+00  0.11081422770E+04  0.11081422770E+04  0.25500000920E-02 0.  1.
       -2   -1    0    0    0  501  0.00000000000E+00  0.00000000000E+00 -0.75441441927E+03  0.75441441928E+03  0.25500000920E-02 0. -1.
    10030    2    1    2    0    0  0.00000000000E+00  0.00000000000E+00  0.35372785768E+03  0.18625566962E+04  0.18286590851E+04 0.  0.
        3    1    3    3  502    0 -0.63483473417E+03 -0.20719611570E+03 -0.45925546783E+03  0.81046959536E+03  0.10100000352E+00 0. -1.
       -3    1    3    3    0  502  0.63483473417E+03  0.20719611570E+03  0.81298332551E+03  0.10520871009E+04  0.10100000352E+00 0.  1.
</event>
<event>
 5   0  0.1603564E-04  0.1808950E+04  0.7818609E-02  0.8701554E-01
       -2   -1    0    0    0  501  0.00000000000E+00  0.00000000000E+00  0.78678411747E+03  0.78678411747E+03  0.25500000920E-02 0.  1.
        2   -1    0    0  501    0  0.00000000000E+00  0.00000000000E+00 -0.10397708943E+04  0.10397708943E+04  0.25500000920E-02 0. -1.
    10030    2    1    2    0    0  0.00000000000E+00  0.00000000000E+00 -0.25298677685E+03  0.18265550118E+04  0.18089502209E+04 0.  0.
        5    1    3    3  502    0  0.32725483052E+03  0.56214147543E+03 -0.76106348718E+03  0.10011685592E+04  0.46999998093E+01 0. -1.
       -5    1    3    3    0  502 -0.32725483052E+03 -0.56214147543E+03  0.50807671033E+03  0.82538645256E+03  0.46999998093E+01 0.  1.
</event>
<event>
 5   0  0.1573981E-04  0.1754873E+04  0.7818609E-02  0.8730673E-01
       -2   -1    0    0    0  501  0.00000000000E+00  0.00000000000E+00  0.94175118586E+03  0.94175118586E+03  0.25500000920E-02 0. -1.
        2   -1    0    0  501    0  0.00000000000E+00  0.00000000000E+00 -0.81751376099E+03  0.81751376100E+03  0.25500000920E-02 0.  1.
    10030    2    1    2    0    0  0.00000000000E+00  0.00000000000E+00  0.12423742487E+03  0.17592649469E+04  0.17548727064E+04 0.  0.
        1    1    3    3  502    0  0.53039010496E+03  0.68358003498E+03 -0.84189108780E+02  0.86930037025E+03  0.50400001928E-02 0. -1.
       -1    1    3    3    0  502 -0.53039010496E+03 -0.68358003498E+03  0.20842653365E+03  0.88996457661E+03  0.50400001928E-02 0.  1.
</event>
<event>
 5   0  0.8132598E-05  0.1805609E+04  0.7818609E-02  0.8703322E-01
       -1   -1    0    0    0  501  0.00000000000E+00  0.00000000000E+00  0.79548929550E+03  0.79548929551E+03  0.50400001928E-02 0.  1.
        1   -1    0    0  501    0  0.00000000000E+00  0.00000000000E+00 -0.10245968124E+04  0.10245968124E+04  0.50400001928E-02 0. -1.
    10030    2    1    2    0    0  0.00000000000E+00  0.00000000000E+00 -0.22910751693E+03  0.18200861079E+04  0.18056088131E+04 0.  0.
        3    1    3    3  502    0  0.44240080284E+03  0.40017404832E+03 -0.79762859233E+03  0.99602666671E+03  0.10100000352E+00 0. -1.
       -3    1    3    3    0  502 -0.44240080284E+03 -0.40017404832E+03  0.56852107541E+03  0.82405944123E+03  0.10100000352E+00 0.  1.
</event>
<event>
 5   0  0.8254914E-05  0.1799985E+04  0.7818609E-02  0.8706307E-01
        1   -1    0    0  501    0  0.00000000000E+00  0.00000000000E+00  0.12550960133E+04  0.12550960133E+04  0.50400001928E-02 0. -1.
       -1   -1    0    0    0  501  0.00000000000E+00  0.00000000000E+00 -0.64535815957E+03  0.64535815959E+03  0.50400001928E-02 0.  1.
    10030    2    1    2    0    0  0.00000000000E+00  0.00000000000E+00  0.60973785368E+03  0.19004541729E+04  0.17999849480E+04 0.  0.
        4    1    3    3  502    0  0.62386141500E+03 -0.41031686096E+03  0.83532814375E+03  0.11204185433E+04  0.12699999809E+01 0. -1.
       -4    1    3    3    0  502 -0.62386141500E+03  0.41031686096E+03 -0.22559029007E+03  0.78003562956E+03  0.12699999809E+01 0.  1.
</event>
<event>
 5   0  0.8132598E-05  0.1805835E+04  0.7818609E-02  0.8703203E-01
       -1   -1    0    0    0  501  0.00000000000E+00  0.00000000000E+00  0.45832466219E+03  0.45832466222E+03  0.50400001928E-02 0.  1.
        1   -1    0    0  501    0  0.00000000000E+00  0.00000000000E+00 -0.17787818648E+04  0.17787818648E+04  0.50400001928E-02 0. -1.
    10030    2    1    2    0    0  0.00000000000E+00  0.00000000000E+00 -0.13204572026E+04  0.22371065270E+04  0.18058345410E+04 0.  0.
        3    1    3    3  502    0 -0.64041408132E+03  0.63649484467E+03 -0.65784430420E+03  0.11171459267E+04  0.10100000352E+00 0.  1.
       -3    1    3    3    0  502  0.64041408132E+03 -0.63649484467E+03 -0.66261289841E+03  0.11199606003E+04  0.10100000352E+00 0. -1.
</event>
<event>
 5   0  0.1549012E-04  0.1801795E+04  0.7818609E-02  0.8705346E-01
       -2   -1    0    0    0  501  0.00000000000E+00  0.00000000000E+00  0.62676546977E+03  0.62676546977E+03  0.25500000920E-02 0.  1.
        2   -1    0    0  501    0  0.00000000000E+00  0.00000000000E+00 -0.12949281236E+04  0.12949281236E+04  0.25500000920E-02 0. -1.
    10030    2    1    2    0    0  0.00000000000E+00  0.00000000000E+00 -0.66816265383E+03  0.19216935934E+04  0.18017949203E+04 0.  0.
        4    1    3    3  502    0 -0.89263121463E+03  0.61168358385E+02 -0.22180221341E+03  0.92180794538E+03  0.12699999809E+01 0. -1.
       -4    1    3    3    0  502  0.89263121463E+03 -0.61168358385E+02 -0.44636044043E+03  0.99988564800E+03  0.12699999809E+01 0.  1.
</event>
<event>
 5   0  0.1603564E-04  0.1792665E+04  0.7818609E-02  0.8710210E-01
       -2   -1    0    0    0  501  0.00000000000E+00  0.00000000000E+00  0.33808717840E+03  0.33808717841E+03  0.25500000920E-02 0. -1.
        2   -1    0    0  501    0  0.00000000000E+00  0.00000000000E+00 -0.23763457648E+04  0.23763457648E+04  0.25500000920E-02 0.  1.
    10030    2    1    2    0    0  0.00000000000E+00  0.00000000000E+00 -0.20382585864E+04  0.27144329432E+04  0.17926650937E+04 0.  0.
        5    1    3    3  502    0 -0.31683350040E+01  0.80111125452E+03 -0.41043178225E+03  0.90014755365E+03  0.46999998093E+01 0. -1.
       -5    1    3    3    0  502  0.31683350040E+01 -0.80111125452E+03 -0.16278268042E+04  0.18142853896E+04  0.46999998093E+01 0.  1.
</event>
<event>
 5   0  0.1608627E-04  0.1809729E+04  0.7818609E-02  0.8701143E-01
        2   -1    0    0  501    0  0.00000000000E+00  0.00000000000E+00  0.12455682557E+04  0.12455682557E+04  0.25500000920E-02 0. -1.
       -2   -1    0    0    0  501  0.00000000000E+00  0.00000000000E+00 -0.65735436623E+03  0.65735436623E+03  0.25500000920E-02 0.  1.
    10030    2    1    2    0    0  0.00000000000E+00  0.00000000000E+00  0.58821388952E+03  0.19029226220E+04  0.18097289646E+04 0.  0.
        2    1    3    3  502    0 -0.27803314742E+03 -0.75540498917E+03  0.72872037150E+03  0.10858050049E+04  0.25500000920E-02 0. -1.
       -2    1    3    3    0  502  0.27803314742E+03  0.75540498917E+03 -0.14050648199E+03  0.81711761712E+03  0.25500000920E-02 0.  1.
</event>
<event>
 5   0  0.1628397E-04  0.1791572E+04  0.7818609E-02  0.8710794E-01
       -2   -1    0    0    0  501  0.00000000000E+00  0.00000000000E+00  0.39372212162E+03  0.39372212163E+03  0.25500000920E-02 0. -1.
        2   -1    0    0  501    0  0.00000000000E+00  0.00000000000E+00 -0.20380685781E+04  0.20380685781E+04  0.25500000920E-02 0.  1.
    10030    2    1    2    0    0  0.00000000000E+00  0.00000000000E+00 -0.16443464565E+04  0.24317906997E+04  0.17915721415E+04 0.  0.
        3    1    3    3  502    0  0.14062781999E+03 -0.74263577573E+02 -0.20187537210E+04  0.20250081133E+04  0.10100000352E+00 0.  1.
       -3    1    3    3    0  502 -0.14062781999E+03  0.74263577573E+02  0.37440726451E+03  0.40678258643E+03  0.10100000352E+00 0. -1.
</event>
<event>
 5   0  0.1608627E-04  0.1804974E+04  0.7818609E-02  0.8703659E-01
       -2   -1    0    0    0  501  0.00000000000E+00  0.00000000000E+00  0.49316880383E+03  0.49316880384E+03  0.25500000920E-02 0. -1.
        2   -1    0    0  501    0  0.00000000000E+00  0.00000000000E+00 -0.16515291225E+04  0.16515291225E+04  0.25500000920E-02 0.  1.
    10030    2    1    2    0    0  0.00000000000E+00  0.00000000000E+00 -0.11583603187E+04  0.21446979264E+04  0.18049738412E+04 0.  0.
        2    1    3    3  502    0  0.11020888964E+02 -0.89642025973E+03 -0.70261682226E+03  0.11390176210E+04  0.25500000920E-02 0. -1.
       -2    1    3    3    0  502 -0.11020888964E+02  0.89642025973E+03 -0.45574349645E+03  0.10056803054E+04  0.25500000920E-02 0.  1.
</event>
<event>
 5   0  0.1628397E-04  0.1781308E+04  0.7818609E-02  0.8716303E-01
       -2   -1    0    0    0  501  0.00000000000E+00  0.00000000000E+00  0.11561365438E+04  0.11561365438E+04  0.25500000920E-02 0.  1.
        2   -1    0    0  501    0  0.00000000000E+00  0.00000000000E+00 -0.68613387436E+03  0.68613387437E+03  0.25500000920E-02 0. -1.
    10030    2    1    2    0    0  0.00000000000E+00  0.00000000000E+00  0.47000266948E+03  0.18422704182E+04  0.17813078859E+04 0.  0.
        3    1    3    3  502    0 -0.64863298666E+03  0.12332710957E+03  0.85323007926E+03  0.10788586125E+04  0.10100000352E+00 0.  1.
       -3    1    3    3    0  502  0.64863298666E+03 -0.12332710957E+03 -0.38322740978E+03  0.76341180574E+03  0.10100000352E+00 0. -1.
</event>
<event>
 5   0  0.1628397E-04  0.1754161E+04  0.7818609E-02  0.8731063E-01
        2   -1    0    0  501    0  0.00000000000E+00  0.00000000000E+00  0.21116289667E+04  0.21116289667E+04  0.25500000920E-02 0. -1.
       -2   -1    0    0    0  501  0.00000000000E+00  0.00000000000E+00 -0.36430164898E+03  0.36430164899E+03  0.25500000920E-02 0.  1.
    10030    2    1    2    0    0  0.00000000000E+00  0.00000000000E+00  0.17473273177E+04  0.24759306157E+04  0.17541606706E+04 0.  0.
        3    1    3    3  502    0  0.55122949113E+03 -0.24497709681E+03 -0.25030951945E+02  0.60373362389E+03  0.10100000352E+00 0.  1.
       -3    1    3    3    0  502 -0.55122949113E+03  0.24497709681E+03  0.17723582696E+04  0.18721969918E+04  0.10100000352E+00 0. -1.
</event>
<event>
 5   0  0.1549012E-04  0.1803939E+04  0.7818609E-02  0.8704207E-01
        2   -1    0    0  501    0  0.00000000000E+00  0.00000000000E+00  0.20070834064E+04  0.20070834064E+04  0.25500000920E-02 0. -1.
       -2   -1    0    0    0  501  0.00000000000E+00  0.00000000000E+00 -0.40533902797E+03  0.40533902798E+03  0.25500000920E-02 0.  1.
    10030    2    1    2    0    0  0.00000000000E+00  0.00000000000E+00  0.16017443784E+04  0.24124224344E+04  0.18039392862E+04 0.  0.
        4    1    3    3  502    0 -0.45917763755E+03  0.36450290515E+03 -0.11578504207E+03  0.59759037773E+03  0.12699999809E+01 0.  1.
       -4    1    3    3    0  502  0.45917763755E+03 -0.36450290515E+03  0.17175294205E+04  0.18148320567E+04  0.12699999809E+01 0. -1.
</event>
<event>
 5   0  0.8430513E-05  0.1795900E+04  0.7818609E-02  0.8708483E-01
        1   -1    0    0  501    0  0.00000000000E+00  0.00000000000E+00  0.12008710562E+04  0.12008710562E+04  0.50400001928E-02 0.  1.
       -1   -1    0    0    0  501  0.00000000000E+00  0.00000000000E+00 -0.67144124376E+03  0.67144124378E+03  0.50400001928E-02 0. -1.
    10030    2    1    2    0    0  0.00000000000E+00  0.00000000000E+00  0.52942981240E+03  0.18723123000E+04  0.17959001705E+04 0.  0.
        5    1    3    3  502    0 -0.49854459986E+03 -0.33170489221E+03 -0.43287163185E+03  0.73890107133E+03  0.46999998093E+01 0. -1.
       -5    1    3    3    0  502  0.49854459986E+03  0.33170489221E+03  0.96230144425E+03  0.11334112286E+04  0.46999998093E+01 0.  1.
</event>
<event>
 5   0  0.8492114E-05  0.1804455E+04  0.7818609E-02  0.8703934E-01
       -1   -1    0    0    0  501  0.00000000000E+00  0.00000000000E+00  0.88607095263E+03  0.88607095264E+03  0.50400001928E-02 0.  1.
        1   -1    0    0  501    0  0.00000000000E+00  0.00000000000E+00 -0.91867883598E+03  0.91867883600E+03  0.50400001928E-02 0. -1.
    10030    2    1    2    0    0  0.00000000000E+00  0.00000000000E+00 -0.32607883359E+02  0.18047497886E+04  0.18044551880E+04 0.  0.
        2    1    3    3  502    0  0.26902008806E+03 -0.65384318563E+03  0.54426228346E+03  0.89224668807E+03  0.25500000920E-02 0.  1.
       -2    1    3    3    0  502 -0.26902008806E+03  0.65384318563E+03 -0.57687016682E+03  0.91250310057E+03  0.25500000920E-02 0. -1.
</event>
<event>
 5   0  0.8492114E-05  0.1807177E+04  0.7818609E-02  0.8702492E-01
        1   -1    0    0  501    0  0.00000000000E+00  0.00000000000E+00  0.11665768403E+04  0.11665768403E+04  0.50400001928E-02 0.  1.
       -1   -1    0    0    0  501  0.00000000000E+00  0.00000000000E+00 -0.69988706442E+03  0.69988706443E+03  0.50400001928E-02 0. -1.
    10030    2    1    2    0    0  0.00000000000E+00  0.00000000000E+00  0.46668977590E+03  0.18664639048E+04  0.18071768482E+04 0.  0.
        2    1    3    3  502    0  0.73344804928E+03 -0.21792518688E+03 -0.26308447960E+03  0.80910498175E+03  0.25500000920E-02 0. -1.
       -2    1    3    3    0  502 -0.73344804928E+03  0.21792518688E+03  0.72977425550E+03  0.10573589230E+04  0.25500000920E-02 0.  1.
</event>
<event>
 5   0  0.8132598E-05  0.1803608E+04  0.7818609E-02  0.8704383E-01
        1   -1    0    0  501    0  0.00000000000E+00  0.00000000000E+00  0.16729486988E+04  0.16729486988E+04  0.50400001928E-02 0. -1.
       -1   -1    0    0    0  501  0.00000000000E+00  0.00000000000E+00 -0.48611793968E+03  0.48611793971E+03  0.50400001928E-02 0.  1.
    10030    2    1    2    0    0  0.00000000000E+00  0.00000000000E+00  0.11868307591E+04  0.21590666385E+04  0.18036079116E+04 0.  0.
        3    1    3    3  502    0  0.59442186308E+02 -0.84407285164E+03  0.96673998039E+03  0.12847484393E+04  0.10100000352E+00 0. -1.
       -3    1    3    3    0  502 -0.59442186308E+02  0.84407285164E+03  0.22009077872E+03  0.87431819921E+03  0.10100000352E+00 0.  1.
</event>
<event>
 5   0  0.1573981E-04  0.1802333E+04  0.7818609E-02  0.8705060E-01
        2   -1    0    0  501    0  0.00000000000E+00  0.00000000000E+00  0.18696137389E+04  0.18696137389E+04  0.25500000920E-02 0. -1.
       -2   -1    0    0    0  501  0.00000000000E+00  0.00000000000E+00 -0.43436824367E+03  0.43436824368E+03  0.25500000920E-02 0.  1.
    10030    2    1    2    0    0  0.00000000000E+00  0.00000000000E+00  0.14352454952E+04  0.23039819826E+04  0.18023327508E+04 0.  0.
        1    1    3    3  502    0 -0.25175346869E+03 -0.66222489576E+03  0.14295743142E+04  0.15954950145E+04  0.50400001928E-02 0. -1.
       -1    1    3    3    0  502  0.25175346869E+03  0.66222489576E+03  0.56711810212E+01  0.70848696804E+03  0.50400001928E-02 0.  1.
</event>
<event>
 5   0  0.8132598E-05  0.1823003E+04  0.7818609E-02  0.8694162E-01
        1   -1    0    0  501    0  0.00000000000E+00  0.00000000000E+00  0.23752475007E+04  0.23752475007E+04  0.50400001928E-02 0.  1.
       -1   -1    0    0    0  501  0.00000000000E+00  0.00000000000E+00 -0.34978862602E+03  0.34978862606E+03  0.50400001928E-02 0. -1.
    10030    2    1    2    0    0  0.00000000000E+00  0.00000000000E+00  0.20254588747E+04  0.27250361268E+04  0.18230025340E+04 0.  0.
        3    1    3    3  502    0 -0.79791396464E+03  0.15547207609E+03  0.39641163674E+03  0.90442272050E+03  0.10100000352E+00 0. -1.
       -3    1    3    3    0  502  0.79791396464E+03 -0.15547207609E+03  0.16290472379E+04  0.18206134062E+04  0.10100000352E+00 0.  1.
</event>
<event>
 5   0  0.1628397E-04  0.1793902E+04  0.7818609E-02  0.8709549E-01
        2   -1    0    0  501    0  0.00000000000E+00  0.00000000000E+00  0.59994550064E+03  0.59994550064E+03  0.25500000920E-02 0. -1.
       -2   -1    0    0    0  501  0.00000000000E+00  0.00000000000E+00 -0.13409905366E+04  0.13409905366E+04  0.25500000920E-02 0.  1.
    10030    2    1    2    0    0  0.00000000000E+00  0.00000000000E+00 -0.74104503600E+03  0.19409360373E+04  0.17939021588E+04 0.  0.
        3    1    3    3  502    0 -0.55802789583E+03  0.70015148581E+03 -0.42892841888E+03  0.99276726091E+03  0.10100000352E+00 0. -1.
       -3    1    3    3    0  502  0.55802789583E+03 -0.70015148581E+03 -0.31211661712E+03  0.94816877638E+03  0.10100000352E+00 0.  1.
</event>
<event>
 5   0  0.8206783E-05  0.1786344E+04  0.7818609E-02  0.8713596E-01
        1   -1    0    0  501    0  0.00000000000E+00  0.00000000000E+00  0.93376445246E+03  0.93376445248E+03  0.50400001928E-02 0.  1.
       -1   -1    0    0    0  501  0.00000000000E+00  0.00000000000E+00 -0.85434408646E+03  0.85434408648E+03  0.50400001928E-02 0. -1.
    10030    2    1    2    0    0  0.00000000000E+00  0.00000000000E+00  0.79420366003E+02  0.17881085390E+04  0.17863439066E+04 0.  0.
        1    1    3    3  502    0  0.33885516224E+02  0.17183987801E+02  0.93295520299E+03  0.93372850897E+03  0.50400001928E-02 0.  1.
       -1    1    3    3    0  502 -0.33885516224E+02 -0.17183987801E+02 -0.85353483699E+03  0.85438002998E+03  0.50400001928E-02 0. -1.
</event>
<event>
 5   0  0.1549012E-04  0.1802182E+04  0.7818609E-02  0.8705140E-01
       -2   -1    0    0    0  501  0.00000000000E+00  0.00000000000E+00  0.56674920132E+03  0.56674920132E+03  0.25500000920E-02 0.  1.
        2   -1    0    0  501    0  0.00000000000E+00  0.00000000000E+00 -0.14326707945E+04  0.14326707946E+04  0.25500000920E-02 0. -1.
    10030    2    1    2    0    0  0.00000000000E+00  0.00000000000E+00 -0.86592159323E+03  0.19994199959E+04  0.18021820425E+04 0.  0.
        4    1    3    3  502    0 -0.25526224967E+03 -0.86417322184E+03 -0.42958797522E+03  0.99824927489E+03  0.12699999809E+01 0.  1.
       -4    1    3    3    0  502  0.25526224967E+03  0.86417322184E+03 -0.43633361801E+03  0.10011707210E+04  0.12699999809E+01 0. -1.
</event>
<event>
 5   0  0.1549012E-04  0.1797901E+04  0.7818609E-02  0.8707417E-01
       -2   -1    0    0    0  501  0.00000000000E+00  0.00000000000E+00  0.49786703310E+03  0.49786703311E+03  0.25500000920E-02 0.  1.
        2   -1    0    0  501    0  0.00000000000E+00  0.00000000000E+00 -0.16231479098E+04  0.16231479098E+04  0.25500000920E-02 0. -1.
    10030    2    1    2    0    0  0.00000000000E+00  0.00000000000E+00 -0.11252808767E+04  0.21210149429E+04  0.17979008139E+04 0.  0.
        4    1    3    3  502    0  0.18925104588E+03 -0.25821919803E+03 -0.15536151005E+04  0.15862580515E+04  0.12699999809E+01 0. -1.
       -4    1    3    3    0  502 -0.18925104588E+03  0.25821919803E+03  0.42833422386E+03  0.53475689134E+03  0.12699999809E+01 0.  1.
</event>
<event>
 5   0  0.8430513E-05  0.1794340E+04  0.7818609E-02  0.8709315E-01
       -1   -1    0    0    0  501  0.00000000000E+00  0.00000000000E+00  0.10371177202E+04  0.10371177202E+04  0.50400001928E-02 0. -1.
        1   -1    0    0  501    0  0.00000000000E+00  0.00000000000E+00 -0.77610664080E+03  0.77610664082E+03  0.50400001928E-02 0.  1.
    10030    2    1    2    0    0  0.00000000000E+00  0.00000000000E+00  0.26101107942E+03  0.18132243611E+04  0.17943399343E+04 0.  0.
        5    1    3    3  502    0  0.73109257081E+03 -0.11389683777E+03 -0.38220295818E+03  0.83280851820E+03  0.46999998093E+01 0.  1.
       -5    1    3    3    0  502 -0.73109257081E+03  0.11389683777E+03  0.64321403760E+03  0.98041584285E+03  0.46999998093E+01 0. -1.
</event>
<event>
 5   0  0.8132598E-05  0.1803207E+04  0.7818609E-02  0.8704596E-01
        1   -1    0    0  501    0  0.00000000000E+00  0.00000000000E+00  0.12712429973E+04  0.12712429973E+04  0.50400001928E-02 0. -1.
       -1   -1    0    0    0  501  0.00000000000E+00  0.00000000000E+00 -0.63944428848E+03  0.63944428850E+03  0.50400001928E-02 0.  1.
    10030    2    1    2    0    0  0.00000000000E+00  0.00000000000E+00  0.63179870880E+03  0.19106872858E+04  0.18032072248E+04 0.  0.
        3    1    3    3  502    0 -0.80232103923E+03  0.25952753971E+03 -0.22205074574E+02  0.84354411230E+03  0.10100000352E+00 0.  1.
       -3    1    3    3    0  502  0.80232103923E+03 -0.25952753971E+03  0.65400378338E+03  0.10671431735E+04  0.10100000352E+00 0. -1.
</event>
<event>
 5   0  0.8492114E-05  0.1799883E+04  0.7818609E-02  0.8706362E-01
       -1   -1    0    0    0  501  0.00000000000E+00  0.00000000000E+00  0.87511068540E+03  0.87511068542E+03  0.50400001928E-02 0.  1.
        1   -1    0    0  501    0  0.00000000000E+00  0.00000000000E+00 -0.92547722830E+03  0.92547722831E+03  0.50400001928E-02 0. -1.
    10030    2    1    2    0    0  0.00000000000E+00  0.00000000000E+00 -0.50366542891E+02  0.18005879137E+04  0.17998833424E+04 0.  0.
        2    1    3    3  502    0  0.72508151318E+03 -0.29877959738E+03 -0.46681113284E+03  0.91264729349E+03  0.25500000920E-02 0. -1.
       -2    1    3    3    0  502 -0.72508151318E+03  0.29877959738E+03  0.41644458995E+03  0.88794062024E+03  0.25500000920E-02 0.  1.
</event>
<event>
 5   0  0.1549012E-04  0.1803667E+04  0.7818609E-02  0.8704352E-01
       -2   -1    0    0    0  501  0.00000000000E+00  0.00000000000E+00  0.16019459337E+04  0.16019459337E+04  0.25500000920E-02 0. -1.
        2   -1    0    0  501    0  0.00000000000E+00  0.00000000000E+00 -0.50769734021E+03  0.50769734022E+03  0.25500000920E-02 0.  1.
    10030    2    1    2    0    0  0.00000000000E+00  0.00000000000E+00  0.10942485935E+04  0.21096432739E+04  0.18036670310E+04 0.  0.
        4    1    3    3  502    0 -0.24311560363E+03  0.30470415261E+03  0.14983182464E+04  0.15481954004E+04  0.12699999809E+01 0. -1.
       -4    1    3    3    0  502  0.24311560363E+03 -0.30470415261E+03 -0.40406965294E+03  0.56144787352E+03  0.12699999809E+01 0.  1.
</event>
<event>
 5   0  0.8132598E-05  0.1838033E+04  0.7818609E-02  0.8686331E-01
       -1   -1    0    0    0  501  0.00000000000E+00  0.00000000000E+00  0.66653210157E+03  0.66653210159E+03  0.50400001928E-02 0. -1.
        1   -1    0    0  501    0  0.00000000000E+00  0.00000000000E+00 -0.12671430436E+04  0.12671430436E+04  0.50400001928E-02 0.  1.
    10030    2    1    2    0    0  0.00000000000E+00  0.00000000000E+00 -0.60061094204E+03  0.19336751452E+04  0.18380332052E+04 0.  0.
        3    1    3    3  502    0 -0.89482594197E+03 -0.84213024432E+01 -0.80112973281E+02  0.89844447989E+03  0.10100000352E+00 0. -1.
       -3    1    3    3    0  502  0.89482594197E+03  0.84213024432E+01 -0.52049796876E+03  0.10352306653E+04  0.10100000352E+00 0.  1.
</event>
<event>
 5   0  0.1608627E-04  0.1712583E+04  0.7818609E-02  0.8754220E-01
       -2   -1    0    0    0  501  0.00000000000E+00  0.00000000000E+00  0.72889148188E+03  0.72889148189E+03  0.25500000920E-02 0. -1.
        2   -1    0    0  501    0  0.00000000000E+00  0.00000000000E+00 -0.10059598370E+04  0.10059598370E+04  0.25500000920E-02 0.  1.
    10030    2    1    2    0    0  0.00000000000E+00  0.00000000000E+00 -0.27706835511E+03  0.17348513189E+04  0.17125834944E+04 0.  0.
        2    1    3    3  502    0  0.44961619119E+03  0.54772473664E+03  0.34842239193E+03  0.78965515874E+03  0.25500000920E-02 0. -1.
       -2    1    3    3    0  502 -0.44961619119E+03 -0.54772473664E+03 -0.62549074704E+03  0.94519616014E+03  0.25500000920E-02 0.  1.
</event>
<event>
 5   0  0.1549012E-04  0.1850519E+04  0.7818609E-02  0.8679886E-01
        2   -1    0    0  501    0  0.00000000000E+00  0.00000000000E+00  0.16879138123E+04  0.16879138123E+04  0.25500000920E-02 0.  1.
       -2   -1    0    0    0  501  0.00000000000E+00  0.00000000000E+00 -0.50719706762E+03  0.50719706763E+03  0.25500000920E-02 0. -1.
    10030    2    1    2    0    0  0.00000000000E+00  0.00000000000E+00  0.11807167447E+04  0.21951108800E+04  0.18505187770E+04 0.  0.
        4    1    3    3  502    0  0.69055175954E+03  0.75148387408E+02  0.13154002520E+04  0.14875444359E+04  0.12699999809E+01 0.  1.
       -4    1    3    3    0  502 -0.69055175954E+03 -0.75148387408E+02 -0.13468350733E+03  0.70756644408E+03  0.12699999809E+01 0. -1.
</event>
<event>
 5   0  0.8430513E-05  0.1806995E+04  0.7818609E-02  0.8702589E-01
        1   -1    0    0  501    0  0.00000000000E+00  0.00000000000E+00  0.10913690470E+04  0.10913690470E+04  0.50400001928E-02 0.  1.
       -1   -1    0    0    0  501  0.00000000000E+00  0.00000000000E+00 -0.74796635671E+03  0.74796635673E+03  0.50400001928E-02 0. -1.
    10030    2    1    2    0    0  0.00000000000E+00  0.00000000000E+00  0.34340269031E+03  0.18393354038E+04  0.18069945545E+04 0.  0.
        5    1    3    3  502    0  0.10533829368E+03 -0.21455116142E+03 -0.71518884964E+03  0.75408589539E+03  0.46999998093E+01 0. -1.
       -5    1    3    3    0  502 -0.10533829368E+03  0.21455116142E+03  0.10585915399E+04  0.10852495084E+04  0.46999998093E+01 0.  1.
</event>
<event>
 5   0  0.5820500E-05  0.1801079E+04  0.7818609E-02  0.8705726E-01
        4   -1    0    0  501    0  0.00000000000E+00  0.00000000000E+00  0.16776614557E+04  0.16776619364E+04  0.12699999809E+01 0. -1.
       -4   -1    0    0    0  501  0.00000000000E+00  0.00000000000E+00 -0.48339262695E+03  0.48339429526E+03  0.12699999809E+01 0.  1.
    10030    2    1    2    0    0  0.00000000000E+00  0.00000000000E+00  0.11942688288E+04  0.21610562317E+04  0.18010791213E+04 0.  0.
        5    1    3    3  502    0  0.83729005643E+03 -0.19145088210E+03  0.27241265522E+03  0.90107648043E+03  0.46999998093E+01 0. -1.
       -5    1    3    3    0  502 -0.83729005643E+03  0.19145088210E+03  0.92185617355E+03  0.12599797513E+04  0.46999998093E+01 0.  1.
</event>
<event>
 5   0  0.1608627E-04  0.1796418E+04  0.7818609E-02  0.8708206E-01
        2   -1    0    0  501    0  0.00000000000E+00  0.00000000000E+00  0.10253277108E+04  0.10253277108E+04  0.25500000920E-02 0. -1.
       -2   -1    0    0    0  501  0.00000000000E+00  0.00000000000E+00 -0.78685057351E+03  0.78685057351E+03  0.25500000920E-02 0.  1.
    10030    2    1    2    0    0  0.00000000000E+00  0.00000000000E+00  0.23847713731E+03  0.18121782843E+04  0.17964183224E+04 0.  0.
        2    1    3    3  502    0 -0.65445850991E+03 -0.58081077117E+03 -0.85327571444E+02  0.87916886180E+03  0.25500000920E-02 0.  1.
       -2    1    3    3    0  502  0.65445850991E+03  0.58081077117E+03  0.32380470876E+03  0.93300942253E+03  0.25500000920E-02 0. -1.
</event>
<event>
 5   0  0.1628397E-04  0.1805565E+04  0.7818609E-02  0.8703346E-01
        2   -1    0    0  501    0  0.00000000000E+00  0.00000000000E+00  0.72695781383E+03  0.72695781383E+03  0.25500000920E-02 0. -1.
       -2   -1    0    0    0  501  0.00000000000E+00  0.00000000000E+00 -0.11211322674E+04  0.11211322674E+04  0.25500000920E-02 0.  1.
    10030    2    1    2    0    0  0.00000000000E+00  0.00000000000E+00 -0.39417445355E+03  0.18480900812E+04  0.18055645789E+04 0.  0.
        3    1    3    3  502    0 -0.84138603170E+03 -0.29265289119E+03 -0.47215645928E+02  0.89207931064E+03  0.10100000352E+00 0. -1.
       -3    1    3    3    0  502  0.84138603170E+03  0.29265289119E+03 -0.34695880762E+03  0.95601077057E+03  0.10100000352E+00 0.  1.
</event>
<event>
 5   0  0.1603564E-04  0.1796839E+04  0.7818609E-02  0.8707982E-01
       -2   -1    0    0    0  501  0.00000000000E+00  0.00000000000E+00  0.43321946835E+03  0.43321946836E+03  0.25500000920E-02 0.  1.
        2   -1    0    0  501    0  0.00000000000E+00  0.00000000000E+00 -0.18631613103E+04  0.18631613103E+04  0.25500000920E-02 0. -1.
    10030    2    1    2    0    0  0.00000000000E+00  0.00000000000E+00 -0.14299418420E+04  0.22963807787E+04  0.17968391718E+04 0.  0.
        5    1    3    3  502    0  0.74352655055E+03  0.19395015890E+03 -0.13098810893E+04  0.15186372028E+04  0.46999998093E+01 0.  1.
       -5    1    3    3    0  502 -0.74352655055E+03 -0.19395015890E+03 -0.12006075264E+03  0.77774357588E+03  0.46999998093E+01 0. -1.
</event>
<event>
 5   0  0.8492114E-05  0.1801961E+04  0.7818609E-02  0.8705257E-01
        1   -1    0    0  501    0  0.00000000000E+00  0.00000000000E+00  0.15067519095E+04  0.15067519095E+04  0.50400001928E-02 0.  1.
       -1   -1    0    0    0  501  0.00000000000E+00  0.00000000000E+00 -0.53875203218E+03  0.53875203220E+03  0.50400001928E-02 0. -1.
    10030    2    1    2    0    0  0.00000000000E+00  0.00000000000E+00  0.96799987728E+03  0.20455039417E+04  0.18019607690E+04 0.  0.
        2    1    3    3  502    0 -0.15530111643E+02  0.21426035184E+03 -0.50925507245E+03  0.55271096566E+03  0.25500000920E-02 0. -1.
       -2    1    3    3    0  502  0.15530111643E+02 -0.21426035184E+03  0.14772549497E+04  0.14927929760E+04  0.25500000920E-02 0.  1.
</event>
<event>
 5   0  0.1608627E-04  0.1803682E+04  0.7818609E-02  0.8704344E-01
       -2   -1    0    0    0  501  0.00000000000E+00  0.00000000000E+00  0.62919685974E+03  0.62919685975E+03  0.25500000920E-02 0.  1.
        2   -1    0    0  501    0  0.00000000000E+00  0.00000000000E+00 -0.12926277432E+04  0.12926277432E+04  0.25500000920E-02 0. -1.
    10030    2    1    2    0    0  0.00000000000E+00  0.00000000000E+00 -0.66343088348E+03  0.19218246030E+04  0.18036821415E+04 0.  0.
        2    1    3    3  502    0  0.51313552072E+03 -0.69942558288E+03 -0.59447126168E+03  0.10516179390E+04  0.25500000920E-02 0.  1.
       -2    1    3    3    0  502 -0.51313552072E+03  0.69942558288E+03 -0.68959621804E+02  0.87020666400E+03  0.25500000920E-02 0. -1.
</event>
<event>
 5   0  0.8492114E-05  0.1799680E+04  0.7818609E-02  0.8706470E-01
        1   -1    0    0  501    0  0.00000000000E+00  0.00000000000E+00  0.18947230512E+04  0.18947230512E+04  0.50400001928E-02 0.  1.
       -1   -1    0    0    0  501  0.00000000000E+00  0.00000000000E+00 -0.42735099941E+03  0.42735099944E+03  0.50400001928E-02 0. -1.
    10030    2    1    2    0    0  0.00000000000E+00  0.00000000000E+00  0.14673720518E+04  0.23220740507E+04  0.17996797377E+04 0.  0.
        2    1    3    3  502    0 -0.44849284626E+03 -0.62986021385E+03  0.13982210503E+03  0.78576074170E+03  0.25500000920E-02 0. -1.
       -2    1    3    3    0  502  0.44849284626E+03  0.62986021385E+03  0.13275499468E+04  0.15363133090E+04  0.25500000920E-02 0.  1.
</event>
<event>
 5   0  0.1603564E-04  0.1801830E+04  0.7818609E-02  0.8705327E-01
       -2   -1    0    0    0  501  0.00000000000E+00  0.00000000000E+00  0.43827216753E+03  0.43827216754E+03  0.25500000920E-02 0.  1.
        2   -1    0    0  501    0  0.00000000000E+00  0.00000000000E+00 -0.18519273562E+04  0.18519273562E+04  0.25500000920E-02 0. -1.
    10030    2    1    2    0    0  0.00000000000E+00  0.00000000000E+00 -0.14136551887E+04  0.22901995237E+04  0.18018304210E+04 0.  0.
        5    1    3    3  502    0 -0.79736045740E+03  0.70400465573E+02 -0.18139996800E+03  0.82077278401E+03  0.46999998093E+01 0.  1.
       -5    1    3    3    0  502  0.79736045740E+03 -0.70400465573E+02 -0.12322552207E+04  0.14694267397E+04  0.46999998093E+01 0. -1.
</event>
<event>
 5   0  0.8206783E-05  0.1798037E+04  0.7818609E-02  0.8707344E-01
        1   -1    0    0  501    0  0.00000000000E+00  0.00000000000E+00  0.15845669812E+04  0.15845669812E+04  0.50400001928E-02 0. -1.
       -1   -1    0    0    0  501  0.00000000000E+00  0.00000000000E+00 -0.51006612717E+03  0.51006612719E+03  0.50400001928E-02 0.  1.
    10030    2    1    2    0    0  0.00000000000E+00  0.00000000000E+00  0.10745008540E+04  0.20946331084E+04  0.17980366441E+04 0.  0.
        1    1    3    3  502    0  0.11571820931E+03 -0.46362362957E+01 -0.50133995253E+03  0.51454246344E+03  0.50400001928E-02 0.  1.
       -1    1    3    3    0  502 -0.11571820931E+03  0.46362362957E+01  0.15758408065E+04  0.15800906449E+04  0.50400001928E-02 0. -1.
</event>
<event>
 5   0  0.8492114E-05  0.1798790E+04  0.7818609E-02  0.8706943E-01
       -1   -1    0    0    0  501  0.00000000000E+00  0.00000000000E+00  0.74830742543E+03  0.74830742544E+03  0.50400001928E-02 0. -1.
        1   -1    0    0  501    0  0.00000000000E+00  0.00000000000E+00 -0.10809881622E+04  0.10809881622E+04  0.50400001928E-02 0.  1.
    10030    2    1    2    0    0  0.00000000000E+00  0.00000000000E+00 -0.33268073674E+03  0.18292955876E+04  0.17987901140E+04 0.  0.
        2    1    3    3  502    0 -0.59648616929E+03 -0.60528317370E+03 -0.46586540179E+03  0.96912024182E+03  0.25500000920E-02 0.  1.
       -2    1    3    3    0  502  0.59648616929E+03  0.60528317370E+03  0.13318466505E+03  0.86017534580E+03  0.25500000920E-02 0. -1.
</event>
<event>
 5   0  0.8206783E-05  0.1807771E+04  0.7818609E-02  0.8702178E-01
       -1   -1    0    0    0  501  0.00000000000E+00  0.00000000000E+00  0.28012737701E+03  0.28012737706E+03  0.50400001928E-02 0. -1.
        1   -1    0    0  501    0  0.00000000000E+00  0.00000000000E+00 -0.29165633432E+04  0.29165633432E+04  0.50400001928E-02 0.  1.
    10030    2    1    2    0    0  0.00000000000E+00  0.00000000000E+00 -0.26364359662E+04  0.31966907203E+04  0.18077712680E+04 0.  0.
        1    1    3    3  502    0 -0.63347870627E+03 -0.49262873268E+03 -0.20537794560E+04  0.22049916991E+04  0.50400001928E-02 0.  1.
       -1    1    3    3    0  502  0.63347870627E+03  0.49262873268E+03 -0.58265651024E+03  0.99169902113E+03  0.50400001928E-02 0. -1.
</event>
<event>
 5   0  0.1603564E-04  0.1809940E+04  0.7818609E-02  0.8701031E-01
       -2   -1    0    0    0  501  0.00000000000E+00  0.00000000000E+00  0.93674178832E+03  0.93674178832E+03  0.25500000920E-02 0. -1.
        2   -1    0    0  501    0  0.00000000000E+00  0.00000000000E+00 -0.87427550698E+03  0.87427550699E+03  0.25500000920E-02 0.  1.
    10030    2    1    2    0    0  0.00000000000E+00  0.00000000000E+00  0.62466281336E+02  0.18110172953E+04  0.18099396696E+04 0.  0.
        5    1    3    3  502    0  0.40769285870E+03  0.48142902466E+03  0.68043446756E+03  0.92790114100E+03  0.46999998093E+01 0. -1.
       -5    1    3    3    0  502 -0.40769285870E+03 -0.48142902466E+03 -0.61796818622E+03  0.88311615431E+03  0.46999998093E+01 0.  1.
</event>
<event>
 5   0  0.8430513E-05  0.1807654E+04  0.7818609E-02  0.8702240E-01
        1   -1    0    0  501    0  0.00000000000E+00  0.00000000000E+00  0.21515261917E+04  0.21515261917E+04  0.50400001928E-02 0. -1.
       -1   -1    0    0    0  501  0.00000000000E+00  0.00000000000E+00 -0.37968542762E+03  0.37968542765E+03  0.50400001928E-02 0.  1.
    10030    2    1    2    0    0  0.00000000000E+00  0.00000000000E+00  0.17718407641E+04  0.25312116194E+04  0.18076538852E+04 0.  0.
        5    1    3    3  502    0  0.39204227573E+03 -0.69941520502E+03  0.14700250036E+04  0.16744773442E+04  0.46999998093E+01 0. -1.
       -5    1    3    3    0  502 -0.39204227573E+03  0.69941520502E+03  0.30181576046E+03  0.85673427516E+03  0.46999998093E+01 0.  1.
</event>
<event>
 5   0  0.8132598E-05  0.1799379E+04  0.7818609E-02  0.8706630E-01
       -1   -1    0    0    0  501  0.00000000000E+00  0.00000000000E+00  0.61170145731E+03  0.61170145733E+03  0.50400001928E-02 0.  1.
        1   -1    0    0  501    0  0.00000000000E+00  0.00000000000E+00 -0.13232615262E+04  0.13232615262E+04  0.50400001928E-02 0. -1.
    10030    2    1    2    0    0  0.00000000000E+00  0.00000000000E+00 -0.71156006892E+03  0.19349629836E+04  0.17993787862E+04 0.  0.
        3    1    3    3  502    0 -0.18371992514E+03  0.88042375426E+03 -0.38081506114E+03  0.97668783085E+03  0.10100000352E+00 0. -1.
       -3    1    3    3    0  502  0.18371992514E+03 -0.88042375426E+03 -0.33074500778E+03  0.95827515272E+03  0.10100000352E+00 0.  1.
</event>
<event>
 5   0  0.1573981E-04  0.1664302E+04  0.7818609E-02  0.8781990E-01
       -2   -1    0    0    0  501  0.00000000000E+00  0.00000000000E+00  0.31717863960E+03  0.31717863961E+03  0.25500000920E-02 0.  1.
        2   -1    0    0  501    0  0.00000000000E+00  0.00000000000E+00 -0.21832347548E+04  0.21832347548E+04  0.25500000920E-02 0. -1.
    10030    2    1    2    0    0  0.00000000000E+00  0.00000000000E+00 -0.18660561152E+04  0.25004133944E+04  0.16643021714E+04 0.  0.
        1    1    3    3  502    0 -0.38032071934E+03  0.10101827970E+03  0.16856230262E+03  0.42809086919E+03  0.50400001928E-02 0.  1.
       -1    1    3    3    0  502  0.38032071934E+03 -0.10101827970E+03 -0.20346184178E+04  0.20723225252E+04  0.50400001928E-02 0. -1.
</event>
<event>
 5   0  0.8132598E-05  0.1813904E+04  0.7818609E-02  0.8698940E-01
        1   -1    0    0  501    0  0.00000000000E+00  0.00000000000E+00  0.82600127285E+03  0.82600127287E+03  0.50400001928E-02 0. -1.
       -1   -1    0    0    0  501  0.00000000000E+00  0.00000000000E+00 -0.99583653497E+03  0.99583653499E+03  0.50400001928E-02 0.  1.
    10030    2    1    2    0    0  0.00000000000E+00  0.00000000000E+00 -0.16983526212E+03  0.18218378079E+04  0.18139043475E+04 0.  0.
        3    1    3    3  502    0 -0.54388377892E+03  0.71876081611E+03  0.16198208633E+02  0.90149268878E+03  0.10100000352E+00 0.  1.
       -3    1    3    3    0  502  0.54388377892E+03 -0.71876081611E+03 -0.18603347076E+03  0.92034511907E+03  0.10100000352E+00 0. -1.
</event>
<event>
 5   0  0.1628397E-04  0.1801446E+04  0.7818609E-02  0.8705531E-01
        2   -1    0    0  501    0  0.00000000000E+00  0.00000000000E+00  0.12349032255E+04  0.12349032255E+04  0.25500000920E-02 0.  1.
       -2   -1    0    0    0  501  0.00000000000E+00  0.00000000000E+00 -0.65697583005E+03  0.65697583005E+03  0.25500000920E-02 0. -1.
    10030    2    1    2    0    0  0.00000000000E+00  0.00000000000E+00  0.57792739544E+03  0.18918790555E+04  0.18014456102E+04 0.  0.
        3    1    3    3  502    0  0.58642800572E+02 -0.26276652894E+03  0.11916574972E+04  0.12216926077E+04  0.10100000352E+00 0.  1.
       -3    1    3    3    0  502 -0.58642800572E+02  0.26276652894E+03 -0.61373010181E+03  0.67018644783E+03  0.10100000352E+00 0. -1.
</event>
<event>
 5   0  0.8206783E-05  0.1678552E+04  0.7818609E-02  0.8773693E-01
        1   -1    0    0  501    0  0.00000000000E+00  0.00000000000E+00  0.13356065277E+04  0.13356065277E+04  0.50400001928E-02 0. -1.
       -1   -1    0    0    0  501  0.00000000000E+00  0.00000000000E+00 -0.52738877160E+03  0.52738877163E+03  0.50400001928E-02 0.  1.
    10030    2    1    2    0    0  0.00000000000E+00  0.00000000000E+00  0.80821775609E+03  0.18629952993E+04  0.16785516209E+04 0.  0.
        1    1    3    3  502    0  0.73950218224E+03 -0.19050690690E+03  0.17672787337E+02  0.76385122017E+03  0.50400001928E-02 0. -1.
       -1    1    3    3    0  502 -0.73950218224E+03  0.19050690690E+03  0.79054496875E+03  0.10991440792E+04  0.50400001928E-02 0.  1.
</event>
<event>
 5   0  0.8206783E-05  0.1795519E+04  0.7818609E-02  0.8708686E-01
        1   -1    0    0  501    0  0.00000000000E+00  0.00000000000E+00  0.78388123259E+03  0.78388123261E+03  0.50400001928E-02 0.  1.
       -1   -1    0    0    0  501  0.00000000000E+00  0.00000000000E+00 -0.10281816093E+04  0.10281816094E+04  0.50400001928E-02 0. -1.
    10030    2    1    2    0    0  0.00000000000E+00  0.00000000000E+00 -0.24430037676E+03  0.18120628420E+04  0.17955191642E+04 0.  0.
        1    1    3    3  502    0 -0.59526596666E+02 -0.43916427302E+03  0.66578903500E+03  0.79980229654E+03  0.50400001928E-02 0.  1.
       -1    1    3    3    0  502  0.59526596666E+02  0.43916427302E+03 -0.91008941176E+03  0.10122605454E+04  0.50400001928E-02 0. -1.
</event>
<event>
 5   0  0.1573981E-04  0.1800121E+04  0.7818609E-02  0.8706235E-01
        2   -1    0    0  501    0  0.00000000000E+00  0.00000000000E+00  0.79084428817E+03  0.79084428817E+03  0.25500000920E-02 0. -1.
       -2   -1    0    0    0  501  0.00000000000E+00  0.00000000000E+00 -0.10243599339E+04  0.10243599339E+04  0.25500000920E-02 0.  1.
    10030    2    1    2    0    0  0.00000000000E+00  0.00000000000E+00 -0.23351564569E+03  0.18152042220E+04  0.18001213323E+04 0.  0.
        1    1    3    3  502    0 -0.50145224247E+03  0.36293770347E+02  0.63604786419E+03  0.81075796315E+03  0.50400001928E-02 0. -1.
       -1    1    3    3    0  502  0.50145224247E+03 -0.36293770347E+02 -0.86956350987E+03  0.10044462589E+04  0.50400001928E-02 0.  1.
</event>
<event>
 5   0  0.8132598E-05  0.1796244E+04  0.7818609E-02  0.8708299E-01
       -1   -1    0    0    0  501  0.00000000000E+00  0.00000000000E+00  0.61469418357E+03  0.61469418359E+03  0.50400001928E-02 0. -1.
        1   -1    0    0  501    0  0.00000000000E+00  0.00000000000E+00 -0.13122348508E+04  0.13122348508E+04  0.50400001928E-02 0.  1.
    10030    2    1    2    0    0  0.00000000000E+00  0.00000000000E+00 -0.69754066721E+03  0.19269290344E+04  0.17962440038E+04 0.  0.
        3    1    3    3  502    0 -0.49932545981E+02  0.38583559456E+03  0.51960497881E+03  0.64911609854E+03  0.10100000352E+00 0. -1.
       -3    1    3    3    0  502  0.49932545981E+02 -0.38583559456E+03 -0.12171456460E+04  0.12778129358E+04  0.10100000352E+00 0.  1.
</event>
<event>
 5   0  0.8206783E-05  0.1771530E+04  0.7818609E-02  0.8721588E-01
        1   -1    0    0  501    0  0.00000000000E+00  0.00000000000E+00  0.28998169902E+04  0.28998169902E+04  0.50400001928E-02 0.  1.
       -1   -1    0    0    0  501  0.00000000000E+00  0.00000000000E+00 -0.27056180770E+03  0.27056180774E+03  0.50400001928E-02 0. -1.
    10030    2    1    2    0    0  0.00000000000E+00  0.00000000000E+00  0.26292551825E+04  0.31703787980E+04  0.17715301036E+04 0.  0.
        1    1    3    3  502    0  0.16316177056E+03 -0.16867545699E+03  0.28431690310E+04  0.28528377648E+04  0.50400001928E-02 0.  1.
       -1    1    3    3    0  502 -0.16316177056E+03  0.16867545699E+03 -0.21391384849E+03  0.31754103320E+03  0.50400001928E-02 0. -1.
</event>
<event>
 5   0  0.1628397E-04  0.1795393E+04  0.7818609E-02  0.8708753E-01
        2   -1    0    0  501    0  0.00000000000E+00  0.00000000000E+00  0.12819553068E+04  0.12819553068E+04  0.25500000920E-02 0.  1.
       -2   -1    0    0    0  501  0.00000000000E+00  0.00000000000E+00 -0.62861739509E+03  0.62861739509E+03  0.25500000920E-02 0. -1.
    10030    2    1    2    0    0  0.00000000000E+00  0.00000000000E+00  0.65333791168E+03  0.19105727019E+04  0.17953934450E+04 0.  0.
        3    1    3    3  502    0 -0.41340297330E+03 -0.10873318950E+02  0.11745516734E+04  0.12452276463E+04  0.10100000352E+00 0.  1.
       -3    1    3    3    0  502  0.41340297330E+03  0.10873318950E+02 -0.52121376171E+03  0.66534505558E+03  0.10100000352E+00 0. -1.
</event>
<event>
 5   0  0.1603564E-04  0.1794496E+04  0.7818609E-02  0.8709232E-01
        2   -1    0    0  501    0  0.00000000000E+00  0.00000000000E+00  0.60608399042E+03  0.60608399042E+03  0.25500000920E-02 0. -1.
       -2   -1    0    0    0  501  0.00000000000E+00  0.00000000000E+00 -0.13282881673E+04  0.13282881673E+04  0.25500000920E-02 0.  1.
    10030    2    1    2    0    0  0.00000000000E+00  0.00000000000E+00 -0.72220417687E+03  0.19343721577E+04  0.17944962445E+04 0.  0.
        5    1    3    3  502    0 -0.61369678207E+03  0.54619190170E+03 -0.74988517681E+03  0.11123395175E+04  0.46999998093E+01 0.  1.
       -5    1    3    3    0  502  0.61369678207E+03 -0.54619190170E+03  0.27680999941E+02  0.82203264021E+03  0.46999998093E+01 0. -1.
</event>
<event>
 5   0  0.1608627E-04  0.1804602E+04  0.7818609E-02  0.8703856E-01
       -2   -1    0    0    0  501  0.00000000000E+00  0.00000000000E+00  0.78006261839E+03  0.78006261839E+03  0.25500000920E-02 0. -1.
        2   -1    0    0  501    0  0.00000000000E+00  0.00000000000E+00 -0.10436948598E+04  0.10436948598E+04  0.25500000920E-02 0.  1.
    10030    2    1    2    0    0  0.00000000000E+00  0.00000000000E+00 -0.26363224145E+03  0.18237574782E+04  0.18046022777E+04 0.  0.
        2    1    3    3  502    0 -0.15459955949E+02 -0.17591473224E+03  0.76242785208E+03  0.78261180216E+03  0.25500000920E-02 0. -1.
       -2    1    3    3    0  502  0.15459955949E+02  0.17591473224E+03 -0.10260600935E+04  0.10411456761E+04  0.25500000920E-02 0.  1.
</event>
<event>
 5   0  0.1608627E-04  0.1794779E+04  0.7818609E-02  0.8709081E-01
       -2   -1    0    0    0  501  0.00000000000E+00  0.00000000000E+00  0.33894768951E+03  0.33894768952E+03  0.25500000920E-02 0. -1.
        2   -1    0    0  501    0  0.00000000000E+00  0.00000000000E+00 -0.23759059245E+04  0.23759059245E+04  0.25500000920E-02 0.  1.
    10030    2    1    2    0    0  0.00000000000E+00  0.00000000000E+00 -0.20369582350E+04  0.27148536140E+04  0.17947788985E+04 0.  0.
        2    1    3    3  502    0 -0.55694050578E+03 -0.18535271346E+03  0.83006664842E+01  0.58703258549E+03  0.25500000920E-02 0. -1.
       -2    1    3    3    0  502  0.55694050578E+03  0.18535271346E+03 -0.20452589015E+04  0.21278210285E+04  0.25500000920E-02 0.  1.
</event>
<event>
 5   0  0.1628397E-04  0.1794068E+04  0.7818609E-02  0.8709460E-01
        2   -1    0    0  501    0  0.00000000000E+00  0.00000000000E+00  0.10863191356E+04  0.10863191356E+04  0.25500000920E-02 0. -1.
       -2   -1    0    0    0  501  0.00000000000E+00  0.00000000000E+00 -0.74073075405E+03  0.74073075405E+03  0.25500000920E-02 0.  1.
    10030    2    1    2    0    0  0.00000000000E+00  0.00000000000E+00  0.34558838155E+03  0.18270498897E+04  0.17940679948E+04 0.  0.
        3    1    3    3  502    0 -0.65841350931E+03  0.50199310101E+03  0.52434254069E+03  0.98002067982E+03  0.10100000352E+00 0. -1.
       -3    1    3    3    0  502  0.65841350931E+03 -0.50199310101E+03 -0.17875415914E+03  0.84702920984E+03  0.10100000352E+00 0.  1.
</event>
<event>
 5   0  0.8492114E-05  0.1803086E+04  0.7818609E-02  0.8704660E-01
       -1   -1    0    0    0  501  0.00000000000E+00  0.00000000000E+00  0.40007550452E+03  0.40007550456E+03  0.50400001928E-02 0. -1.
        1   -1    0    0  501    0  0.00000000000E+00  0.00000000000E+00 -0.20315666009E+04  0.20315666009E+04  0.50400001928E-02 0.  1.
    10030    2    1    2    0    0  0.00000000000E+00  0.00000000000E+00 -0.16314910964E+04  0.24316421055E+04  0.18030862796E+04 0.  0.
        2    1    3    3  502    0  0.52675976879E+03 -0.68227803601E+03 -0.45944742533E+03  0.97676563673E+03  0.25500000920E-02 0. -1.
       -2    1    3    3    0  502 -0.52675976879E+03  0.68227803601E+03 -0.11720436711E+04  0.14548764687E+04  0.25500000920E-02 0.  1.
</event>
<event>
 5   0  0.1573981E-04  0.1804043E+04  0.7818609E-02  0.8704152E-01
        2   -1    0    0  501    0  0.00000000000E+00  0.00000000000E+00  0.85529199191E+03  0.85529199192E+03  0.25500000920E-02 0.  1.
       -2   -1    0    0    0  501  0.00000000000E+00  0.00000000000E+00 -0.95130402955E+03  0.95130402955E+03  0.25500000920E-02 0. -1.
    10030    2    1    2    0    0  0.00000000000E+00  0.00000000000E+00 -0.96012037634E+02  0.18065960215E+04  0.18040429245E+04 0.  0.
        1    1    3    3  502    0 -0.26328307049E+03 -0.86060762495E+03  0.12736718993E+02  0.90006982139E+03  0.50400001928E-02 0.  1.
       -1    1    3    3    0  502  0.26328307049E+03  0.86060762495E+03 -0.10874875663E+03  0.90652620008E+03  0.50400001928E-02 0. -1.
</event>
<event>
 5   0  0.8132598E-05  0.1805218E+04  0.7818609E-02  0.8703530E-01
        1   -1    0    0  501    0  0.00000000000E+00  0.00000000000E+00  0.88999680864E+03  0.88999680865E+03  0.50400001928E-02 0.  1.
       -1   -1    0    0    0  501  0.00000000000E+00  0.00000000000E+00 -0.91539988611E+03  0.91539988612E+03  0.50400001928E-02 0. -1.
    10030    2    1    2    0    0  0.00000000000E+00  0.00000000000E+00 -0.25403077467E+02  0.18053966948E+04  0.18052179672E+04 0.  0.
        3    1    3    3  502    0  0.57587577691E+03  0.62674100411E+03 -0.31317390855E+03  0.90692618435E+03  0.10100000352E+00 0. -1.
       -3    1    3    3    0  502 -0.57587577691E+03 -0.62674100411E+03  0.28777083108E+03  0.89847051042E+03  0.10100000352E+00 0.  1.
</event>
<event>
 5   0  0.8132598E-05  0.1789940E+04  0.7818609E-02  0.8711668E-01
        1   -1    0    0  501    0  0.00000000000E+00  0.00000000000E+00  0.56279708679E+03  0.56279708681E+03  0.50400001928E-02 0.  1.
       -1   -1    0    0    0  501  0.00000000000E+00  0.00000000000E+00 -0.14231967285E+04  0.14231967285E+04  0.50400001928E-02 0. -1.
    10030    2    1    2    0    0  0.00000000000E+00  0.00000000000E+00 -0.86039964168E+03  0.19859938153E+04  0.17899396333E+04 0.  0.
        3    1    3    3  502    0  0.63598258231E+03 -0.54738341154E+03 -0.77552705936E+03  0.11426043384E+04  0.10100000352E+00 0. -1.
       -3    1    3    3    0  502 -0.63598258231E+03  0.54738341154E+03 -0.84872582320E+02  0.84338947685E+03  0.10100000352E+00 0.  1.
</event>
<event>
 5   0  0.8254914E-05  0.1789001E+04  0.7818609E-02  0.8712171E-01
       -1   -1    0    0    0  501  0.00000000000E+00  0.00000000000E+00  0.32012180939E+03  0.32012180943E+03  0.50400001928E-02 0. -1.
        1   -1    0    0  501    0  0.00000000000E+00  0.00000000000E+00 -0.24994582594E+04  0.24994582594E+04  0.50400001928E-02 0.  1.
    10030    2    1    2    0    0  0.00000000000E+00  0.00000000000E+00 -0.21793364500E+04  0.28195800688E+04  0.17890009509E+04 0.  0.
        4    1    3    3  502    0  0.20999421484E+03 -0.60555653041E+03 -0.10625830812E+03  0.64968355584E+03  0.12699999809E+01 0. -1.
       -4    1    3    3    0  502 -0.20999421484E+03  0.60555653041E+03 -0.20730781419E+04  0.21698965130E+04  0.12699999809E+01 0.  1.
</event>
<event>
 5   0  0.1549012E-04  0.1801370E+04  0.7818609E-02  0.8705571E-01
        2   -1    0    0  501    0  0.00000000000E+00  0.00000000000E+00  0.66429960259E+03  0.66429960260E+03  0.25500000920E-02 0. -1.
       -2   -1    0    0    0  501  0.00000000000E+00  0.00000000000E+00 -0.12211866381E+04  0.12211866381E+04  0.25500000920E-02 0.  1.
    10030    2    1    2    0    0  0.00000000000E+00  0.00000000000E+00 -0.55688703548E+03  0.18854862407E+04  0.18013703654E+04 0.  0.
        4    1    3    3  502    0 -0.66921835689E+03  0.14889796665E+03 -0.88985021673E+03  0.11233249017E+04  0.12699999809E+01 0.  1.
       -4    1    3    3    0  502  0.66921835689E+03 -0.14889796665E+03  0.33296318125E+03  0.76216133898E+03  0.12699999809E+01 0. -1.
</event>
<event>
 5   0  0.8132598E-05  0.1723888E+04  0.7818609E-02  0.8747856E-01
        1   -1    0    0  501    0  0.00000000000E+00  0.00000000000E+00  0.54094952421E+03  0.54094952423E+03  0.50400001928E-02 0.  1.
       -1   -1    0    0    0  501  0.00000000000E+00  0.00000000000E+00 -0.13734139564E+04  0.13734139564E+04  0.50400001928E-02 0. -1.
    10030    2    1    2    0    0  0.00000000000E+00  0.00000000000E+00 -0.83246443218E+03  0.19143634806E+04  0.17238881939E+04 0.  0.
        3    1    3    3  502    0 -0.17173866126E+03 -0.35299288664E+02  0.52093815318E+03  0.54965150522E+03  0.10100000352E+00 0.  1.
       -3    1    3    3    0  502  0.17173866126E+03  0.35299288664E+02 -0.13534025854E+04  0.13647119754E+04  0.10100000352E+00 0. -1.
</event>
<event>
 5   0  0.1603564E-04  0.1800225E+04  0.7818609E-02  0.8706180E-01
       -2   -1    0    0    0  501  0.00000000000E+00  0.00000000000E+00  0.68115734658E+03  0.68115734658E+03  0.25500000920E-02 0. -1.
        2   -1    0    0  501    0  0.00000000000E+00  0.00000000000E+00 -0.11894501930E+04  0.11894501930E+04  0.25500000920E-02 0.  1.
    10030    2    1    2    0    0  0.00000000000E+00  0.00000000000E+00 -0.50829284641E+03  0.18706075396E+04  0.18002252496E+04 0.  0.
        5    1    3    3  502    0  0.47120977635E+03  0.19565398283E+03 -0.10246638988E+04  0.11446734599E+04  0.46999998093E+01 0.  1.
       -5    1    3    3    0  502 -0.47120977635E+03 -0.19565398283E+03  0.51637105237E+03  0.72593407968E+03  0.46999998093E+01 0. -1.
</event>
<event>
 5   0  0.8132598E-05  0.1804257E+04  0.7818609E-02  0.8704039E-01
       -1   -1    0    0    0  501  0.00000000000E+00  0.00000000000E+00  0.47338864556E+03  0.47338864559E+03  0.50400001928E-02 0.  1.
        1   -1    0    0  501    0  0.00000000000E+00  0.00000000000E+00 -0.17191704797E+04  0.17191704797E+04  0.50400001928E-02 0. -1.
    10030    2    1    2    0    0  0.00000000000E+00  0.00000000000E+00 -0.12457818341E+04  0.21925591253E+04  0.18042569494E+04 0.  0.
        3    1    3    3  502    0  0.31756540609E+03 -0.29671943029E+03  0.33777862744E+03  0.55044038625E+03  0.10100000352E+00 0.  1.
       -3    1    3    3    0  502 -0.31756540609E+03  0.29671943029E+03 -0.15835604616E+04  0.16421187390E+04  0.10100000352E+00 0. -1.
</event>
<event>
 5   0  0.1573981E-04  0.1814599E+04  0.7818609E-02  0.8698574E-01
       -2   -1    0    0    0  501  0.00000000000E+00  0.00000000000E+00  0.35890726366E+03  0.35890726367E+03  0.25500000920E-02 0. -1.
        2   -1    0    0  501    0  0.00000000000E+00  0.00000000000E+00 -0.22936079072E+04  0.22936079072E+04  0.25500000920E-02 0.  1.
    10030    2    1    2    0    0  0.00000000000E+00  0.00000000000E+00 -0.19347006435E+04  0.26525151708E+04  0.18145991710E+04 0.  0.
        1    1    3    3  502    0  0.34880002947E+03  0.30914253249E+03 -0.21052392021E+04  0.21562148928E+04  0.50400001928E-02 0.  1.
       -1    1    3    3    0  502 -0.34880002947E+03 -0.30914253249E+03  0.17053855861E+03  0.49630027800E+03  0.50400001928E-02 0. -1.
</event>
<event>
 5   0  0.8132598E-05  0.1799562E+04  0.7818609E-02  0.8706532E-01
       -1   -1    0    0    0  501  0.00000000000E+00  0.00000000000E+00  0.88093180892E+03  0.88093180893E+03  0.50400001928E-02 0.  1.
        1   -1    0    0  501    0  0.00000000000E+00  0.00000000000E+00 -0.91903389161E+03  0.91903389163E+03  0.50400001928E-02 0. -1.
    10030    2    1    2    0    0  0.00000000000E+00  0.00000000000E+00 -0.38102082693E+02  0.17999657006E+04  0.17995623786E+04 0.  0.
        3    1    3    3  502    0  0.78026750010E+03  0.42802462838E+03  0.11358231383E+03  0.89717523730E+03  0.10100000352E+00 0.  1.
       -3    1    3    3    0  502 -0.78026750010E+03 -0.42802462838E+03 -0.15168439652E+03  0.90279046326E+03  0.10100000352E+00 0. -1.
</event>
<event>
 5   0  0.1603564E-04  0.1779117E+04  0.7818609E-02  0.8717484E-01
        2   -1    0    0  501    0  0.00000000000E+00  0.00000000000E+00  0.14392452631E+04  0.14392452631E+04  0.25500000920E-02 0. -1.
       -2   -1    0    0    0  501  0.00000000000E+00  0.00000000000E+00 -0.54981198468E+03  0.54981198468E+03  0.25500000920E-02 0.  1.
    10030    2    1    2    0    0  0.00000000000E+00  0.00000000000E+00  0.88943327838E+03  0.19890572477E+04  0.17791169658E+04 0.  0.
        5    1    3    3  502    0  0.72624854781E+03 -0.48472385047E+03  0.63477062259E+03  0.10795137784E+04  0.46999998093E+01 0. -1.
       -5    1    3    3    0  502 -0.72624854781E+03  0.48472385047E+03  0.25466265579E+03  0.90954346936E+03  0.46999998093E+01 0.  1.
</event>
<event>
 5   0  0.1628397E-04  0.2027378E+04  0.7818609E-02  0.8593926E-01
       -2   -1    0    0    0  501  0.00000000000E+00  0.00000000000E+00  0.46931394385E+03  0.46931394386E+03  0.25500000920E-02 0. -1.
        2   -1    0    0  501    0  0.00000000000E+00  0.00000000000E+00 -0.21895056238E+04  0.21895056238E+04  0.25500000920E-02 0.  1.
    10030    2    1    2    0    0  0.00000000000E+00  0.00000000000E+00 -0.17201916799E+04  0.26588195676E+04  0.20273781289E+04 0.  0.
        3    1    3    3  502    0 -0.46729391244E+03 -0.23677128515E+03 -0.19982270468E+04  0.20657530305E+04  0.10100000352E+00 0.  1.
       -3    1    3    3    0  502  0.46729391244E+03  0.23677128515E+03  0.27803536689E+03  0.59306653717E+03  0.10100000352E+00 0. -1.
</event>
<event>
 5   0  0.1628397E-04  0.1793467E+04  0.7818609E-02  0.8709782E-01
       -2   -1    0    0    0  501  0.00000000000E+00  0.00000000000E+00  0.14338048622E+04  0.14338048622E+04  0.25500000920E-02 0.  1.
        2   -1    0    0  501    0  0.00000000000E+00  0.00000000000E+00 -0.56083693053E+03  0.56083693054E+03  0.25500000920E-02 0. -1.
    10030    2    1    2    0    0  0.00000000000E+00  0.00000000000E+00  0.87296793162E+03  0.19946417927E+04  0.17934667188E+04 0.  0.
        3    1    3    3  502    0  0.47501997439E+03 -0.39061421130E+03  0.11623042797E+04  0.13149808694E+04  0.10100000352E+00 0.  1.
       -3    1    3    3    0  502 -0.47501997439E+03  0.39061421130E+03 -0.28933634806E+03  0.67966092329E+03  0.10100000352E+00 0. -1.
</event>
<event>
 5   0  0.8206783E-05  0.1831672E+04  0.7818609E-02  0.8689636E-01
        1   -1    0    0  501    0  0.00000000000E+00  0.00000000000E+00  0.14796081152E+04  0.14796081152E+04  0.50400001928E-02 0. -1.
       -1   -1    0    0    0  501  0.00000000000E+00  0.00000000000E+00 -0.56687685826E+03  0.56687685828E+03  0.50400001928E-02 0.  1.
    10030    2    1    2    0    0  0.00000000000E+00  0.00000000000E+00  0.91273125698E+03  0.20464849735E+04  0.18316720229E+04 0.  0.
        1    1    3    3  502    0 -0.79372260308E+03  0.22877631147E+03  0.14480920992E+02  0.82616213204E+03  0.50400001928E-02 0.  1.
       -1    1    3    3    0  502  0.79372260308E+03 -0.22877631147E+03  0.89825033598E+03  0.12203228415E+04  0.50400001928E-02 0. -1.
</event>
<event>
 5   0  0.8254914E-05  0.1803413E+04  0.7818609E-02  0.8704487E-01
       -1   -1    0    0    0  501  0.00000000000E+00  0.00000000000E+00  0.63658190960E+03  0.63658190962E+03  0.50400001928E-02 0.  1.
        1   -1    0    0  501    0  0.00000000000E+00  0.00000000000E+00 -0.12772507775E+04  0.12772507776E+04  0.50400001928E-02 0. -1.
    10030    2    1    2    0    0  0.00000000000E+00  0.00000000000E+00 -0.64066886795E+03  0.19138326872E+04  0.18034131407E+04 0.  0.
        4    1    3    3  502    0 -0.12172002686E+03 -0.72608077572E+03 -0.87285024955E+03  0.11418748744E+04  0.12699999809E+01 0. -1.
       -4    1    3    3    0  502  0.12172002686E+03  0.72608077572E+03  0.23218138160E+03  0.77195781275E+03  0.12699999809E+01 0.  1.
</event>
<event>
 5   0  0.8206783E-05  0.1788389E+04  0.7818609E-02  0.8712499E-01
        1   -1    0    0  501    0  0.00000000000E+00  0.00000000000E+00  0.31104161442E+03  0.31104161446E+03  0.50400001928E-02 0. -1.
       -1   -1    0    0    0  501  0.00000000000E+00  0.00000000000E+00 -0.25706646383E+04  0.25706646383E+04  0.50400001928E-02 0.  1.
    10030    2    1    2    0    0  0.00000000000E+00  0.00000000000E+00 -0.22596230239E+04  0.28817062528E+04  0.17883888607E+04 0.  0.
        1    1    3    3  502    0  0.61106984161E+03  0.65210050873E+03 -0.10803494918E+04  0.14020686321E+04  0.50400001928E-02 0.  1.
       -1    1    3    3    0  502 -0.61106984161E+03 -0.65210050873E+03 -0.11792735321E+04  0.14796376206E+04  0.50400001928E-02 0. -1.
</event>
<event>
 5   0  0.5820500E-05  0.1804683E+04  0.7818609E-02  0.8703813E-01
       -3   -1    0    0    0  501  0.00000000000E+00  0.00000000000E+00  0.85658239908E+03  0.85658240504E+03  0.10100000352E+00 0. -1.
        3   -1    0    0  501    0  0.00000000000E+00  0.00000000000E+00 -0.95054529187E+03  0.95054529723E+03  0.10100000352E+00 0.  1.
    10030    2    1    2    0    0  0.00000000000E+00  0.00000000000E+00 -0.93962892784E+02  0.18071277023E+04  0.18046832152E+04 0.  0.
        1    1    3    3  502    0  0.27062804108E+03  0.55632908252E+03  0.61077875357E+03  0.86936314076E+03  0.50400001928E-02 0. -1.
       -1    1    3    3    0  502 -0.27062804108E+03 -0.55632908252E+03 -0.70474164636E+03  0.93776456151E+03  0.50400001928E-02 0.  1.
</event>
<event>
 5   0  0.8430513E-05  0.1799528E+04  0.7818609E-02  0.8706551E-01
       -1   -1    0    0    0  501  0.00000000000E+00  0.00000000000E+00  0.40222055670E+03  0.40222055673E+03  0.50400001928E-02 0. -1.
        1   -1    0    0  501    0  0.00000000000E+00  0.00000000000E+00 -0.20127640016E+04  0.20127640016E+04  0.50400001928E-02 0.  1.
    10030    2    1    2    0    0  0.00000000000E+00  0.00000000000E+00 -0.16105434449E+04  0.24149845584E+04  0.17995277795E+04 0.  0.
        5    1    3    3  502    0  0.88907009796E+03 -0.57753559282E+02 -0.63673397501E+03  0.10950951363E+04  0.46999998093E+01 0.  1.
       -5    1    3    3    0  502 -0.88907009796E+03  0.57753559282E+02 -0.97380946993E+03  0.13198894220E+04  0.46999998093E+01 0. -1.
</event>
<event>
 5   0  0.8254914E-05  0.1826368E+04  0.7818609E-02  0.8692402E-01
       -1   -1    0    0    0  501  0.00000000000E+00  0.00000000000E+00  0.13811718148E+04  0.13811718148E+04  0.50400001928E-02 0.  1.
        1   -1    0    0  501    0  0.00000000000E+00  0.00000000000E+00 -0.60376635468E+03  0.60376635470E+03  0.50400001928E-02 0. -1.
    10030    2    1    2    0    0  0.00000000000E+00  0.00000000000E+00  0.77740546008E+03  0.19849381695E+04  0.18263680591E+04 0.  0.
        4    1    3    3  502    0 -0.37148909323E+03 -0.50903747605E+03  0.11069767059E+04  0.12737826890E+04  0.12699999809E+01 0.  1.
       -4    1    3    3    0  502  0.37148909323E+03  0.50903747605E+03 -0.32957124586E+03  0.71115548047E+03  0.12699999809E+01 0. -1.
</event>
<event>
 5   0  0.8492114E-05  0.1786729E+04  0.7818609E-02  0.8713389E-01
       -1   -1    0    0    0  501  0.00000000000E+00  0.00000000000E+00  0.52825907133E+03  0.52825907135E+03  0.50400001928E-02 0. -1.
        1   -1    0    0  501    0  0.00000000000E+00  0.00000000000E+00 -0.15108115570E+04  0.15108115570E+04  0.50400001928E-02 0.  1.
    10030    2    1    2    0    0  0.00000000000E+00  0.00000000000E+00 -0.98255248563E+03  0.20390706283E+04  0.17867287540E+04 0.  0.
        2    1    3    3  502    0  0.15535163274E+03 -0.67930883162E+02 -0.14922805660E+04  0.15018821599E+04  0.25500000920E-02 0.  1.
       -2    1    3    3    0  502 -0.15535163274E+03  0.67930883162E+02  0.50972808035E+03  0.53718846840E+03  0.25500000920E-02 0. -1.
</event>
<event>
 5   0  0.1608627E-04  0.1800898E+04  0.7818609E-02  0.8705822E-01
        2   -1    0    0  501    0  0.00000000000E+00  0.00000000000E+00  0.10144570619E+04  0.10144570619E+04  0.25500000920E-02 0.  1.
       -2   -1    0    0    0  501  0.00000000000E+00  0.00000000000E+00 -0.79925361322E+03  0.79925361322E+03  0.25500000920E-02 0. -1.
    10030    2    1    2    0    0  0.00000000000E+00  0.00000000000E+00  0.21520344864E+03  0.18137106751E+04  0.18008980784E+04 0.  0.
        2    1    3    3  502    0  0.51272930908E+03  0.40245391488E+03  0.73326873592E+03  0.98109303182E+03  0.25500000920E-02 0.  1.
       -2    1    3    3    0  502 -0.51272930908E+03 -0.40245391488E+03 -0.51806528728E+03  0.83261764327E+03  0.25500000920E-02 0. -1.
</event>
<event>
 5   0  0.8430513E-05  0.1798008E+04  0.7818609E-02  0.8707360E-01
        1   -1    0    0  501    0  0.00000000000E+00  0.00000000000E+00  0.64373628718E+03  0.64373628720E+03  0.50400001928E-02 0.  1.
       -1   -1    0    0    0  501  0.00000000000E+00  0.00000000000E+00 -0.12554954297E+04  0.12554954298E+04  0.50400001928E-02 0. -1.
    10030    2    1    2    0    0  0.00000000000E+00  0.00000000000E+00 -0.61175914256E+03  0.18992317170E+04  0.17980077492E+04 0.  0.
        5    1    3    3  502    0 -0.93328409219E+01 -0.88907502558E+03 -0.44618985950E+03  0.99481102916E+03  0.46999998093E+01 0. -1.
       -5    1    3    3    0  502  0.93328409219E+01  0.88907502558E+03 -0.16556928306E+03  0.90442068780E+03  0.46999998093E+01 0.  1.
</event>
<event>
 5   0  0.8132598E-05  0.1839943E+04  0.7818609E-02  0.8685342E-01
        1   -1    0    0  501    0  0.00000000000E+00  0.00000000000E+00  0.10938692101E+04  0.10938692101E+04  0.50400001928E-02 0.  1.
       -1   -1    0    0    0  501  0.00000000000E+00  0.00000000000E+00 -0.77371929505E+03  0.77371929506E+03  0.50400001928E-02 0. -1.
    10030    2    1    2    0    0  0.00000000000E+00  0.00000000000E+00  0.32014991504E+03  0.18675885052E+04  0.18399431667E+04 0.  0.
        3    1    3    3  502    0 -0.67374731549E+03  0.58177587470E+03 -0.75684349985E+02  0.89337939564E+03  0.10100000352E+00 0.  1.
       -3    1    3    3    0  502  0.67374731549E+03 -0.58177587470E+03  0.39583426502E+03  0.97420910953E+03  0.10100000352E+00 0. -1.
</event>
<event>
 5   0  0.1608627E-04  0.1848454E+04  0.7818609E-02  0.8680948E-01
        2   -1    0    0  501    0  0.00000000000E+00  0.00000000000E+00  0.95734064022E+03  0.95734064022E+03  0.25500000920E-02 0. -1.
       -2   -1    0    0    0  501  0.00000000000E+00  0.00000000000E+00 -0.89225884441E+03  0.89225884441E+03  0.25500000920E-02 0.  1.
    10030    2    1    2    0    0  0.00000000000E+00  0.00000000000E+00  0.65081795810E+02  0.18495994846E+04  0.18484541145E+04 0.  0.
        2    1    3    3  502    0 -0.63558934461E+03  0.25111880004E+03  0.65514922895E+03  0.94670744104E+03  0.25500000920E-02 0.  1.
       -2    1    3    3    0  502  0.63558934461E+03 -0.25111880004E+03 -0.59006743314E+03  0.90289204359E+03  0.25500000920E-02 0. -1.
</event>
<event>
 5   0  0.8492114E-05  0.1785553E+04  0.7818609E-02  0.8714020E-01
        1   -1    0    0  501    0  0.00000000000E+00  0.00000000000E+00  0.14245615396E+04  0.14245615396E+04  0.50400001928E-02 0.  1.
       -1   -1    0    0    0  501  0.00000000000E+00  0.00000000000E+00 -0.55950564676E+03  0.55950564678E+03  0.50400001928E-02 0. -1.
    10030    2    1    2    0    0  0.00000000000E+00  0.00000000000E+00  0.86505589282E+03  0.19840671864E+04  0.17855533883E+04 0.  0.
        2    1    3    3  502    0 -0.17378247758E+03  0.77584473113E+03 -0.18718078414E+02  0.79528973513E+03  0.25500000920E-02 0. -1.
       -2    1    3    3    0  502  0.17378247758E+03 -0.77584473113E+03  0.88377397123E+03  0.11887774512E+04  0.25500000920E-02 0.  1.
</event>
<event>
 5   0  0.8430513E-05  0.1782806E+04  0.7818609E-02  0.8715497E-01
       -1   -1    0    0    0  501  0.00000000000E+00  0.00000000000E+00  0.16060062068E+04  0.16060062068E+04  0.50400001928E-02 0.  1.
        1   -1    0    0  501    0  0.00000000000E+00  0.00000000000E+00 -0.49476708408E+03  0.49476708410E+03  0.50400001928E-02 0. -1.
    10030    2    1    2    0    0  0.00000000000E+00  0.00000000000E+00  0.11112391227E+04  0.21007732909E+04  0.17828056630E+04 0.  0.
        5    1    3    3  502    0 -0.51319518983E+01 -0.23505746075E+03  0.15687960792E+04  0.15863232883E+04  0.46999998093E+01 0.  1.
       -5    1    3    3    0  502  0.51319518983E+01  0.23505746075E+03 -0.45755695649E+03  0.51445000263E+03  0.46999998093E+01 0. -1.
</event>
<event>
 5   0  0.1573981E-04  0.1797327E+04  0.7818609E-02  0.8707722E-01
        2   -1    0    0  501    0  0.00000000000E+00  0.00000000000E+00  0.13081323163E+04  0.13081323163E+04  0.25500000920E-02 0.  1.
       -2   -1    0    0    0  501  0.00000000000E+00  0.00000000000E+00 -0.61736581182E+03  0.61736581183E+03  0.25500000920E-02 0. -1.
    10030    2    1    2    0    0  0.00000000000E+00  0.00000000000E+00  0.69076650447E+03  0.19254981281E+04  0.17973270926E+04 0.  0.
        1    1    3    3  502    0 -0.43713238653E+03  0.42712397813E+03 -0.36044517235E+03  0.70953529746E+03  0.50400001928E-02 0. -1.
       -1    1    3    3    0  502  0.43713238653E+03 -0.42712397813E+03  0.10512116768E+04  0.12159628307E+04  0.50400001928E-02 0.  1.
</event>
<event>
 5   0  0.1608627E-04  0.1803187E+04  0.7818609E-02  0.8704607E-01
       -2   -1    0    0    0  501  0.00000000000E+00  0.00000000000E+00  0.95840238647E+03  0.95840238647E+03  0.25500000920E-02 0.  1.
        2   -1    0    0  501    0  0.00000000000E+00  0.00000000000E+00 -0.84815147100E+03  0.84815147100E+03  0.25500000920E-02 0. -1.
    10030    2    1    2    0    0  0.00000000000E+00  0.00000000000E+00  0.11025091547E+03  0.18065538575E+04  0.18031865060E+04 0.  0.
        2    1    3    3  502    0 -0.53557923424E+03  0.14883724125E+03 -0.65604007836E+03  0.85987570320E+03  0.25500000920E-02 0.  1.
       -2    1    3    3    0  502  0.53557923424E+03 -0.14883724125E+03  0.76629099384E+03  0.94667815427E+03  0.25500000920E-02 0. -1.
</event>
<event>
 5   0  0.1549012E-04  0.1719657E+04  0.7818609E-02  0.8750232E-01
       -2   -1    0    0    0  501  0.00000000000E+00  0.00000000000E+00  0.29918689251E+03  0.29918689252E+03  0.25500000920E-02 0. -1.
        2   -1    0    0  501    0  0.00000000000E+00  0.00000000000E+00 -0.24710486637E+04  0.24710486637E+04  0.25500000920E-02 0.  1.
    10030    2    1    2    0    0  0.00000000000E+00  0.00000000000E+00 -0.21718617712E+04  0.27702355562E+04  0.17196573740E+04 0.  0.
        4    1    3    3  502    0 -0.63761650497E+03  0.28916852066E+03 -0.28187129258E+03  0.75473590032E+03  0.12699999809E+01 0. -1.
       -4    1    3    3    0  502  0.63761650497E+03 -0.28916852066E+03 -0.18899904786E+04  0.20154996559E+04  0.12699999809E+01 0.  1.
</event>
<event>
 5   0  0.1603564E-04  0.1821876E+04  0.7818609E-02  0.8694752E-01
        2   -1    0    0  501    0  0.00000000000E+00  0.00000000000E+00  0.12634784527E+04  0.12634784527E+04  0.25500000920E-02 0.  1.
       -2   -1    0    0    0  501  0.00000000000E+00  0.00000000000E+00 -0.65676497532E+03  0.65676497532E+03  0.25500000920E-02 0. -1.
    10030    2    1    2    0    0  0.00000000000E+00  0.00000000000E+00  0.60671347738E+03  0.19202434280E+04  0.18218763897E+04 0.  0.
        5    1    3    3  502    0 -0.37384767281E+03 -0.15531548344E+03 -0.55673013281E+03  0.68837163846E+03  0.46999998093E+01 0. -1.
       -5    1    3    3    0  502  0.37384767281E+03  0.15531548344E+03  0.11634436102E+04  0.12318717896E+04  0.46999998093E+01 0.  1.
</event>
<event>
 5   0  0.1549012E-04  0.1794487E+04  0.7818609E-02  0.8709237E-01
        2   -1    0    0  501    0  0.00000000000E+00  0.00000000000E+00  0.75747314134E+03  0.75747314134E+03  0.25500000920E-02 0. -1.
       -2   -1    0    0    0  501  0.00000000000E+00  0.00000000000E+00 -0.10628041658E+04  0.10628041658E+04  0.25500000920E-02 0.  1.
    10030    2    1    2    0    0  0.00000000000E+00  0.00000000000E+00 -0.30533102445E+03  0.18202773071E+04  0.17944866788E+04 0.  0.
        4    1    3    3  502    0  0.65821904586E+03  0.59147346104E+03 -0.23780375836E+01  0.88492962173E+03  0.12699999809E+01 0.  1.
       -4    1    3    3    0  502 -0.65821904586E+03 -0.59147346104E+03 -0.30295298687E+03  0.93534768541E+03  0.12699999809E+01 0. -1.
</event>
<event>
 5   0  0.1573981E-04  0.1806189E+04  0.7818609E-02  0.8703015E-01
       -2   -1    0    0    0  501  0.00000000000E+00  0.00000000000E+00  0.49212511777E+03  0.49212511778E+03  0.25500000920E-02 0.  1.
        2   -1    0    0  501    0  0.00000000000E+00  0.00000000000E+00 -0.16572614224E+04  0.16572614224E+04  0.25500000920E-02 0. -1.
    10030    2    1    2    0    0  0.00000000000E+00  0.00000000000E+00 -0.11651363046E+04  0.21493865401E+04  0.18061893286E+04 0.  0.
        1    1    3    3  502    0  0.33885272280E+03 -0.52553703121E+03  0.19283170625E+03  0.65436565152E+03  0.50400001928E-02 0.  1.
       -1    1    3    3    0  502 -0.33885272280E+03  0.52553703121E+03 -0.13579680108E+04  0.14950208886E+04  0.50400001928E-02 0. -1.
</event>
<event>
 5   0  0.8492114E-05  0.1798315E+04  0.7818609E-02  0.8707196E-01
       -1   -1    0    0    0  501  0.00000000000E+00  0.00000000000E+00  0.57032043188E+03  0.57032043190E+03  0.50400001928E-02 0.  1.
        1   -1    0    0  501    0  0.00000000000E+00  0.00000000000E+00 -0.14175964751E+04  0.14175964751E+04  0.50400001928E-02 0. -1.
    10030    2    1    2    0    0  0.00000000000E+00  0.00000000000E+00 -0.84727604322E+03  0.19879169070E+04  0.17983150268E+04 0.  0.
        2    1    3    3  502    0  0.48459671542E+03 -0.75414159393E+03 -0.50118171806E+03  0.10270085856E+04  0.25500000920E-02 0.  1.
       -2    1    3    3    0  502 -0.48459671542E+03  0.75414159393E+03 -0.34609432516E+03  0.96090832144E+03  0.25500000920E-02 0. -1.
</event>
<event>
 5   0  0.1608627E-04  0.1798171E+04  0.7818609E-02  0.8707273E-01
       -2   -1    0    0    0  501  0.00000000000E+00  0.00000000000E+00  0.32656930667E+03  0.32656930668E+03  0.25500000920E-02 0.  1.
        2   -1    0    0  501    0  0.00000000000E+00  0.00000000000E+00 -0.24752921818E+04  0.24752921818E+04  0.25500000920E-02 0. -1.
    10030    2    1    2    0    0  0.00000000000E+00  0.00000000000E+00 -0.21487228752E+04  0.28018614885E+04  0.17981706834E+04 0.  0.
        2    1    3    3  502    0  0.15108349615E+03  0.58672969258E+03 -0.39288038927E+02  0.60714207973E+03  0.25500000920E-02 0. -1.
       -2    1    3    3    0  502 -0.15108349615E+03 -0.58672969258E+03 -0.21094348362E+04  0.21947194088E+04  0.25500000920E-02 0.  1.
</event>
<event>
 5   0  0.1628397E-04  0.1803633E+04  0.7818609E-02  0.8704370E-01
        2   -1    0    0  501    0  0.00000000000E+00  0.00000000000E+00  0.95673160477E+03  0.95673160478E+03  0.25500000920E-02 0.  1.
       -2   -1    0    0    0  501  0.00000000000E+00  0.00000000000E+00 -0.85005359585E+03  0.85005359586E+03  0.25500000920E-02 0. -1.
    10030    2    1    2    0    0  0.00000000000E+00  0.00000000000E+00  0.10667800892E+03  0.18067852006E+04  0.18036331566E+04 0.  0.
        3    1    3    3  502    0  0.22927308136E+03  0.87014741075E+03 -0.63509355543E+01  0.89986832751E+03  0.10100000352E+00 0. -1.
       -3    1    3    3    0  502 -0.22927308136E+03 -0.87014741075E+03  0.11302894448E+03  0.90691687312E+03  0.10100000352E+00 0.  1.
</event>
<event>
 5   0  0.1603564E-04  0.1797187E+04  0.7818609E-02  0.8707797E-01
       -2   -1    0    0    0  501  0.00000000000E+00  0.00000000000E+00  0.51773494794E+03  0.51773494795E+03  0.25500000920E-02 0. -1.
        2   -1    0    0  501    0  0.00000000000E+00  0.00000000000E+00 -0.15596213961E+04  0.15596213961E+04  0.25500000920E-02 0.  1.
    10030    2    1    2    0    0  0.00000000000E+00  0.00000000000E+00 -0.10418864482E+04  0.20773563441E+04  0.17971872494E+04 0.  0.
        5    1    3    3  502    0 -0.56664979590E+03  0.69729203664E+03 -0.50725495182E+03  0.10318128957E+04  0.46999998093E+01 0.  1.
       -5    1    3    3    0  502  0.56664979590E+03 -0.69729203664E+03 -0.53463149636E+03  0.10455434484E+04  0.46999998093E+01 0. -1.
</event>
<event>
 5   0  0.1573981E-04  0.1815730E+04  0.7818609E-02  0.8697979E-01
        2   -1    0    0  501    0  0.00000000000E+00  0.00000000000E+00  0.89849340795E+03  0.89849340795E+03  0.25500000920E-02 0. -1.
       -2   -1    0    0    0  501  0.00000000000E+00  0.00000000000E+00 -0.91733469633E+03  0.91733469634E+03  0.25500000920E-02 0.  1.
    10030    2    1    2    0    0  0.00000000000E+00  0.00000000000E+00 -0.18841288385E+02  0.18158281043E+04  0.18157303517E+04 0.  0.
        1    1    3    3  502    0 -0.89248520657E+02 -0.32824464399E+02  0.89349917975E+03  0.89854522877E+03  0.50400001928E-02 0. -1.
       -1    1    3    3    0  502  0.89248520657E+02  0.32824464399E+02 -0.91234046813E+03  0.91728287552E+03  0.50400001928E-02 0.  1.
</event>
<event>
 5   0  0.8206783E-05  0.1808367E+04  0.7818609E-02  0.8701863E-01
       -1   -1    0    0    0  501  0.00000000000E+00  0.00000000000E+00  0.74307772599E+03  0.74307772600E+03  0.50400001928E-02 0. -1.
        1   -1    0    0  501    0  0.00000000000E+00  0.00000000000E+00 -0.11002182174E+04  0.11002182175E+04  0.50400001928E-02 0.  1.
    10030    2    1    2    0    0  0.00000000000E+00  0.00000000000E+00 -0.35714049145E+03  0.18432959435E+04  0.18083668335E+04 0.  0.
        1    1    3    3  502    0  0.56582425027E+03  0.43430439191E+02  0.53894688912E+03  0.78262828632E+03  0.50400001928E-02 0. -1.
       -1    1    3    3    0  502 -0.56582425027E+03 -0.43430439191E+02 -0.89608738057E+03  0.10606676571E+04  0.50400001928E-02 0.  1.
</event>
<event>
 5   0  0.1608627E-04  0.1785439E+04  0.7818609E-02  0.8714081E-01
       -2   -1    0    0    0  501  0.00000000000E+00  0.00000000000E+00  0.82793248129E+03  0.82793248129E+03  0.25500000920E-02 0.  1.
        2   -1    0    0  501    0  0.00000000000E+00  0.00000000000E+00 -0.96257647015E+03  0.96257647015E+03  0.25500000920E-02 0. -1.
    10030    2    1    2    0    0  0.00000000000E+00  0.00000000000E+00 -0.13464398886E+03  0.17905089514E+04  0.17854392461E+04 0.  0.
        2    1    3    3  502    0  0.33943775287E+03 -0.15809458666E+03 -0.88001585061E+03  0.95636801689E+03  0.25500000920E-02 0. -1.
       -2    1    3    3    0  502 -0.33943775287E+03  0.15809458666E+03  0.74537186175E+03  0.83414093456E+03  0.25500000920E-02 0.  1.
</event>
<event>
 5   0  0.8430513E-05  0.1796520E+04  0.7818609E-02  0.8708152E-01
        1   -1    0    0  501    0  0.00000000000E+00  0.00000000000E+00  0.23819413518E+04  0.23819413518E+04  0.50400001928E-02 0. -1.
       -1   -1    0    0    0  501  0.00000000000E+00  0.00000000000E+00 -0.33874530408E+03  0.33874530412E+03  0.50400001928E-02 0.  1.
    10030    2    1    2    0    0  0.00000000000E+00  0.00000000000E+00  0.20431960477E+04  0.27206866559E+04  0.17965204676E+04 0.  0.
        5    1    3    3  502    0  0.66888017253E+03 -0.16413402862E+03  0.14832939475E+03  0.70453130797E+03  0.46999998093E+01 0.  1.
       -5    1    3    3    0  502 -0.66888017253E+03  0.16413402862E+03  0.18948666530E+04  0.20161553480E+04  0.46999998093E+01 0. -1.
</event>
<event>
 5   0  0.1603564E-04  0.1807787E+04  0.7818609E-02  0.8702169E-01
       -2   -1    0    0    0  501  0.00000000000E+00  0.00000000000E+00  0.18212200479E+04  0.18212200479E+04  0.25500000920E-02 0.  1.
        2   -1    0    0  501    0  0.00000000000E+00  0.00000000000E+00 -0.44861314425E+03  0.44861314426E+03  0.25500000920E-02 0. -1.
    10030    2    1    2    0    0  0.00000000000E+00  0.00000000000E+00  0.13726069036E+04  0.22698331921E+04  0.18077867707E+04 0.  0.
        5    1    3    3  502    0 -0.59284356312E+03  0.20833059828E+03  0.15020832590E+04  0.16282325803E+04  0.46999998093E+01 0.  1.
       -5    1    3    3    0  502  0.59284356312E+03 -0.20833059828E+03 -0.12947635539E+03  0.64160061184E+03  0.46999998093E+01 0. -1.
</event>
<event>
 5   0  0.8254914E-05  0.1836666E+04  0.7818609E-02  0.8687040E-01
        1   -1    0    0  501    0  0.00000000000E+00  0.00000000000E+00  0.78539992266E+03  0.78539992268E+03  0.50400001928E-02 0. -1.
       -1   -1    0    0    0  501  0.00000000000E+00  0.00000000000E+00 -0.10737660974E+04  0.10737660974E+04  0.50400001928E-02 0.  1.
    10030    2    1    2    0    0  0.00000000000E+00  0.00000000000E+00 -0.28836617476E+03  0.18591660201E+04  0.18366663387E+04 0.  0.
        4    1    3    3  502    0 -0.89012799714E+03  0.22053659534E+03 -0.19346164991E+03  0.93722636757E+03  0.12699999809E+01 0.  1.
       -4    1    3    3    0  502  0.89012799714E+03 -0.22053659534E+03 -0.94904524842E+02  0.92193965254E+03  0.12699999809E+01 0. -1.
</event>
<event>
 5   0  0.1549012E-04  0.1807519E+04  0.7818609E-02  0.8702311E-01
       -2   -1    0    0    0  501  0.00000000000E+00  0.00000000000E+00  0.11678632754E+04  0.11678632755E+04  0.25500000920E-02 0.  1.
        2   -1    0    0  501    0  0.00000000000E+00  0.00000000000E+00 -0.69938071233E+03  0.69938071233E+03  0.25500000920E-02 0. -1.
    10030    2    1    2    0    0  0.00000000000E+00  0.00000000000E+00  0.46848256312E+03  0.18672439878E+04  0.18075187960E+04 0.  0.
        4    1    3    3  502    0  0.77726183182E+03  0.38526508909E+03  0.49601985618E+03  0.99930098304E+03  0.12699999809E+01 0.  1.
       -4    1    3    3    0  502 -0.77726183182E+03 -0.38526508909E+03 -0.27537293057E+02  0.86794300475E+03  0.12699999809E+01 0. -1.
</event>
<event>
 5   0  0.8206783E-05  0.1811653E+04  0.7818609E-02  0.8700127E-01
        1   -1    0    0  501    0  0.00000000000E+00  0.00000000000E+00  0.72503284713E+03  0.72503284715E+03  0.50400001928E-02 0. -1.
       -1   -1    0    0    0  501  0.00000000000E+00  0.00000000000E+00 -0.11317032709E+04  0.11317032709E+04  0.50400001928E-02 0.  1.
    10030    2    1    2    0    0  0.00000000000E+00  0.00000000000E+00 -0.40667042377E+03  0.18567361181E+04  0.18116534378E+04 0.  0.
        1    1    3    3  502    0  0.13051307957E+03 -0.49036925793E+02  0.71397035067E+03  0.72745580326E+03  0.50400001928E-02 0. -1.
       -1    1    3    3    0  502 -0.13051307957E+03  0.49036925793E+02 -0.11206407744E+04  0.11292803148E+04  0.50400001928E-02 0.  1.
</event>
<event>
 5   0  0.1573981E-04  0.1803367E+04  0.7818609E-02  0.8704511E-01
       -2   -1    0    0    0  501  0.00000000000E+00  0.00000000000E+00  0.84278826246E+03  0.84278826246E+03  0.25500000920E-02 0.  1.
        2   -1    0    0  501    0  0.00000000000E+00  0.00000000000E+00 -0.96469490382E+03  0.96469490382E+03  0.25500000920E-02 0. -1.
    10030    2    1    2    0    0  0.00000000000E+00  0.00000000000E+00 -0.12190664136E+03  0.18074831663E+04  0.18033674521E+04 0.  0.
        1    1    3    3  502    0 -0.64940663678E+03  0.15631317078E+02 -0.68772859612E+03  0.94601476728E+03  0.50400001928E-02 0. -1.
       -1    1    3    3    0  502  0.64940663678E+03 -0.15631317078E+02  0.56582195476E+03  0.86146839900E+03  0.50400001928E-02 0.  1.
</event>
<event>
 5   0  0.8254914E-05  0.1789427E+04  0.7818609E-02  0.8711942E-01
       -1   -1    0    0    0  501  0.00000000000E+00  0.00000000000E+00  0.15168352558E+04  0.15168352558E+04  0.50400001928E-02 0.  1.
        1   -1    0    0  501    0  0.00000000000E+00  0.00000000000E+00 -0.52775181812E+03  0.52775181814E+03  0.50400001928E-02 0. -1.
    10030    2    1    2    0    0  0.00000000000E+00  0.00000000000E+00  0.98908343772E+03  0.20445870740E+04  0.17894273543E+04 0.  0.
        4    1    3    3  502    0  0.13903492043E+03 -0.56968615283E+03 -0.27756535244E+03  0.64878128795E+03  0.12699999809E+01 0. -1.
       -4    1    3    3    0  502 -0.13903492043E+03  0.56968615283E+03  0.12666487902E+04  0.13958057860E+04  0.12699999809E+01 0.  1.
</event>
<event>
 5   0  0.1628397E-04  0.1807533E+04  0.7818609E-02  0.8702304E-01
        2   -1    0    0  501    0  0.00000000000E+00  0.00000000000E+00  0.64038306940E+03  0.64038306940E+03  0.25500000920E-02 0. -1.
       -2   -1    0    0    0  501  0.00000000000E+00  0.00000000000E+00 -0.12754770760E+04  0.12754770760E+04  0.25500000920E-02 0.  1.
    10030    2    1    2    0    0  0.00000000000E+00  0.00000000000E+00 -0.63509400660E+03  0.19158601454E+04  0.18075330424E+04 0.  0.
        3    1    3    3  502    0  0.52719262541E+03 -0.27344730201E+03 -0.10396147155E+04  0.11972903817E+04  0.10100000352E+00 0.  1.
       -3    1    3    3    0  502 -0.52719262541E+03  0.27344730201E+03  0.40452070885E+03  0.71856976373E+03  0.10100000352E+00 0. -1.
</event>
<event>
 5   0  0.8132598E-05  0.1796817E+04  0.7818609E-02  0.8707994E-01
        1   -1    0    0  501    0  0.00000000000E+00  0.00000000000E+00  0.87097925291E+03  0.87097925292E+03  0.50400001928E-02 0.  1.
       -1   -1    0    0    0  501  0.00000000000E+00  0.00000000000E+00 -0.92670124486E+03  0.92670124487E+03  0.50400001928E-02 0. -1.
    10030    2    1    2    0    0  0.00000000000E+00  0.00000000000E+00 -0.55721991953E+02  0.17976804978E+04  0.17968166940E+04 0.  0.
        3    1    3    3  502    0  0.52693567257E+03 -0.43992445126E+03  0.55202339134E+03  0.88086580171E+03  0.10100000352E+00 0.  1.
       -3    1    3    3    0  502 -0.52693567257E+03  0.43992445126E+03 -0.60774538329E+03  0.91681469608E+03  0.10100000352E+00 0. -1.
</event>
<event>
 5   0  0.1573981E-04  0.1805568E+04  0.7818609E-02  0.8703344E-01
        2   -1    0    0  501    0  0.00000000000E+00  0.00000000000E+00  0.12559627412E+04  0.12559627412E+04  0.25500000920E-02 0. -1.
       -2   -1    0    0    0  501  0.00000000000E+00  0.00000000000E+00 -0.64891970949E+03  0.64891970950E+03  0.25500000920E-02 0.  1.
    10030    2    1    2    0    0  0.00000000000E+00  0.00000000000E+00  0.60704303175E+03  0.19048824507E+04  0.18055680294E+04 0.  0.
        1    1    3    3  502    0 -0.72979444775E+03 -0.52299336493E+03  0.20400946735E+03  0.92072898212E+03  0.50400001928E-02 0.  1.
       -1    1    3    3    0  502  0.72979444775E+03  0.52299336493E+03  0.40303356440E+03  0.98415346862E+03  0.50400001928E-02 0. -1.
</event>
<event>
 5   0  0.8254914E-05  0.1782589E+04  0.7818609E-02  0.8715614E-01
        1   -1    0    0  501    0  0.00000000000E+00  0.00000000000E+00  0.17964169033E+04  0.17964169033E+04  0.50400001928E-02 0. -1.
       -1   -1    0    0    0  501  0.00000000000E+00  0.00000000000E+00 -0.44221673628E+03  0.44221673631E+03  0.50400001928E-02 0.  1.
    10030    2    1    2    0    0  0.00000000000E+00  0.00000000000E+00  0.13542001670E+04  0.22386336396E+04  0.17825887019E+04 0.  0.
        4    1    3    3  502    0  0.69614038139E+03  0.21134840647E+03  0.30468746006E+02  0.72815488524E+03  0.12699999809E+01 0.  1.
       -4    1    3    3    0  502 -0.69614038139E+03 -0.21134840647E+03  0.13237314210E+04  0.15104787543E+04  0.12699999809E+01 0. -1.
</event>
<event>
 5   0  0.1628397E-04  0.1723415E+04  0.7818609E-02  0.8748122E-01
       -2   -1    0    0    0  501  0.00000000000E+00  0.00000000000E+00  0.76397949478E+03  0.76397949478E+03  0.25500000920E-02 0.  1.
        2   -1    0    0  501    0  0.00000000000E+00  0.00000000000E+00 -0.97193654911E+03  0.97193654911E+03  0.25500000920E-02 0. -1.
    10030    2    1    2    0    0  0.00000000000E+00  0.00000000000E+00 -0.20795705433E+03  0.17359160439E+04  0.17234147426E+04 0.  0.
        3    1    3    3  502    0  0.33201468405E+03 -0.32019897680E+03  0.62916002390E+03  0.78013042566E+03  0.10100000352E+00 0.  1.
       -3    1    3    3    0  502 -0.33201468405E+03  0.32019897680E+03 -0.83711707823E+03  0.95578561824E+03  0.10100000352E+00 0. -1.
</event>
<event>
 5   0  0.8254914E-05  0.1794533E+04  0.7818609E-02  0.8709212E-01
       -1   -1    0    0    0  501  0.00000000000E+00  0.00000000000E+00  0.95550700645E+03  0.95550700646E+03  0.50400001928E-02 0.  1.
        1   -1    0    0  501    0  0.00000000000E+00  0.00000000000E+00 -0.84257620917E+03  0.84257620918E+03  0.50400001928E-02 0. -1.
    10030    2    1    2    0    0  0.00000000000E+00  0.00000000000E+00  0.11293079728E+03  0.17980832156E+04  0.17945333336E+04 0.  0.
        4    1    3    3  502    0  0.86408277687E+03  0.14669951962E+03 -0.13607628584E+03  0.88694879379E+03  0.12699999809E+01 0. -1.
       -4    1    3    3    0  502 -0.86408277687E+03 -0.14669951962E+03  0.24900708312E+03  0.91113442185E+03  0.12699999809E+01 0.  1.
</event>
<event>
 5   0  0.5820500E-05  0.1771604E+04  0.7818609E-02  0.8721547E-01
       -3   -1    0    0    0  501  0.00000000000E+00  0.00000000000E+00  0.12258301200E+04  0.12258301242E+04  0.10100000352E+00 0. -1.
        3   -1    0    0  501    0  0.00000000000E+00  0.00000000000E+00 -0.64009303648E+03  0.64009304445E+03  0.10100000352E+00 0.  1.
    10030    2    1    2    0    0  0.00000000000E+00  0.00000000000E+00  0.58573708356E+03  0.18659231686E+04  0.17716041714E+04 0.  0.
        3    1    3    3  502    0  0.22444874464E+03  0.71612112554E+03 -0.20275707558E+03  0.77737838105E+03  0.10100000352E+00 0.  1.
       -3    1    3    3    0  502 -0.22444874464E+03 -0.71612112554E+03  0.78849415914E+03  0.10885447876E+04  0.10100000352E+00 0. -1.
</event>
<event>
 5   0  0.8254914E-05  0.1780603E+04  0.7818609E-02  0.8716683E-01
       -1   -1    0    0    0  501  0.00000000000E+00  0.00000000000E+00  0.44859397674E+03  0.44859397677E+03  0.50400001928E-02 0. -1.
        1   -1    0    0  501    0  0.00000000000E+00  0.00000000000E+00 -0.17669358604E+04  0.17669358604E+04  0.50400001928E-02 0.  1.
    10030    2    1    2    0    0  0.00000000000E+00  0.00000000000E+00 -0.13183418837E+04  0.22155298372E+04  0.17806030263E+04 0.  0.
        4    1    3    3  502    0 -0.40583795048E+03 -0.35348671199E+03  0.22326855103E+03  0.58267294117E+03  0.12699999809E+01 0. -1.
       -4    1    3    3    0  502  0.40583795048E+03  0.35348671199E+03 -0.15416104347E+04  0.16328568960E+04  0.12699999809E+01 0.  1.
</event>
<event>
 5   0  0.8430513E-05  0.1779977E+04  0.7818609E-02  0.8717021E-01
       -1   -1    0    0    0  501  0.00000000000E+00  0.00000000000E+00  0.85959540039E+03  0.85959540040E+03  0.50400001928E-02 0.  1.
        1   -1    0    0  501    0  0.00000000000E+00  0.00000000000E+00 -0.92145615376E+03  0.92145615377E+03  0.50400001928E-02 0. -1.
    10030    2    1    2    0    0  0.00000000000E+00  0.00000000000E+00 -0.61860753370E+02  0.17810515542E+04  0.17799769341E+04 0.  0.
        5    1    3    3  502    0 -0.24498421348E+03  0.19168454171E+03 -0.86527859284E+03  0.91950495464E+03  0.46999998093E+01 0. -1.
       -5    1    3    3    0  502  0.24498421348E+03 -0.19168454171E+03  0.80341783947E+03  0.86154659953E+03  0.46999998093E+01 0.  1.
</event>
<event>
 5   0  0.1608627E-04  0.1801438E+04  0.7818609E-02  0.8705535E-01
        2   -1    0    0  501    0  0.00000000000E+00  0.00000000000E+00  0.18205267288E+04  0.18205267288E+04  0.25500000920E-02 0.  1.
       -2   -1    0    0    0  501  0.00000000000E+00  0.00000000000E+00 -0.44563731610E+03  0.44563731611E+03  0.25500000920E-02 0. -1.
    10030    2    1    2    0    0  0.00000000000E+00  0.00000000000E+00  0.13748894127E+04  0.22661640449E+04  0.18014379205E+04 0.  0.
        2    1    3    3  502    0  0.32316730418E+03 -0.58709722490E+03  0.14445057713E+04  0.15923935384E+04  0.25500000920E-02 0.  1.
       -2    1    3    3    0  502 -0.32316730418E+03  0.58709722490E+03 -0.69616358615E+02  0.67377050645E+03  0.25500000920E-02 0. -1.
</event>
<event>
 5   0  0.1549012E-04  0.1810378E+04  0.7818609E-02  0.8700800E-01
        2   -1    0    0  501    0  0.00000000000E+00  0.00000000000E+00  0.18248967538E+04  0.18248967538E+04  0.25500000920E-02 0. -1.
       -2   -1    0    0    0  501  0.00000000000E+00  0.00000000000E+00 -0.44899377425E+03  0.44899377426E+03  0.25500000920E-02 0.  1.
    10030    2    1    2    0    0  0.00000000000E+00  0.00000000000E+00  0.13759029795E+04  0.22738905280E+04  0.18103781717E+04 0.  0.
        4    1    3    3  502    0  0.24149243295E+02 -0.57917459352E+03 -0.18527377008E+03  0.60856748066E+03  0.12699999809E+01 0.  1.
       -4    1    3    3    0  502 -0.24149243295E+02  0.57917459352E+03  0.15611767496E+04  0.16653230474E+04  0.12699999809E+01 0. -1.
</event>
<event>
 5   0  0.1603564E-04  0.1798296E+04  0.7818609E-02  0.8707206E-01
        2   -1    0    0  501    0  0.00000000000E+00  0.00000000000E+00  0.64781373944E+03  0.64781373945E+03  0.25500000920E-02 0. -1.
       -2   -1    0    0    0  501  0.00000000000E+00  0.00000000000E+00 -0.12479938200E+04  0.12479938200E+04  0.25500000920E-02 0.  1.
    10030    2    1    2    0    0  0.00000000000E+00  0.00000000000E+00 -0.60018008055E+03  0.18958075594E+04  0.17982964643E+04 0.  0.
        5    1    3    3  502    0 -0.49016402776E+03 -0.75104806083E+03 -0.23249224122E+03  0.92650347869E+03  0.46999998093E+01 0. -1.
       -5    1    3    3    0  502  0.49016402776E+03  0.75104806083E+03 -0.36768783933E+03  0.96930408076E+03  0.46999998093E+01 0.  1.
</event>
<event>
 5   0  0.1603564E-04  0.1803329E+04  0.7818609E-02  0.8704531E-01
       -2   -1    0    0    0  501  0.00000000000E+00  0.00000000000E+00  0.45223864923E+03  0.45223864924E+03  0.25500000920E-02 0.  1.
        2   -1    0    0  501    0  0.00000000000E+00  0.00000000000E+00 -0.17977212767E+04  0.17977212767E+04  0.25500000920E-02 0. -1.
    10030    2    1    2    0    0  0.00000000000E+00  0.00000000000E+00 -0.13454826274E+04  0.22499599259E+04  0.18033291900E+04 0.  0.
        5    1    3    3  502    0 -0.84661103243E+03 -0.12972469102E+03 -0.32117670988E+03  0.91474329987E+03  0.46999998093E+01 0.  1.
       -5    1    3    3    0  502  0.84661103243E+03  0.12972469102E+03 -0.10243059175E+04  0.13352166260E+04  0.46999998093E+01 0. -1.
</event>
<event>
 5   0  0.8254914E-05  0.1774987E+04  0.7818609E-02  0.8719715E-01
        1   -1    0    0  501    0  0.00000000000E+00  0.00000000000E+00  0.11854028906E+04  0.11854028906E+04  0.50400001928E-02 0. -1.
       -1   -1    0    0    0  501  0.00000000000E+00  0.00000000000E+00 -0.66445335374E+03  0.66445335376E+03  0.50400001928E-02 0.  1.
    10030    2    1    2    0    0  0.00000000000E+00  0.00000000000E+00  0.52094953683E+03  0.18498562443E+04  0.17749872407E+04 0.  0.
        4    1    3    3  502    0 -0.67082379434E+03  0.21940344409E+03  0.82122270956E+03  0.10828438419E+04  0.12699999809E+01 0. -1.
       -4    1    3    3    0  502  0.67082379434E+03 -0.21940344409E+03 -0.30027317273E+03  0.76701240244E+03  0.12699999809E+01 0.  1.
</event>
<event>
 5   0  0.8206783E-05  0.1802326E+04  0.7818609E-02  0.8705063E-01
        1   -1    0    0  501    0  0.00000000000E+00  0.00000000000E+00  0.13725585119E+04  0.13725585119E+04  0.50400001928E-02 0. -1.
       -1   -1    0    0    0  501  0.00000000000E+00  0.00000000000E+00 -0.59166517645E+03  0.59166517648E+03  0.50400001928E-02 0.  1.
    10030    2    1    2    0    0  0.00000000000E+00  0.00000000000E+00  0.78089333545E+03  0.19642236884E+04  0.18023263569E+04 0.  0.
        1    1    3    3  502    0 -0.51039322298E+02 -0.17304609442E+02  0.13708006749E+04  0.13718596693E+04  0.50400001928E-02 0. -1.
       -1    1    3    3    0  502  0.51039322298E+02  0.17304609442E+02 -0.58990733946E+03  0.59236401908E+03  0.50400001928E-02 0.  1.
</event>
<event>
 5   0  0.1628397E-04  0.1803929E+04  0.7818609E-02  0.8704213E-01
        2   -1    0    0  501    0  0.00000000000E+00  0.00000000000E+00  0.12812818825E+04  0.12812818825E+04  0.25500000920E-02 0.  1.
       -2   -1    0    0    0  501  0.00000000000E+00  0.00000000000E+00 -0.63494253225E+03  0.63494253226E+03  0.25500000920E-02 0. -1.
    10030    2    1    2    0    0  0.00000000000E+00  0.00000000000E+00  0.64633935021E+03  0.19162244147E+04  0.18039294476E+04 0.  0.
        3    1    3    3  502    0 -0.26696322618E+02 -0.87157690121E+03  0.78203253144E+02  0.87548543527E+03  0.10100000352E+00 0. -1.
       -3    1    3    3    0  502  0.26696322618E+02  0.87157690121E+03  0.56813609707E+03  0.10407389795E+04  0.10100000352E+00 0.  1.
</event>
<event>
 5   0  0.1573981E-04  0.1796026E+04  0.7818609E-02  0.8708416E-01
       -2   -1    0    0    0  501  0.00000000000E+00  0.00000000000E+00  0.51540677316E+03  0.51540677317E+03  0.25500000920E-02 0.  1.
        2   -1    0    0  501    0  0.00000000000E+00  0.00000000000E+00 -0.15646420528E+04  0.15646420528E+04  0.25500000920E-02 0. -1.
    10030    2    1    2    0    0  0.00000000000E+00  0.00000000000E+00 -0.10492352797E+04  0.20800488260E+04  0.17960257366E+04 0.  0.
        1    1    3    3  502    0  0.70524883302E+03  0.55262285825E+03 -0.45456050617E+03  0.10046856194E+04  0.50400001928E-02 0.  1.
       -1    1    3    3    0  502 -0.70524883302E+03 -0.55262285825E+03 -0.59467477351E+03  0.10753632067E+04  0.50400001928E-02 0. -1.
</event>
<event>
 5   0  0.1603564E-04  0.1818092E+04  0.7818609E-02  0.8696737E-01
        2   -1    0    0  501    0  0.00000000000E+00  0.00000000000E+00  0.39875424668E+03  0.39875424669E+03  0.25500000920E-02 0.  1.
       -2   -1    0    0    0  501  0.00000000000E+00  0.00000000000E+00 -0.20723661134E+04  0.20723661134E+04  0.25500000920E-02 0. -1.
    10030    2    1    2    0    0  0.00000000000E+00  0.00000000000E+00 -0.16736118667E+04  0.24711203601E+04  0.18180921741E+04 0.  0.
        5    1    3    3  502    0  0.27926534104E+03  0.26040326353E+03  0.28445325012E+03  0.47616670596E+03  0.46999998093E+01 0.  1.
       -5    1    3    3    0  502 -0.27926534104E+03 -0.26040326353E+03 -0.19580651168E+04  0.19949536541E+04  0.46999998093E+01 0. -1.
</event>
<event>
 5   0  0.8132598E-05  0.1785865E+04  0.7818609E-02  0.8713852E-01
        1   -1    0    0  501    0  0.00000000000E+00  0.00000000000E+00  0.20871381075E+04  0.20871381075E+04  0.50400001928E-02 0.  1.
       -1   -1    0    0    0  501  0.00000000000E+00  0.00000000000E+00 -0.38202010492E+03  0.38202010496E+03  0.50400001928E-02 0. -1.
    10030    2    1    2    0    0  0.00000000000E+00  0.00000000000E+00  0.17051180026E+04  0.24691582125E+04  0.17858653016E+04 0.  0.
        3    1    3    3  502    0 -0.29920138306E+03 -0.24229163070E+02 -0.31016742749E+03  0.43163915861E+03  0.10100000352E+00 0. -1.
       -3    1    3    3    0  502  0.29920138306E+03  0.24229163070E+02  0.20152854301E+04  0.20375190539E+04  0.10100000352E+00 0.  1.
</event>
<event>
 5   0  0.1608627E-04  0.1796634E+04  0.7818609E-02  0.8708092E-01
       -2   -1    0    0    0  501  0.00000000000E+00  0.00000000000E+00  0.41629327730E+03  0.41629327730E+03  0.25500000920E-02 0.  1.
        2   -1    0    0  501    0  0.00000000000E+00  0.00000000000E+00 -0.19384725412E+04  0.19384725412E+04  0.25500000920E-02 0. -1.
    10030    2    1    2    0    0  0.00000000000E+00  0.00000000000E+00 -0.15221792639E+04  0.23547658185E+04  0.17966336155E+04 0.  0.
        2    1    3    3  502    0 -0.28270679993E+03 -0.34299136440E+03 -0.17842456828E+04  0.18387764593E+04  0.25500000920E-02 0. -1.
       -2    1    3    3    0  502  0.28270679993E+03  0.34299136440E+03  0.26206641895E+03  0.51598935912E+03  0.25500000920E-02 0.  1.
</event>
<event>
 5   0  0.8206783E-05  0.1793676E+04  0.7818609E-02  0.8709670E-01
       -1   -1    0    0    0  501  0.00000000000E+00  0.00000000000E+00  0.61564276395E+03  0.61564276397E+03  0.50400001928E-02 0.  1.
        1   -1    0    0  501    0  0.00000000000E+00  0.00000000000E+00 -0.13064689438E+04  0.13064689438E+04  0.50400001928E-02 0. -1.
    10030    2    1    2    0    0  0.00000000000E+00  0.00000000000E+00 -0.69082617985E+03  0.19221117078E+04  0.17936757250E+04 0.  0.
        1    1    3    3  502    0 -0.80488585420E+03 -0.38336547825E+03 -0.44990321436E+03  0.99861065011E+03  0.50400001928E-02 0. -1.
       -1    1    3    3    0  502  0.80488585420E+03  0.38336547825E+03 -0.24092296549E+03  0.92350105768E+03  0.50400001928E-02 0.  1.
</event>
<event>
 5   0  0.1628397E-04  0.1774297E+04  0.7818609E-02  0.8720089E-01
        2   -1    0    0  501    0  0.00000000000E+00  0.00000000000E+00  0.26476530177E+04  0.26476530177E+04  0.25500000920E-02 0.  1.
       -2   -1    0    0    0  501  0.00000000000E+00  0.00000000000E+00 -0.29725666194E+03  0.29725666195E+03  0.25500000920E-02 0. -1.
    10030    2    1    2    0    0  0.00000000000E+00  0.00000000000E+00  0.23503963557E+04  0.29449096796E+04  0.17742970417E+04 0.  0.
        3    1    3    3  502    0 -0.84163432498E+03  0.50615521863E+02  0.71726577682E+03  0.11069690478E+04  0.10100000352E+00 0. -1.
       -3    1    3    3    0  502  0.84163432498E+03 -0.50615521863E+02  0.16331305789E+04  0.18379406318E+04  0.10100000352E+00 0.  1.
</event>
<event>
 5   0  0.1608627E-04  0.1797191E+04  0.7818609E-02  0.8707795E-01
        2   -1    0    0  501    0  0.00000000000E+00  0.00000000000E+00  0.84583785065E+03  0.84583785065E+03  0.25500000920E-02 0.  1.
       -2   -1    0    0    0  501  0.00000000000E+00  0.00000000000E+00 -0.95464382123E+03  0.95464382124E+03  0.25500000920E-02 0. -1.
    10030    2    1    2    0    0  0.00000000000E+00  0.00000000000E+00 -0.10880597058E+03  0.18004816719E+04  0.17971910059E+04 0.  0.
        2    1    3    3  502    0  0.52144720237E+03 -0.70553012090E+02 -0.78415209740E+03  0.94434073525E+03  0.25500000920E-02 0. -1.
       -2    1    3    3    0  502 -0.52144720237E+03  0.70553012090E+02  0.67534612682E+03  0.85614093664E+03  0.25500000920E-02 0.  1.
</event>
<event>
 5   0  0.8206783E-05  0.1782333E+04  0.7818609E-02  0.8715752E-01
       -1   -1    0    0    0  501  0.00000000000E+00  0.00000000000E+00  0.53658181633E+03  0.53658181636E+03  0.50400001928E-02 0.  1.
        1   -1    0    0  501    0  0.00000000000E+00  0.00000000000E+00 -0.14800678175E+04  0.14800678175E+04  0.50400001928E-02 0. -1.
    10030    2    1    2    0    0  0.00000000000E+00  0.00000000000E+00 -0.94348600115E+03  0.20166496338E+04  0.17823327162E+04 0.  0.
        1    1    3    3  502    0  0.32035195281E+03 -0.31834494214E+03 -0.13409924820E+04  0.14150016652E+04  0.50400001928E-02 0. -1.
       -1    1    3    3    0  502 -0.32035195281E+03  0.31834494214E+03  0.39750648081E+03  0.60164796864E+03  0.50400001928E-02 0.  1.
</event>
<event>
 5   0  0.1603564E-04  0.1813725E+04  0.7818609E-02  0.8699035E-01
        2   -1    0    0  501    0  0.00000000000E+00  0.00000000000E+00  0.10361835033E+04  0.10361835033E+04  0.25500000920E-02 0.  1.
       -2   -1    0    0    0  501  0.00000000000E+00  0.00000000000E+00 -0.79368133486E+03  0.79368133487E+03  0.25500000920E-02 0. -1.
    10030    2    1    2    0    0  0.00000000000E+00  0.00000000000E+00  0.24250216841E+03  0.18298648381E+04  0.18137249031E+04 0.  0.
        5    1    3    3  502    0  0.11549326337E+03  0.30157617397E+03 -0.73369198646E+03  0.80163140132E+03  0.46999998093E+01 0. -1.
       -5    1    3    3    0  502 -0.11549326337E+03 -0.30157617397E+03  0.97619415487E+03  0.10282334368E+04  0.46999998093E+01 0.  1.
</event>
<event>
 5   0  0.1608627E-04  0.1799616E+04  0.7818609E-02  0.8706504E-01
       -2   -1    0    0    0  501  0.00000000000E+00  0.00000000000E+00  0.57415999514E+03  0.57415999515E+03  0.25500000920E-02 0.  1.
        2   -1    0    0  501    0  0.00000000000E+00  0.00000000000E+00 -0.14101551808E+04  0.14101551808E+04  0.25500000920E-02 0. -1.
    10030    2    1    2    0    0  0.00000000000E+00  0.00000000000E+00 -0.83599518566E+03  0.19843151760E+04  0.17996162833E+04 0.  0.
        2    1    3    3  502    0  0.79857131510E+03 -0.73492294245E+02  0.31975627341E+02  0.80258314421E+03  0.25500000920E-02 0.  1.
       -2    1    3    3    0  502 -0.79857131510E+03  0.73492294245E+02 -0.86797081300E+03  0.11817320317E+04  0.25500000920E-02 0. -1.
</event>
<event>
 5   0  0.1603564E-04  0.1803334E+04  0.7818609E-02  0.8704529E-01
        2   -1    0    0  501    0  0.00000000000E+00  0.00000000000E+00  0.20440229804E+04  0.20440229804E+04  0.25500000920E-02 0. -1.
       -2   -1    0    0    0  501  0.00000000000E+00  0.00000000000E+00 -0.39774652095E+03  0.39774652096E+03  0.25500000920E-02 0.  1.
    10030    2    1    2    0    0  0.00000000000E+00  0.00000000000E+00  0.16462764594E+04  0.24417695013E+04  0.18033336122E+04 0.  0.
        5    1    3    3  502    0  0.46803941033E+03 -0.14789227749E+03  0.18472439554E+04  0.19113517039E+04  0.46999998093E+01 0. -1.
       -5    1    3    3    0  502 -0.46803941033E+03  0.14789227749E+03 -0.20096749598E+03  0.53041779740E+03  0.46999998093E+01 0.  1.
</event>
<event>
 5   0  0.8206783E-05  0.1801522E+04  0.7818609E-02  0.8705490E-01
        1   -1    0    0  501    0  0.00000000000E+00  0.00000000000E+00  0.16526876332E+04  0.16526876332E+04  0.50400001928E-02 0. -1.
       -1   -1    0    0    0  501  0.00000000000E+00  0.00000000000E+00 -0.49094018100E+03  0.49094018102E+03  0.50400001928E-02 0.  1.
    10030    2    1    2    0    0  0.00000000000E+00  0.00000000000E+00  0.11617474522E+04  0.21436278143E+04  0.18015224293E+04 0.  0.
        1    1    3    3  502    0  0.84557687082E+03  0.52397379460E+02  0.21678627647E+03  0.87449529417E+03  0.50400001928E-02 0.  1.
       -1    1    3    3    0  502 -0.84557687082E+03 -0.52397379460E+02  0.94496117576E+03  0.12691325201E+04  0.50400001928E-02 0. -1.
</event>
<event>
 5   0  0.1549012E-04  0.1786615E+04  0.7818609E-02  0.8713450E-01
        2   -1    0    0  501    0  0.00000000000E+00  0.00000000000E+00  0.11759047896E+04  0.11759047896E+04  0.25500000920E-02 0. -1.
       -2   -1    0    0    0  501  0.00000000000E+00  0.00000000000E+00 -0.67862463689E+03  0.67862463689E+03  0.25500000920E-02 0.  1.
    10030    2    1    2    0    0  0.00000000000E+00  0.00000000000E+00  0.49728015270E+03  0.18545294265E+04  0.17866146320E+04 0.  0.
        4    1    3    3  502    0  0.34580020096E+02 -0.18745225882E+03  0.11545479821E+04  0.11701780989E+04  0.12699999809E+01 0. -1.
       -4    1    3    3    0  502 -0.34580020096E+02  0.18745225882E+03 -0.65726782942E+03  0.68435132762E+03  0.12699999809E+01 0.  1.
</event>
<event>
 5   0  0.1628397E-04  0.1799374E+04  0.7818609E-02  0.8706632E-01
       -2   -1    0    0    0  501  0.00000000000E+00  0.00000000000E+00  0.54044246415E+03  0.54044246416E+03  0.25500000920E-02 0.  1.
        2   -1    0    0  501    0  0.00000000000E+00  0.00000000000E+00 -0.14977295204E+04  0.14977295204E+04  0.25500000920E-02 0. -1.
    10030    2    1    2    0    0  0.00000000000E+00  0.00000000000E+00 -0.95728705626E+03  0.20381719846E+04  0.17993739274E+04 0.  0.
        3    1    3    3  502    0 -0.14250377611E+03  0.54621109472E+03 -0.12721747943E+04  0.13917911495E+04  0.10100000352E+00 0. -1.
       -3    1    3    3    0  502  0.14250377611E+03 -0.54621109472E+03  0.31488773807E+03  0.64638083511E+03  0.10100000352E+00 0.  1.
</event>
<event>
 5   0  0.1603564E-04  0.1790522E+04  0.7818609E-02  0.8711356E-01
       -2   -1    0    0    0  501  0.00000000000E+00  0.00000000000E+00  0.56308609553E+03  0.56308609554E+03  0.25500000920E-02 0. -1.
        2   -1    0    0  501    0  0.00000000000E+00  0.00000000000E+00 -0.14233923562E+04  0.14233923562E+04  0.25500000920E-02 0.  1.
    10030    2    1    2    0    0  0.00000000000E+00  0.00000000000E+00 -0.86030626069E+03  0.19864784518E+04  0.17905222079E+04 0.  0.
        5    1    3    3  502    0 -0.39186573594E+03  0.71803329982E+03 -0.26554810137E+02  0.81844842391E+03  0.46999998093E+01 0. -1.
       -5    1    3    3    0  502  0.39186573594E+03 -0.71803329982E+03 -0.83375145055E+03  0.11680300278E+04  0.46999998093E+01 0.  1.
</event>
<event>
 5   0  0.1628397E-04  0.1797704E+04  0.7818609E-02  0.8707521E-01
        2   -1    0    0  501    0  0.00000000000E+00  0.00000000000E+00  0.18469025879E+04  0.18469025879E+04  0.25500000920E-02 0. -1.
       -2   -1    0    0    0  501  0.00000000000E+00  0.00000000000E+00 -0.43745394926E+03  0.43745394927E+03  0.25500000920E-02 0.  1.
    10030    2    1    2    0    0  0.00000000000E+00  0.00000000000E+00  0.14094486386E+04  0.22843565371E+04  0.17977039033E+04 0.  0.
        3    1    3    3  502    0  0.71399054823E+03 -0.16824446410E+03  0.44633314457E+02  0.73490192926E+03  0.10100000352E+00 0.  1.
       -3    1    3    3    0  502 -0.71399054823E+03  0.16824446410E+03  0.13648153242E+04  0.15494546079E+04  0.10100000352E+00 0. -1.
</event>
<event>
 5   0  0.8132598E-05  0.1797056E+04  0.7818609E-02  0.8707867E-01
       -1   -1    0    0    0  501  0.00000000000E+00  0.00000000000E+00  0.94873392870E+03  0.94873392872E+03  0.50400001928E-02 0. -1.
        1   -1    0    0  501    0  0.00000000000E+00  0.00000000000E+00 -0.85097886487E+03  0.85097886489E+03  0.50400001928E-02 0.  1.
    10030    2    1    2    0    0  0.00000000000E+00  0.00000000000E+00  0.97755063831E+02  0.17997127936E+04  0.17970559499E+04 0.  0.
        3    1    3    3  502    0  0.39018456351E+03 -0.46314237467E+03  0.71364173665E+03  0.93596441776E+03  0.10100000352E+00 0. -1.
       -3    1    3    3    0  502 -0.39018456351E+03  0.46314237467E+03 -0.61588667282E+03  0.86374837584E+03  0.10100000352E+00 0.  1.
</event>
<event>
 5   0  0.8132598E-05  0.1811344E+04  0.7818609E-02  0.8700290E-01
        1   -1    0    0  501    0  0.00000000000E+00  0.00000000000E+00  0.13630852065E+04  0.13630852065E+04  0.50400001928E-02 0. -1.
       -1   -1    0    0    0  501  0.00000000000E+00  0.00000000000E+00 -0.60175406899E+03  0.60175406901E+03  0.50400001928E-02 0.  1.
    10030    2    1    2    0    0  0.00000000000E+00  0.00000000000E+00  0.76133113751E+03  0.19648392755E+04  0.18113443289E+04 0.  0.
        3    1    3    3  502    0 -0.26278410710E+03  0.86576608102E+03  0.42453613355E+03  0.99941849737E+03  0.10100000352E+00 0.  1.
       -3    1    3    3    0  502  0.26278410710E+03 -0.86576608102E+03  0.33679500396E+03  0.96542077815E+03  0.10100000352E+00 0. -1.
</event>
<event>
 5   0  0.1549012E-04  0.1814306E+04  0.7818609E-02  0.8698728E-01
       -2   -1    0    0    0  501  0.00000000000E+00  0.00000000000E+00  0.53339761651E+03  0.53339761652E+03  0.25500000920E-02 0. -1.
        2   -1    0    0  501    0  0.00000000000E+00  0.00000000000E+00 -0.15428014745E+04  0.15428014745E+04  0.25500000920E-02 0.  1.
    10030    2    1    2    0    0  0.00000000000E+00  0.00000000000E+00 -0.10094038580E+04  0.20761990910E+04  0.18143060704E+04 0.  0.
        4    1    3    3  502    0  0.71397738990E+03  0.25878381661E+03  0.63098376981E+02  0.76204710820E+03  0.12699999809E+01 0. -1.
       -4    1    3    3    0  502 -0.71397738990E+03 -0.25878381661E+03 -0.10725022349E+04  0.13141519828E+04  0.12699999809E+01 0.  1.
</event>
<event>
 5   0  0.8430513E-05  0.1754993E+04  0.7818609E-02  0.8730607E-01
        1   -1    0    0  501    0  0.00000000000E+00  0.00000000000E+00  0.11929311400E+04  0.11929311400E+04  0.50400001928E-02 0.  1.
       -1   -1    0    0    0  501  0.00000000000E+00  0.00000000000E+00 -0.64546909502E+03  0.64546909504E+03  0.50400001928E-02 0. -1.
    10030    2    1    2    0    0  0.00000000000E+00  0.00000000000E+00  0.54746204493E+03  0.18384002350E+04  0.17549930864E+04 0.  0.
        5    1    3    3  502    0 -0.22817751918E+03 -0.16463761179E+03 -0.59691816864E+03  0.65992720320E+03  0.46999998093E+01 0. -1.
       -5    1    3    3    0  502  0.22817751918E+03  0.16463761179E+03  0.11443802136E+04  0.11784730318E+04  0.46999998093E+01 0.  1.
</event>
<event>
 5   0  0.8430513E-05  0.1830094E+04  0.7818609E-02  0.8690458E-01
        1   -1    0    0  501    0  0.00000000000E+00  0.00000000000E+00  0.68139154702E+03  0.68139154704E+03  0.50400001928E-02 0. -1.
       -1   -1    0    0    0  501  0.00000000000E+00  0.00000000000E+00 -0.12288248504E+04  0.12288248504E+04  0.50400001928E-02 0.  1.
    10030    2    1    2    0    0  0.00000000000E+00  0.00000000000E+00 -0.54743330334E+03  0.19102163974E+04  0.18300938400E+04 0.  0.
        5    1    3    3  502    0 -0.26441111548E+03  0.35670743910E+03 -0.11088293968E+04  0.11944363342E+04  0.46999998093E+01 0.  1.
       -5    1    3    3    0  502  0.26441111548E+03 -0.35670743910E+03  0.56139609351E+03  0.71578006322E+03  0.46999998093E+01 0. -1.
</event>
<event>
 5   0  0.5820500E-05  0.1839334E+04  0.7818609E-02  0.8685658E-01
        3   -1    0    0  501    0  0.00000000000E+00  0.00000000000E+00  0.10394754420E+04  0.10394754469E+04  0.10100000352E+00 0. -1.
       -3   -1    0    0    0  501  0.00000000000E+00  0.00000000000E+00 -0.81366709009E+03  0.81366709636E+03  0.10100000352E+00 0.  1.
    10030    2    1    2    0    0  0.00000000000E+00  0.00000000000E+00  0.22580835191E+03  0.18531425433E+04  0.18393335407E+04 0.  0.
        5    1    3    3  502    0 -0.89862628326E+03  0.12600742517E+03  0.26355203694E+03  0.94492795193E+03  0.46999998093E+01 0. -1.
       -5    1    3    3    0  502  0.89862628326E+03 -0.12600742517E+03 -0.37743685035E+02  0.90821459134E+03  0.46999998093E+01 0.  1.
</event>
<event>
 5   0  0.8132598E-05  0.1776073E+04  0.7818609E-02  0.8719128E-01
       -1   -1    0    0    0  501  0.00000000000E+00  0.00000000000E+00  0.42860862639E+03  0.42860862642E+03  0.50400001928E-02 0.  1.
        1   -1    0    0  501    0  0.00000000000E+00  0.00000000000E+00 -0.18399279933E+04  0.18399279933E+04  0.50400001928E-02 0. -1.
    10030    2    1    2    0    0  0.00000000000E+00  0.00000000000E+00 -0.14113193669E+04  0.22685366197E+04  0.17760732078E+04 0.  0.
        3    1    3    3  502    0 -0.69315150353E+03 -0.40044300212E+03 -0.21462136664E+03  0.82877979344E+03  0.10100000352E+00 0.  1.
       -3    1    3    3    0  502  0.69315150353E+03  0.40044300212E+03 -0.11966980003E+04  0.14397568263E+04  0.10100000352E+00 0. -1.
</event>
<event>
 5   0  0.1573981E-04  0.1814250E+04  0.7818609E-02  0.8698758E-01
        2   -1    0    0  501    0  0.00000000000E+00  0.00000000000E+00  0.17547079833E+04  0.17547079834E+04  0.25500000920E-02 0. -1.
       -2   -1    0    0    0  501  0.00000000000E+00  0.00000000000E+00 -0.46895314753E+03  0.46895314754E+03  0.25500000920E-02 0.  1.
    10030    2    1    2    0    0  0.00000000000E+00  0.00000000000E+00  0.12857548358E+04  0.22236611309E+04  0.18142500730E+04 0.  0.
        1    1    3    3  502    0  0.60194355532E+03 -0.26283397292E+03  0.14097338989E+04  0.15552386977E+04  0.50400001928E-02 0. -1.
       -1    1    3    3    0  502 -0.60194355532E+03  0.26283397292E+03 -0.12397906306E+03  0.66842243321E+03  0.50400001928E-02 0.  1.
</event>
<event>
 5   0  0.8492114E-05  0.1814463E+04  0.7818609E-02  0.8698646E-01
       -1   -1    0    0    0  501  0.00000000000E+00  0.00000000000E+00  0.55085232461E+03  0.55085232464E+03  0.50400001928E-02 0. -1.
        1   -1    0    0  501    0  0.00000000000E+00  0.00000000000E+00 -0.14941740238E+04  0.14941740238E+04  0.50400001928E-02 0.  1.
    10030    2    1    2    0    0  0.00000000000E+00  0.00000000000E+00 -0.94332169917E+03  0.20450263484E+04  0.18144632643E+04 0.  0.
        2    1    3    3  502    0 -0.45980440461E+03 -0.56987732958E+03  0.13202035718E+03  0.74404948490E+03  0.25500000920E-02 0. -1.
       -2    1    3    3    0  502  0.45980440461E+03  0.56987732958E+03 -0.10753420563E+04  0.13009768635E+04  0.25500000920E-02 0.  1.
</event>
<event>
 5   0  0.8132598E-05  0.1783057E+04  0.7818609E-02  0.8715362E-01
        1   -1    0    0  501    0  0.00000000000E+00  0.00000000000E+00  0.74641682677E+03  0.74641682678E+03  0.50400001928E-02 0.  1.
       -1   -1    0    0    0  501  0.00000000000E+00  0.00000000000E+00 -0.10648517163E+04  0.10648517163E+04  0.50400001928E-02 0. -1.
    10030    2    1    2    0    0  0.00000000000E+00  0.00000000000E+00 -0.31843488951E+03  0.18112685431E+04  0.17830571938E+04 0.  0.
        3    1    3    3  502    0  0.70303054388E+03  0.12802065237E+03  0.38230423806E+03  0.81043061005E+03  0.10100000352E+00 0.  1.
       -3    1    3    3    0  502 -0.70303054388E+03 -0.12802065237E+03 -0.70073912757E+03  0.10008379330E+04  0.10100000352E+00 0. -1.
</event>
<event>
 5   0  0.8492114E-05  0.1807221E+04  0.7818609E-02  0.8702469E-01
       -1   -1    0    0    0  501  0.00000000000E+00  0.00000000000E+00  0.86942591077E+03  0.86942591078E+03  0.50400001928E-02 0. -1.
        1   -1    0    0  501    0  0.00000000000E+00  0.00000000000E+00 -0.93913915837E+03  0.93913915839E+03  0.50400001928E-02 0.  1.
    10030    2    1    2    0    0  0.00000000000E+00  0.00000000000E+00 -0.69713247605E+02  0.18085650692E+04  0.18072209805E+04 0.  0.
        2    1    3    3  502    0 -0.35307955613E+03 -0.60750151804E+03 -0.60342409208E+03  0.92619863004E+03  0.25500000920E-02 0.  1.
       -2    1    3    3    0  502  0.35307955613E+03  0.60750151804E+03  0.53371084448E+03  0.88236643913E+03  0.25500000920E-02 0. -1.
</event>
<event>
 5   0  0.8132598E-05  0.1798727E+04  0.7818609E-02  0.8706977E-01
        1   -1    0    0  501    0  0.00000000000E+00  0.00000000000E+00  0.13345259701E+04  0.13345259702E+04  0.50400001928E-02 0. -1.
       -1   -1    0    0    0  501  0.00000000000E+00  0.00000000000E+00 -0.60609886625E+03  0.60609886627E+03  0.50400001928E-02 0.  1.
    10030    2    1    2    0    0  0.00000000000E+00  0.00000000000E+00  0.72842710389E+03  0.19406248364E+04  0.17987269693E+04 0.  0.
        3    1    3    3  502    0  0.31843831070E+03 -0.83216710934E+03  0.23229942865E+03  0.92079752951E+03  0.10100000352E+00 0.  1.
       -3    1    3    3    0  502 -0.31843831070E+03  0.83216710934E+03  0.49612767525E+03  0.10198273069E+04  0.10100000352E+00 0. -1.
</event>
<event>
 5   0  0.1603564E-04  0.1790663E+04  0.7818609E-02  0.8711281E-01
       -2   -1    0    0    0  501  0.00000000000E+00  0.00000000000E+00  0.86661503701E+03  0.86661503701E+03  0.25500000920E-02 0. -1.
        2   -1    0    0  501    0  0.00000000000E+00  0.00000000000E+00 -0.92499926367E+03  0.92499926367E+03  0.25500000920E-02 0.  1.
    10030    2    1    2    0    0  0.00000000000E+00  0.00000000000E+00 -0.58384226664E+02  0.17916143007E+04  0.17906627501E+04 0.  0.
        5    1    3    3  502    0  0.46625176993E+03  0.67644996420E+03  0.32683530344E+03  0.88420510776E+03  0.46999998093E+01 0. -1.
       -5    1    3    3    0  502 -0.46625176993E+03 -0.67644996420E+03 -0.38521953010E+03  0.90740919292E+03  0.46999998093E+01 0.  1.
</event>
<event>
 5   0  0.1573981E-04  0.1832845E+04  0.7818609E-02  0.8689025E-01
       -2   -1    0    0    0  501  0.00000000000E+00  0.00000000000E+00  0.80982202682E+03  0.80982202682E+03  0.25500000920E-02 0.  1.
        2   -1    0    0  501    0  0.00000000000E+00  0.00000000000E+00 -0.10370552381E+04  0.10370552381E+04  0.25500000920E-02 0. -1.
    10030    2    1    2    0    0  0.00000000000E+00  0.00000000000E+00 -0.22723321130E+03  0.18468772649E+04  0.18328449742E+04 0.  0.
        1    1    3    3  502    0 -0.53338452190E+03  0.52895594268E+03  0.41531809281E+03  0.85836038803E+03  0.50400001928E-02 0.  1.
       -1    1    3    3    0  502  0.53338452190E+03 -0.52895594268E+03 -0.64255130411E+03  0.98851687691E+03  0.50400001928E-02 0. -1.
</event>
<event>
 5   0  0.8206783E-05  0.1803499E+04  0.7818609E-02  0.8704441E-01
        1   -1    0    0  501    0  0.00000000000E+00  0.00000000000E+00  0.19704918609E+04  0.19704918609E+04  0.50400001928E-02 0.  1.
       -1   -1    0    0    0  501  0.00000000000E+00  0.00000000000E+00 -0.41266457107E+03  0.41266457110E+03  0.50400001928E-02 0. -1.
    10030    2    1    2    0    0  0.00000000000E+00  0.00000000000E+00  0.15578272898E+04  0.23831564320E+04  0.18034990198E+04 0.  0.
        1    1    3    3  502    0 -0.12045016248E+03  0.89306032595E+03  0.73534344052E+03  0.11630971425E+04  0.50400001928E-02 0. -1.
       -1    1    3    3    0  502  0.12045016248E+03 -0.89306032595E+03  0.82248384932E+03  0.12200592895E+04  0.50400001928E-02 0.  1.
</event>
<event>
 5   0  0.1608627E-04  0.1796853E+04  0.7818609E-02  0.8707975E-01
       -2   -1    0    0    0  501  0.00000000000E+00  0.00000000000E+00  0.11092074853E+04  0.11092074853E+04  0.25500000920E-02 0. -1.
        2   -1    0    0  501    0  0.00000000000E+00  0.00000000000E+00 -0.72770023784E+03  0.72770023784E+03  0.25500000920E-02 0.  1.
    10030    2    1    2    0    0  0.00000000000E+00  0.00000000000E+00  0.38150724749E+03  0.18369077232E+04  0.17968534174E+04 0.  0.
        2    1    3    3  502    0  0.21909972620E+03 -0.56438245460E+02 -0.69809951704E+03  0.73384800965E+03  0.25500000920E-02 0.  1.
       -2    1    3    3    0  502 -0.21909972620E+03  0.56438245460E+02  0.10796067645E+04  0.11030597135E+04  0.25500000920E-02 0. -1.
</event>
<event>
 5   0  0.1603564E-04  0.1810813E+04  0.7818609E-02  0.8700570E-01
       -2   -1    0    0    0  501  0.00000000000E+00  0.00000000000E+00  0.59779534084E+03  0.59779534085E+03  0.25500000920E-02 0.  1.
        2   -1    0    0  501    0  0.00000000000E+00  0.00000000000E+00 -0.13713066418E+04  0.13713066418E+04  0.25500000920E-02 0. -1.
    10030    2    1    2    0    0  0.00000000000E+00  0.00000000000E+00 -0.77351130093E+03  0.19691019826E+04  0.18108127693E+04 0.  0.
        5    1    3    3  502    0  0.39056882091E+03 -0.61164370002E+03 -0.97545377357E+03  0.12158059771E+04  0.46999998093E+01 0. -1.
       -5    1    3    3    0  502 -0.39056882091E+03  0.61164370002E+03  0.20194247264E+03  0.75329600550E+03  0.46999998093E+01 0.  1.
</event>
<event>
 5   0  0.8492114E-05  0.1803435E+04  0.7818609E-02  0.8704475E-01
        1   -1    0    0  501    0  0.00000000000E+00  0.00000000000E+00  0.91361703646E+03  0.91361703647E+03  0.50400001928E-02 0.  1.
       -1   -1    0    0    0  501  0.00000000000E+00  0.00000000000E+00 -0.88997336093E+03  0.88997336094E+03  0.50400001928E-02 0. -1.
    10030    2    1    2    0    0  0.00000000000E+00  0.00000000000E+00  0.23643675526E+02  0.18035903974E+04  0.18034354156E+04 0.  0.
        2    1    3    3  502    0  0.89746539513E+03  0.87374442925E+02  0.15871361273E+02  0.90184828483E+03  0.25500000920E-02 0. -1.
       -2    1    3    3    0  502 -0.89746539513E+03 -0.87374442925E+02  0.77723142530E+01  0.90174211259E+03  0.25500000920E-02 0.  1.
</event>
<event>
 5   0  0.1608627E-04  0.1620145E+04  0.7818609E-02  0.8808267E-01
        2   -1    0    0  501    0  0.00000000000E+00  0.00000000000E+00  0.72447709779E+03  0.72447709780E+03  0.25500000920E-02 0.  1.
       -2   -1    0    0    0  501  0.00000000000E+00  0.00000000000E+00 -0.90578062626E+03  0.90578062626E+03  0.25500000920E-02 0. -1.
    10030    2    1    2    0    0  0.00000000000E+00  0.00000000000E+00 -0.18130352847E+03  0.16302577241E+04  0.16201448322E+04 0.  0.
        2    1    3    3  502    0 -0.32772788485E+03  0.73258717635E+03  0.20161848901E+02  0.80280510563E+03  0.25500000920E-02 0. -1.
       -2    1    3    3    0  502  0.32772788485E+03 -0.73258717635E+03 -0.20146537737E+03  0.82745261843E+03  0.25500000920E-02 0.  1.
</event>
<event>
 5   0  0.1628397E-04  0.1806392E+04  0.7818609E-02  0.8702908E-01
        2   -1    0    0  501    0  0.00000000000E+00  0.00000000000E+00  0.11388113851E+04  0.11388113851E+04  0.25500000920E-02 0.  1.
       -2   -1    0    0    0  501  0.00000000000E+00  0.00000000000E+00 -0.71632825446E+03  0.71632825446E+03  0.25500000920E-02 0. -1.
    10030    2    1    2    0    0  0.00000000000E+00  0.00000000000E+00  0.42248313065E+03  0.18551396396E+04  0.18063917312E+04 0.  0.
        3    1    3    3  502    0 -0.50224472973E+03  0.14306812570E+03 -0.54556062470E+03  0.75521828802E+03  0.10100000352E+00 0. -1.
       -3    1    3    3    0  502  0.50224472973E+03 -0.14306812570E+03  0.96804375535E+03  0.10999213516E+04  0.10100000352E+00 0.  1.
</event>
<event>
 5   0  0.5820500E-05  0.1793918E+04  0.7818609E-02  0.8709540E-01
       -3   -1    0    0    0  501  0.00000000000E+00  0.00000000000E+00  0.95803573623E+03  0.95803574156E+03  0.10100000352E+00 0. -1.
        3   -1    0    0  501    0  0.00000000000E+00  0.00000000000E+00 -0.83977640087E+03  0.83977640694E+03  0.10100000352E+00 0.  1.
    10030    2    1    2    0    0  0.00000000000E+00  0.00000000000E+00  0.11825933537E+03  0.17978121485E+04  0.17939184070E+04 0.  0.
        1    1    3    3  502    0 -0.79548985522E+02  0.69836255397E+03  0.61756217187E+03  0.93563953211E+03  0.50400001928E-02 0. -1.
       -1    1    3    3    0  502  0.79548985522E+02 -0.69836255397E+03 -0.49930283651E+03  0.86217261639E+03  0.50400001928E-02 0.  1.
</event>
<event>
 5   0  0.8430513E-05  0.1778504E+04  0.7818609E-02  0.8717815E-01
       -1   -1    0    0    0  501  0.00000000000E+00  0.00000000000E+00  0.45507755300E+03  0.45507755303E+03  0.50400001928E-02 0.  1.
        1   -1    0    0  501    0  0.00000000000E+00  0.00000000000E+00 -0.17376569718E+04  0.17376569718E+04  0.50400001928E-02 0. -1.
    10030    2    1    2    0    0  0.00000000000E+00  0.00000000000E+00 -0.12825794188E+04  0.21927345248E+04  0.17785035088E+04 0.  0.
        5    1    3    3  502    0 -0.68460328310E+03  0.25483518188E+03 -0.16113261253E+02  0.73068758874E+03  0.46999998093E+01 0.  1.
       -5    1    3    3    0  502  0.68460328310E+03 -0.25483518188E+03 -0.12664661575E+04  0.14620469361E+04  0.46999998093E+01 0. -1.
</event>
<event>
 5   0  0.1573981E-04  0.1804772E+04  0.7818609E-02  0.8703766E-01
       -2   -1    0    0    0  501  0.00000000000E+00  0.00000000000E+00  0.55233646150E+03  0.55233646151E+03  0.25500000920E-02 0. -1.
        2   -1    0    0  501    0  0.00000000000E+00  0.00000000000E+00 -0.14742826404E+04  0.14742826404E+04  0.25500000920E-02 0.  1.
    10030    2    1    2    0    0  0.00000000000E+00  0.00000000000E+00 -0.92194617893E+03  0.20266191019E+04  0.18047715167E+04 0.  0.
        1    1    3    3  502    0 -0.23830759549E+03  0.26656173174E+02  0.51590456834E+03  0.56890999753E+03  0.50400001928E-02 0. -1.
       -1    1    3    3    0  502  0.23830759549E+03 -0.26656173174E+02 -0.14378507473E+04  0.14577091044E+04  0.50400001928E-02 0.  1.
</event>
<event>
 5   0  0.8254914E-05  0.1792632E+04  0.7818609E-02  0.8710227E-01
        1   -1    0    0  501    0  0.00000000000E+00  0.00000000000E+00  0.18341680620E+04  0.18341680620E+04  0.50400001928E-02 0.  1.
       -1   -1    0    0    0  501  0.00000000000E+00  0.00000000000E+00 -0.43800931378E+03  0.43800931380E+03  0.50400001928E-02 0. -1.
    10030    2    1    2    0    0  0.00000000000E+00  0.00000000000E+00  0.13961587482E+04  0.22721773758E+04  0.17926323597E+04 0.  0.
        4    1    3    3  502    0 -0.78030008521E+03  0.20757327919E+02  0.13968167568E+03  0.79297646438E+03  0.12699999809E+01 0. -1.
       -4    1    3    3    0  502  0.78030008521E+03 -0.20757327919E+02  0.12564770725E+04  0.14792009114E+04  0.12699999809E+01 0.  1.
</event>
<event>
 5   0  0.8492114E-05  0.1806899E+04  0.7818609E-02  0.8702639E-01
        1   -1    0    0  501    0  0.00000000000E+00  0.00000000000E+00  0.93929298963E+03  0.93929298965E+03  0.50400001928E-02 0. -1.
       -1   -1    0    0    0  501  0.00000000000E+00  0.00000000000E+00 -0.86897382266E+03  0.86897382268E+03  0.50400001928E-02 0.  1.
    10030    2    1    2    0    0  0.00000000000E+00  0.00000000000E+00  0.70319166968E+02  0.18082668123E+04  0.18068990230E+04 0.  0.
        2    1    3    3  502    0  0.56603504411E+03  0.10883680934E+03 -0.66105367601E+03  0.87705933938E+03  0.25500000920E-02 0.  1.
       -2    1    3    3    0  502 -0.56603504411E+03 -0.10883680934E+03  0.73137284297E+03  0.93120747295E+03  0.25500000920E-02 0. -1.
</event>
<event>
 5   0  0.1549012E-04  0.1800066E+04  0.7818609E-02  0.8706265E-01
        2   -1    0    0  501    0  0.00000000000E+00  0.00000000000E+00  0.18169922460E+04  0.18169922460E+04  0.25500000920E-02 0. -1.
       -2   -1    0    0    0  501  0.00000000000E+00  0.00000000000E+00 -0.44582413217E+03  0.44582413218E+03  0.25500000920E-02 0.  1.
    10030    2    1    2    0    0  0.00000000000E+00  0.00000000000E+00  0.13711681139E+04  0.22628163782E+04  0.18000655447E+04 0.  0.
        4    1    3    3  502    0 -0.62434288908E+03  0.17831375138E+03  0.14690728214E+04  0.16061682367E+04  0.12699999809E+01 0. -1.
       -4    1    3    3    0  502  0.62434288908E+03 -0.17831375138E+03 -0.97904707566E+02  0.65664814150E+03  0.12699999809E+01 0.  1.
</event>
<event>
 5   0  0.1608627E-04  0.1783088E+04  0.7818609E-02  0.8715345E-01
       -2   -1    0    0    0  501  0.00000000000E+00  0.00000000000E+00  0.90261979259E+03  0.90261979259E+03  0.25500000920E-02 0.  1.
        2   -1    0    0  501    0  0.00000000000E+00  0.00000000000E+00 -0.88060409489E+03  0.88060409489E+03  0.25500000920E-02 0. -1.
    10030    2    1    2    0    0  0.00000000000E+00  0.00000000000E+00  0.22015697706E+02  0.17832238875E+04  0.17830879793E+04 0.  0.
        2    1    3    3  502    0 -0.57005722356E+03  0.66055774400E+03 -0.17216973881E+03  0.88935043164E+03  0.25500000920E-02 0. -1.
       -2    1    3    3    0  502  0.57005722356E+03 -0.66055774400E+03  0.19418543652E+03  0.89387345584E+03  0.25500000920E-02 0.  1.
</event>
<event>
 5   0  0.1628397E-04  0.1793895E+04  0.7818609E-02  0.8709553E-01
       -2   -1    0    0    0  501  0.00000000000E+00  0.00000000000E+00  0.42292219888E+03  0.42292219889E+03  0.25500000920E-02 0. -1.
        2   -1    0    0  501    0  0.00000000000E+00  0.00000000000E+00 -0.19022754370E+04  0.19022754370E+04  0.25500000920E-02 0.  1.
    10030    2    1    2    0    0  0.00000000000E+00  0.00000000000E+00 -0.14793532381E+04  0.23251976359E+04  0.17938946577E+04 0.  0.
        3    1    3    3  502    0  0.51257815186E+03 -0.16852707487E+03 -0.16683885827E+04  0.17534703333E+04  0.10100000352E+00 0.  1.
       -3    1    3    3    0  502 -0.51257815186E+03  0.16852707487E+03  0.18903534464E+03  0.57172730252E+03  0.10100000352E+00 0. -1.
</event>
<event>
 5   0  0.5820500E-05  0.1716092E+04  0.7818609E-02  0.8752239E-01
        4   -1    0    0  501    0  0.00000000000E+00  0.00000000000E+00  0.86548786856E+03  0.86548880035E+03  0.12699999809E+01 0. -1.
       -4   -1    0    0    0  501  0.00000000000E+00  0.00000000000E+00 -0.85066613089E+03  0.85066707891E+03  0.12699999809E+01 0.  1.
    10030    2    1    2    0    0  0.00000000000E+00  0.00000000000E+00  0.14821737671E+02  0.17161558793E+04  0.17160918734E+04 0.  0.
        3    1    3    3  502    0  0.15238681410E+03  0.57357047305E+03 -0.61232023289E+03  0.85272557512E+03  0.10100000352E+00 0.  1.
       -3    1    3    3    0  502 -0.15238681410E+03 -0.57357047305E+03  0.62714197056E+03  0.86343030414E+03  0.10100000352E+00 0. -1.
</event>
<event>
 5   0  0.1549012E-04  0.1758297E+04  0.7818609E-02  0.8728797E-01
       -2   -1    0    0    0  501  0.00000000000E+00  0.00000000000E+00  0.10751423542E+04  0.10751423542E+04  0.25500000920E-02 0.  1.
        2   -1    0    0  501    0  0.00000000000E+00  0.00000000000E+00 -0.71888332797E+03  0.71888332797E+03  0.25500000920E-02 0. -1.
    10030    2    1    2    0    0  0.00000000000E+00  0.00000000000E+00  0.35625902628E+03  0.17940256822E+04  0.17582968051E+04 0.  0.
        4    1    3    3  502    0  0.33163971781E+02  0.61825346410E+02  0.10722805420E+04  0.10745740533E+04  0.12699999809E+01 0.  1.
       -4    1    3    3    0  502 -0.33163971781E+02 -0.61825346410E+02 -0.71602151569E+03  0.71945162890E+03  0.12699999809E+01 0. -1.
</event>
<event>
 5   0  0.1628397E-04  0.1776290E+04  0.7818609E-02  0.8719011E-01
        2   -1    0    0  501    0  0.00000000000E+00  0.00000000000E+00  0.20672842539E+04  0.20672842539E+04  0.25500000920E-02 0.  1.
       -2   -1    0    0    0  501  0.00000000000E+00  0.00000000000E+00 -0.38156425552E+03  0.38156425553E+03  0.25500000920E-02 0. -1.
    10030    2    1    2    0    0  0.00000000000E+00  0.00000000000E+00  0.16857199984E+04  0.24488485095E+04  0.17762902660E+04 0.  0.
        3    1    3    3  502    0 -0.51808766049E+03 -0.50499385960E+03  0.13267355564E+03  0.73555142903E+03  0.10100000352E+00 0. -1.
       -3    1    3    3    0  502  0.51808766049E+03  0.50499385960E+03  0.15530464428E+04  0.17132970804E+04  0.10100000352E+00 0.  1.
</event>
<event>
 5   0  0.8132598E-05  0.1807049E+04  0.7818609E-02  0.8702560E-01
        1   -1    0    0  501    0  0.00000000000E+00  0.00000000000E+00  0.12555963976E+04  0.12555963976E+04  0.50400001928E-02 0.  1.
       -1   -1    0    0    0  501  0.00000000000E+00  0.00000000000E+00 -0.65017419106E+03  0.65017419108E+03  0.50400001928E-02 0. -1.
    10030    2    1    2    0    0  0.00000000000E+00  0.00000000000E+00  0.60542220656E+03  0.19057705887E+04  0.18070488340E+04 0.  0.
        3    1    3    3  502    0  0.63052467128E+03  0.60142478789E+03  0.55468466978E+03  0.10329318611E+04  0.10100000352E+00 0.  1.
       -3    1    3    3    0  502 -0.63052467128E+03 -0.60142478789E+03  0.50737536782E+02  0.87283872761E+03  0.10100000352E+00 0. -1.
</event>
<event>
 5   0  0.1573981E-04  0.1791114E+04  0.7818609E-02  0.8711039E-01
        2   -1    0    0  501    0  0.00000000000E+00  0.00000000000E+00  0.12982609612E+04  0.12982609612E+04  0.25500000920E-02 0.  1.
       -2   -1    0    0    0  501  0.00000000000E+00  0.00000000000E+00 -0.61776655045E+03  0.61776655045E+03  0.25500000920E-02 0. -1.
    10030    2    1    2    0    0  0.00000000000E+00  0.00000000000E+00  0.68049441070E+03  0.19160275116E+04  0.17911138384E+04 0.  0.
        1    1    3    3  502    0  0.58431441573E+03 -0.67821890438E+03  0.31365436937E+03  0.94856907083E+03  0.50400001928E-02 0.  1.
       -1    1    3    3    0  502 -0.58431441573E+03  0.67821890438E+03  0.36684004134E+03  0.96745844078E+03  0.50400001928E-02 0. -1.
</event>
<event>
 5   0  0.8492114E-05  0.1806672E+04  0.7818609E-02  0.8702759E-01
        1   -1    0    0  501    0  0.00000000000E+00  0.00000000000E+00  0.76417865227E+03  0.76417865229E+03  0.50400001928E-02 0. -1.
       -1   -1    0    0    0  501  0.00000000000E+00  0.00000000000E+00 -0.10678344816E+04  0.10678344816E+04  0.50400001928E-02 0.  1.
    10030    2    1    2    0    0  0.00000000000E+00  0.00000000000E+00 -0.30365582932E+03  0.18320131339E+04  0.18066724274E+04 0.  0.
        2    1    3    3  502    0  0.72385305129E+03  0.17156622538E+03  0.36782276330E+03  0.82987456568E+03  0.25500000920E-02 0. -1.
       -2    1    3    3    0  502 -0.72385305129E+03 -0.17156622538E+03 -0.67147859262E+03  0.10021385682E+04  0.25500000920E-02 0.  1.
</event>
<event>
 5   0  0.8206783E-05  0.1798136E+04  0.7818609E-02  0.8707291E-01
        1   -1    0    0  501    0  0.00000000000E+00  0.00000000000E+00  0.60156632644E+03  0.60156632646E+03  0.50400001928E-02 0.  1.
       -1   -1    0    0    0  501  0.00000000000E+00  0.00000000000E+00 -0.13436976840E+04  0.13436976840E+04  0.50400001928E-02 0. -1.
    10030    2    1    2    0    0  0.00000000000E+00  0.00000000000E+00 -0.74213135753E+03  0.19452640104E+04  0.17981360122E+04 0.  0.
        1    1    3    3  502    0 -0.14434494102E+03 -0.61917983270E+03  0.31664009331E+03  0.71026760868E+03  0.50400001928E-02 0.  1.
       -1    1    3    3    0  502  0.14434494102E+03  0.61917983270E+03 -0.10587714508E+04  0.12349964018E+04  0.50400001928E-02 0. -1.
</event>
<event>
 5   0  0.1549012E-04  0.1786406E+04  0.7818609E-02  0.8713562E-01
        2   -1    0    0  501    0  0.00000000000E+00  0.00000000000E+00  0.14084654889E+04  0.14084654889E+04  0.25500000920E-02 0.  1.
       -2   -1    0    0    0  501  0.00000000000E+00  0.00000000000E+00 -0.56644034310E+03  0.56644034311E+03  0.25500000920E-02 0. -1.
    10030    2    1    2    0    0  0.00000000000E+00  0.00000000000E+00  0.84202514583E+03  0.19749058320E+04  0.17864060846E+04 0.  0.
        4    1    3    3  502    0  0.65659858410E+03  0.23177030084E+03  0.10394819128E+04  0.12511448489E+04  0.12699999809E+01 0. -1.
       -4    1    3    3    0  502 -0.65659858410E+03 -0.23177030084E+03 -0.19745676697E+03  0.72376098314E+03  0.12699999809E+01 0.  1.
</event>
<event>
 5   0  0.1549012E-04  0.1892599E+04  0.7818609E-02  0.8658549E-01
       -2   -1    0    0    0  501  0.00000000000E+00  0.00000000000E+00  0.88490489812E+03  0.88490489812E+03  0.25500000920E-02 0.  1.
        2   -1    0    0  501    0  0.00000000000E+00  0.00000000000E+00 -0.10119541132E+04  0.10119541132E+04  0.25500000920E-02 0. -1.
    10030    2    1    2    0    0  0.00000000000E+00  0.00000000000E+00 -0.12704921511E+03  0.18968590114E+04  0.18925994309E+04 0.  0.
        4    1    3    3  502    0  0.31194512899E+03 -0.29099671784E+02  0.83141562688E+03  0.88848754179E+03  0.12699999809E+01 0.  1.
       -4    1    3    3    0  502 -0.31194512899E+03  0.29099671784E+02 -0.95846484199E+03  0.10083714696E+04  0.12699999809E+01 0. -1.
</event>
<event>
 5   0  0.1549012E-04  0.1764730E+04  0.7818609E-02  0.8725284E-01
        2   -1    0    0  501    0  0.00000000000E+00  0.00000000000E+00  0.11881486108E+04  0.11881486108E+04  0.25500000920E-02 0. -1.
       -2   -1    0    0    0  501  0.00000000000E+00  0.00000000000E+00 -0.65527820458E+03  0.65527820459E+03  0.25500000920E-02 0.  1.
    10030    2    1    2    0    0  0.00000000000E+00  0.00000000000E+00  0.53287040620E+03  0.18434268154E+04  0.17647298813E+04 0.  0.
        4    1    3    3  502    0  0.13683767414E+03  0.63270074223E+03 -0.35991342845E+03  0.74065786106E+03  0.12699999809E+01 0.  1.
       -4    1    3    3    0  502 -0.13683767414E+03 -0.63270074223E+03  0.89278383465E+03  0.11027689543E+04  0.12699999809E+01 0. -1.
</event>
<event>
 5   0  0.8206783E-05  0.1787906E+04  0.7818609E-02  0.8712758E-01
        1   -1    0    0  501    0  0.00000000000E+00  0.00000000000E+00  0.86664378035E+03  0.86664378036E+03  0.50400001928E-02 0.  1.
       -1   -1    0    0    0  501  0.00000000000E+00  0.00000000000E+00 -0.92212268091E+03  0.92212268093E+03  0.50400001928E-02 0. -1.
    10030    2    1    2    0    0  0.00000000000E+00  0.00000000000E+00 -0.55478900564E+02  0.17887664613E+04  0.17879059105E+04 0.  0.
        1    1    3    3  502    0 -0.43541937577E+03 -0.48726354829E+03 -0.63806264782E+03  0.91331250997E+03  0.50400001928E-02 0. -1.
       -1    1    3    3    0  502  0.43541937577E+03  0.48726354829E+03  0.58258374726E+03  0.87545395132E+03  0.50400001928E-02 0.  1.
</event>
<event>
 5   0  0.1628397E-04  0.1812246E+04  0.7818609E-02  0.8699814E-01
       -2   -1    0    0    0  501  0.00000000000E+00  0.00000000000E+00  0.65477087922E+03  0.65477087923E+03  0.25500000920E-02 0.  1.
        2   -1    0    0  501    0  0.00000000000E+00  0.00000000000E+00 -0.12539641179E+04  0.12539641179E+04  0.25500000920E-02 0. -1.
    10030    2    1    2    0    0  0.00000000000E+00  0.00000000000E+00 -0.59919323864E+03  0.19087349971E+04  0.18122463276E+04 0.  0.
        3    1    3    3  502    0  0.20015420726E+03  0.35331105922E+02  0.63045247161E+03  0.66240495386E+03  0.10100000352E+00 0.  1.
       -3    1    3    3    0  502 -0.20015420726E+03 -0.35331105922E+02 -0.12296457103E+04  0.12463300432E+04  0.10100000352E+00 0. -1.
</event>
<event>
 5   0  0.1573981E-04  0.1792304E+04  0.7818609E-02  0.8710403E-01
        2   -1    0    0  501    0  0.00000000000E+00  0.00000000000E+00  0.17062323522E+04  0.17062323522E+04  0.25500000920E-02 0. -1.
       -2   -1    0    0    0  501  0.00000000000E+00  0.00000000000E+00 -0.47067940119E+03  0.47067940119E+03  0.25500000920E-02 0.  1.
    10030    2    1    2    0    0  0.00000000000E+00  0.00000000000E+00  0.12355529510E+04  0.21769117534E+04  0.17923040164E+04 0.  0.
        1    1    3    3  502    0  0.70283227723E+02  0.95481817073E+02 -0.46111169289E+03  0.47610975923E+03  0.50400001928E-02 0.  1.
       -1    1    3    3    0  502 -0.70283227723E+02 -0.95481817073E+02  0.16966646439E+04  0.17008019942E+04  0.50400001928E-02 0. -1.
</event>
<event>
 5   0  0.5820500E-05  0.1781147E+04  0.7818609E-02  0.8716390E-01
        4   -1    0    0  501    0  0.00000000000E+00  0.00000000000E+00  0.51798612473E+03  0.51798768162E+03  0.12699999809E+01 0. -1.
       -4   -1    0    0    0  501  0.00000000000E+00  0.00000000000E+00 -0.15311592894E+04  0.15311598161E+04  0.12699999809E+01 0.  1.
    10030    2    1    2    0    0  0.00000000000E+00  0.00000000000E+00 -0.10131731647E+04  0.20491474977E+04  0.17811472723E+04 0.  0.
        5    1    3    3  502    0 -0.16962158859E+03 -0.62328959515E+03 -0.12118862535E+04  0.13732995973E+04  0.46999998093E+01 0.  1.
       -5    1    3    3    0  502  0.16962158859E+03  0.62328959515E+03  0.19871308881E+03  0.67584790035E+03  0.46999998093E+01 0. -1.
</event>
<event>
 5   0  0.8206783E-05  0.1795935E+04  0.7818609E-02  0.8708464E-01
        1   -1    0    0  501    0  0.00000000000E+00  0.00000000000E+00  0.83039047423E+03  0.83039047425E+03  0.50400001928E-02 0.  1.
       -1   -1    0    0    0  501  0.00000000000E+00  0.00000000000E+00 -0.97104445808E+03  0.97104445809E+03  0.50400001928E-02 0. -1.
    10030    2    1    2    0    0  0.00000000000E+00  0.00000000000E+00 -0.14065398385E+03  0.18014349323E+04  0.17959354867E+04 0.  0.
        1    1    3    3  502    0  0.20039582380E+03 -0.86918814777E+03  0.33428361835E+02  0.89261636655E+03  0.50400001928E-02 0. -1.
       -1    1    3    3    0  502 -0.20039582380E+03  0.86918814777E+03 -0.17408234568E+03  0.90881856579E+03  0.50400001928E-02 0.  1.
</event>
<event>
 5   0  0.8492114E-05  0.1819445E+04  0.7818609E-02  0.8696026E-01
        1   -1    0    0  501    0  0.00000000000E+00  0.00000000000E+00  0.81994717153E+03  0.81994717154E+03  0.50400001928E-02 0.  1.
       -1   -1    0    0    0  501  0.00000000000E+00  0.00000000000E+00 -0.10093277393E+04  0.10093277394E+04  0.50400001928E-02 0. -1.
    10030    2    1    2    0    0  0.00000000000E+00  0.00000000000E+00 -0.18938056781E+03  0.18292749109E+04  0.18194454375E+04 0.  0.
        2    1    3    3  502    0 -0.75312183105E+02 -0.74867136305E+02 -0.10030748311E+04  0.10086803903E+04  0.25500000920E-02 0. -1.
       -2    1    3    3    0  502  0.75312183105E+02  0.74867136305E+02  0.81369426331E+03  0.82059452056E+03  0.25500000920E-02 0.  1.
</event>
<event>
 5   0  0.1628397E-04  0.1814497E+04  0.7818609E-02  0.8698628E-01
       -2   -1    0    0    0  501  0.00000000000E+00  0.00000000000E+00  0.59983144053E+03  0.59983144053E+03  0.25500000920E-02 0. -1.
        2   -1    0    0  501    0  0.00000000000E+00  0.00000000000E+00 -0.13722189457E+04  0.13722189457E+04  0.25500000920E-02 0.  1.
    10030    2    1    2    0    0  0.00000000000E+00  0.00000000000E+00 -0.77238750518E+03  0.19720503862E+04  0.18144972493E+04 0.  0.
        3    1    3    3  502    0 -0.79464704129E+03  0.34404069978E+03 -0.68038592361E+03  0.11012506248E+04  0.10100000352E+00 0.  1.
       -3    1    3    3    0  502  0.79464704129E+03 -0.34404069978E+03 -0.92001581579E+02  0.87079976146E+03  0.10100000352E+00 0. -1.
</event>
<event>
 5   0  0.8492114E-05  0.1793562E+04  0.7818609E-02  0.8709731E-01
       -1   -1    0    0    0  501  0.00000000000E+00  0.00000000000E+00  0.36131512688E+03  0.36131512691E+03  0.50400001928E-02 0. -1.
        1   -1    0    0  501    0  0.00000000000E+00  0.00000000000E+00 -0.22258027992E+04  0.22258027992E+04  0.50400001928E-02 0.  1.
    10030    2    1    2    0    0  0.00000000000E+00  0.00000000000E+00 -0.18644876724E+04  0.25871179261E+04  0.17935620657E+04 0.  0.
        2    1    3    3  502    0  0.56045870917E+03  0.41086418908E+03 -0.11462599012E+03  0.70431701965E+03  0.25500000920E-02 0. -1.
       -2    1    3    3    0  502 -0.56045870917E+03 -0.41086418908E+03 -0.17498616822E+04  0.18828009065E+04  0.25500000920E-02 0.  1.
</event>
<event>
 5   0  0.1549012E-04  0.1800361E+04  0.7818609E-02  0.8706108E-01
        2   -1    0    0  501    0  0.00000000000E+00  0.00000000000E+00  0.19013299998E+04  0.19013299998E+04  0.25500000920E-02 0. -1.
       -2   -1    0    0    0  501  0.00000000000E+00  0.00000000000E+00 -0.42618842420E+03  0.42618842421E+03  0.25500000920E-02 0.  1.
    10030    2    1    2    0    0  0.00000000000E+00  0.00000000000E+00  0.14751415756E+04  0.23275184240E+04  0.18003608933E+04 0.  0.
        4    1    3    3  502    0 -0.79454931790E+03  0.35880800842E+03  0.10274346837E+04  0.13474700173E+04  0.12699999809E+01 0. -1.
       -4    1    3    3    0  502  0.79454931790E+03 -0.35880800842E+03  0.44770689193E+03  0.98004840669E+03  0.12699999809E+01 0.  1.
</event>
<event>
 5   0  0.8132598E-05  0.1793513E+04  0.7818609E-02  0.8709757E-01
       -1   -1    0    0    0  501  0.00000000000E+00  0.00000000000E+00  0.90094798385E+03  0.90094798386E+03  0.50400001928E-02 0.  1.
        1   -1    0    0  501    0  0.00000000000E+00  0.00000000000E+00 -0.89258463181E+03  0.89258463183E+03  0.50400001928E-02 0. -1.
    10030    2    1    2    0    0  0.00000000000E+00  0.00000000000E+00  0.83633520367E+01  0.17935326157E+04  0.17935131162E+04 0.  0.
        3    1    3    3  502    0  0.19957102698E+03 -0.24838147125E+03 -0.83406986324E+03  0.89285748976E+03  0.10100000352E+00 0. -1.
       -3    1    3    3    0  502 -0.19957102698E+03  0.24838147125E+03  0.84243321527E+03  0.90067512593E+03  0.10100000352E+00 0.  1.
</event>
<event>
 5   0  0.8206783E-05  0.1836414E+04  0.7818609E-02  0.8687171E-01
       -1   -1    0    0    0  501  0.00000000000E+00  0.00000000000E+00  0.13526515026E+04  0.13526515026E+04  0.50400001928E-02 0.  1.
        1   -1    0    0  501    0  0.00000000000E+00  0.00000000000E+00 -0.62329714334E+03  0.62329714336E+03  0.50400001928E-02 0. -1.
    10030    2    1    2    0    0  0.00000000000E+00  0.00000000000E+00  0.72935435924E+03  0.19759486459E+04  0.18364136980E+04 0.  0.
        1    1    3    3  502    0  0.94154176835E+02 -0.85678792110E+03  0.70519330999E+03  0.11136642920E+04  0.50400001928E-02 0.  1.
       -1    1    3    3    0  502 -0.94154176835E+02  0.85678792110E+03  0.24161049244E+02  0.86228435396E+03  0.50400001928E-02 0. -1.
</event>
<event>
 5   0  0.1549012E-04  0.1888411E+04  0.7818609E-02  0.8660647E-01
        2   -1    0    0  501    0  0.00000000000E+00  0.00000000000E+00  0.13115566941E+04  0.13115566941E+04  0.25500000920E-02 0. -1.
       -2   -1    0    0    0  501  0.00000000000E+00  0.00000000000E+00 -0.67974459010E+03  0.67974459011E+03  0.25500000920E-02 0.  1.
    10030    2    1    2    0    0  0.00000000000E+00  0.00000000000E+00  0.63181210396E+03  0.19913012842E+04  0.18884105141E+04 0.  0.
        4    1    3    3  502    0 -0.47896401055E+03 -0.79006331827E+03  0.52123410766E+03  0.10607983683E+04  0.12699999809E+01 0. -1.
       -4    1    3    3    0  502  0.47896401055E+03  0.79006331827E+03  0.11057799629E+03  0.93050291587E+03  0.12699999809E+01 0.  1.
</event>
<event>
 5   0  0.1603564E-04  0.1798612E+04  0.7818609E-02  0.8707038E-01
        2   -1    0    0  501    0  0.00000000000E+00  0.00000000000E+00  0.21403528490E+04  0.21403528490E+04  0.25500000920E-02 0.  1.
       -2   -1    0    0    0  501  0.00000000000E+00  0.00000000000E+00 -0.37785871055E+03  0.37785871056E+03  0.25500000920E-02 0. -1.
    10030    2    1    2    0    0  0.00000000000E+00  0.00000000000E+00  0.17624941384E+04  0.25182115595E+04  0.17986116509E+04 0.  0.
        5    1    3    3  502    0 -0.10719978895E+03 -0.78377206641E+03  0.14800822210E+04  0.16782299955E+04  0.46999998093E+01 0.  1.
       -5    1    3    3    0  502  0.10719978895E+03  0.78377206641E+03  0.28241191741E+03  0.83998156404E+03  0.46999998093E+01 0. -1.
</event>
<event>
 5   0  0.8492114E-05  0.1807720E+04  0.7818609E-02  0.8702205E-01
        1   -1    0    0  501    0  0.00000000000E+00  0.00000000000E+00  0.61482940896E+03  0.61482940898E+03  0.50400001928E-02 0. -1.
       -1   -1    0    0    0  501  0.00000000000E+00  0.00000000000E+00 -0.13287639777E+04  0.13287639777E+04  0.50400001928E-02 0.  1.
    10030    2    1    2    0    0  0.00000000000E+00  0.00000000000E+00 -0.71393456874E+03  0.19435933867E+04  0.18077203004E+04 0.  0.
        2    1    3    3  502    0  0.11438754552E+03 -0.94922702309E+02  0.60159817881E+03  0.61968959870E+03  0.25500000920E-02 0. -1.
       -2    1    3    3    0  502 -0.11438754552E+03  0.94922702309E+02 -0.13155327475E+04  0.13239037880E+04  0.25500000920E-02 0.  1.
</event>
<event>
 5   0  0.8492114E-05  0.1801313E+04  0.7818609E-02  0.8705602E-01
       -1   -1    0    0    0  501  0.00000000000E+00  0.00000000000E+00  0.13576586229E+04  0.13576586229E+04  0.50400001928E-02 0. -1.
        1   -1    0    0  501    0  0.00000000000E+00  0.00000000000E+00 -0.59748576068E+03  0.59748576070E+03  0.50400001928E-02 0.  1.
    10030    2    1    2    0    0  0.00000000000E+00  0.00000000000E+00  0.76017286221E+03  0.19551443836E+04  0.18013125160E+04 0.  0.
        2    1    3    3  502    0  0.14168668490E+03  0.66380519279E+03  0.10226479660E+04  0.12274042990E+04  0.25500000920E-02 0. -1.
       -2    1    3    3    0  502 -0.14168668490E+03 -0.66380519279E+03 -0.26247510383E+03  0.72774008464E+03  0.25500000920E-02 0.  1.
</event>
<event>
 5   0  0.8206783E-05  0.1799074E+04  0.7818609E-02  0.8706792E-01
        1   -1    0    0  501    0  0.00000000000E+00  0.00000000000E+00  0.65155133579E+03  0.65155133581E+03  0.50400001928E-02 0.  1.
       -1   -1    0    0    0  501  0.00000000000E+00  0.00000000000E+00 -0.12419080528E+04  0.12419080528E+04  0.50400001928E-02 0. -1.
    10030    2    1    2    0    0  0.00000000000E+00  0.00000000000E+00 -0.59035671703E+03  0.18934593886E+04  0.17990740405E+04 0.  0.
        1    1    3    3  502    0 -0.29611586237E+03 -0.99222887857E+02  0.59266476984E+03  0.66991142315E+03  0.50400001928E-02 0.  1.
       -1    1    3    3    0  502  0.29611586237E+03  0.99222887857E+02 -0.11830214869E+04  0.12235479655E+04  0.50400001928E-02 0. -1.
</event>
<event>
 5   0  0.8430513E-05  0.1792847E+04  0.7818609E-02  0.8710113E-01
       -1   -1    0    0    0  501  0.00000000000E+00  0.00000000000E+00  0.73805746227E+03  0.73805746229E+03  0.50400001928E-02 0.  1.
        1   -1    0    0  501    0  0.00000000000E+00  0.00000000000E+00 -0.10887705582E+04  0.10887705582E+04  0.50400001928E-02 0. -1.
    10030    2    1    2    0    0  0.00000000000E+00  0.00000000000E+00 -0.35071309595E+03  0.18268280205E+04  0.17928471605E+04 0.  0.
        5    1    3    3  502    0  0.55044739924E+03  0.64841220897E+03  0.11306745973E+03  0.85804258200E+03  0.46999998093E+01 0.  1.
       -5    1    3    3    0  502 -0.55044739924E+03 -0.64841220897E+03 -0.46378055568E+03  0.96878543852E+03  0.46999998093E+01 0. -1.
</event>
<event>
 5   0  0.8132598E-05  0.1806313E+04  0.7818609E-02  0.8702949E-01
       -1   -1    0    0    0  501  0.00000000000E+00  0.00000000000E+00  0.77417508444E+03  0.77417508445E+03  0.50400001928E-02 0.  1.
        1   -1    0    0  501    0  0.00000000000E+00  0.00000000000E+00 -0.10536272851E+04  0.10536272851E+04  0.50400001928E-02 0. -1.
    10030    2    1    2    0    0  0.00000000000E+00  0.00000000000E+00 -0.27945220068E+03  0.18278023696E+04  0.18063133642E+04 0.  0.
        3    1    3    3  502    0  0.40023543925E+03  0.11350264467E+03  0.67144693351E+03  0.78988116315E+03  0.10100000352E+00 0.  1.
       -3    1    3    3    0  502 -0.40023543925E+03 -0.11350264467E+03 -0.95089913418E+03  0.10379212064E+04  0.10100000352E+00 0. -1.
</event>
<event>
 5   0  0.1573981E-04  0.1803916E+04  0.7818609E-02  0.8704220E-01
        2   -1    0    0  501    0  0.00000000000E+00  0.00000000000E+00  0.12753785078E+04  0.12753785078E+04  0.25500000920E-02 0.  1.
       -2   -1    0    0    0  501  0.00000000000E+00  0.00000000000E+00 -0.63787216097E+03  0.63787216098E+03  0.25500000920E-02 0. -1.
    10030    2    1    2    0    0  0.00000000000E+00  0.00000000000E+00  0.63750634681E+03  0.19132506688E+04  0.18039162340E+04 0.  0.
        1    1    3    3  502    0  0.45978697353E+03 -0.79588699277E+02 -0.49990409103E+03  0.68384393127E+03  0.50400001928E-02 0. -1.
       -1    1    3    3    0  502 -0.45978697353E+03  0.79588699277E+02  0.11374104378E+04  0.12294067375E+04  0.50400001928E-02 0.  1.
</event>
<event>
 5   0  0.8430513E-05  0.1801736E+04  0.7818609E-02  0.8705377E-01
       -1   -1    0    0    0  501  0.00000000000E+00  0.00000000000E+00  0.14877130258E+04  0.14877130258E+04  0.50400001928E-02 0. -1.
        1   -1    0    0  501    0  0.00000000000E+00  0.00000000000E+00 -0.54551037407E+03  0.54551037410E+03  0.50400001928E-02 0.  1.
    10030    2    1    2    0    0  0.00000000000E+00  0.00000000000E+00  0.94220265172E+03  0.20332233999E+04  0.18017357068E+04 0.  0.
        5    1    3    3  502    0  0.27268727598E+03 -0.63442118773E+03  0.11239564435E+04  0.13191469861E+04  0.46999998093E+01 0. -1.
       -5    1    3    3    0  502 -0.27268727598E+03  0.63442118773E+03 -0.18175379182E+03  0.71407641381E+03  0.46999998093E+01 0.  1.
</event>
<event>
 5   0  0.8206783E-05  0.1802506E+04  0.7818609E-02  0.8704968E-01
       -1   -1    0    0    0  501  0.00000000000E+00  0.00000000000E+00  0.10547296940E+04  0.10547296941E+04  0.50400001928E-02 0. -1.
        1   -1    0    0  501    0  0.00000000000E+00  0.00000000000E+00 -0.77010943389E+03  0.77010943390E+03  0.50400001928E-02 0.  1.
    10030    2    1    2    0    0  0.00000000000E+00  0.00000000000E+00  0.28462026016E+03  0.18248391280E+04  0.18025063524E+04 0.  0.
        1    1    3    3  502    0  0.39793512925E+03 -0.80829871748E+03  0.16622705158E+03  0.91614988756E+03  0.50400001928E-02 0.  1.
       -1    1    3    3    0  502 -0.39793512925E+03  0.80829871748E+03  0.11839320858E+03  0.90868924041E+03  0.50400001928E-02 0. -1.
</event>
<event>
 5   0  0.8132598E-05  0.1786624E+04  0.7818609E-02  0.8713445E-01
       -1   -1    0    0    0  501  0.00000000000E+00  0.00000000000E+00  0.66982151093E+03  0.66982151095E+03  0.50400001928E-02 0. -1.
        1   -1    0    0  501    0  0.00000000000E+00  0.00000000000E+00 -0.11913713651E+04  0.11913713651E+04  0.50400001928E-02 0.  1.
    10030    2    1    2    0    0  0.00000000000E+00  0.00000000000E+00 -0.52154985414E+03  0.18611928760E+04  0.17866238192E+04 0.  0.
        3    1    3    3  502    0  0.77302083278E+03  0.81741268896E+02 -0.71933267889E+03  0.10590950647E+04  0.10100000352E+00 0. -1.
       -3    1    3    3    0  502 -0.77302083278E+03 -0.81741268896E+02  0.19778282475E+03  0.80209781132E+03  0.10100000352E+00 0.  1.
</event>
<event>
 5   0  0.8254914E-05  0.1786286E+04  0.7818609E-02  0.8713627E-01
       -1   -1    0    0    0  501  0.00000000000E+00  0.00000000000E+00  0.83385092378E+03  0.83385092380E+03  0.50400001928E-02 0.  1.
        1   -1    0    0  501    0  0.00000000000E+00  0.00000000000E+00 -0.95665087153E+03  0.95665087155E+03  0.50400001928E-02 0. -1.
    10030    2    1    2    0    0  0.00000000000E+00  0.00000000000E+00 -0.12279994775E+03  0.17905017953E+04  0.17862857700E+04 0.  0.
        4    1    3    3  502    0 -0.39780885026E+03  0.36238170659E+02  0.73932054976E+03  0.84033420408E+03  0.12699999809E+01 0.  1.
       -4    1    3    3    0  502  0.39780885026E+03 -0.36238170659E+02 -0.86212049751E+03  0.95016759126E+03  0.12699999809E+01 0. -1.
</event>
<event>
 5   0  0.8132598E-05  0.1686288E+04  0.7818609E-02  0.8769223E-01
        1   -1    0    0  501    0  0.00000000000E+00  0.00000000000E+00  0.98303676842E+03  0.98303676844E+03  0.50400001928E-02 0. -1.
       -1   -1    0    0    0  501  0.00000000000E+00  0.00000000000E+00 -0.72315932993E+03  0.72315932994E+03  0.50400001928E-02 0.  1.
    10030    2    1    2    0    0  0.00000000000E+00  0.00000000000E+00  0.25987743850E+03  0.17061960984E+04  0.16862884816E+04 0.  0.
        3    1    3    3  502    0  0.14404372275E+03 -0.75160731480E+03  0.48799504391E+03  0.90763501629E+03  0.10100000352E+00 0. -1.
       -3    1    3    3    0  502 -0.14404372275E+03  0.75160731480E+03 -0.22811760542E+03  0.79856108208E+03  0.10100000352E+00 0.  1.
</event>
<event>
 5   0  0.1573981E-04  0.1827343E+04  0.7818609E-02  0.8691893E-01
       -2   -1    0    0    0  501  0.00000000000E+00  0.00000000000E+00  0.13684173393E+04  0.13684173393E+04  0.25500000920E-02 0. -1.
        2   -1    0    0  501    0  0.00000000000E+00  0.00000000000E+00 -0.61004440049E+03  0.61004440049E+03  0.25500000920E-02 0.  1.
    10030    2    1    2    0    0  0.00000000000E+00  0.00000000000E+00  0.75837293878E+03  0.19784617398E+04  0.18273426995E+04 0.  0.
        1    1    3    3  502    0 -0.37516349543E+03 -0.81670969900E+03  0.55720057271E+03  0.10574662448E+04  0.50400001928E-02 0.  1.
       -1    1    3    3    0  502  0.37516349543E+03  0.81670969900E+03  0.20117236607E+03  0.92099549491E+03  0.50400001928E-02 0. -1.
</event>
<event>
 5   0  0.1628397E-04  0.1805398E+04  0.7818609E-02  0.8703434E-01
       -2   -1    0    0    0  501  0.00000000000E+00  0.00000000000E+00  0.38860492485E+03  0.38860492486E+03  0.25500000920E-02 0. -1.
        2   -1    0    0  501    0  0.00000000000E+00  0.00000000000E+00 -0.20969001660E+04  0.20969001660E+04  0.25500000920E-02 0.  1.
    10030    2    1    2    0    0  0.00000000000E+00  0.00000000000E+00 -0.17082952411E+04  0.24855050908E+04  0.18053982734E+04 0.  0.
        3    1    3    3  502    0 -0.35363050656E+03  0.51135930448E+03  0.46857491130E+02  0.62348897995E+03  0.10100000352E+00 0. -1.
       -3    1    3    3    0  502  0.35363050656E+03 -0.51135930448E+03 -0.17551527323E+04  0.18620161109E+04  0.10100000352E+00 0.  1.
</event>
<event>
 5   0  0.8132598E-05  0.1765919E+04  0.7818609E-02  0.8724636E-01
       -1   -1    0    0    0  501  0.00000000000E+00  0.00000000000E+00  0.11954388760E+04  0.11954388760E+04  0.50400001928E-02 0.  1.
        1   -1    0    0  501    0  0.00000000000E+00  0.00000000000E+00 -0.65216001462E+03  0.65216001464E+03  0.50400001928E-02 0. -1.
    10030    2    1    2    0    0  0.00000000000E+00  0.00000000000E+00  0.54327886136E+03  0.18475988906E+04  0.17659189504E+04 0.  0.
        3    1    3    3  502    0 -0.10990405820E+03  0.15011937293E+03 -0.63141899301E+03  0.65825882681E+03  0.10100000352E+00 0. -1.
       -3    1    3    3    0  502  0.10990405820E+03 -0.15011937293E+03  0.11746978544E+04  0.11893400638E+04  0.10100000352E+00 0.  1.
</event>
<event>
 5   0  0.1603564E-04  0.1815394E+04  0.7818609E-02  0.8698156E-01
        2   -1    0    0  501    0  0.00000000000E+00  0.00000000000E+00  0.20828651921E+04  0.20828651921E+04  0.25500000920E-02 0.  1.
       -2   -1    0    0    0  501  0.00000000000E+00  0.00000000000E+00 -0.39556762881E+03  0.39556762882E+03  0.25500000920E-02 0. -1.
    10030    2    1    2    0    0  0.00000000000E+00  0.00000000000E+00  0.16872975632E+04  0.24784328209E+04  0.18153942218E+04 0.  0.
        5    1    3    3  502    0 -0.67014159319E+03  0.58193366083E+03  0.11032417210E+04  0.14159452410E+04  0.46999998093E+01 0.  1.
       -5    1    3    3    0  502  0.67014159319E+03 -0.58193366083E+03  0.58405584220E+03  0.10624875799E+04  0.46999998093E+01 0. -1.
</event>
<event>
 5   0  0.8254914E-05  0.1804951E+04  0.7818609E-02  0.8703671E-01
        1   -1    0    0  501    0  0.00000000000E+00  0.00000000000E+00  0.21097768542E+04  0.21097768542E+04  0.50400001928E-02 0. -1.
       -1   -1    0    0    0  501  0.00000000000E+00  0.00000000000E+00 -0.38604173792E+03  0.38604173795E+03  0.50400001928E-02 0.  1.
    10030    2    1    2    0    0  0.00000000000E+00  0.00000000000E+00  0.17237351163E+04  0.24958185922E+04  0.18049508841E+04 0.  0.
        4    1    3    3  502    0 -0.71883919203E+03  0.17793897817E+03  0.14861366484E+03  0.75530106463E+03  0.12699999809E+01 0.  1.
       -4    1    3    3    0  502  0.71883919203E+03 -0.17793897817E+03  0.15751214514E+04  0.17405175275E+04  0.12699999809E+01 0. -1.
</event>
<event>
 5   0  0.8492114E-05  0.1813038E+04  0.7818609E-02  0.8699397E-01
        1   -1    0    0  501    0  0.00000000000E+00  0.00000000000E+00  0.20005230474E+04  0.20005230474E+04  0.50400001928E-02 0. -1.
       -1   -1    0    0    0  501  0.00000000000E+00  0.00000000000E+00 -0.41078072699E+03  0.41078072702E+03  0.50400001928E-02 0.  1.
    10030    2    1    2    0    0  0.00000000000E+00  0.00000000000E+00  0.15897423204E+04  0.24113037745E+04  0.18130375747E+04 0.  0.
        2    1    3    3  502    0  0.60096753491E+03 -0.61394154191E+02  0.16938088774E+04  0.17983102439E+04  0.25500000920E-02 0. -1.
       -2    1    3    3    0  502 -0.60096753491E+03  0.61394154191E+02 -0.10406655698E+03  0.61299353053E+03  0.25500000920E-02 0.  1.
</event>
<event>
 5   0  0.8206783E-05  0.1806836E+04  0.7818609E-02  0.8702672E-01
       -1   -1    0    0    0  501  0.00000000000E+00  0.00000000000E+00  0.38610171265E+03  0.38610171268E+03  0.50400001928E-02 0. -1.
        1   -1    0    0  501    0  0.00000000000E+00  0.00000000000E+00 -0.21138583783E+04  0.21138583783E+04  0.50400001928E-02 0.  1.
    10030    2    1    2    0    0  0.00000000000E+00  0.00000000000E+00 -0.17277566657E+04  0.24999600910E+04  0.18068362850E+04 0.  0.
        1    1    3    3  502    0  0.76044686999E+02  0.78752900213E+03 -0.14672657592E+04  0.16669893616E+04  0.50400001928E-02 0.  1.
       -1    1    3    3    0  502 -0.76044686999E+02 -0.78752900213E+03 -0.26049090645E+03  0.83297072937E+03  0.50400001928E-02 0. -1.
</event>
<event>
 5   0  0.8430513E-05  0.1797043E+04  0.7818609E-02  0.8707873E-01
       -1   -1    0    0    0  501  0.00000000000E+00  0.00000000000E+00  0.10085191223E+04  0.10085191223E+04  0.50400001928E-02 0.  1.
        1   -1    0    0  501    0  0.00000000000E+00  0.00000000000E+00 -0.80052128387E+03  0.80052128388E+03  0.50400001928E-02 0. -1.
    10030    2    1    2    0    0  0.00000000000E+00  0.00000000000E+00  0.20799783843E+03  0.18090404062E+04  0.17970431521E+04 0.  0.
        5    1    3    3  502    0 -0.85466413716E+03  0.81842196473E+02  0.37066360126E+03  0.93518047871E+03  0.46999998093E+01 0.  1.
       -5    1    3    3    0  502  0.85466413716E+03 -0.81842196473E+02 -0.16266576283E+03  0.87385992748E+03  0.46999998093E+01 0. -1.
</event>
<event>
 5   0  0.1603564E-04  0.1786807E+04  0.7818609E-02  0.8713347E-01
       -2   -1    0    0    0  501  0.00000000000E+00  0.00000000000E+00  0.16217279453E+04  0.16217279453E+04  0.25500000920E-02 0.  1.
        2   -1    0    0  501    0  0.00000000000E+00  0.00000000000E+00 -0.49217238927E+03  0.49217238927E+03  0.25500000920E-02 0. -1.
    10030    2    1    2    0    0  0.00000000000E+00  0.00000000000E+00  0.11295555560E+04  0.21139003345E+04  0.17868068923E+04 0.  0.
        5    1    3    3  502    0  0.11331851245E+03  0.48388176343E+03 -0.31353195770E+03  0.58762830491E+03  0.46999998093E+01 0. -1.
       -5    1    3    3    0  502 -0.11331851245E+03 -0.48388176343E+03  0.14430875137E+04  0.15262720296E+04  0.46999998093E+01 0.  1.
</event>
<event>
 5   0  0.1549012E-04  0.1792139E+04  0.7818609E-02  0.8710491E-01
       -2   -1    0    0    0  501  0.00000000000E+00  0.00000000000E+00  0.60921867391E+03  0.60921867392E+03  0.25500000920E-02 0. -1.
        2   -1    0    0  501    0  0.00000000000E+00  0.00000000000E+00 -0.13179838637E+04  0.13179838637E+04  0.25500000920E-02 0.  1.
    10030    2    1    2    0    0  0.00000000000E+00  0.00000000000E+00 -0.70876518979E+03  0.19272025376E+04  0.17921388135E+04 0.  0.
        4    1    3    3  502    0  0.42340522850E+03 -0.29920198024E+02  0.49425076496E+03  0.65150029727E+03  0.12699999809E+01 0. -1.
       -4    1    3    3    0  502 -0.42340522850E+03  0.29920198024E+02 -0.12030159548E+04  0.12757022404E+04  0.12699999809E+01 0.  1.
</event>
<event>
 5   0  0.8430513E-05  0.1796664E+04  0.7818609E-02  0.8708076E-01
       -1   -1    0    0    0  501  0.00000000000E+00  0.00000000000E+00  0.76956424547E+03  0.76956424548E+03  0.50400001928E-02 0.  1.
        1   -1    0    0  501    0  0.00000000000E+00  0.00000000000E+00 -0.10486457333E+04  0.10486457333E+04  0.50400001928E-02 0. -1.
    10030    2    1    2    0    0  0.00000000000E+00  0.00000000000E+00 -0.27908148782E+03  0.18182099788E+04  0.17966638668E+04 0.  0.
        5    1    3    3  502    0  0.65736406413E+03 -0.49693260293E+03 -0.50147288941E+03  0.96465883787E+03  0.46999998093E+01 0. -1.
       -5    1    3    3    0  502 -0.65736406413E+03  0.49693260293E+03  0.22239140159E+03  0.85355114092E+03  0.46999998093E+01 0.  1.
</event>
<event>
 5   0  0.5820500E-05  0.1725189E+04  0.7818609E-02  0.8747127E-01
       -3   -1    0    0    0  501  0.00000000000E+00  0.00000000000E+00  0.86138110514E+03  0.86138111106E+03  0.10100000352E+00 0. -1.
        3   -1    0    0  501    0  0.00000000000E+00  0.00000000000E+00 -0.86380974705E+03  0.86380975295E+03  0.10100000352E+00 0.  1.
    10030    2    1    2    0    0  0.00000000000E+00  0.00000000000E+00 -0.24286419093E+01  0.17251908640E+04  0.17251891545E+04 0.  0.
        3    1    3    3  502    0 -0.14517416062E+03 -0.49721851577E+03 -0.69097409658E+03  0.86356644312E+03  0.10100000352E+00 0.  1.
       -3    1    3    3    0  502  0.14517416062E+03  0.49721851577E+03  0.68854545467E+03  0.86162442090E+03  0.10100000352E+00 0. -1.
</event>
<event>
 5   0  0.1573981E-04  0.1801418E+04  0.7818609E-02  0.8705546E-01
        2   -1    0    0  501    0  0.00000000000E+00  0.00000000000E+00  0.12209415402E+04  0.12209415402E+04  0.25500000920E-02 0.  1.
       -2   -1    0    0    0  501  0.00000000000E+00  0.00000000000E+00 -0.66446779133E+03  0.66446779134E+03  0.25500000920E-02 0. -1.
    10030    2    1    2    0    0  0.00000000000E+00  0.00000000000E+00  0.55647374890E+03  0.18854093316E+04  0.18014175847E+04 0.  0.
        1    1    3    3  502    0 -0.33325479262E+03  0.72962652682E+03  0.70705028670E+03  0.10692678492E+04  0.50400001928E-02 0. -1.
       -1    1    3    3    0  502  0.33325479262E+03 -0.72962652682E+03 -0.15057653780E+03  0.81614148235E+03  0.50400001928E-02 0.  1.
</event>
<event>
 5   0  0.1549012E-04  0.1792950E+04  0.7818609E-02  0.8710058E-01
       -2   -1    0    0    0  501  0.00000000000E+00  0.00000000000E+00  0.73944648599E+03  0.73944648600E+03  0.25500000920E-02 0. -1.
        2   -1    0    0  501    0  0.00000000000E+00  0.00000000000E+00 -0.10868494998E+04  0.10868494998E+04  0.25500000920E-02 0.  1.
    10030    2    1    2    0    0  0.00000000000E+00  0.00000000000E+00 -0.34740301383E+03  0.18262959858E+04  0.17929495737E+04 0.  0.
        4    1    3    3  502    0 -0.66234072354E+03  0.58046420437E+03 -0.34424151875E+03  0.94558858006E+03  0.12699999809E+01 0.  1.
       -4    1    3    3    0  502  0.66234072354E+03 -0.58046420437E+03 -0.31614950818E+01  0.88070740576E+03  0.12699999809E+01 0. -1.
</event>
<event>
 5   0  0.1549012E-04  0.1800698E+04  0.7818609E-02  0.8705929E-01
        2   -1    0    0  501    0  0.00000000000E+00  0.00000000000E+00  0.12706063288E+04  0.12706063288E+04  0.25500000920E-02 0. -1.
       -2   -1    0    0    0  501  0.00000000000E+00  0.00000000000E+00 -0.63798511628E+03  0.63798511628E+03  0.25500000920E-02 0.  1.
    10030    2    1    2    0    0  0.00000000000E+00  0.00000000000E+00  0.63262121251E+03  0.19085914451E+04  0.18006975609E+04 0.  0.
        4    1    3    3  502    0  0.12534641811E+02 -0.70655797212E+03  0.90763174969E+03  0.11502948714E+04  0.12699999809E+01 0. -1.
       -4    1    3    3    0  502 -0.12534641811E+02  0.70655797212E+03 -0.27501053718E+03  0.75829657369E+03  0.12699999809E+01 0.  1.
</event>
<event>
 5   0  0.8206783E-05  0.1801858E+04  0.7818609E-02  0.8705312E-01
       -1   -1    0    0    0  501  0.00000000000E+00  0.00000000000E+00  0.63809479778E+03  0.63809479780E+03  0.50400001928E-02 0. -1.
        1   -1    0    0  501    0  0.00000000000E+00  0.00000000000E+00 -0.12720255966E+04  0.12720255966E+04  0.50400001928E-02 0.  1.
    10030    2    1    2    0    0  0.00000000000E+00  0.00000000000E+00 -0.63393079880E+03  0.19101203944E+04  0.18018578366E+04 0.  0.
        1    1    3    3  502    0  0.79174784759E+02 -0.81426394875E+03  0.83036829753E+02  0.82230744853E+03  0.50400001928E-02 0. -1.
       -1    1    3    3    0  502 -0.79174784759E+02  0.81426394875E+03 -0.71696762856E+03  0.10878129459E+04  0.50400001928E-02 0.  1.
</event>
<event>
 5   0  0.8132598E-05  0.1796059E+04  0.7818609E-02  0.8708398E-01
        1   -1    0    0  501    0  0.00000000000E+00  0.00000000000E+00  0.22694574029E+04  0.22694574029E+04  0.50400001928E-02 0. -1.
       -1   -1    0    0    0  501  0.00000000000E+00  0.00000000000E+00 -0.35535245164E+03  0.35535245168E+03  0.50400001928E-02 0.  1.
    10030    2    1    2    0    0  0.00000000000E+00  0.00000000000E+00  0.19141049512E+04  0.26248098545E+04  0.17960592998E+04 0.  0.
        3    1    3    3  502    0  0.29459514230E+03 -0.79423851461E+03  0.52141938276E+03  0.99472574053E+03  0.10100000352E+00 0.  1.
       -3    1    3    3    0  502 -0.29459514230E+03  0.79423851461E+03  0.13926855685E+04  0.16300841140E+04  0.10100000352E+00 0. -1.
</event>
<event>
 5   0  0.8132598E-05  0.1803047E+04  0.7818609E-02  0.8704681E-01
       -1   -1    0    0    0  501  0.00000000000E+00  0.00000000000E+00  0.71055135005E+03  0.71055135007E+03  0.50400001928E-02 0.  1.
        1   -1    0    0  501    0  0.00000000000E+00  0.00000000000E+00 -0.11438220153E+04  0.11438220153E+04  0.50400001928E-02 0. -1.
    10030    2    1    2    0    0  0.00000000000E+00  0.00000000000E+00 -0.43327066521E+03  0.18543733653E+04  0.18030466186E+04 0.  0.
        3    1    3    3  502    0  0.62963671297E+03  0.35080226018E+03  0.34029589778E+03  0.79706080340E+03  0.10100000352E+00 0.  1.
       -3    1    3    3    0  502 -0.62963671297E+03 -0.35080226018E+03 -0.77356656299E+03  0.10573125619E+04  0.10100000352E+00 0. -1.
</event>
<event>
 5   0  0.1549012E-04  0.1797774E+04  0.7818609E-02  0.8707484E-01
        2   -1    0    0  501    0  0.00000000000E+00  0.00000000000E+00  0.17771985571E+04  0.17771985571E+04  0.25500000920E-02 0. -1.
       -2   -1    0    0    0  501  0.00000000000E+00  0.00000000000E+00 -0.45464695164E+03  0.45464695165E+03  0.25500000920E-02 0.  1.
    10030    2    1    2    0    0  0.00000000000E+00  0.00000000000E+00  0.13225516054E+04  0.22318455087E+04  0.17977740753E+04 0.  0.
        4    1    3    3  502    0 -0.72818351331E+03 -0.23822329640E+03  0.77669505013E+02  0.77008813321E+03  0.12699999809E+01 0.  1.
       -4    1    3    3    0  502  0.72818351331E+03  0.23822329640E+03  0.12448821004E+04  0.14617573755E+04  0.12699999809E+01 0. -1.
</event>
<event>
 5   0  0.8254914E-05  0.1818367E+04  0.7818609E-02  0.8696593E-01
       -1   -1    0    0    0  501  0.00000000000E+00  0.00000000000E+00  0.54015905454E+03  0.54015905456E+03  0.50400001928E-02 0. -1.
        1   -1    0    0  501    0  0.00000000000E+00  0.00000000000E+00 -0.15303172148E+04  0.15303172148E+04  0.50400001928E-02 0.  1.
    10030    2    1    2    0    0  0.00000000000E+00  0.00000000000E+00 -0.99015816028E+03  0.20704762694E+04  0.18183670696E+04 0.  0.
        4    1    3    3  502    0  0.68684321839E+03  0.51435662788E+03 -0.83723553260E+03  0.11988666720E+04  0.12699999809E+01 0.  1.
       -4    1    3    3    0  502 -0.68684321839E+03 -0.51435662788E+03 -0.15292262768E+03  0.87160959738E+03  0.12699999809E+01 0. -1.
</event>
<event>
 5   0  0.1573981E-04  0.1798073E+04  0.7818609E-02  0.8707325E-01
       -2   -1    0    0    0  501  0.00000000000E+00  0.00000000000E+00  0.43654352139E+03  0.43654352139E+03  0.25500000920E-02 0. -1.
        2   -1    0    0  501    0  0.00000000000E+00  0.00000000000E+00 -0.18515154285E+04  0.18515154285E+04  0.25500000920E-02 0.  1.
    10030    2    1    2    0    0  0.00000000000E+00  0.00000000000E+00 -0.14149719071E+04  0.22880589498E+04  0.17980734858E+04 0.  0.
        1    1    3    3  502    0  0.44122569590E+02 -0.50427358423E+03 -0.16529401405E+04  0.17287133241E+04  0.50400001928E-02 0.  1.
       -1    1    3    3    0  502 -0.44122569590E+02  0.50427358423E+03  0.23796823342E+03  0.55934562574E+03  0.50400001928E-02 0. -1.
</event>
<event>
 5   0  0.8430513E-05  0.1795405E+04  0.7818609E-02  0.8708747E-01
       -1   -1    0    0    0  501  0.00000000000E+00  0.00000000000E+00  0.48421061797E+03  0.48421061800E+03  0.50400001928E-02 0. -1.
        1   -1    0    0  501    0  0.00000000000E+00  0.00000000000E+00 -0.16642964413E+04  0.16642964413E+04  0.50400001928E-02 0.  1.
    10030    2    1    2    0    0  0.00000000000E+00  0.00000000000E+00 -0.11800858233E+04  0.21485070593E+04  0.17954052561E+04 0.  0.
        5    1    3    3  502    0 -0.11167516184E+03  0.88017735231E+03 -0.42655661041E+03  0.98445728459E+03  0.46999998093E+01 0. -1.
       -5    1    3    3    0  502  0.11167516184E+03 -0.88017735231E+03 -0.75352921291E+03  0.11640497747E+04  0.46999998093E+01 0.  1.
</event>
<event>
 5   0  0.1628397E-04  0.1804063E+04  0.7818609E-02  0.8704142E-01
       -2   -1    0    0    0  501  0.00000000000E+00  0.00000000000E+00  0.66024334842E+03  0.66024334843E+03  0.25500000920E-02 0. -1.
        2   -1    0    0  501    0  0.00000000000E+00  0.00000000000E+00 -0.12323643832E+04  0.12323643832E+04  0.25500000920E-02 0.  1.
    10030    2    1    2    0    0  0.00000000000E+00  0.00000000000E+00 -0.57212103473E+03  0.18926077316E+04  0.18040625120E+04 0.  0.
        3    1    3    3  502    0  0.47066020698E+03 -0.63334856192E+03 -0.74455686569E+03  0.10849038519E+04  0.10100000352E+00 0.  1.
       -3    1    3    3    0  502 -0.47066020698E+03  0.63334856192E+03  0.17243583096E+03  0.80770387973E+03  0.10100000352E+00 0. -1.
</event>
<event>
 5   0  0.1573981E-04  0.1805227E+04  0.7818609E-02  0.8703525E-01
        2   -1    0    0  501    0  0.00000000000E+00  0.00000000000E+00  0.73692602093E+03  0.73692602094E+03  0.25500000920E-02 0.  1.
       -2   -1    0    0    0  501  0.00000000000E+00  0.00000000000E+00 -0.11055531945E+04  0.11055531945E+04  0.25500000920E-02 0. -1.
    10030    2    1    2    0    0  0.00000000000E+00  0.00000000000E+00 -0.36862717358E+03  0.18424792155E+04  0.18052267631E+04 0.  0.
        1    1    3    3  502    0 -0.75000277503E+03 -0.22834892123E+03 -0.64082831275E+03  0.10125750929E+04  0.50400001928E-02 0. -1.
       -1    1    3    3    0  502  0.75000277503E+03  0.22834892123E+03  0.27220113917E+03  0.82990412252E+03  0.50400001928E-02 0.  1.
</event>
<event>
 5   0  0.8430513E-05  0.1756757E+04  0.7818609E-02  0.8729640E-01
        1   -1    0    0  501    0  0.00000000000E+00  0.00000000000E+00  0.15919896401E+04  0.15919896401E+04  0.50400001928E-02 0.  1.
       -1   -1    0    0    0  501  0.00000000000E+00  0.00000000000E+00 -0.48464434695E+03  0.48464434698E+03  0.50400001928E-02 0. -1.
    10030    2    1    2    0    0  0.00000000000E+00  0.00000000000E+00  0.11073452932E+04  0.20766339871E+04  0.17567569889E+04 0.  0.
        5    1    3    3  502    0  0.59253909116E+03 -0.18441233971E+03  0.12884841263E+04  0.14301482159E+04  0.46999998093E+01 0.  1.
       -5    1    3    3    0  502 -0.59253909116E+03  0.18441233971E+03 -0.18113883311E+03  0.64648577127E+03  0.46999998093E+01 0. -1.
</event>
<event>
 5   0  0.8492114E-05  0.1794834E+04  0.7818609E-02  0.8709051E-01
       -1   -1    0    0    0  501  0.00000000000E+00  0.00000000000E+00  0.50916824287E+03  0.50916824290E+03  0.50400001928E-02 0.  1.
        1   -1    0    0  501    0  0.00000000000E+00  0.00000000000E+00 -0.15817123067E+04  0.15817123067E+04  0.50400001928E-02 0. -1.
    10030    2    1    2    0    0  0.00000000000E+00  0.00000000000E+00 -0.10725440638E+04  0.20908805496E+04  0.17948344503E+04 0.  0.
        2    1    3    3  502    0  0.31005895573E+03 -0.82231654738E+03 -0.74794778033E+03  0.11540220718E+04  0.25500000920E-02 0. -1.
       -2    1    3    3    0  502 -0.31005895573E+03  0.82231654738E+03 -0.32459628349E+03  0.93685847778E+03  0.25500000920E-02 0.  1.
</event>
<event>
 5   0  0.1608627E-04  0.1797969E+04  0.7818609E-02  0.8707380E-01
        2   -1    0    0  501    0  0.00000000000E+00  0.00000000000E+00  0.53936333161E+03  0.53936333162E+03  0.25500000920E-02 0. -1.
       -2   -1    0    0    0  501  0.00000000000E+00  0.00000000000E+00 -0.14983831633E+04  0.14983831633E+04  0.25500000920E-02 0.  1.
    10030    2    1    2    0    0  0.00000000000E+00  0.00000000000E+00 -0.95901983164E+03  0.20377464949E+04  0.17979687817E+04 0.  0.
        2    1    3    3  502    0 -0.30162013257E+02 -0.67874381146E+03  0.18770156041E+03  0.70486508243E+03  0.25500000920E-02 0. -1.
       -2    1    3    3    0  502  0.30162013257E+02  0.67874381146E+03 -0.11467213920E+04  0.13328814124E+04  0.25500000920E-02 0.  1.
</event>
<event>
 5   0  0.1608627E-04  0.1807647E+04  0.7818609E-02  0.8702243E-01
        2   -1    0    0  501    0  0.00000000000E+00  0.00000000000E+00  0.91669894634E+03  0.91669894634E+03  0.25500000920E-02 0. -1.
       -2   -1    0    0    0  501  0.00000000000E+00  0.00000000000E+00 -0.89112894822E+03  0.89112894823E+03  0.25500000920E-02 0.  1.
    10030    2    1    2    0    0  0.00000000000E+00  0.00000000000E+00  0.25569998114E+02  0.18078278946E+04  0.18076470539E+04 0.  0.
        2    1    3    3  502    0 -0.48617559466E+03  0.74941296574E+03  0.15031408580E+03  0.90585916480E+03  0.25500000920E-02 0. -1.
       -2    1    3    3    0  502  0.48617559466E+03 -0.74941296574E+03 -0.12474408768E+03  0.90196872977E+03  0.25500000920E-02 0.  1.
</event>
<event>
 5   0  0.8132598E-05  0.1796203E+04  0.7818609E-02  0.8708321E-01
       -1   -1    0    0    0  501  0.00000000000E+00  0.00000000000E+00  0.39955829430E+03  0.39955829433E+03  0.50400001928E-02 0. -1.
        1   -1    0    0  501    0  0.00000000000E+00  0.00000000000E+00 -0.20186955336E+04  0.20186955337E+04  0.50400001928E-02 0.  1.
    10030    2    1    2    0    0  0.00000000000E+00  0.00000000000E+00 -0.16191372393E+04  0.24182538280E+04  0.17962032671E+04 0.  0.
        3    1    3    3  502    0 -0.29627446349E+03 -0.77352826604E+03 -0.12768424218E+04  0.15219891972E+04  0.10100000352E+00 0.  1.
       -3    1    3    3    0  502  0.29627446349E+03  0.77352826604E+03 -0.34229481758E+03  0.89626463081E+03  0.10100000352E+00 0. -1.
</event>
<event>
 5   0  0.8492114E-05  0.1803216E+04  0.7818609E-02  0.8704591E-01
       -1   -1    0    0    0  501  0.00000000000E+00  0.00000000000E+00  0.67629808001E+03  0.67629808003E+03  0.50400001928E-02 0.  1.
        1   -1    0    0  501    0  0.00000000000E+00  0.00000000000E+00 -0.12019805509E+04  0.12019805509E+04  0.50400001928E-02 0. -1.
    10030    2    1    2    0    0  0.00000000000E+00  0.00000000000E+00 -0.52568247090E+03  0.18782786309E+04  0.18032161699E+04 0.  0.
        2    1    3    3  502    0  0.40390468002E+03 -0.17116184972E+01 -0.11024696212E+04  0.11741299698E+04  0.25500000920E-02 0. -1.
       -2    1    3    3    0  502 -0.40390468002E+03  0.17116184972E+01  0.57678715035E+03  0.70414866115E+03  0.25500000920E-02 0.  1.
</event>
<event>
 5   0  0.1573981E-04  0.1796374E+04  0.7818609E-02  0.8708230E-01
       -2   -1    0    0    0  501  0.00000000000E+00  0.00000000000E+00  0.69489060282E+03  0.69489060282E+03  0.25500000920E-02 0.  1.
        2   -1    0    0  501    0  0.00000000000E+00  0.00000000000E+00 -0.11609600032E+04  0.11609600032E+04  0.25500000920E-02 0. -1.
    10030    2    1    2    0    0  0.00000000000E+00  0.00000000000E+00 -0.46606940040E+03  0.18558506060E+04  0.17963743446E+04 0.  0.
        1    1    3    3  502    0  0.35972013519E+03  0.68795547890E+03 -0.69971978196E+03  0.10451263512E+04  0.50400001928E-02 0. -1.
       -1    1    3    3    0  502 -0.35972013519E+03 -0.68795547890E+03  0.23365038156E+03  0.81072425487E+03  0.50400001928E-02 0.  1.
</event>
<event>
 5   0  0.8254914E-05  0.1799287E+04  0.7818609E-02  0.8706679E-01
       -1   -1    0    0    0  501  0.00000000000E+00  0.00000000000E+00  0.70725899912E+03  0.70725899914E+03  0.50400001928E-02 0.  1.
        1   -1    0    0  501    0  0.00000000000E+00  0.00000000000E+00 -0.11443588414E+04  0.11443588414E+04  0.50400001928E-02 0. -1.
    10030    2    1    2    0    0  0.00000000000E+00  0.00000000000E+00 -0.43709984228E+03  0.18516178406E+04  0.17992866240E+04 0.  0.
        4    1    3    3  502    0  0.24910853079E+03  0.36446151322E+03  0.58812967496E+03  0.73538111358E+03  0.12699999809E+01 0.  1.
       -4    1    3    3    0  502 -0.24910853079E+03 -0.36446151322E+03 -0.10252295172E+04  0.11162367270E+04  0.12699999809E+01 0. -1.
</event>
<event>
 5   0  0.1573981E-04  0.1799561E+04  0.7818609E-02  0.8706533E-01
       -2   -1    0    0    0  501  0.00000000000E+00  0.00000000000E+00  0.38331032800E+03  0.38331032801E+03  0.25500000920E-02 0.  1.
        2   -1    0    0  501    0  0.00000000000E+00  0.00000000000E+00 -0.21121397980E+04  0.21121397980E+04  0.25500000920E-02 0. -1.
    10030    2    1    2    0    0  0.00000000000E+00  0.00000000000E+00 -0.17288294700E+04  0.24954501260E+04  0.17995610562E+04 0.  0.
        1    1    3    3  502    0  0.75711520415E+03  0.34137625595E+03 -0.38436069714E+03  0.91514716085E+03  0.50400001928E-02 0.  1.
       -1    1    3    3    0  502 -0.75711520415E+03 -0.34137625595E+03 -0.13444687728E+04  0.15803029651E+04  0.50400001928E-02 0. -1.
</event>
<event>
 5   0  0.8206783E-05  0.1814463E+04  0.7818609E-02  0.8698646E-01
        1   -1    0    0  501    0  0.00000000000E+00  0.00000000000E+00  0.47526076653E+03  0.47526076656E+03  0.50400001928E-02 0.  1.
       -1   -1    0    0    0  501  0.00000000000E+00  0.00000000000E+00 -0.17318254454E+04  0.17318254454E+04  0.50400001928E-02 0. -1.
    10030    2    1    2    0    0  0.00000000000E+00  0.00000000000E+00 -0.12565646788E+04  0.22070862119E+04  0.18144626628E+04 0.  0.
        1    1    3    3  502    0 -0.39715913553E+03 -0.77437035076E+03 -0.31653652815E+03  0.92605625788E+03  0.50400001928E-02 0.  1.
       -1    1    3    3    0  502  0.39715913553E+03  0.77437035076E+03 -0.94002815068E+03  0.12810299540E+04  0.50400001928E-02 0. -1.
</event>
<event>
 5   0  0.1549012E-04  0.1807825E+04  0.7818609E-02  0.8702149E-01
        2   -1    0    0  501    0  0.00000000000E+00  0.00000000000E+00  0.16147268277E+04  0.16147268277E+04  0.25500000920E-02 0.  1.
       -2   -1    0    0    0  501  0.00000000000E+00  0.00000000000E+00 -0.50600394052E+03  0.50600394053E+03  0.25500000920E-02 0. -1.
    10030    2    1    2    0    0  0.00000000000E+00  0.00000000000E+00  0.11087228872E+04  0.21207307683E+04  0.18078253651E+04 0.  0.
        4    1    3    3  502    0 -0.45234319306E+03 -0.38265203202E+03 -0.24645161264E+03  0.64169849009E+03  0.12699999809E+01 0. -1.
       -4    1    3    3    0  502  0.45234319306E+03  0.38265203202E+03  0.13551744999E+04  0.14790322782E+04  0.12699999809E+01 0.  1.
</event>
<event>
 5   0  0.5820500E-05  0.1803155E+04  0.7818609E-02  0.8704623E-01
        3   -1    0    0  501    0  0.00000000000E+00  0.00000000000E+00  0.90433734289E+03  0.90433734853E+03  0.10100000352E+00 0.  1.
       -3   -1    0    0    0  501  0.00000000000E+00  0.00000000000E+00 -0.89882625689E+03  0.89882626256E+03  0.10100000352E+00 0. -1.
    10030    2    1    2    0    0  0.00000000000E+00  0.00000000000E+00  0.55110859977E+01  0.18031636111E+04  0.18031551892E+04 0.  0.
        3    1    3    3  502    0  0.21676900783E+03  0.14067803430E+03 -0.86099789751E+03  0.89894187899E+03  0.10100000352E+00 0. -1.
       -3    1    3    3    0  502 -0.21676900783E+03 -0.14067803430E+03  0.86650898351E+03  0.90422173209E+03  0.10100000352E+00 0.  1.
</event>
<event>
 5   0  0.1628397E-04  0.1793978E+04  0.7818609E-02  0.8709508E-01
       -2   -1    0    0    0  501  0.00000000000E+00  0.00000000000E+00  0.41187558090E+03  0.41187558090E+03  0.25500000920E-02 0.  1.
        2   -1    0    0  501    0  0.00000000000E+00  0.00000000000E+00 -0.19534769597E+04  0.19534769597E+04  0.25500000920E-02 0. -1.
    10030    2    1    2    0    0  0.00000000000E+00  0.00000000000E+00 -0.15416013788E+04  0.23653525406E+04  0.17939782134E+04 0.  0.
        3    1    3    3  502    0  0.74791826475E+03 -0.25433300173E+03 -0.21059913099E+03  0.81756896388E+03  0.10100000352E+00 0.  1.
       -3    1    3    3    0  502 -0.74791826475E+03  0.25433300173E+03 -0.13310022479E+04  0.15477835768E+04  0.10100000352E+00 0. -1.
</event>
<event>
 5   0  0.1608627E-04  0.1788663E+04  0.7818609E-02  0.8712352E-01
       -2   -1    0    0    0  501  0.00000000000E+00  0.00000000000E+00  0.11326724475E+04  0.11326724475E+04  0.25500000920E-02 0.  1.
        2   -1    0    0  501    0  0.00000000000E+00  0.00000000000E+00 -0.70614313427E+03  0.70614313428E+03  0.25500000920E-02 0. -1.
    10030    2    1    2    0    0  0.00000000000E+00  0.00000000000E+00  0.42652931326E+03  0.18388155818E+04  0.17886630451E+04 0.  0.
        2    1    3    3  502    0 -0.29043232343E+03 -0.17092886084E+03  0.10649013858E+04  0.11169523586E+04  0.25500000920E-02 0.  1.
       -2    1    3    3    0  502  0.29043232343E+03  0.17092886084E+03 -0.63837207255E+03  0.72186322318E+03  0.25500000920E-02 0. -1.
</event>
<event>
 5   0  0.1573981E-04  0.1796072E+04  0.7818609E-02  0.8708391E-01
       -2   -1    0    0    0  501  0.00000000000E+00  0.00000000000E+00  0.66104308773E+03  0.66104308774E+03  0.25500000920E-02 0. -1.
        2   -1    0    0  501    0  0.00000000000E+00  0.00000000000E+00 -0.12199944044E+04  0.12199944044E+04  0.25500000920E-02 0.  1.
    10030    2    1    2    0    0  0.00000000000E+00  0.00000000000E+00 -0.55895131665E+03  0.18810374921E+04  0.17960722347E+04 0.  0.
        1    1    3    3  502    0 -0.50009489381E+03 -0.68362036127E+03  0.33031031660E+02  0.84765721270E+03  0.50400001928E-02 0. -1.
       -1    1    3    3    0  502  0.50009489381E+03  0.68362036127E+03 -0.59198234831E+03  0.10333802794E+04  0.50400001928E-02 0.  1.
</event>
<event>
 5   0  0.8254914E-05  0.1799906E+04  0.7818609E-02  0.8706349E-01
        1   -1    0    0  501    0  0.00000000000E+00  0.00000000000E+00  0.61869957630E+03  0.61869957632E+03  0.50400001928E-02 0.  1.
       -1   -1    0    0    0  501  0.00000000000E+00  0.00000000000E+00 -0.13090608050E+04  0.13090608050E+04  0.50400001928E-02 0. -1.
    10030    2    1    2    0    0  0.00000000000E+00  0.00000000000E+00 -0.69036122867E+03  0.19277603813E+04  0.17999059591E+04 0.  0.
        4    1    3    3  502    0  0.20292865412E+03  0.30224275296E+02 -0.12836778645E+04  0.12999707759E+04  0.12699999809E+01 0. -1.
       -4    1    3    3    0  502 -0.20292865412E+03 -0.30224275296E+02  0.59331663580E+03  0.62778960544E+03  0.12699999809E+01 0.  1.
</event>
<event>
 5   0  0.1608627E-04  0.1805595E+04  0.7818609E-02  0.8703330E-01
        2   -1    0    0  501    0  0.00000000000E+00  0.00000000000E+00  0.14706731785E+04  0.14706731785E+04  0.25500000920E-02 0. -1.
       -2   -1    0    0    0  501  0.00000000000E+00  0.00000000000E+00 -0.55419726796E+03  0.55419726797E+03  0.25500000920E-02 0.  1.
    10030    2    1    2    0    0  0.00000000000E+00  0.00000000000E+00  0.91647591056E+03  0.20248704465E+04  0.18055947027E+04 0.  0.
        2    1    3    3  502    0 -0.75523387550E+02  0.49307965668E+03 -0.38561427022E+03  0.63049956012E+03  0.25500000920E-02 0.  1.
       -2    1    3    3    0  502  0.75523387550E+02 -0.49307965668E+03  0.13020901808E+04  0.13943708864E+04  0.25500000920E-02 0. -1.
</event>
<event>
 5   0  0.8430513E-05  0.1799031E+04  0.7818609E-02  0.8706815E-01
        1   -1    0    0  501    0  0.00000000000E+00  0.00000000000E+00  0.84253750394E+03  0.84253750395E+03  0.50400001928E-02 0. -1.
       -1   -1    0    0    0  501  0.00000000000E+00  0.00000000000E+00 -0.96034712216E+03  0.96034712217E+03  0.50400001928E-02 0.  1.
    10030    2    1    2    0    0  0.00000000000E+00  0.00000000000E+00 -0.11780961822E+03  0.18028846261E+04  0.17990313696E+04 0.  0.
        5    1    3    3  502    0 -0.86681833388E+03 -0.10705610411E+03 -0.27447328721E+03  0.91552864989E+03  0.46999998093E+01 0.  1.
       -5    1    3    3    0  502  0.86681833388E+03  0.10705610411E+03  0.15666366899E+03  0.88735597623E+03  0.46999998093E+01 0. -1.
</event>
<event>
 5   0  0.8254914E-05  0.1794760E+04  0.7818609E-02  0.8709091E-01
        1   -1    0    0  501    0  0.00000000000E+00  0.00000000000E+00  0.65192202125E+03  0.65192202127E+03  0.50400001928E-02 0. -1.
       -1   -1    0    0    0  501  0.00000000000E+00  0.00000000000E+00 -0.12352566320E+04  0.12352566321E+04  0.50400001928E-02 0.  1.
    10030    2    1    2    0    0  0.00000000000E+00  0.00000000000E+00 -0.58333461080E+03  0.18871786533E+04  0.17947601515E+04 0.  0.
        4    1    3    3  502    0  0.32213811849E+03 -0.83723796336E+03 -0.26702973821E+03  0.93597375426E+03  0.12699999809E+01 0.  1.
       -4    1    3    3    0  502 -0.32213811849E+03  0.83723796336E+03 -0.31630487259E+03  0.95120489906E+03  0.12699999809E+01 0. -1.
</event>
<event>
 5   0  0.8492114E-05  0.1793894E+04  0.7818609E-02  0.8709553E-01
        1   -1    0    0  501    0  0.00000000000E+00  0.00000000000E+00  0.10523141608E+04  0.10523141608E+04  0.50400001928E-02 0.  1.
       -1   -1    0    0    0  501  0.00000000000E+00  0.00000000000E+00 -0.76451857799E+03  0.76451857801E+03  0.50400001928E-02 0. -1.
    10030    2    1    2    0    0  0.00000000000E+00  0.00000000000E+00  0.28779558281E+03  0.18168327388E+04  0.17938937826E+04 0.  0.
        2    1    3    3  502    0  0.37959778693E+03 -0.51212348147E+03  0.78295673956E+03  0.10096465699E+04  0.25500000920E-02 0.  1.
       -2    1    3    3    0  502 -0.37959778693E+03  0.51212348147E+03 -0.49516115676E+03  0.80718616891E+03  0.25500000920E-02 0. -1.
</event>
<event>
 5   0  0.8430513E-05  0.1808852E+04  0.7818609E-02  0.8701606E-01
       -1   -1    0    0    0  501  0.00000000000E+00  0.00000000000E+00  0.17143085194E+04  0.17143085194E+04  0.50400001928E-02 0. -1.
        1   -1    0    0  501    0  0.00000000000E+00  0.00000000000E+00 -0.47715220508E+03  0.47715220511E+03  0.50400001928E-02 0.  1.
    10030    2    1    2    0    0  0.00000000000E+00  0.00000000000E+00  0.12371563143E+04  0.21914607245E+04  0.18088516691E+04 0.  0.
        5    1    3    3  502    0  0.32062205970E+03 -0.18998205494E+02 -0.40571529108E+03  0.51748084447E+03  0.46999998093E+01 0.  1.
       -5    1    3    3    0  502 -0.32062205970E+03  0.18998205494E+02  0.16428716054E+04  0.16739798800E+04  0.46999998093E+01 0. -1.
</event>
<event>
 5   0  0.1573981E-04  0.1802510E+04  0.7818609E-02  0.8704966E-01
        2   -1    0    0  501    0  0.00000000000E+00  0.00000000000E+00  0.53283139061E+03  0.53283139062E+03  0.25500000920E-02 0.  1.
       -2   -1    0    0    0  501  0.00000000000E+00  0.00000000000E+00 -0.15244240112E+04  0.15244240112E+04  0.25500000920E-02 0. -1.
    10030    2    1    2    0    0  0.00000000000E+00  0.00000000000E+00 -0.99159262059E+03  0.20572554018E+04  0.18025104336E+04 0.  0.
        1    1    3    3  502    0  0.32994636559E+03 -0.50843603661E+03  0.26546951736E+03  0.66169923090E+03  0.50400001928E-02 0.  1.
       -1    1    3    3    0  502 -0.32994636559E+03  0.50843603661E+03 -0.12570621380E+04  0.13955561709E+04  0.50400001928E-02 0. -1.
</event>
<event>
 5   0  0.1549012E-04  0.1748579E+04  0.7818609E-02  0.8734133E-01
        2   -1    0    0  501    0  0.00000000000E+00  0.00000000000E+00  0.15672107684E+04  0.15672107684E+04  0.25500000920E-02 0.  1.
       -2   -1    0    0    0  501  0.00000000000E+00  0.00000000000E+00 -0.48773388409E+03  0.48773388410E+03  0.25500000920E-02 0. -1.
    10030    2    1    2    0    0  0.00000000000E+00  0.00000000000E+00  0.10794768843E+04  0.20549446525E+04  0.17485786174E+04 0.  0.
        4    1    3    3  502    0 -0.42781225653E+03  0.24904970651E+02  0.14353188083E+04  0.14979269938E+04  0.12699999809E+01 0.  1.
       -4    1    3    3    0  502  0.42781225653E+03 -0.24904970651E+02 -0.35584192396E+03  0.55701765874E+03  0.12699999809E+01 0. -1.
</event>
<event>
 5   0  0.1628397E-04  0.1790005E+04  0.7818609E-02  0.8711633E-01
       -2   -1    0    0    0  501  0.00000000000E+00  0.00000000000E+00  0.71737186543E+03  0.71737186544E+03  0.25500000920E-02 0.  1.
        2   -1    0    0  501    0  0.00000000000E+00  0.00000000000E+00 -0.11166165729E+04  0.11166165730E+04  0.25500000920E-02 0. -1.
    10030    2    1    2    0    0  0.00000000000E+00  0.00000000000E+00 -0.39924470751E+03  0.18339884384E+04  0.17900048200E+04 0.  0.
        3    1    3    3  502    0 -0.28098657666E+03  0.17795940657E+03  0.65170142687E+03  0.73166779800E+03  0.10100000352E+00 0.  1.
       -3    1    3    3    0  502  0.28098657666E+03 -0.17795940657E+03 -0.10509461344E+04  0.11023206404E+04  0.10100000352E+00 0. -1.
</event>
<event>
 5   0  0.8492114E-05  0.1788877E+04  0.7818609E-02  0.8712237E-01
        1   -1    0    0  501    0  0.00000000000E+00  0.00000000000E+00  0.11543813647E+04  0.11543813647E+04  0.50400001928E-02 0. -1.
       -1   -1    0    0    0  501  0.00000000000E+00  0.00000000000E+00 -0.69302911026E+03  0.69302911028E+03  0.50400001928E-02 0.  1.
    10030    2    1    2    0    0  0.00000000000E+00  0.00000000000E+00  0.46135225443E+03  0.18474104750E+04  0.17888766197E+04 0.  0.
        2    1    3    3  502    0  0.79173400383E+03 -0.31744890767E+03  0.50855935777E+03  0.99310078148E+03  0.25500000920E-02 0. -1.
       -2    1    3    3    0  502 -0.79173400383E+03  0.31744890767E+03 -0.47207103335E+02  0.85430969351E+03  0.25500000920E-02 0.  1.
</event>
<event>
 5   0  0.5820500E-05  0.1787206E+04  0.7818609E-02  0.8713133E-01
       -4   -1    0    0    0  501  0.00000000000E+00  0.00000000000E+00  0.10339772454E+04  0.10339780253E+04  0.12699999809E+01 0.  1.
        4   -1    0    0  501    0  0.00000000000E+00  0.00000000000E+00 -0.77228464807E+03  0.77228569231E+03  0.12699999809E+01 0. -1.
    10030    2    1    2    0    0  0.00000000000E+00  0.00000000000E+00  0.26169259733E+03  0.18062637177E+04  0.17872060883E+04 0.  0.
        5    1    3    3  502    0  0.61147632259E+03 -0.58322459001E+02 -0.52507306313E+03  0.80810185864E+03  0.46999998093E+01 0. -1.
       -5    1    3    3    0  502 -0.61147632259E+03  0.58322459001E+02  0.78676566046E+03  0.99816185902E+03  0.46999998093E+01 0.  1.
</event>
<event>
 5   0  0.5820500E-05  0.1761311E+04  0.7818609E-02  0.8727149E-01
       -3   -1    0    0    0  501  0.00000000000E+00  0.00000000000E+00  0.61085632847E+03  0.61085633682E+03  0.10100000352E+00 0. -1.
        3   -1    0    0  501    0  0.00000000000E+00  0.00000000000E+00 -0.12696173820E+04  0.12696173861E+04  0.10100000352E+00 0.  1.
    10030    2    1    2    0    0  0.00000000000E+00  0.00000000000E+00 -0.65876105358E+03  0.18804737229E+04  0.17613106758E+04 0.  0.
        3    1    3    3  502    0 -0.75500535152E+03  0.28994941925E+03 -0.70145526234E+03  0.10705807965E+04  0.10100000352E+00 0.  1.
       -3    1    3    3    0  502  0.75500535152E+03 -0.28994941925E+03  0.42694208764E+02  0.80989292639E+03  0.10100000352E+00 0. -1.
</event>
<event>
 5   0  0.8254914E-05  0.1803592E+04  0.7818609E-02  0.8704391E-01
       -1   -1    0    0    0  501  0.00000000000E+00  0.00000000000E+00  0.16872176252E+04  0.16872176252E+04  0.50400001928E-02 0.  1.
        1   -1    0    0  501    0  0.00000000000E+00  0.00000000000E+00 -0.48199842930E+03  0.48199842933E+03  0.50400001928E-02 0. -1.
    10030    2    1    2    0    0  0.00000000000E+00  0.00000000000E+00  0.12052191959E+04  0.21692160546E+04  0.18035922436E+04 0.  0.
        4    1    3    3  502    0 -0.73921358870E+03 -0.44592222728E+03  0.91612814644E+03  0.12587993311E+04  0.12699999809E+01 0. -1.
       -4    1    3    3    0  502  0.73921358870E+03  0.44592222728E+03  0.28909104949E+03  0.91041672342E+03  0.12699999809E+01 0.  1.
</event>
<event>
 5   0  0.8132598E-05  0.1804263E+04  0.7818609E-02  0.8704036E-01
        1   -1    0    0  501    0  0.00000000000E+00  0.00000000000E+00  0.61206280767E+03  0.61206280769E+03  0.50400001928E-02 0.  1.
       -1   -1    0    0    0  501  0.00000000000E+00  0.00000000000E+00 -0.13296699643E+04  0.13296699643E+04  0.50400001928E-02 0. -1.
    10030    2    1    2    0    0  0.00000000000E+00  0.00000000000E+00 -0.71760715661E+03  0.19417327720E+04  0.18042633196E+04 0.  0.
        3    1    3    3  502    0 -0.36627726321E+03  0.31288924876E+03 -0.11796652570E+04  0.12742326492E+04  0.10100000352E+00 0. -1.
       -3    1    3    3    0  502  0.36627726321E+03 -0.31288924876E+03  0.46205810041E+03  0.66750012276E+03  0.10100000352E+00 0.  1.
</event>
<event>
 5   0  0.1549012E-04  0.1800313E+04  0.7818609E-02  0.8706133E-01
        2   -1    0    0  501    0  0.00000000000E+00  0.00000000000E+00  0.18943462667E+04  0.18943462667E+04  0.25500000920E-02 0. -1.
       -2   -1    0    0    0  501  0.00000000000E+00  0.00000000000E+00 -0.42773689678E+03  0.42773689678E+03  0.25500000920E-02 0.  1.
    10030    2    1    2    0    0  0.00000000000E+00  0.00000000000E+00  0.14666093699E+04  0.23220831635E+04  0.18003130767E+04 0.  0.
        4    1    3    3  502    0 -0.10056032106E+03 -0.50648964058E+03  0.16843119973E+04  0.17616902825E+04  0.12699999809E+01 0. -1.
       -4    1    3    3    0  502  0.10056032106E+03  0.50648964058E+03 -0.21770262741E+03  0.56039288099E+03  0.12699999809E+01 0.  1.
</event>
<event>
 5   0  0.1603564E-04  0.1801685E+04  0.7818609E-02  0.8705404E-01
        2   -1    0    0  501    0  0.00000000000E+00  0.00000000000E+00  0.92766197334E+03  0.92766197334E+03  0.25500000920E-02 0.  1.
       -2   -1    0    0    0  501  0.00000000000E+00  0.00000000000E+00 -0.87479840604E+03  0.87479840605E+03  0.25500000920E-02 0. -1.
    10030    2    1    2    0    0  0.00000000000E+00  0.00000000000E+00  0.52863567292E+02  0.18024603794E+04  0.18016850065E+04 0.  0.
        5    1    3    3  502    0 -0.35048773184E+03 -0.67414120068E+03  0.51056888185E+03  0.91542923360E+03  0.46999998093E+01 0. -1.
       -5    1    3    3    0  502  0.35048773184E+03  0.67414120068E+03 -0.45770531456E+03  0.88703114579E+03  0.46999998093E+01 0.  1.
</event>
<event>
 5   0  0.8430513E-05  0.1763859E+04  0.7818609E-02  0.8725758E-01
       -1   -1    0    0    0  501  0.00000000000E+00  0.00000000000E+00  0.79673908850E+03  0.79673908851E+03  0.50400001928E-02 0. -1.
        1   -1    0    0  501    0  0.00000000000E+00  0.00000000000E+00 -0.97622922510E+03  0.97622922512E+03  0.50400001928E-02 0.  1.
    10030    2    1    2    0    0  0.00000000000E+00  0.00000000000E+00 -0.17949013661E+03  0.17729683136E+04  0.17638593856E+04 0.  0.
        5    1    3    3  502    0  0.29760342219E+01 -0.87200046703E+03 -0.22227520315E+03  0.89990112080E+03  0.46999998093E+01 0. -1.
       -5    1    3    3    0  502 -0.29760342219E+01  0.87200046703E+03  0.42785066547E+02  0.87306719283E+03  0.46999998093E+01 0.  1.
</event>
<event>
 5   0  0.1573981E-04  0.1796050E+04  0.7818609E-02  0.8708403E-01
        2   -1    0    0  501    0  0.00000000000E+00  0.00000000000E+00  0.70176315248E+03  0.70176315248E+03  0.25500000920E-02 0. -1.
       -2   -1    0    0    0  501  0.00000000000E+00  0.00000000000E+00 -0.11491759172E+04  0.11491759172E+04  0.25500000920E-02 0.  1.
    10030    2    1    2    0    0  0.00000000000E+00  0.00000000000E+00 -0.44741276467E+03  0.18509390696E+04  0.17960504607E+04 0.  0.
        1    1    3    3  502    0 -0.32916738277E+03 -0.81376852073E+03 -0.28500271301E+02  0.87828391577E+03  0.50400001928E-02 0. -1.
       -1    1    3    3    0  502  0.32916738277E+03  0.81376852073E+03 -0.41891249337E+03  0.97265515387E+03  0.50400001928E-02 0.  1.
</event>
<event>
 5   0  0.1608627E-04  0.1765368E+04  0.7818609E-02  0.8724936E-01
        2   -1    0    0  501    0  0.00000000000E+00  0.00000000000E+00  0.11626600405E+04  0.11626600405E+04  0.25500000920E-02 0. -1.
       -2   -1    0    0    0  501  0.00000000000E+00  0.00000000000E+00 -0.67012817663E+03  0.67012817664E+03  0.25500000920E-02 0.  1.
    10030    2    1    2    0    0  0.00000000000E+00  0.00000000000E+00  0.49253186383E+03  0.18327882171E+04  0.17653682369E+04 0.  0.
        2    1    3    3  502    0  0.73377288993E+03 -0.37949380476E+03  0.56909646853E+03  0.10031495364E+04  0.25500000920E-02 0. -1.
       -2    1    3    3    0  502 -0.73377288993E+03  0.37949380476E+03 -0.76564604701E+02  0.82963868072E+03  0.25500000920E-02 0.  1.
</event>
<event>
 5   0  0.1608627E-04  0.1793967E+04  0.7818609E-02  0.8709515E-01
        2   -1    0    0  501    0  0.00000000000E+00  0.00000000000E+00  0.96334666466E+03  0.96334666466E+03  0.25500000920E-02 0.  1.
       -2   -1    0    0    0  501  0.00000000000E+00  0.00000000000E+00 -0.83519152865E+03  0.83519152866E+03  0.25500000920E-02 0. -1.
    10030    2    1    2    0    0  0.00000000000E+00  0.00000000000E+00  0.12815513601E+03  0.17985381933E+04  0.17939665253E+04 0.  0.
        2    1    3    3  502    0  0.76446891289E+03  0.14825883332E+03 -0.38223729334E+03  0.86746685750E+03  0.25500000920E-02 0. -1.
       -2    1    3    3    0  502 -0.76446891289E+03 -0.14825883332E+03  0.51039242934E+03  0.93107133582E+03  0.25500000920E-02 0.  1.
</event>
<event>
 5   0  0.8254914E-05  0.1809845E+04  0.7818609E-02  0.8701081E-01
        1   -1    0    0  501    0  0.00000000000E+00  0.00000000000E+00  0.78751303396E+03  0.78751303398E+03  0.50400001928E-02 0.  1.
       -1   -1    0    0    0  501  0.00000000000E+00  0.00000000000E+00 -0.10398364807E+04  0.10398364807E+04  0.50400001928E-02 0. -1.
    10030    2    1    2    0    0  0.00000000000E+00  0.00000000000E+00 -0.25232344677E+03  0.18273495147E+04  0.18098450561E+04 0.  0.
        4    1    3    3  502    0  0.48700635643E+03 -0.14582209818E+03  0.62970686397E+03  0.80930317123E+03  0.12699999809E+01 0.  1.
       -4    1    3    3    0  502 -0.48700635643E+03  0.14582209818E+03 -0.88203031074E+03  0.10180463435E+04  0.12699999809E+01 0. -1.
</event>
<event>
 5   0  0.8206783E-05  0.1802232E+04  0.7818609E-02  0.8705113E-01
        1   -1    0    0  501    0  0.00000000000E+00  0.00000000000E+00  0.13940458870E+04  0.13940458870E+04  0.50400001928E-02 0.  1.
       -1   -1    0    0    0  501  0.00000000000E+00  0.00000000000E+00 -0.58248437598E+03  0.58248437600E+03  0.50400001928E-02 0. -1.
    10030    2    1    2    0    0  0.00000000000E+00  0.00000000000E+00  0.81156151097E+03  0.19765302630E+04  0.18022318925E+04 0.  0.
        1    1    3    3  502    0 -0.59306857539E+03 -0.55373798999E+03 -0.24116352437E+02  0.81174977374E+03  0.50400001928E-02 0. -1.
       -1    1    3    3    0  502  0.59306857539E+03  0.55373798999E+03  0.83567786341E+03  0.11647804892E+04  0.50400001928E-02 0.  1.
</event>
<event>
 5   0  0.1603564E-04  0.1799696E+04  0.7818609E-02  0.8706461E-01
       -2   -1    0    0    0  501  0.00000000000E+00  0.00000000000E+00  0.14324598951E+04  0.14324598951E+04  0.25500000920E-02 0.  1.
        2   -1    0    0  501    0  0.00000000000E+00  0.00000000000E+00 -0.56527012320E+03  0.56527012320E+03  0.25500000920E-02 0. -1.
    10030    2    1    2    0    0  0.00000000000E+00  0.00000000000E+00  0.86718977191E+03  0.19977300183E+04  0.17996963982E+04 0.  0.
        5    1    3    3  502    0  0.85041428457E+03 -0.25585280270E+03  0.59460608129E+03  0.10687579679E+04  0.46999998093E+01 0.  1.
       -5    1    3    3    0  502 -0.85041428457E+03  0.25585280270E+03  0.27258369061E+03  0.92897205041E+03  0.46999998093E+01 0. -1.
</event>
<event>
 5   0  0.8430513E-05  0.1806299E+04  0.7818609E-02  0.8702957E-01
        1   -1    0    0  501    0  0.00000000000E+00  0.00000000000E+00  0.11840037971E+04  0.11840037971E+04  0.50400001928E-02 0. -1.
       -1   -1    0    0    0  501  0.00000000000E+00  0.00000000000E+00 -0.68891606676E+03  0.68891606678E+03  0.50400001928E-02 0.  1.
    10030    2    1    2    0    0  0.00000000000E+00  0.00000000000E+00  0.49508773031E+03  0.18729198639E+04  0.18062992431E+04 0.  0.
        5    1    3    3  502    0  0.38712197356E+03  0.23958433781E+03 -0.56121978859E+03  0.72267130733E+03  0.46999998093E+01 0.  1.
       -5    1    3    3    0  502 -0.38712197356E+03 -0.23958433781E+03  0.10563075189E+04  0.11502485565E+04  0.46999998093E+01 0. -1.
</event>
<event>
 5   0  0.1608627E-04  0.1793859E+04  0.7818609E-02  0.8709572E-01
        2   -1    0    0  501    0  0.00000000000E+00  0.00000000000E+00  0.87312484526E+03  0.87312484526E+03  0.25500000920E-02 0.  1.
       -2   -1    0    0    0  501  0.00000000000E+00  0.00000000000E+00 -0.92138365474E+03  0.92138365475E+03  0.25500000920E-02 0. -1.
    10030    2    1    2    0    0  0.00000000000E+00  0.00000000000E+00 -0.48258809486E+02  0.17945085000E+04  0.17938594828E+04 0.  0.
        2    1    3    3  502    0 -0.82063725606E+03 -0.30211001450E+03 -0.22361818795E+03  0.90261900096E+03  0.25500000920E-02 0. -1.
       -2    1    3    3    0  502  0.82063725606E+03  0.30211001450E+03  0.17535937847E+03  0.89188949905E+03  0.25500000920E-02 0.  1.
</event>
<event>
 5   0  0.1549012E-04  0.1802423E+04  0.7818609E-02  0.8705012E-01
       -2   -1    0    0    0  501  0.00000000000E+00  0.00000000000E+00  0.80106100850E+03  0.80106100851E+03  0.25500000920E-02 0.  1.
        2   -1    0    0  501    0  0.00000000000E+00  0.00000000000E+00 -0.10138834381E+04  0.10138834381E+04  0.25500000920E-02 0. -1.
    10030    2    1    2    0    0  0.00000000000E+00  0.00000000000E+00 -0.21282242961E+03  0.18149444466E+04  0.18024233570E+04 0.  0.
        4    1    3    3  502    0  0.48604370171E+03 -0.39822517979E+03  0.54411001555E+03  0.83119137129E+03  0.12699999809E+01 0.  1.
       -4    1    3    3    0  502 -0.48604370171E+03  0.39822517979E+03 -0.75693244516E+03  0.98375307533E+03  0.12699999809E+01 0. -1.
</event>
<event>
 5   0  0.8254914E-05  0.1795052E+04  0.7818609E-02  0.8708935E-01
       -1   -1    0    0    0  501  0.00000000000E+00  0.00000000000E+00  0.53816536561E+03  0.53816536564E+03  0.50400001928E-02 0.  1.
        1   -1    0    0  501    0  0.00000000000E+00  0.00000000000E+00 -0.14968508957E+04  0.14968508957E+04  0.50400001928E-02 0. -1.
    10030    2    1    2    0    0  0.00000000000E+00  0.00000000000E+00 -0.95868553007E+03  0.20350162613E+04  0.17950524333E+04 0.  0.
        4    1    3    3  502    0 -0.25881393048E+03 -0.85920803688E+03 -0.45879230719E+03  0.10078269173E+04  0.12699999809E+01 0.  1.
       -4    1    3    3    0  502  0.25881393048E+03  0.85920803688E+03 -0.49989322288E+03  0.10271893440E+04  0.12699999809E+01 0. -1.
</event>
<event>
 5   0  0.1603564E-04  0.1806280E+04  0.7818609E-02  0.8702967E-01
        2   -1    0    0  501    0  0.00000000000E+00  0.00000000000E+00  0.12642196027E+04  0.12642196027E+04  0.25500000920E-02 0. -1.
       -2   -1    0    0    0  501  0.00000000000E+00  0.00000000000E+00 -0.64519034758E+03  0.64519034759E+03  0.25500000920E-02 0.  1.
    10030    2    1    2    0    0  0.00000000000E+00  0.00000000000E+00  0.61902925513E+03  0.19094099503E+04  0.18062804709E+04 0.  0.
        5    1    3    3  502    0  0.23888349184E+03 -0.79905472642E+03  0.67583488643E+03  0.10734657247E+04  0.46999998093E+01 0.  1.
       -5    1    3    3    0  502 -0.23888349184E+03  0.79905472642E+03 -0.56805631303E+02  0.83594422556E+03  0.46999998093E+01 0. -1.
</event>
<event>
 5   0  0.1628397E-04  0.1802635E+04  0.7818609E-02  0.8704900E-01
       -2   -1    0    0    0  501  0.00000000000E+00  0.00000000000E+00  0.99854724172E+03  0.99854724173E+03  0.25500000920E-02 0.  1.
        2   -1    0    0  501    0  0.00000000000E+00  0.00000000000E+00 -0.81355470798E+03  0.81355470799E+03  0.25500000920E-02 0. -1.
    10030    2    1    2    0    0  0.00000000000E+00  0.00000000000E+00  0.18499253374E+03  0.18121019497E+04  0.18026345272E+04 0.  0.
        3    1    3    3  502    0 -0.60244844397E+03  0.28888365721E+03 -0.51563956826E+03  0.84396805010E+03  0.10100000352E+00 0. -1.
       -3    1    3    3    0  502  0.60244844397E+03 -0.28888365721E+03  0.70063210200E+03  0.96813389962E+03  0.10100000352E+00 0.  1.
</event>
<event>
 5   0  0.1549012E-04  0.1723370E+04  0.7818609E-02  0.8748147E-01
        2   -1    0    0  501    0  0.00000000000E+00  0.00000000000E+00  0.88408108008E+03  0.88408108009E+03  0.25500000920E-02 0. -1.
       -2   -1    0    0    0  501  0.00000000000E+00  0.00000000000E+00 -0.83985602005E+03  0.83985602005E+03  0.25500000920E-02 0.  1.
    10030    2    1    2    0    0  0.00000000000E+00  0.00000000000E+00  0.44225060034E+02  0.17239371001E+04  0.17233697425E+04 0.  0.
        4    1    3    3  502    0  0.24652041437E+03 -0.74912727759E+03  0.36940864078E+03  0.87087791883E+03  0.12699999809E+01 0. -1.
       -4    1    3    3    0  502 -0.24652041437E+03  0.74912727759E+03 -0.32518358075E+03  0.85305918131E+03  0.12699999809E+01 0.  1.
</event>
<event>
 5   0  0.8492114E-05  0.1800166E+04  0.7818609E-02  0.8706211E-01
       -1   -1    0    0    0  501  0.00000000000E+00  0.00000000000E+00  0.36724713284E+03  0.36724713288E+03  0.50400001928E-02 0.  1.
        1   -1    0    0  501    0  0.00000000000E+00  0.00000000000E+00 -0.22060059502E+04  0.22060059502E+04  0.50400001928E-02 0. -1.
    10030    2    1    2    0    0  0.00000000000E+00  0.00000000000E+00 -0.18387588173E+04  0.25732530830E+04  0.18001659482E+04 0.  0.
        2    1    3    3  502    0 -0.64847224501E+03 -0.18363963993E+03 -0.66593913816E+02  0.67725513602E+03  0.25500000920E-02 0.  1.
       -2    1    3    3    0  502  0.64847224501E+03  0.18363963993E+03 -0.17721649035E+04  0.18959979470E+04  0.25500000920E-02 0. -1.
</event>
<event>
 5   0  0.1628397E-04  0.1798399E+04  0.7818609E-02  0.8707152E-01
       -2   -1    0    0    0  501  0.00000000000E+00  0.00000000000E+00  0.95487611917E+03  0.95487611917E+03  0.25500000920E-02 0. -1.
        2   -1    0    0  501    0  0.00000000000E+00  0.00000000000E+00 -0.84676889461E+03  0.84676889462E+03  0.25500000920E-02 0.  1.
    10030    2    1    2    0    0  0.00000000000E+00  0.00000000000E+00  0.10810722456E+03  0.18016450138E+04  0.17983986165E+04 0.  0.
        3    1    3    3  502    0 -0.85485004411E+03  0.13400786779E+02  0.33314438770E+03  0.91756927382E+03  0.10100000352E+00 0. -1.
       -3    1    3    3    0  502  0.85485004411E+03 -0.13400786779E+02 -0.22503716314E+03  0.88407573997E+03  0.10100000352E+00 0.  1.
</event>
<event>
 5   0  0.8430513E-05  0.1866138E+04  0.7818609E-02  0.8671898E-01
       -1   -1    0    0    0  501  0.00000000000E+00  0.00000000000E+00  0.65210717261E+03  0.65210717263E+03  0.50400001928E-02 0.  1.
        1   -1    0    0  501    0  0.00000000000E+00  0.00000000000E+00 -0.13350833265E+04  0.13350833265E+04  0.50400001928E-02 0. -1.
    10030    2    1    2    0    0  0.00000000000E+00  0.00000000000E+00 -0.68297615386E+03  0.19871904991E+04  0.18661376297E+04 0.  0.
        5    1    3    3  502    0 -0.77663071905E+03  0.51072989814E+03 -0.42796573324E+03  0.10233166966E+04  0.46999998093E+01 0. -1.
       -5    1    3    3    0  502  0.77663071905E+03 -0.51072989814E+03 -0.25501042062E+03  0.96387380256E+03  0.46999998093E+01 0.  1.
</event>
<event>
 5   0  0.1549012E-04  0.1803121E+04  0.7818609E-02  0.8704642E-01
       -2   -1    0    0    0  501  0.00000000000E+00  0.00000000000E+00  0.12503450617E+04  0.12503450617E+04  0.25500000920E-02 0. -1.
        2   -1    0    0  501    0  0.00000000000E+00  0.00000000000E+00 -0.65006964457E+03  0.65006964457E+03  0.25500000920E-02 0.  1.
    10030    2    1    2    0    0  0.00000000000E+00  0.00000000000E+00  0.60027541710E+03  0.19004147062E+04  0.18031210385E+04 0.  0.
        4    1    3    3  502    0  0.25232974325E+03  0.48294420208E+03  0.10571590081E+04  0.11893242547E+04  0.12699999809E+01 0. -1.
       -4    1    3    3    0  502 -0.25232974325E+03 -0.48294420208E+03 -0.45688359096E+03  0.71109045152E+03  0.12699999809E+01 0.  1.
</event>
<event>
 5   0  0.8206783E-05  0.1797925E+04  0.7818609E-02  0.8707404E-01
       -1   -1    0    0    0  501  0.00000000000E+00  0.00000000000E+00  0.47658048639E+03  0.47658048641E+03  0.50400001928E-02 0. -1.
        1   -1    0    0  501    0  0.00000000000E+00  0.00000000000E+00 -0.16956920187E+04  0.16956920188E+04  0.50400001928E-02 0.  1.
    10030    2    1    2    0    0  0.00000000000E+00  0.00000000000E+00 -0.12191115324E+04  0.21722725052E+04  0.17979251676E+04 0.  0.
        1    1    3    3  502    0 -0.31318784146E+03  0.83727366684E+02 -0.16226077524E+04  0.16546760450E+04  0.50400001928E-02 0.  1.
       -1    1    3    3    0  502  0.31318784146E+03 -0.83727366684E+02  0.40349622000E+03  0.51759646014E+03  0.50400001928E-02 0. -1.
</event>
<event>
 5   0  0.1603564E-04  0.1582601E+04  0.7818609E-02  0.8831309E-01
        2   -1    0    0  501    0  0.00000000000E+00  0.00000000000E+00  0.29145973768E+04  0.29145973768E+04  0.25500000920E-02 0. -1.
       -2   -1    0    0    0  501  0.00000000000E+00  0.00000000000E+00 -0.21483451685E+03  0.21483451687E+03  0.25500000920E-02 0.  1.
    10030    2    1    2    0    0  0.00000000000E+00  0.00000000000E+00  0.26997628600E+04  0.31294318937E+04  0.15826005425E+04 0.  0.
        5    1    3    3  502    0  0.61573600956E+03 -0.48396288484E+03  0.11263118763E+04  0.13718423525E+04  0.46999998093E+01 0. -1.
       -5    1    3    3    0  502 -0.61573600956E+03  0.48396288484E+03  0.15734509837E+04  0.17575895412E+04  0.46999998093E+01 0.  1.
</event>
<event>
 5   0  0.8430513E-05  0.1785964E+04  0.7818609E-02  0.8713800E-01
       -1   -1    0    0    0  501  0.00000000000E+00  0.00000000000E+00  0.77508708182E+03  0.77508708184E+03  0.50400001928E-02 0.  1.
        1   -1    0    0  501    0  0.00000000000E+00  0.00000000000E+00 -0.10288089304E+04  0.10288089304E+04  0.50400001928E-02 0. -1.
    10030    2    1    2    0    0  0.00000000000E+00  0.00000000000E+00 -0.25372184858E+03  0.18038960122E+04  0.17859636185E+04 0.  0.
        5    1    3    3  502    0  0.34773693776E+03 -0.22135885341E+03 -0.92694689481E+03  0.10144818163E+04  0.46999998093E+01 0. -1.
       -5    1    3    3    0  502 -0.34773693776E+03  0.22135885341E+03  0.67322504623E+03  0.78941419592E+03  0.46999998093E+01 0.  1.
</event>
<event>
 5   0  0.8430513E-05  0.1800706E+04  0.7818609E-02  0.8705924E-01
        1   -1    0    0  501    0  0.00000000000E+00  0.00000000000E+00  0.17095093188E+04  0.17095093188E+04  0.50400001928E-02 0. -1.
       -1   -1    0    0    0  501  0.00000000000E+00  0.00000000000E+00 -0.47419180433E+03  0.47419180436E+03  0.50400001928E-02 0.  1.
    10030    2    1    2    0    0  0.00000000000E+00  0.00000000000E+00  0.12353175144E+04  0.21837011231E+04  0.18007057599E+04 0.  0.
        5    1    3    3  502    0 -0.15516122517E+03 -0.54320121948E+03  0.14678159557E+04  0.15727836280E+04  0.46999998093E+01 0. -1.
       -5    1    3    3    0  502  0.15516122517E+03  0.54320121948E+03 -0.23249844129E+03  0.61091749512E+03  0.46999998093E+01 0.  1.
</event>
<event>
 5   0  0.1603564E-04  0.1792645E+04  0.7818609E-02  0.8710220E-01
       -2   -1    0    0    0  501  0.00000000000E+00  0.00000000000E+00  0.65414337245E+03  0.65414337245E+03  0.25500000920E-02 0.  1.
        2   -1    0    0  501    0  0.00000000000E+00  0.00000000000E+00 -0.12281625190E+04  0.12281625190E+04  0.25500000920E-02 0. -1.
    10030    2    1    2    0    0  0.00000000000E+00  0.00000000000E+00 -0.57401914652E+03  0.18823058914E+04  0.17926453883E+04 0.  0.
        5    1    3    3  502    0 -0.26726927388E+02  0.67021880662E+03  0.33725521643E+03  0.75078009324E+03  0.46999998093E+01 0.  1.
       -5    1    3    3    0  502  0.26726927388E+02 -0.67021880662E+03 -0.91127436295E+03  0.11315257982E+04  0.46999998093E+01 0. -1.
</event>
<event>
 5   0  0.8254914E-05  0.1795011E+04  0.7818609E-02  0.8708957E-01
       -1   -1    0    0    0  501  0.00000000000E+00  0.00000000000E+00  0.36793334212E+03  0.36793334216E+03  0.50400001928E-02 0.  1.
        1   -1    0    0  501    0  0.00000000000E+00  0.00000000000E+00 -0.21892997011E+04  0.21892997011E+04  0.50400001928E-02 0. -1.
    10030    2    1    2    0    0  0.00000000000E+00  0.00000000000E+00 -0.18213663590E+04  0.25572330433E+04  0.17950112601E+04 0.  0.
        4    1    3    3  502    0  0.18339256699E+03 -0.47267996160E+03  0.14436879204E+03  0.52716519303E+03  0.12699999809E+01 0.  1.
       -4    1    3    3    0  502 -0.18339256699E+03  0.47267996160E+03 -0.19657351510E+04  0.20300678502E+04  0.12699999809E+01 0. -1.
</event>
<event>
 5   0  0.8254914E-05  0.1803789E+04  0.7818609E-02  0.8704287E-01
        1   -1    0    0  501    0  0.00000000000E+00  0.00000000000E+00  0.18226757251E+04  0.18226757251E+04  0.50400001928E-02 0.  1.
       -1   -1    0    0    0  501  0.00000000000E+00  0.00000000000E+00 -0.44627465465E+03  0.44627465468E+03  0.50400001928E-02 0. -1.
    10030    2    1    2    0    0  0.00000000000E+00  0.00000000000E+00  0.13764010704E+04  0.22689503798E+04  0.18037893223E+04 0.  0.
        4    1    3    3  502    0  0.49719685675E+03  0.21312045432E+03  0.15959570809E+04  0.16851426228E+04  0.12699999809E+01 0.  1.
       -4    1    3    3    0  502 -0.49719685675E+03 -0.21312045432E+03 -0.21955601046E+03  0.58380775692E+03  0.12699999809E+01 0. -1.
</event>
<event>
 5   0  0.8430513E-05  0.1949142E+04  0.7818609E-02  0.8630775E-01
        1   -1    0    0  501    0  0.00000000000E+00  0.00000000000E+00  0.12905095345E+04  0.12905095345E+04  0.50400001928E-02 0. -1.
       -1   -1    0    0    0  501  0.00000000000E+00  0.00000000000E+00 -0.73597923911E+03  0.73597923913E+03  0.50400001928E-02 0.  1.
    10030    2    1    2    0    0  0.00000000000E+00  0.00000000000E+00  0.55453029542E+03  0.20264887737E+04  0.19491415806E+04 0.  0.
        5    1    3    3  502    0  0.14684569360E+03  0.77971132829E+03 -0.31110039534E+03  0.85224348585E+03  0.46999998093E+01 0. -1.
       -5    1    3    3    0  502 -0.14684569360E+03 -0.77971132829E+03  0.86563069075E+03  0.11742452878E+04  0.46999998093E+01 0.  1.
</event>
<event>
 5   0  0.8254914E-05  0.1797776E+04  0.7818609E-02  0.8707483E-01
        1   -1    0    0  501    0  0.00000000000E+00  0.00000000000E+00  0.22488192366E+04  0.22488192367E+04  0.50400001928E-02 0. -1.
       -1   -1    0    0    0  501  0.00000000000E+00  0.00000000000E+00 -0.35929941278E+03  0.35929941281E+03  0.50400001928E-02 0.  1.
    10030    2    1    2    0    0  0.00000000000E+00  0.00000000000E+00  0.18895198239E+04  0.26081186495E+04  0.17977757716E+04 0.  0.
        4    1    3    3  502    0  0.88623728149E+03  0.27054755437E+02  0.11592024689E+04  0.14594178483E+04  0.12699999809E+01 0.  1.
       -4    1    3    3    0  502 -0.88623728149E+03 -0.27054755437E+02  0.73031735493E+03  0.11487008012E+04  0.12699999809E+01 0. -1.
</event>
<event>
 5   0  0.8254914E-05  0.1802361E+04  0.7818609E-02  0.8705045E-01
       -1   -1    0    0    0  501  0.00000000000E+00  0.00000000000E+00  0.66368549437E+03  0.66368549439E+03  0.50400001928E-02 0.  1.
        1   -1    0    0  501    0  0.00000000000E+00  0.00000000000E+00 -0.12236608727E+04  0.12236608727E+04  0.50400001928E-02 0. -1.
    10030    2    1    2    0    0  0.00000000000E+00  0.00000000000E+00 -0.55997537832E+03  0.18873463671E+04  0.18023606423E+04 0.  0.
        4    1    3    3  502    0  0.11639533784E+03  0.40011025676E+03  0.55674430308E+03  0.69541492948E+03  0.12699999809E+01 0.  1.
       -4    1    3    3    0  502 -0.11639533784E+03 -0.40011025676E+03 -0.11167196814E+04  0.11919314376E+04  0.12699999809E+01 0. -1.
</event>
<event>
 5   0  0.8254914E-05  0.1816160E+04  0.7818609E-02  0.8697753E-01
       -1   -1    0    0    0  501  0.00000000000E+00  0.00000000000E+00  0.93990600704E+03  0.93990600706E+03  0.50400001928E-02 0. -1.
        1   -1    0    0  501    0  0.00000000000E+00  0.00000000000E+00 -0.87733171668E+03  0.87733171670E+03  0.50400001928E-02 0.  1.
    10030    2    1    2    0    0  0.00000000000E+00  0.00000000000E+00  0.62574290359E+02  0.18172377238E+04  0.18161600708E+04 0.  0.
        4    1    3    3  502    0  0.71069582117E+03 -0.45871771894E+03 -0.29920755998E+03  0.89723869330E+03  0.12699999809E+01 0.  1.
       -4    1    3    3    0  502 -0.71069582117E+03  0.45871771894E+03  0.36178185034E+03  0.91999903045E+03  0.12699999809E+01 0. -1.
</event>
<event>
 5   0  0.8206783E-05  0.1802931E+04  0.7818609E-02  0.8704742E-01
       -1   -1    0    0    0  501  0.00000000000E+00  0.00000000000E+00  0.39439806959E+03  0.39439806962E+03  0.50400001928E-02 0.  1.
        1   -1    0    0  501    0  0.00000000000E+00  0.00000000000E+00 -0.20604560855E+04  0.20604560855E+04  0.50400001928E-02 0. -1.
    10030    2    1    2    0    0  0.00000000000E+00  0.00000000000E+00 -0.16660580159E+04  0.24548541551E+04  0.18029308391E+04 0.  0.
        1    1    3    3  502    0 -0.60941691223E+03  0.64851957965E+03 -0.63725665129E+03  0.10945604861E+04  0.50400001928E-02 0. -1.
       -1    1    3    3    0  502  0.60941691223E+03 -0.64851957965E+03 -0.10288013646E+04  0.13602936690E+04  0.50400001928E-02 0.  1.
</event>
<event>
 5   0  0.1608627E-04  0.1792063E+04  0.7818609E-02  0.8710532E-01
        2   -1    0    0  501    0  0.00000000000E+00  0.00000000000E+00  0.12082690456E+04  0.12082690456E+04  0.25500000920E-02 0.  1.
       -2   -1    0    0    0  501  0.00000000000E+00  0.00000000000E+00 -0.66448127614E+03  0.66448127615E+03  0.25500000920E-02 0. -1.
    10030    2    1    2    0    0  0.00000000000E+00  0.00000000000E+00  0.54378776946E+03  0.18727503217E+04  0.17920626745E+04 0.  0.
        2    1    3    3  502    0  0.37977716071E+02  0.36791691782E+03  0.11247693909E+04  0.11840233731E+04  0.25500000920E-02 0.  1.
       -2    1    3    3    0  502 -0.37977716071E+02 -0.36791691782E+03 -0.58098162144E+03  0.68872694865E+03  0.25500000920E-02 0. -1.
</event>
<event>
 5   0  0.8206783E-05  0.1798281E+04  0.7818609E-02  0.8707214E-01
        1   -1    0    0  501    0  0.00000000000E+00  0.00000000000E+00  0.16434120425E+04  0.16434120425E+04  0.50400001928E-02 0. -1.
       -1   -1    0    0    0  501  0.00000000000E+00  0.00000000000E+00 -0.49193603392E+03  0.49193603395E+03  0.50400001928E-02 0.  1.
    10030    2    1    2    0    0  0.00000000000E+00  0.00000000000E+00  0.11514760086E+04  0.21353480765E+04  0.17982809595E+04 0.  0.
        1    1    3    3  502    0  0.59075972689E+03 -0.37049823890E+03  0.12497467700E+04  0.14311299693E+04  0.50400001928E-02 0. -1.
       -1    1    3    3    0  502 -0.59075972689E+03  0.37049823890E+03 -0.98270761360E+02  0.70421810720E+03  0.50400001928E-02 0.  1.
</event>
<event>
 5   0  0.8206783E-05  0.1798736E+04  0.7818609E-02  0.8706972E-01
        1   -1    0    0  501    0  0.00000000000E+00  0.00000000000E+00  0.14331890508E+04  0.14331890508E+04  0.50400001928E-02 0.  1.
       -1   -1    0    0    0  501  0.00000000000E+00  0.00000000000E+00 -0.56437949010E+03  0.56437949012E+03  0.50400001928E-02 0. -1.
    10030    2    1    2    0    0  0.00000000000E+00  0.00000000000E+00  0.86880956071E+03  0.19975685409E+04  0.17987356735E+04 0.  0.
        1    1    3    3  502    0  0.13154735653E+02  0.21803453763E+03  0.14032838668E+04  0.14201822832E+04  0.50400001928E-02 0.  1.
       -1    1    3    3    0  502 -0.13154735653E+02 -0.21803453763E+03 -0.53447430611E+03  0.57738625771E+03  0.50400001928E-02 0. -1.
</event>
<event>
 5   0  0.1603564E-04  0.1792713E+04  0.7818609E-02  0.8710184E-01
       -2   -1    0    0    0  501  0.00000000000E+00  0.00000000000E+00  0.92688250571E+03  0.92688250572E+03  0.25500000920E-02 0.  1.
        2   -1    0    0  501    0  0.00000000000E+00  0.00000000000E+00 -0.86683614539E+03  0.86683614539E+03  0.25500000920E-02 0. -1.
    10030    2    1    2    0    0  0.00000000000E+00  0.00000000000E+00  0.60046360328E+02  0.17937186511E+04  0.17927133162E+04 0.  0.
        5    1    3    3  502    0 -0.52588870311E+03 -0.14606437761E+03 -0.68138851464E+03  0.87304417319E+03  0.46999998093E+01 0. -1.
       -5    1    3    3    0  502  0.52588870311E+03  0.14606437761E+03  0.74143487497E+03  0.92067447791E+03  0.46999998093E+01 0.  1.
</event>
<event>
 5   0  0.5820500E-05  0.1795212E+04  0.7818609E-02  0.8708850E-01
       -4   -1    0    0    0  501  0.00000000000E+00  0.00000000000E+00  0.67984403544E+03  0.67984522166E+03  0.12699999809E+01 0.  1.
        4   -1    0    0  501    0  0.00000000000E+00  0.00000000000E+00 -0.11851171371E+04  0.11851178176E+04  0.12699999809E+01 0. -1.
    10030    2    1    2    0    0  0.00000000000E+00  0.00000000000E+00 -0.50527310167E+03  0.18649630393E+04  0.17952120294E+04 0.  0.
        2    1    3    3  502    0  0.63005255879E+03  0.25406388247E+03 -0.86210113951E+03  0.10976033245E+04  0.25500000920E-02 0. -1.
       -2    1    3    3    0  502 -0.63005255879E+03 -0.25406388247E+03  0.35682803784E+03  0.76735971474E+03  0.25500000920E-02 0.  1.
</event>
<event>
 5   0  0.8132598E-05  0.1801052E+04  0.7818609E-02  0.8705740E-01
       -1   -1    0    0    0  501  0.00000000000E+00  0.00000000000E+00  0.55700277447E+03  0.55700277449E+03  0.50400001928E-02 0.  1.
        1   -1    0    0  501    0  0.00000000000E+00  0.00000000000E+00 -0.14559128027E+04  0.14559128027E+04  0.50400001928E-02 0. -1.
    10030    2    1    2    0    0  0.00000000000E+00  0.00000000000E+00 -0.89891002823E+03  0.20129155772E+04  0.18010524374E+04 0.  0.
        3    1    3    3  502    0  0.78563513808E+03  0.27920803681E+03 -0.82972585298E+03  0.11762757752E+04  0.10100000352E+00 0.  1.
       -3    1    3    3    0  502 -0.78563513808E+03 -0.27920803681E+03 -0.69184175253E+02  0.83663980201E+03  0.10100000352E+00 0. -1.
</event>
<event>
 5   0  0.8254914E-05  0.1797997E+04  0.7818609E-02  0.8707365E-01
       -1   -1    0    0    0  501  0.00000000000E+00  0.00000000000E+00  0.28112468105E+03  0.28112468109E+03  0.50400001928E-02 0.  1.
        1   -1    0    0  501    0  0.00000000000E+00  0.00000000000E+00 -0.28748741771E+04  0.28748741771E+04  0.50400001928E-02 0. -1.
    10030    2    1    2    0    0  0.00000000000E+00  0.00000000000E+00 -0.25937494960E+04  0.31559988582E+04  0.17979967588E+04 0.  0.
        4    1    3    3  502    0 -0.49558245019E+03  0.34374346459E+03 -0.12669647672E+03  0.61629144444E+03  0.12699999809E+01 0.  1.
       -4    1    3    3    0  502  0.49558245019E+03 -0.34374346459E+03 -0.24670530193E+04  0.25397074137E+04  0.12699999809E+01 0. -1.
</event>
<event>
 5   0  0.8254914E-05  0.1797935E+04  0.7818609E-02  0.8707398E-01
        1   -1    0    0  501    0  0.00000000000E+00  0.00000000000E+00  0.10203003020E+04  0.10203003020E+04  0.50400001928E-02 0.  1.
       -1   -1    0    0    0  501  0.00000000000E+00  0.00000000000E+00 -0.79206327849E+03  0.79206327851E+03  0.50400001928E-02 0. -1.
    10030    2    1    2    0    0  0.00000000000E+00  0.00000000000E+00  0.22823702351E+03  0.18123635805E+04  0.17979348178E+04 0.  0.
        4    1    3    3  502    0  0.34178843611E+03  0.24084337346E+03 -0.68807951166E+03  0.80515830298E+03  0.12699999809E+01 0. -1.
       -4    1    3    3    0  502 -0.34178843611E+03 -0.24084337346E+03  0.91631653517E+03  0.10072052775E+04  0.12699999809E+01 0.  1.
</event>
<event>
 5   0  0.1549012E-04  0.1802996E+04  0.7818609E-02  0.8704708E-01
        2   -1    0    0  501    0  0.00000000000E+00  0.00000000000E+00  0.20863670672E+04  0.20863670672E+04  0.25500000920E-02 0.  1.
       -2   -1    0    0    0  501  0.00000000000E+00  0.00000000000E+00 -0.38952821916E+03  0.38952821917E+03  0.25500000920E-02 0. -1.
    10030    2    1    2    0    0  0.00000000000E+00  0.00000000000E+00  0.16968388480E+04  0.24758952863E+04  0.18029962265E+04 0.  0.
        4    1    3    3  502    0  0.32727951709E+03 -0.57472286606E+03  0.71897668761E+01  0.66141632935E+03  0.12699999809E+01 0. -1.
       -4    1    3    3    0  502 -0.32727951709E+03  0.57472286606E+03  0.16896490811E+04  0.18144789570E+04  0.12699999809E+01 0.  1.
</event>
<event>
 5   0  0.5820500E-05  0.1772552E+04  0.7818609E-02  0.8721034E-01
        3   -1    0    0  501    0  0.00000000000E+00  0.00000000000E+00  0.44081058965E+03  0.44081060122E+03  0.10100000352E+00 0. -1.
       -3   -1    0    0    0  501  0.00000000000E+00  0.00000000000E+00 -0.17819111958E+04  0.17819111987E+04  0.10100000352E+00 0.  1.
    10030    2    1    2    0    0  0.00000000000E+00  0.00000000000E+00 -0.13411006062E+04  0.22227217999E+04  0.17725522175E+04 0.  0.
        5    1    3    3  502    0 -0.35296395019E+03 -0.27825114874E+03 -0.16283840314E+04  0.16892791054E+04  0.46999998093E+01 0.  1.
       -5    1    3    3    0  502  0.35296395019E+03  0.27825114874E+03  0.28728342529E+03  0.53344269454E+03  0.46999998093E+01 0. -1.
</event>
<event>
 5   0  0.8132598E-05  0.1792011E+04  0.7818609E-02  0.8710559E-01
        1   -1    0    0  501    0  0.00000000000E+00  0.00000000000E+00  0.14140337970E+04  0.14140337970E+04  0.50400001928E-02 0.  1.
       -1   -1    0    0    0  501  0.00000000000E+00  0.00000000000E+00 -0.56775591892E+03  0.56775591894E+03  0.50400001928E-02 0. -1.
    10030    2    1    2    0    0  0.00000000000E+00  0.00000000000E+00  0.84627787805E+03  0.19817897159E+04  0.17920112252E+04 0.  0.
        3    1    3    3  502    0 -0.17662560435E+03  0.34325394903E+03 -0.47107482831E+03  0.60904136288E+03  0.10100000352E+00 0. -1.
       -3    1    3    3    0  502  0.17662560435E+03 -0.34325394903E+03  0.13173527064E+04  0.13727483530E+04  0.10100000352E+00 0.  1.
</event>
<event>
 5   0  0.1608627E-04  0.1815840E+04  0.7818609E-02  0.8697921E-01
        2   -1    0    0  501    0  0.00000000000E+00  0.00000000000E+00  0.14789466336E+04  0.14789466336E+04  0.25500000920E-02 0. -1.
       -2   -1    0    0    0  501  0.00000000000E+00  0.00000000000E+00 -0.55736852937E+03  0.55736852937E+03  0.25500000920E-02 0.  1.
    10030    2    1    2    0    0  0.00000000000E+00  0.00000000000E+00  0.92157810420E+03  0.20363151629E+04  0.18158395416E+04 0.  0.
        2    1    3    3  502    0 -0.13209329375E+03  0.38323638344E+03 -0.45025493186E+03  0.60584508542E+03  0.25500000920E-02 0.  1.
       -2    1    3    3    0  502  0.13209329375E+03 -0.38323638344E+03  0.13718330361E+04  0.14304700775E+04  0.25500000920E-02 0. -1.
</event>
<event>
 5   0  0.1603564E-04  0.1822681E+04  0.7818609E-02  0.8694330E-01
        2   -1    0    0  501    0  0.00000000000E+00  0.00000000000E+00  0.16282158555E+04  0.16282158555E+04  0.25500000920E-02 0.  1.
       -2   -1    0    0    0  501  0.00000000000E+00  0.00000000000E+00 -0.51009287360E+03  0.51009287361E+03  0.25500000920E-02 0. -1.
    10030    2    1    2    0    0  0.00000000000E+00  0.00000000000E+00  0.11181229819E+04  0.21383087291E+04  0.18226807779E+04 0.  0.
        5    1    3    3  502    0 -0.54545590822E+03  0.65104427534E+02 -0.29401597102E+03  0.62307962212E+03  0.46999998093E+01 0. -1.
       -5    1    3    3    0  502  0.54545590822E+03 -0.65104427534E+02  0.14121389529E+04  0.15152291070E+04  0.46999998093E+01 0.  1.
</event>
<event>
 5   0  0.1628397E-04  0.1805756E+04  0.7818609E-02  0.8703244E-01
       -2   -1    0    0    0  501  0.00000000000E+00  0.00000000000E+00  0.90646628804E+03  0.90646628805E+03  0.25500000920E-02 0. -1.
        2   -1    0    0  501    0  0.00000000000E+00  0.00000000000E+00 -0.89930424901E+03  0.89930424901E+03  0.25500000920E-02 0.  1.
    10030    2    1    2    0    0  0.00000000000E+00  0.00000000000E+00  0.71620390315E+01  0.18057705371E+04  0.18057563340E+04 0.  0.
        3    1    3    3  502    0  0.64719500293E+03 -0.13622190671E+03 -0.61105475657E+03  0.90044750286E+03  0.10100000352E+00 0.  1.
       -3    1    3    3    0  502 -0.64719500293E+03  0.13622190671E+03  0.61821679560E+03  0.90532303420E+03  0.10100000352E+00 0. -1.
</event>
<event>
 5   0  0.8492114E-05  0.1755922E+04  0.7818609E-02  0.8730097E-01
       -1   -1    0    0    0  501  0.00000000000E+00  0.00000000000E+00  0.91756764876E+03  0.91756764877E+03  0.50400001928E-02 0.  1.
        1   -1    0    0  501    0  0.00000000000E+00  0.00000000000E+00 -0.84006442867E+03  0.84006442868E+03  0.50400001928E-02 0. -1.
    10030    2    1    2    0    0  0.00000000000E+00  0.00000000000E+00  0.77503220092E+02  0.17576320775E+04  0.17559224842E+04 0.  0.
        2    1    3    3  502    0 -0.24654723797E+03  0.64984057805E+03 -0.49818245439E+03  0.85513979869E+03  0.25500000920E-02 0. -1.
       -2    1    3    3    0  502  0.24654723797E+03 -0.64984057805E+03  0.57568567448E+03  0.90249227877E+03  0.25500000920E-02 0.  1.
</event>
<event>
 5   0  0.1628397E-04  0.1803576E+04  0.7818609E-02  0.8704400E-01
        2   -1    0    0  501    0  0.00000000000E+00  0.00000000000E+00  0.12795258833E+04  0.12795258833E+04  0.25500000920E-02 0. -1.
       -2   -1    0    0    0  501  0.00000000000E+00  0.00000000000E+00 -0.63556501492E+03  0.63556501493E+03  0.25500000920E-02 0.  1.
    10030    2    1    2    0    0  0.00000000000E+00  0.00000000000E+00  0.64396086835E+03  0.19150908982E+04  0.18035763218E+04 0.  0.
        3    1    3    3  502    0  0.83902284139E+03  0.29090612897E+03  0.15531655473E+03  0.90150371415E+03  0.10100000352E+00 0.  1.
       -3    1    3    3    0  502 -0.83902284139E+03 -0.29090612897E+03  0.48864431362E+03  0.10135871841E+04  0.10100000352E+00 0. -1.
</event>
<event>
 5   0  0.8430513E-05  0.1814788E+04  0.7818609E-02  0.8698475E-01
       -1   -1    0    0    0  501  0.00000000000E+00  0.00000000000E+00  0.67480912115E+03  0.67480912117E+03  0.50400001928E-02 0. -1.
        1   -1    0    0  501    0  0.00000000000E+00  0.00000000000E+00 -0.12201432143E+04  0.12201432143E+04  0.50400001928E-02 0.  1.
    10030    2    1    2    0    0  0.00000000000E+00  0.00000000000E+00 -0.54533409317E+03  0.18949523355E+04  0.18147878886E+04 0.  0.
        5    1    3    3  502    0  0.53492051939E+03 -0.73289414755E+03 -0.28127033368E+03  0.94995204309E+03  0.46999998093E+01 0. -1.
       -5    1    3    3    0  502 -0.53492051939E+03  0.73289414755E+03 -0.26406375949E+03  0.94500029240E+03  0.46999998093E+01 0.  1.
</event>
<event>
 5   0  0.8132598E-05  0.1816835E+04  0.7818609E-02  0.8697398E-01
       -1   -1    0    0    0  501  0.00000000000E+00  0.00000000000E+00  0.11959668956E+04  0.11959668956E+04  0.50400001928E-02 0.  1.
        1   -1    0    0  501    0  0.00000000000E+00  0.00000000000E+00 -0.69000407946E+03  0.69000407948E+03  0.50400001928E-02 0. -1.
    10030    2    1    2    0    0  0.00000000000E+00  0.00000000000E+00  0.50596281611E+03  0.18859709751E+04  0.18168346506E+04 0.  0.
        3    1    3    3  502    0  0.43525726905E+02 -0.14079236744E+03 -0.67751329474E+03  0.69335507093E+03  0.10100000352E+00 0. -1.
       -3    1    3    3    0  502 -0.43525726905E+02  0.14079236744E+03  0.11834761108E+04  0.11926159041E+04  0.10100000352E+00 0.  1.
</event>
<event>
 5   0  0.8254914E-05  0.1787118E+04  0.7818609E-02  0.8713180E-01
       -1   -1    0    0    0  501  0.00000000000E+00  0.00000000000E+00  0.42636272167E+03  0.42636272170E+03  0.50400001928E-02 0.  1.
        1   -1    0    0  501    0  0.00000000000E+00  0.00000000000E+00 -0.18726952333E+04  0.18726952333E+04  0.50400001928E-02 0. -1.
    10030    2    1    2    0    0  0.00000000000E+00  0.00000000000E+00 -0.14463325116E+04  0.22990579550E+04  0.17871177203E+04 0.  0.
        4    1    3    3  502    0 -0.63663485179E+03 -0.33981576346E+03 -0.45276613150E+02  0.72307003271E+03  0.12699999809E+01 0.  1.
       -4    1    3    3    0  502  0.63663485179E+03  0.33981576346E+03 -0.14010558984E+04  0.15759879222E+04  0.12699999809E+01 0. -1.
</event>
<event>
 5   0  0.1549012E-04  0.1802937E+04  0.7818609E-02  0.8704739E-01
        2   -1    0    0  501    0  0.00000000000E+00  0.00000000000E+00  0.11859484212E+04  0.11859484212E+04  0.25500000920E-02 0.  1.
       -2   -1    0    0    0  501  0.00000000000E+00  0.00000000000E+00 -0.68522869548E+03  0.68522869548E+03  0.25500000920E-02 0. -1.
    10030    2    1    2    0    0  0.00000000000E+00  0.00000000000E+00  0.50071972574E+03  0.18711771167E+04  0.18029374804E+04 0.  0.
        4    1    3    3  502    0 -0.29271907453E+03  0.55171247093E+03  0.92502021703E+03  0.11161250476E+04  0.12699999809E+01 0.  1.
       -4    1    3    3    0  502  0.29271907453E+03 -0.55171247093E+03 -0.42430049129E+03  0.75505206906E+03  0.12699999809E+01 0. -1.
</event>
<event>
 5   0  0.8254914E-05  0.1814208E+04  0.7818609E-02  0.8698780E-01
       -1   -1    0    0    0  501  0.00000000000E+00  0.00000000000E+00  0.76931579089E+03  0.76931579090E+03  0.50400001928E-02 0.  1.
        1   -1    0    0  501    0  0.00000000000E+00  0.00000000000E+00 -0.10695712927E+04  0.10695712927E+04  0.50400001928E-02 0. -1.
    10030    2    1    2    0    0  0.00000000000E+00  0.00000000000E+00 -0.30025550183E+03  0.18388870836E+04  0.18142084610E+04 0.  0.
        4    1    3    3  502    0 -0.40899109518E+03  0.32078063463E+03 -0.90365313817E+03  0.10424799943E+04  0.12699999809E+01 0. -1.
       -4    1    3    3    0  502  0.40899109518E+03 -0.32078063463E+03  0.60339763634E+03  0.79640708933E+03  0.12699999809E+01 0.  1.
</event>
<event>
 5   0  0.1603564E-04  0.1814103E+04  0.7818609E-02  0.8698836E-01
       -2   -1    0    0    0  501  0.00000000000E+00  0.00000000000E+00  0.50371080953E+03  0.50371080954E+03  0.25500000920E-02 0. -1.
        2   -1    0    0  501    0  0.00000000000E+00  0.00000000000E+00 -0.16333619401E+04  0.16333619401E+04  0.25500000920E-02 0.  1.
    10030    2    1    2    0    0  0.00000000000E+00  0.00000000000E+00 -0.11296511305E+04  0.21370727496E+04  0.18141026047E+04 0.  0.
        5    1    3    3  502    0  0.26306431505E+03  0.35674390143E+03  0.36742284527E+03  0.57575227511E+03  0.46999998093E+01 0. -1.
       -5    1    3    3    0  502 -0.26306431505E+03 -0.35674390143E+03 -0.14970739758E+04  0.15613204745E+04  0.46999998093E+01 0.  1.
</event>
<event>
 5   0  0.8132598E-05  0.1760195E+04  0.7818609E-02  0.8727759E-01
        1   -1    0    0  501    0  0.00000000000E+00  0.00000000000E+00  0.20626324220E+04  0.20626324220E+04  0.50400001928E-02 0.  1.
       -1   -1    0    0    0  501  0.00000000000E+00  0.00000000000E+00 -0.37552555179E+03  0.37552555183E+03  0.50400001928E-02 0. -1.
    10030    2    1    2    0    0  0.00000000000E+00  0.00000000000E+00  0.16871068702E+04  0.24381579739E+04  0.17601945102E+04 0.  0.
        3    1    3    3  502    0 -0.75472226662E+03  0.11334639561E+03  0.14506884478E+04  0.16391919008E+04  0.10100000352E+00 0.  1.
       -3    1    3    3    0  502  0.75472226662E+03 -0.11334639561E+03  0.23641842247E+03  0.79896607301E+03  0.10100000352E+00 0. -1.
</event>
<event>
 5   0  0.1608627E-04  0.1803094E+04  0.7818609E-02  0.8704656E-01
       -2   -1    0    0    0  501  0.00000000000E+00  0.00000000000E+00  0.98079817116E+03  0.98079817116E+03  0.25500000920E-02 0.  1.
        2   -1    0    0  501    0  0.00000000000E+00  0.00000000000E+00 -0.82869959363E+03  0.82869959363E+03  0.25500000920E-02 0. -1.
    10030    2    1    2    0    0  0.00000000000E+00  0.00000000000E+00  0.15209857753E+03  0.18094977648E+04  0.18030940584E+04 0.  0.
        2    1    3    3  502    0  0.76906157213E+03  0.29767374846E+03 -0.28955443442E+03  0.87401781032E+03  0.25500000920E-02 0. -1.
       -2    1    3    3    0  502 -0.76906157213E+03 -0.29767374846E+03  0.44165301195E+03  0.93547995447E+03  0.25500000920E-02 0.  1.
</event>
<event>
 5   0  0.1549012E-04  0.1833259E+04  0.7818609E-02  0.8688810E-01
       -2   -1    0    0    0  501  0.00000000000E+00  0.00000000000E+00  0.61733641440E+03  0.61733641440E+03  0.25500000920E-02 0. -1.
        2   -1    0    0  501    0  0.00000000000E+00  0.00000000000E+00 -0.13610246014E+04  0.13610246014E+04  0.25500000920E-02 0.  1.
    10030    2    1    2    0    0  0.00000000000E+00  0.00000000000E+00 -0.74368818704E+03  0.19783610158E+04  0.18332594441E+04 0.  0.
        4    1    3    3  502    0 -0.35932250393E+03 -0.26001965810E+03  0.49382320928E+03  0.66376641927E+03  0.12699999809E+01 0. -1.
       -4    1    3    3    0  502  0.35932250393E+03  0.26001965810E+03 -0.12375113963E+04  0.13145945966E+04  0.12699999809E+01 0.  1.
</event>
<event>
 5   0  0.1608627E-04  0.1814972E+04  0.7818609E-02  0.8698378E-01
       -2   -1    0    0    0  501  0.00000000000E+00  0.00000000000E+00  0.71554001118E+03  0.71554001118E+03  0.25500000920E-02 0.  1.
        2   -1    0    0  501    0  0.00000000000E+00  0.00000000000E+00 -0.11509218366E+04  0.11509218366E+04  0.25500000920E-02 0. -1.
    10030    2    1    2    0    0  0.00000000000E+00  0.00000000000E+00 -0.43538182542E+03  0.18664618478E+04  0.18149717616E+04 0.  0.
        2    1    3    3  502    0  0.74297177470E+03 -0.21690561158E+03  0.26953877099E+03  0.81957687340E+03  0.25500000920E-02 0.  1.
       -2    1    3    3    0  502 -0.74297177470E+03  0.21690561158E+03 -0.70492059641E+03  0.10468849744E+04  0.25500000920E-02 0. -1.
</event>
<event>
 5   0  0.8254914E-05  0.1789849E+04  0.7818609E-02  0.8711716E-01
        1   -1    0    0  501    0  0.00000000000E+00  0.00000000000E+00  0.89933378059E+03  0.89933378060E+03  0.50400001928E-02 0. -1.
       -1   -1    0    0    0  501  0.00000000000E+00  0.00000000000E+00 -0.89053692581E+03  0.89053692583E+03  0.50400001928E-02 0.  1.
    10030    2    1    2    0    0  0.00000000000E+00  0.00000000000E+00  0.87968547752E+01  0.17898707064E+04  0.17898490889E+04 0.  0.
        4    1    3    3  502    0  0.40907905558E+03 -0.66220131430E+03  0.44602811859E+03  0.89710587438E+03  0.12699999809E+01 0. -1.
       -4    1    3    3    0  502 -0.40907905558E+03  0.66220131430E+03 -0.43723126381E+03  0.89276483204E+03  0.12699999809E+01 0.  1.
</event>
<event>
 5   0  0.1603564E-04  0.1797130E+04  0.7818609E-02  0.8707827E-01
        2   -1    0    0  501    0  0.00000000000E+00  0.00000000000E+00  0.73777543116E+03  0.73777543116E+03  0.25500000920E-02 0. -1.
       -2   -1    0    0    0  501  0.00000000000E+00  0.00000000000E+00 -0.10943968436E+04  0.10943968436E+04  0.25500000920E-02 0.  1.
    10030    2    1    2    0    0  0.00000000000E+00  0.00000000000E+00 -0.35662141243E+03  0.18321722747E+04  0.17971300489E+04 0.  0.
        5    1    3    3  502    0  0.89691254662E+03 -0.27471694364E+02 -0.13059855777E+03  0.90679925207E+03  0.46999998093E+01 0.  1.
       -5    1    3    3    0  502 -0.89691254662E+03  0.27471694364E+02 -0.22602285465E+03  0.92537302267E+03  0.46999998093E+01 0. -1.
</event>
<event>
 5   0  0.8492114E-05  0.1797625E+04  0.7818609E-02  0.8707564E-01
       -1   -1    0    0    0  501  0.00000000000E+00  0.00000000000E+00  0.10515123607E+04  0.10515123607E+04  0.50400001928E-02 0.  1.
        1   -1    0    0  501    0  0.00000000000E+00  0.00000000000E+00 -0.76828731233E+03  0.76828731235E+03  0.50400001928E-02 0. -1.
    10030    2    1    2    0    0  0.00000000000E+00  0.00000000000E+00  0.28322504833E+03  0.18197996730E+04  0.17976246610E+04 0.  0.
        2    1    3    3  502    0  0.85974443908E+03  0.25014145939E+03  0.62337165116E+02  0.89756179308E+03  0.25500000920E-02 0. -1.
       -2    1    3    3    0  502 -0.85974443908E+03 -0.25014145939E+03  0.22088788321E+03  0.92223787994E+03  0.25500000920E-02 0.  1.
</event>
<event>
 5   0  0.8206783E-05  0.1815406E+04  0.7818609E-02  0.8698150E-01
       -1   -1    0    0    0  501  0.00000000000E+00  0.00000000000E+00  0.13893044529E+04  0.13893044529E+04  0.50400001928E-02 0. -1.
        1   -1    0    0  501    0  0.00000000000E+00  0.00000000000E+00 -0.59304810886E+03  0.59304810888E+03  0.50400001928E-02 0.  1.
    10030    2    1    2    0    0  0.00000000000E+00  0.00000000000E+00  0.79625634401E+03  0.19823525618E+04  0.18154056059E+04 0.  0.
        1    1    3    3  502    0 -0.19264084727E+03 -0.84413030827E+03  0.69569092673E+03  0.11106990317E+04  0.50400001928E-02 0. -1.
       -1    1    3    3    0  502  0.19264084727E+03  0.84413030827E+03  0.10056541728E+03  0.87165353011E+03  0.50400001928E-02 0.  1.
</event>
<event>
 5   0  0.8430513E-05  0.1803838E+04  0.7818609E-02  0.8704261E-01
        1   -1    0    0  501    0  0.00000000000E+00  0.00000000000E+00  0.12955868550E+04  0.12955868551E+04  0.50400001928E-02 0.  1.
       -1   -1    0    0    0  501  0.00000000000E+00  0.00000000000E+00 -0.62786818165E+03  0.62786818168E+03  0.50400001928E-02 0. -1.
    10030    2    1    2    0    0  0.00000000000E+00  0.00000000000E+00  0.66771867339E+03  0.19234550367E+04  0.18038378673E+04 0.  0.
        5    1    3    3  502    0  0.44795844944E+03  0.41677394926E+03  0.10404218916E+04  0.12070074978E+04  0.46999998093E+01 0.  1.
       -5    1    3    3    0  502 -0.44795844944E+03 -0.41677394926E+03 -0.37270321821E+03  0.71644753894E+03  0.46999998093E+01 0. -1.
</event>
<event>
 5   0  0.8254914E-05  0.1803245E+04  0.7818609E-02  0.8704576E-01
       -1   -1    0    0    0  501  0.00000000000E+00  0.00000000000E+00  0.50584706581E+03  0.50584706584E+03  0.50400001928E-02 0. -1.
        1   -1    0    0  501    0  0.00000000000E+00  0.00000000000E+00 -0.16070526058E+04  0.16070526058E+04  0.50400001928E-02 0.  1.
    10030    2    1    2    0    0  0.00000000000E+00  0.00000000000E+00 -0.11012055399E+04  0.21128996716E+04  0.18032446814E+04 0.  0.
        4    1    3    3  502    0 -0.44241544718E+03  0.23243947492E+03  0.32870471363E+03  0.59817049331E+03  0.12699999809E+01 0. -1.
       -4    1    3    3    0  502  0.44241544718E+03 -0.23243947492E+03 -0.14299102536E+04  0.15147291783E+04  0.12699999809E+01 0.  1.
</event>
<event>
 5   0  0.1573981E-04  0.1805203E+04  0.7818609E-02  0.8703538E-01
       -2   -1    0    0    0  501  0.00000000000E+00  0.00000000000E+00  0.66722892590E+03  0.66722892590E+03  0.25500000920E-02 0.  1.
        2   -1    0    0  501    0  0.00000000000E+00  0.00000000000E+00 -0.12210040062E+04  0.12210040062E+04  0.25500000920E-02 0. -1.
    10030    2    1    2    0    0  0.00000000000E+00  0.00000000000E+00 -0.55377508033E+03  0.18882329321E+04  0.18052026940E+04 0.  0.
        1    1    3    3  502    0 -0.41105143294E+03 -0.38635889195E+03  0.46011424705E+03  0.72797087461E+03  0.50400001928E-02 0.  1.
       -1    1    3    3    0  502  0.41105143294E+03  0.38635889195E+03 -0.10138893274E+04  0.11602620575E+04  0.50400001928E-02 0. -1.
</event>
<event>
 5   0  0.8206783E-05  0.1815935E+04  0.7818609E-02  0.8697871E-01
       -1   -1    0    0    0  501  0.00000000000E+00  0.00000000000E+00  0.55320682496E+03  0.55320682498E+03  0.50400001928E-02 0.  1.
        1   -1    0    0  501    0  0.00000000000E+00  0.00000000000E+00 -0.14902290502E+04  0.14902290502E+04  0.50400001928E-02 0. -1.
    10030    2    1    2    0    0  0.00000000000E+00  0.00000000000E+00 -0.93702222526E+03  0.20434358752E+04  0.18159348902E+04 0.  0.
        1    1    3    3  502    0 -0.16497231370E+02 -0.87373260184E+03 -0.74580554673E+03  0.11488719388E+04  0.50400001928E-02 0.  1.
       -1    1    3    3    0  502  0.16497231370E+02  0.87373260184E+03 -0.19121667853E+03  0.89456393642E+03  0.50400001928E-02 0. -1.
</event>
<event>
 5   0  0.1628397E-04  0.1801991E+04  0.7818609E-02  0.8705242E-01
       -2   -1    0    0    0  501  0.00000000000E+00  0.00000000000E+00  0.32658249214E+03  0.32658249215E+03  0.25500000920E-02 0.  1.
        2   -1    0    0  501    0  0.00000000000E+00  0.00000000000E+00 -0.24857195019E+04  0.24857195019E+04  0.25500000920E-02 0. -1.
    10030    2    1    2    0    0  0.00000000000E+00  0.00000000000E+00 -0.21591370098E+04  0.28123019941E+04  0.18019905324E+04 0.  0.
        3    1    3    3  502    0 -0.39223199861E+03 -0.42293401831E+02  0.18462511295E+03  0.43556987396E+03  0.10100000352E+00 0.  1.
       -3    1    3    3    0  502  0.39223199861E+03  0.42293401831E+02 -0.23437621227E+04  0.23767321201E+04  0.10100000352E+00 0. -1.
</event>
<event>
 5   0  0.1573981E-04  0.1796988E+04  0.7818609E-02  0.8707903E-01
       -2   -1    0    0    0  501  0.00000000000E+00  0.00000000000E+00  0.35776350356E+03  0.35776350357E+03  0.25500000920E-02 0.  1.
        2   -1    0    0  501    0  0.00000000000E+00  0.00000000000E+00 -0.22564953104E+04  0.22564953104E+04  0.25500000920E-02 0. -1.
    10030    2    1    2    0    0  0.00000000000E+00  0.00000000000E+00 -0.18987318069E+04  0.26142588140E+04  0.17969882226E+04 0.  0.
        1    1    3    3  502    0  0.46990430494E+03  0.75613543871E+03 -0.77273608093E+03  0.11788434622E+04  0.50400001928E-02 0. -1.
       -1    1    3    3    0  502 -0.46990430494E+03 -0.75613543871E+03 -0.11259957259E+04  0.14354153518E+04  0.50400001928E-02 0.  1.
</event>
<event>
 5   0  0.1573981E-04  0.1794878E+04  0.7818609E-02  0.8709028E-01
        2   -1    0    0  501    0  0.00000000000E+00  0.00000000000E+00  0.71886985413E+03  0.71886985413E+03  0.25500000920E-02 0. -1.
       -2   -1    0    0    0  501  0.00000000000E+00  0.00000000000E+00 -0.11203647049E+04  0.11203647049E+04  0.25500000920E-02 0.  1.
    10030    2    1    2    0    0  0.00000000000E+00  0.00000000000E+00 -0.40149485072E+03  0.18392345590E+04  0.17948776136E+04 0.  0.
        1    1    3    3  502    0 -0.30123158978E+03  0.84453407056E+03 -0.16215850902E+03  0.91119352999E+03  0.50400001928E-02 0. -1.
       -1    1    3    3    0  502  0.30123158978E+03 -0.84453407056E+03 -0.23933634171E+03  0.92804102900E+03  0.50400001928E-02 0.  1.
</event>
<event>
 5   0  0.1603564E-04  0.1792320E+04  0.7818609E-02  0.8710394E-01
        2   -1    0    0  501    0  0.00000000000E+00  0.00000000000E+00  0.15215119482E+04  0.15215119482E+04  0.25500000920E-02 0. -1.
       -2   -1    0    0    0  501  0.00000000000E+00  0.00000000000E+00 -0.52783212657E+03  0.52783212658E+03  0.25500000920E-02 0.  1.
    10030    2    1    2    0    0  0.00000000000E+00  0.00000000000E+00  0.99367982162E+03  0.20493440748E+04  0.17923201580E+04 0.  0.
        5    1    3    3  502    0 -0.77761477536E+03  0.13337491615E+03  0.10917634417E+02  0.78905949830E+03  0.46999998093E+01 0. -1.
       -5    1    3    3    0  502  0.77761477536E+03 -0.13337491615E+03  0.98276218720E+03  0.12602845765E+04  0.46999998093E+01 0.  1.
</event>
<event>
 5   0  0.8430513E-05  0.1798541E+04  0.7818609E-02  0.8707076E-01
        1   -1    0    0  501    0  0.00000000000E+00  0.00000000000E+00  0.97742822247E+03  0.97742822248E+03  0.50400001928E-02 0.  1.
       -1   -1    0    0    0  501  0.00000000000E+00  0.00000000000E+00 -0.82736287366E+03  0.82736287368E+03  0.50400001928E-02 0. -1.
    10030    2    1    2    0    0  0.00000000000E+00  0.00000000000E+00  0.15006534880E+03  0.18047910962E+04  0.17985414346E+04 0.  0.
        5    1    3    3  502    0  0.16349486107E+03  0.57208971790E+03  0.75165197540E+03  0.95865530669E+03  0.46999998093E+01 0.  1.
       -5    1    3    3    0  502 -0.16349486107E+03 -0.57208971790E+03 -0.60158662660E+03  0.84613578947E+03  0.46999998093E+01 0. -1.
</event>
<event>
 5   0  0.1628397E-04  0.1805012E+04  0.7818609E-02  0.8703639E-01
        2   -1    0    0  501    0  0.00000000000E+00  0.00000000000E+00  0.90923381415E+03  0.90923381415E+03  0.25500000920E-02 0. -1.
       -2   -1    0    0    0  501  0.00000000000E+00  0.00000000000E+00 -0.89582761640E+03  0.89582761641E+03  0.25500000920E-02 0.  1.
    10030    2    1    2    0    0  0.00000000000E+00  0.00000000000E+00  0.13406197744E+02  0.18050614306E+04  0.18050116459E+04 0.  0.
        3    1    3    3  502    0  0.44343044683E+02 -0.87249597947E+03 -0.21980085347E+03  0.90084846961E+03  0.10100000352E+00 0.  1.
       -3    1    3    3    0  502 -0.44343044683E+02  0.87249597947E+03  0.23320705122E+03  0.90421296095E+03  0.10100000352E+00 0. -1.
</event>
<event>
 5   0  0.8492114E-05  0.1788075E+04  0.7818609E-02  0.8712667E-01
       -1   -1    0    0    0  501  0.00000000000E+00  0.00000000000E+00  0.35077734932E+03  0.35077734936E+03  0.50400001928E-02 0.  1.
        1   -1    0    0  501    0  0.00000000000E+00  0.00000000000E+00 -0.22786630395E+04  0.22786630395E+04  0.50400001928E-02 0. -1.
    10030    2    1    2    0    0  0.00000000000E+00  0.00000000000E+00 -0.19278856902E+04  0.26294403888E+04  0.17880753687E+04 0.  0.
        2    1    3    3  502    0 -0.75453516673E+03  0.70144025479E+02 -0.16615750957E+04  0.18262188535E+04  0.25500000920E-02 0. -1.
       -2    1    3    3    0  502  0.75453516673E+03 -0.70144025479E+02 -0.26631059446E+03  0.80322153536E+03  0.25500000920E-02 0.  1.
</event>
<event>
 5   0  0.8206783E-05  0.1801183E+04  0.7818609E-02  0.8705671E-01
       -1   -1    0    0    0  501  0.00000000000E+00  0.00000000000E+00  0.53006550914E+03  0.53006550916E+03  0.50400001928E-02 0.  1.
        1   -1    0    0  501    0  0.00000000000E+00  0.00000000000E+00 -0.15301219213E+04  0.15301219214E+04  0.50400001928E-02 0. -1.
    10030    2    1    2    0    0  0.00000000000E+00  0.00000000000E+00 -0.10000564122E+04  0.20601874305E+04  0.18011827840E+04 0.  0.
        1    1    3    3  502    0  0.84364479893E+03 -0.31308160147E+03 -0.45865785289E+03  0.10100117138E+04  0.50400001928E-02 0.  1.
       -1    1    3    3    0  502 -0.84364479893E+03  0.31308160147E+03 -0.54139855932E+03  0.10501757167E+04  0.50400001928E-02 0. -1.
</event>
<event>
 5   0  0.8132598E-05  0.1776589E+04  0.7818609E-02  0.8718849E-01
       -1   -1    0    0    0  501  0.00000000000E+00  0.00000000000E+00  0.11518011135E+04  0.11518011135E+04  0.50400001928E-02 0. -1.
        1   -1    0    0  501    0  0.00000000000E+00  0.00000000000E+00 -0.68507261866E+03  0.68507261867E+03  0.50400001928E-02 0.  1.
    10030    2    1    2    0    0  0.00000000000E+00  0.00000000000E+00  0.46672849486E+03  0.18368737322E+04  0.17765893223E+04 0.  0.
        3    1    3    3  502    0 -0.51512006961E+03 -0.61747404829E+03 -0.15686077250E+03  0.81928517537E+03  0.10100000352E+00 0.  1.
       -3    1    3    3    0  502  0.51512006961E+03  0.61747404829E+03  0.62358926736E+03  0.10175885568E+04  0.10100000352E+00 0. -1.
</event>
<event>
 5   0  0.8132598E-05  0.1797221E+04  0.7818609E-02  0.8707779E-01
       -1   -1    0    0    0  501  0.00000000000E+00  0.00000000000E+00  0.67087019797E+03  0.67087019799E+03  0.50400001928E-02 0.  1.
        1   -1    0    0  501    0  0.00000000000E+00  0.00000000000E+00 -0.12036616123E+04  0.12036616123E+04  0.50400001928E-02 0. -1.
    10030    2    1    2    0    0  0.00000000000E+00  0.00000000000E+00 -0.53279141436E+03  0.18745318103E+04  0.17972208592E+04 0.  0.
        3    1    3    3  502    0  0.23366934060E+03 -0.28238353016E+03 -0.11221521000E+04  0.11804944577E+04  0.10100000352E+00 0. -1.
       -3    1    3    3    0  502 -0.23366934060E+03  0.28238353016E+03  0.58936068567E+03  0.69403735264E+03  0.10100000352E+00 0.  1.
</event>
<event>
 5   0  0.1608627E-04  0.1969232E+04  0.7818609E-02  0.8621142E-01
        2   -1    0    0  501    0  0.00000000000E+00  0.00000000000E+00  0.24624842102E+04  0.24624842102E+04  0.25500000920E-02 0. -1.
       -2   -1    0    0    0  501  0.00000000000E+00  0.00000000000E+00 -0.39369542198E+03  0.39369542199E+03  0.25500000920E-02 0.  1.
    10030    2    1    2    0    0  0.00000000000E+00  0.00000000000E+00  0.20687887882E+04  0.28561796322E+04  0.19692320943E+04 0.  0.
        2    1    3    3  502    0  0.52100462545E+03 -0.45404797186E+02  0.22443826970E+04  0.23045088643E+04  0.25500000920E-02 0. -1.
       -2    1    3    3    0  502 -0.52100462545E+03  0.45404797186E+02 -0.17559390873E+03  0.55167076788E+03  0.25500000920E-02 0.  1.
</event>
<event>
 5   0  0.8430513E-05  0.1799009E+04  0.7818609E-02  0.8706827E-01
       -1   -1    0    0    0  501  0.00000000000E+00  0.00000000000E+00  0.94605772519E+03  0.94605772520E+03  0.50400001928E-02 0.  1.
        1   -1    0    0  501    0  0.00000000000E+00  0.00000000000E+00 -0.85524171808E+03  0.85524171809E+03  0.50400001928E-02 0. -1.
    10030    2    1    2    0    0  0.00000000000E+00  0.00000000000E+00  0.90816007109E+02  0.18012994433E+04  0.17990086540E+04 0.  0.
        5    1    3    3  502    0  0.79618086922E+03 -0.29008777721E+03  0.34750571603E+03  0.91588056409E+03  0.46999998093E+01 0.  1.
       -5    1    3    3    0  502 -0.79618086922E+03  0.29008777721E+03 -0.25668970892E+03  0.88541887921E+03  0.46999998093E+01 0. -1.
</event>
<event>
 5   0  0.1603564E-04  0.1795663E+04  0.7818609E-02  0.8708609E-01
        2   -1    0    0  501    0  0.00000000000E+00  0.00000000000E+00  0.12454081189E+04  0.12454081189E+04  0.25500000920E-02 0. -1.
       -2   -1    0    0    0  501  0.00000000000E+00  0.00000000000E+00 -0.64725893500E+03  0.64725893500E+03  0.25500000920E-02 0.  1.
    10030    2    1    2    0    0  0.00000000000E+00  0.00000000000E+00  0.59814918392E+03  0.18926670539E+04  0.17956631451E+04 0.  0.
        5    1    3    3  502    0 -0.58053295756E+03 -0.65911871931E+03  0.49520027613E+03  0.10083161233E+04  0.46999998093E+01 0. -1.
       -5    1    3    3    0  502  0.58053295756E+03  0.65911871931E+03  0.10294890780E+03  0.88435093067E+03  0.46999998093E+01 0.  1.
</event>
<event>
 5   0  0.8492114E-05  0.1820916E+04  0.7818609E-02  0.8695255E-01
        1   -1    0    0  501    0  0.00000000000E+00  0.00000000000E+00  0.59854419625E+03  0.59854419627E+03  0.50400001928E-02 0.  1.
       -1   -1    0    0    0  501  0.00000000000E+00  0.00000000000E+00 -0.13849159187E+04  0.13849159187E+04  0.50400001928E-02 0. -1.
    10030    2    1    2    0    0  0.00000000000E+00  0.00000000000E+00 -0.78637172245E+03  0.19834601150E+04  0.18209155779E+04 0.  0.
        2    1    3    3  502    0  0.27458872006E+03 -0.86536995591E+03 -0.46761751609E+03  0.10212395738E+04  0.25500000920E-02 0.  1.
       -2    1    3    3    0  502 -0.27458872006E+03  0.86536995591E+03 -0.31875420636E+03  0.96222054117E+03  0.25500000920E-02 0. -1.
</event>
<event>
 5   0  0.5820500E-05  0.1802762E+04  0.7818609E-02  0.8704832E-01
       -4   -1    0    0    0  501  0.00000000000E+00  0.00000000000E+00  0.99568175185E+03  0.99568256180E+03  0.12699999809E+01 0.  1.
        4   -1    0    0  501    0  0.00000000000E+00  0.00000000000E+00 -0.81600982238E+03  0.81601081066E+03  0.12699999809E+01 0. -1.
    10030    2    1    2    0    0  0.00000000000E+00  0.00000000000E+00  0.17967192947E+03  0.18116933725E+04  0.18027620125E+04 0.  0.
        4    1    3    3  502    0  0.16463855246E+03  0.13713111026E+02  0.98033670888E+03  0.99416074055E+03  0.12699999809E+01 0.  1.
       -4    1    3    3    0  502 -0.16463855246E+03 -0.13713111026E+02 -0.80066477940E+03  0.81753263192E+03  0.12699999809E+01 0. -1.
</event>
<event>
 5   0  0.8206783E-05  0.1803081E+04  0.7818609E-02  0.8704663E-01
        1   -1    0    0  501    0  0.00000000000E+00  0.00000000000E+00  0.75436195730E+03  0.75436195732E+03  0.50400001928E-02 0. -1.
       -1   -1    0    0    0  501  0.00000000000E+00  0.00000000000E+00 -0.10774343074E+04  0.10774343074E+04  0.50400001928E-02 0.  1.
    10030    2    1    2    0    0  0.00000000000E+00  0.00000000000E+00 -0.32307235005E+03  0.18317962647E+04  0.18030811995E+04 0.  0.
        1    1    3    3  502    0  0.25868803135E+03 -0.86109781970E+03 -0.22866802744E+03  0.92773812008E+03  0.50400001928E-02 0. -1.
       -1    1    3    3    0  502 -0.25868803135E+03  0.86109781970E+03 -0.94404322616E+02  0.90405814460E+03  0.50400001928E-02 0.  1.
</event>
<event>
 5   0  0.8492114E-05  0.1782949E+04  0.7818609E-02  0.8715420E-01
        1   -1    0    0  501    0  0.00000000000E+00  0.00000000000E+00  0.70478446157E+03  0.70478446158E+03  0.50400001928E-02 0.  1.
       -1   -1    0    0    0  501  0.00000000000E+00  0.00000000000E+00 -0.11276171570E+04  0.11276171570E+04  0.50400001928E-02 0. -1.
    10030    2    1    2    0    0  0.00000000000E+00  0.00000000000E+00 -0.42283269540E+03  0.18324016186E+04  0.17829492992E+04 0.  0.
        2    1    3    3  502    0 -0.56307911785E+03 -0.17987087992E+03  0.47441217396E+03  0.75794362403E+03  0.25500000920E-02 0.  1.
       -2    1    3    3    0  502  0.56307911785E+03  0.17987087992E+03 -0.89724486936E+03  0.10744579945E+04  0.25500000920E-02 0. -1.
</event>
<event>
 5   0  0.1573981E-04  0.1794020E+04  0.7818609E-02  0.8709486E-01
        2   -1    0    0  501    0  0.00000000000E+00  0.00000000000E+00  0.68290779349E+03  0.68290779350E+03  0.25500000920E-02 0.  1.
       -2   -1    0    0    0  501  0.00000000000E+00  0.00000000000E+00 -0.11782362007E+04  0.11782362007E+04  0.25500000920E-02 0. -1.
    10030    2    1    2    0    0  0.00000000000E+00  0.00000000000E+00 -0.49532840723E+03  0.18611439942E+04  0.17940197146E+04 0.  0.
        1    1    3    3  502    0  0.14247798468E+03  0.67697386825E+03 -0.84002131110E+03  0.10882230459E+04  0.50400001928E-02 0. -1.
       -1    1    3    3    0  502 -0.14247798468E+03 -0.67697386825E+03  0.34469290387E+03  0.77292094836E+03  0.50400001928E-02 0.  1.
</event>
<event>
 5   0  0.1573981E-04  0.1818896E+04  0.7818609E-02  0.8696315E-01
        2   -1    0    0  501    0  0.00000000000E+00  0.00000000000E+00  0.20942949148E+04  0.20942949148E+04  0.25500000920E-02 0. -1.
       -2   -1    0    0    0  501  0.00000000000E+00  0.00000000000E+00 -0.39492783890E+03  0.39492783891E+03  0.25500000920E-02 0.  1.
    10030    2    1    2    0    0  0.00000000000E+00  0.00000000000E+00  0.16993670759E+04  0.24892227537E+04  0.18188956702E+04 0.  0.
        1    1    3    3  502    0  0.16615086667E+03  0.26429746359E+03 -0.31930198070E+03  0.44655684371E+03  0.50400001928E-02 0.  1.
       -1    1    3    3    0  502 -0.16615086667E+03 -0.26429746359E+03  0.20186690566E+04  0.20426659100E+04  0.50400001928E-02 0. -1.
</event>
<event>
 5   0  0.8254914E-05  0.1810353E+04  0.7818609E-02  0.8700813E-01
        1   -1    0    0  501    0  0.00000000000E+00  0.00000000000E+00  0.11965747460E+04  0.11965747460E+04  0.50400001928E-02 0. -1.
       -1   -1    0    0    0  501  0.00000000000E+00  0.00000000000E+00 -0.68474156505E+03  0.68474156507E+03  0.50400001928E-02 0.  1.
    10030    2    1    2    0    0  0.00000000000E+00  0.00000000000E+00  0.51183318093E+03  0.18813163111E+04  0.18103529648E+04 0.  0.
        4    1    3    3  502    0 -0.26724975072E+03 -0.42951535455E+03 -0.52413124839E+03  0.72843740122E+03  0.12699999809E+01 0.  1.
       -4    1    3    3    0  502  0.26724975072E+03  0.42951535455E+03  0.10359644293E+04  0.11528789098E+04  0.12699999809E+01 0. -1.
</event>
<event>
 5   0  0.1603564E-04  0.1805115E+04  0.7818609E-02  0.8703584E-01
        2   -1    0    0  501    0  0.00000000000E+00  0.00000000000E+00  0.14938827946E+04  0.14938827946E+04  0.25500000920E-02 0. -1.
       -2   -1    0    0    0  501  0.00000000000E+00  0.00000000000E+00 -0.54529715863E+03  0.54529715863E+03  0.25500000920E-02 0.  1.
    10030    2    1    2    0    0  0.00000000000E+00  0.00000000000E+00  0.94858563593E+03  0.20391799532E+04  0.18051150027E+04 0.  0.
        5    1    3    3  502    0  0.35892929351E+03 -0.60979843458E+03 -0.15862717543E+03  0.72516828346E+03  0.46999998093E+01 0. -1.
       -5    1    3    3    0  502 -0.35892929351E+03  0.60979843458E+03  0.11072128114E+04  0.13140116697E+04  0.46999998093E+01 0.  1.
</event>
<event>
 5   0  0.8430513E-05  0.1756682E+04  0.7818609E-02  0.8729681E-01
        1   -1    0    0  501    0  0.00000000000E+00  0.00000000000E+00  0.60759228708E+03  0.60759228711E+03  0.50400001928E-02 0. -1.
       -1   -1    0    0    0  501  0.00000000000E+00  0.00000000000E+00 -0.12697372241E+04  0.12697372241E+04  0.50400001928E-02 0.  1.
    10030    2    1    2    0    0  0.00000000000E+00  0.00000000000E+00 -0.66214493697E+03  0.18773295112E+04  0.17566815807E+04 0.  0.
        5    1    3    3  502    0 -0.29410827174E+03 -0.51441956915E+03  0.36178571478E+03  0.69428968165E+03  0.46999998093E+01 0. -1.
       -5    1    3    3    0  502  0.29410827174E+03  0.51441956915E+03 -0.10239306518E+04  0.11830398295E+04  0.46999998093E+01 0.  1.
</event>
<event>
 5   0  0.8492114E-05  0.1795161E+04  0.7818609E-02  0.8708877E-01
        1   -1    0    0  501    0  0.00000000000E+00  0.00000000000E+00  0.50084237737E+03  0.50084237740E+03  0.50400001928E-02 0. -1.
       -1   -1    0    0    0  501  0.00000000000E+00  0.00000000000E+00 -0.16085908395E+04  0.16085908395E+04  0.50400001928E-02 0.  1.
    10030    2    1    2    0    0  0.00000000000E+00  0.00000000000E+00 -0.11077484622E+04  0.21094332169E+04  0.17951606728E+04 0.  0.
        2    1    3    3  502    0 -0.37539871355E+03  0.76068870857E+03 -0.89862952811E+03  0.12357615200E+04  0.25500000920E-02 0.  1.
       -2    1    3    3    0  502  0.37539871355E+03 -0.76068870857E+03 -0.20911893405E+03  0.87367169696E+03  0.25500000920E-02 0. -1.
</event>
<event>
 5   0  0.1603564E-04  0.1768486E+04  0.7818609E-02  0.8723240E-01
        2   -1    0    0  501    0  0.00000000000E+00  0.00000000000E+00  0.58520654796E+03  0.58520654796E+03  0.25500000920E-02 0.  1.
       -2   -1    0    0    0  501  0.00000000000E+00  0.00000000000E+00 -0.13360855574E+04  0.13360855574E+04  0.25500000920E-02 0. -1.
    10030    2    1    2    0    0  0.00000000000E+00  0.00000000000E+00 -0.75087900942E+03  0.19212921053E+04  0.17684863775E+04 0.  0.
        5    1    3    3  502    0  0.73248516927E+03 -0.49467928890E+03 -0.34834890015E+03  0.95005850783E+03  0.46999998093E+01 0.  1.
       -5    1    3    3    0  502 -0.73248516927E+03  0.49467928890E+03 -0.40253010927E+03  0.97123359751E+03  0.46999998093E+01 0. -1.
</event>
<event>
 5   0  0.1573981E-04  0.1818619E+04  0.7818609E-02  0.8696460E-01
       -2   -1    0    0    0  501  0.00000000000E+00  0.00000000000E+00  0.84594463585E+03  0.84594463586E+03  0.25500000920E-02 0. -1.
        2   -1    0    0  501    0  0.00000000000E+00  0.00000000000E+00 -0.97742074446E+03  0.97742074446E+03  0.25500000920E-02 0.  1.
    10030    2    1    2    0    0  0.00000000000E+00  0.00000000000E+00 -0.13147610861E+03  0.18233653803E+04  0.18186190758E+04 0.  0.
        1    1    3    3  502    0 -0.38545619458E+03  0.37931379438E+03  0.66718853090E+03  0.85883407498E+03  0.50400001928E-02 0. -1.
       -1    1    3    3    0  502  0.38545619458E+03 -0.37931379438E+03 -0.79866463951E+03  0.96453130534E+03  0.50400001928E-02 0.  1.
</event>
<event>
 5   0  0.8492114E-05  0.1787209E+04  0.7818609E-02  0.8713131E-01
        1   -1    0    0  501    0  0.00000000000E+00  0.00000000000E+00  0.16538459020E+04  0.16538459021E+04  0.50400001928E-02 0. -1.
       -1   -1    0    0    0  501  0.00000000000E+00  0.00000000000E+00 -0.48283153162E+03  0.48283153164E+03  0.50400001928E-02 0.  1.
    10030    2    1    2    0    0  0.00000000000E+00  0.00000000000E+00  0.11710143704E+04  0.21366774337E+04  0.17872089413E+04 0.  0.
        2    1    3    3  502    0 -0.85658068832E+03  0.25231388042E+03  0.62580553179E+03  0.10904243823E+04  0.25500000920E-02 0.  1.
       -2    1    3    3    0  502  0.85658068832E+03 -0.25231388042E+03  0.54520883864E+03  0.10462530514E+04  0.25500000920E-02 0. -1.
</event>
<event>
 5   0  0.5820500E-05  0.1792147E+04  0.7818609E-02  0.8710487E-01
       -3   -1    0    0    0  501  0.00000000000E+00  0.00000000000E+00  0.62264509492E+03  0.62264510311E+03  0.10100000352E+00 0. -1.
        3   -1    0    0  501    0  0.00000000000E+00  0.00000000000E+00 -0.12895752424E+04  0.12895752463E+04  0.10100000352E+00 0.  1.
    10030    2    1    2    0    0  0.00000000000E+00  0.00000000000E+00 -0.66693014746E+03  0.19122203494E+04  0.17921469926E+04 0.  0.
        4    1    3    3  502    0  0.49018704678E+03  0.68605985500E+03 -0.98550640841E+01  0.84324385599E+03  0.12699999809E+01 0. -1.
       -4    1    3    3    0  502 -0.49018704678E+03 -0.68605985500E+03 -0.65707508337E+03  0.10689764935E+04  0.12699999809E+01 0.  1.
</event>
<event>
 5   0  0.8132598E-05  0.1807520E+04  0.7818609E-02  0.8702311E-01
       -1   -1    0    0    0  501  0.00000000000E+00  0.00000000000E+00  0.50467782902E+03  0.50467782905E+03  0.50400001928E-02 0. -1.
        1   -1    0    0  501    0  0.00000000000E+00  0.00000000000E+00 -0.16184226903E+04  0.16184226903E+04  0.50400001928E-02 0.  1.
    10030    2    1    2    0    0  0.00000000000E+00  0.00000000000E+00 -0.11137448613E+04  0.21231005194E+04  0.18075199029E+04 0.  0.
        3    1    3    3  502    0 -0.11617089681E+03  0.14301526998E+03 -0.15961272078E+04  0.16067268338E+04  0.10100000352E+00 0.  1.
       -3    1    3    3    0  502  0.11617089681E+03 -0.14301526998E+03  0.48238234653E+03  0.51637368558E+03  0.10100000352E+00 0. -1.
</event>
<event>
 5   0  0.8132598E-05  0.1827795E+04  0.7818609E-02  0.8691656E-01
        1   -1    0    0  501    0  0.00000000000E+00  0.00000000000E+00  0.16059592548E+04  0.16059592548E+04  0.50400001928E-02 0. -1.
       -1   -1    0    0    0  501  0.00000000000E+00  0.00000000000E+00 -0.52006862793E+03  0.52006862795E+03  0.50400001928E-02 0.  1.
    10030    2    1    2    0    0  0.00000000000E+00  0.00000000000E+00  0.10858906269E+04  0.21260278828E+04  0.18277954220E+04 0.  0.
        3    1    3    3  502    0  0.65193359117E+03 -0.44003555976E+03  0.16543113886E+01  0.78654398993E+03  0.10100000352E+00 0.  1.
       -3    1    3    3    0  502 -0.65193359117E+03  0.44003555976E+03  0.10842363155E+04  0.13394838928E+04  0.10100000352E+00 0. -1.
</event>
<event>
 5   0  0.8430513E-05  0.1892355E+04  0.7818609E-02  0.8658671E-01
       -1   -1    0    0    0  501  0.00000000000E+00  0.00000000000E+00  0.14944581116E+04  0.14944581116E+04  0.50400001928E-02 0. -1.
        1   -1    0    0  501    0  0.00000000000E+00  0.00000000000E+00 -0.59904791420E+03  0.59904791422E+03  0.50400001928E-02 0.  1.
    10030    2    1    2    0    0  0.00000000000E+00  0.00000000000E+00  0.89541019743E+03  0.20935060259E+04  0.18923551619E+04 0.  0.
        5    1    3    3  502    0  0.65499367729E+03  0.30757505715E+03 -0.22669204901E+03  0.75830766062E+03  0.46999998093E+01 0.  1.
       -5    1    3    3    0  502 -0.65499367729E+03 -0.30757505715E+03  0.11221022464E+04  0.13351983652E+04  0.46999998093E+01 0. -1.
</event>
<event>
 5   0  0.8254914E-05  0.1777077E+04  0.7818609E-02  0.8718586E-01
       -1   -1    0    0    0  501  0.00000000000E+00  0.00000000000E+00  0.12810637326E+04  0.12810637326E+04  0.50400001928E-02 0.  1.
        1   -1    0    0  501    0  0.00000000000E+00  0.00000000000E+00 -0.61628524769E+03  0.61628524771E+03  0.50400001928E-02 0. -1.
    10030    2    1    2    0    0  0.00000000000E+00  0.00000000000E+00  0.66477848489E+03  0.18973489803E+04  0.17770770155E+04 0.  0.
        4    1    3    3  502    0 -0.64311380708E+03  0.60513950419E+03  0.22718146020E+03  0.91181259980E+03  0.12699999809E+01 0. -1.
       -4    1    3    3    0  502  0.64311380708E+03 -0.60513950419E+03  0.43759702469E+03  0.98553638051E+03  0.12699999809E+01 0.  1.
</event>
<event>
 5   0  0.8430513E-05  0.1765449E+04  0.7818609E-02  0.8724892E-01
        1   -1    0    0  501    0  0.00000000000E+00  0.00000000000E+00  0.46714289235E+03  0.46714289238E+03  0.50400001928E-02 0.  1.
       -1   -1    0    0    0  501  0.00000000000E+00  0.00000000000E+00 -0.16680180399E+04  0.16680180399E+04  0.50400001928E-02 0. -1.
    10030    2    1    2    0    0  0.00000000000E+00  0.00000000000E+00 -0.12008751475E+04  0.21351609322E+04  0.17654492592E+04 0.  0.
        5    1    3    3  502    0  0.71979365832E+03  0.44441150184E+03 -0.90538334623E+03  0.12390906291E+04  0.46999998093E+01 0. -1.
       -5    1    3    3    0  502 -0.71979365832E+03 -0.44441150184E+03 -0.29549180127E+03  0.89607030313E+03  0.46999998093E+01 0.  1.
</event>
<event>
 5   0  0.1549012E-04  0.1809511E+04  0.7818609E-02  0.8701258E-01
        2   -1    0    0  501    0  0.00000000000E+00  0.00000000000E+00  0.65381774074E+03  0.65381774074E+03  0.25500000920E-02 0.  1.
       -2   -1    0    0    0  501  0.00000000000E+00  0.00000000000E+00 -0.12520039376E+04  0.12520039376E+04  0.25500000920E-02 0. -1.
    10030    2    1    2    0    0  0.00000000000E+00  0.00000000000E+00 -0.59818619683E+03  0.19058216783E+04  0.18095108575E+04 0.  0.
        4    1    3    3  502    0  0.20631011398E+03  0.74658740668E+03 -0.79155216809E+03  0.11074805040E+04  0.12699999809E+01 0.  1.
       -4    1    3    3    0  502 -0.20631011398E+03 -0.74658740668E+03  0.19336597126E+03  0.79834117436E+03  0.12699999809E+01 0. -1.
</event>
<event>
 5   0  0.8430513E-05  0.1794936E+04  0.7818609E-02  0.8708997E-01
        1   -1    0    0  501    0  0.00000000000E+00  0.00000000000E+00  0.24600119580E+04  0.24600119580E+04  0.50400001928E-02 0. -1.
       -1   -1    0    0    0  501  0.00000000000E+00  0.00000000000E+00 -0.32741652632E+03  0.32741652636E+03  0.50400001928E-02 0.  1.
    10030    2    1    2    0    0  0.00000000000E+00  0.00000000000E+00  0.21325954316E+04  0.27874284843E+04  0.17949357315E+04 0.  0.
        5    1    3    3  502    0 -0.38961693766E+03  0.52814823016E+03  0.20168756622E+04  0.21209788867E+04  0.46999998093E+01 0. -1.
       -5    1    3    3    0  502  0.38961693766E+03 -0.52814823016E+03  0.11571976946E+03  0.66644959762E+03  0.46999998093E+01 0.  1.
</event>
<event>
 5   0  0.1628397E-04  0.1787693E+04  0.7818609E-02  0.8712872E-01
        2   -1    0    0  501    0  0.00000000000E+00  0.00000000000E+00  0.91471986477E+03  0.91471986478E+03  0.25500000920E-02 0. -1.
       -2   -1    0    0    0  501  0.00000000000E+00  0.00000000000E+00 -0.87344897837E+03  0.87344897838E+03  0.25500000920E-02 0.  1.
    10030    2    1    2    0    0  0.00000000000E+00  0.00000000000E+00  0.41270886398E+02  0.17881688432E+04  0.17876925143E+04 0.  0.
        3    1    3    3  502    0 -0.15870596640E+03  0.86080069775E+03 -0.16050863000E+03  0.88990362148E+03  0.10100000352E+00 0.  1.
       -3    1    3    3    0  502  0.15870596640E+03 -0.86080069775E+03  0.20177951640E+03  0.89826522167E+03  0.10100000352E+00 0. -1.
</event>
<event>
 5   0  0.1628397E-04  0.1798964E+04  0.7818609E-02  0.8706850E-01
       -2   -1    0    0    0  501  0.00000000000E+00  0.00000000000E+00  0.82500055619E+03  0.82500055619E+03  0.25500000920E-02 0. -1.
        2   -1    0    0  501    0  0.00000000000E+00  0.00000000000E+00 -0.98068802351E+03  0.98068802351E+03  0.25500000920E-02 0.  1.
    10030    2    1    2    0    0  0.00000000000E+00  0.00000000000E+00 -0.15568746732E+03  0.18056885797E+04  0.17989643297E+04 0.  0.
        3    1    3    3  502    0 -0.20176311760E+03 -0.67939017119E+03  0.47811178489E+03  0.85490949777E+03  0.10100000352E+00 0. -1.
       -3    1    3    3    0  502  0.20176311760E+03  0.67939017119E+03 -0.63379925221E+03  0.95077908193E+03  0.10100000352E+00 0.  1.
</event>
<event>
 5   0  0.5820500E-05  0.1784964E+04  0.7818609E-02  0.8714336E-01
        4   -1    0    0  501    0  0.00000000000E+00  0.00000000000E+00  0.78738630351E+03  0.78738732772E+03  0.12699999809E+01 0.  1.
       -4   -1    0    0    0  501  0.00000000000E+00  0.00000000000E+00 -0.10116034030E+04  0.10116042002E+04  0.12699999809E+01 0. -1.
    10030    2    1    2    0    0  0.00000000000E+00  0.00000000000E+00 -0.22421709950E+03  0.17989915279E+04  0.17849642041E+04 0.  0.
        1    1    3    3  502    0 -0.19976368517E+03 -0.35390915087E+03 -0.91293899553E+03  0.99930717328E+03  0.50400001928E-02 0. -1.
       -1    1    3    3    0  502  0.19976368517E+03  0.35390915087E+03  0.68872189603E+03  0.79968435465E+03  0.50400001928E-02 0.  1.
</event>
<event>
 5   0  0.1603564E-04  0.1811107E+04  0.7818609E-02  0.8700415E-01
        2   -1    0    0  501    0  0.00000000000E+00  0.00000000000E+00  0.58641871384E+03  0.58641871385E+03  0.25500000920E-02 0. -1.
       -2   -1    0    0    0  501  0.00000000000E+00  0.00000000000E+00 -0.13983652108E+04  0.13983652108E+04  0.25500000920E-02 0.  1.
    10030    2    1    2    0    0  0.00000000000E+00  0.00000000000E+00 -0.81194649695E+03  0.19847839246E+04  0.18111074274E+04 0.  0.
        5    1    3    3  502    0 -0.11874772245E+03  0.62663011572E+03  0.29850847971E+03  0.70419864099E+03  0.46999998093E+01 0. -1.
       -5    1    3    3    0  502  0.11874772245E+03 -0.62663011572E+03 -0.11104549767E+04  0.12805852836E+04  0.46999998093E+01 0.  1.
</event>
<event>
 5   0  0.8430513E-05  0.1797933E+04  0.7818609E-02  0.8707400E-01
       -1   -1    0    0    0  501  0.00000000000E+00  0.00000000000E+00  0.79453031846E+03  0.79453031848E+03  0.50400001928E-02 0.  1.
        1   -1    0    0  501    0  0.00000000000E+00  0.00000000000E+00 -0.10171298191E+04  0.10171298191E+04  0.50400001928E-02 0. -1.
    10030    2    1    2    0    0  0.00000000000E+00  0.00000000000E+00 -0.22259950063E+03  0.18116601376E+04  0.17979326785E+04 0.  0.
        5    1    3    3  502    0 -0.10523058415E+03  0.36245065653E+02  0.78754875003E+03  0.79538814695E+03  0.46999998093E+01 0.  1.
       -5    1    3    3    0  502  0.10523058415E+03 -0.36245065653E+02 -0.10101482507E+04  0.10162719906E+04  0.46999998093E+01 0. -1.
</event>
<event>
 5   0  0.8492114E-05  0.1799933E+04  0.7818609E-02  0.8706335E-01
        1   -1    0    0  501    0  0.00000000000E+00  0.00000000000E+00  0.89522417095E+03  0.89522417097E+03  0.50400001928E-02 0. -1.
       -1   -1    0    0    0  501  0.00000000000E+00  0.00000000000E+00 -0.90473390698E+03  0.90473390699E+03  0.50400001928E-02 0.  1.
    10030    2    1    2    0    0  0.00000000000E+00  0.00000000000E+00 -0.95097360296E+01  0.17999580780E+04  0.17999329563E+04 0.  0.
        2    1    3    3  502    0  0.65942137791E+03  0.39207575389E+03  0.46576175338E+03  0.89749315394E+03  0.25500000920E-02 0. -1.
       -2    1    3    3    0  502 -0.65942137791E+03 -0.39207575389E+03 -0.47527148941E+03  0.90246492402E+03  0.25500000920E-02 0.  1.
</event>
<event>
 5   0  0.1603564E-04  0.1800979E+04  0.7818609E-02  0.8705779E-01
        2   -1    0    0  501    0  0.00000000000E+00  0.00000000000E+00  0.25150277072E+04  0.25150277072E+04  0.25500000920E-02 0.  1.
       -2   -1    0    0    0  501  0.00000000000E+00  0.00000000000E+00 -0.32241429740E+03  0.32241429741E+03  0.25500000920E-02 0. -1.
    10030    2    1    2    0    0  0.00000000000E+00  0.00000000000E+00  0.21926134098E+04  0.28374420046E+04  0.18009785020E+04 0.  0.
        5    1    3    3  502    0 -0.35720462955E+03  0.38948584004E+03 -0.52366320805E+02  0.53109197746E+03  0.46999998093E+01 0. -1.
       -5    1    3    3    0  502  0.35720462955E+03 -0.38948584004E+03  0.22449797306E+04  0.23063500272E+04  0.46999998093E+01 0.  1.
</event>
<event>
 5   0  0.1573981E-04  0.1800027E+04  0.7818609E-02  0.8706285E-01
        2   -1    0    0  501    0  0.00000000000E+00  0.00000000000E+00  0.10493901409E+04  0.10493901409E+04  0.25500000920E-02 0.  1.
       -2   -1    0    0    0  501  0.00000000000E+00  0.00000000000E+00 -0.77189980769E+03  0.77189980769E+03  0.25500000920E-02 0. -1.
    10030    2    1    2    0    0  0.00000000000E+00  0.00000000000E+00  0.27749033322E+03  0.18212899486E+04  0.18000267198E+04 0.  0.
        1    1    3    3  502    0 -0.77605741421E+03  0.33683761230E+03  0.44945465313E+03  0.95798443226E+03  0.50400001928E-02 0.  1.
       -1    1    3    3    0  502  0.77605741421E+03 -0.33683761230E+03 -0.17196431990E+03  0.86330551635E+03  0.50400001928E-02 0. -1.
</event>
<event>
 5   0  0.8492114E-05  0.1809451E+04  0.7818609E-02  0.8701290E-01
        1   -1    0    0  501    0  0.00000000000E+00  0.00000000000E+00  0.11395887960E+04  0.11395887960E+04  0.50400001928E-02 0. -1.
       -1   -1    0    0    0  501  0.00000000000E+00  0.00000000000E+00 -0.71826591251E+03  0.71826591253E+03  0.50400001928E-02 0.  1.
    10030    2    1    2    0    0  0.00000000000E+00  0.00000000000E+00  0.42132288350E+03  0.18578547085E+04  0.18094505094E+04 0.  0.
        2    1    3    3  502    0  0.93923684795E+01  0.79753302250E+03 -0.22782322923E+03  0.82948813273E+03  0.25500000920E-02 0.  1.
       -2    1    3    3    0  502 -0.93923684795E+01 -0.79753302250E+03  0.64914611274E+03  0.10283665758E+04  0.25500000920E-02 0. -1.
</event>
<event>
 5   0  0.1573981E-04  0.1803693E+04  0.7818609E-02  0.8704338E-01
        2   -1    0    0  501    0  0.00000000000E+00  0.00000000000E+00  0.20724540522E+04  0.20724540522E+04  0.25500000920E-02 0.  1.
       -2   -1    0    0    0  501  0.00000000000E+00  0.00000000000E+00 -0.39244636354E+03  0.39244636355E+03  0.25500000920E-02 0. -1.
    10030    2    1    2    0    0  0.00000000000E+00  0.00000000000E+00  0.16800076887E+04  0.24649004158E+04  0.18036929411E+04 0.  0.
        1    1    3    3  502    0 -0.86174573750E+03 -0.24897499842E+03  0.71229725922E+03  0.11454089451E+04  0.50400001928E-02 0.  1.
       -1    1    3    3    0  502  0.86174573750E+03  0.24897499842E+03  0.96771042946E+03  0.13194914707E+04  0.50400001928E-02 0. -1.
</event>
<event>
 5   0  0.8254914E-05  0.1797360E+04  0.7818609E-02  0.8707705E-01
       -1   -1    0    0    0  501  0.00000000000E+00  0.00000000000E+00  0.94495175230E+03  0.94495175231E+03  0.50400001928E-02 0.  1.
        1   -1    0    0  501    0  0.00000000000E+00  0.00000000000E+00 -0.85467372358E+03  0.85467372359E+03  0.50400001928E-02 0. -1.
    10030    2    1    2    0    0  0.00000000000E+00  0.00000000000E+00  0.90278028720E+02  0.17996254759E+04  0.17973596555E+04 0.  0.
        4    1    3    3  502    0 -0.69467335083E+03  0.38001759303E+03  0.47069172957E+03  0.92116054657E+03  0.12699999809E+01 0.  1.
       -4    1    3    3    0  502  0.69467335083E+03 -0.38001759303E+03 -0.38041370085E+03  0.87846492933E+03  0.12699999809E+01 0. -1.
</event>
<event>
 5   0  0.1628397E-04  0.1775713E+04  0.7818609E-02  0.8719323E-01
        2   -1    0    0  501    0  0.00000000000E+00  0.00000000000E+00  0.67082155365E+03  0.67082155365E+03  0.25500000920E-02 0. -1.
       -2   -1    0    0    0  501  0.00000000000E+00  0.00000000000E+00 -0.11751105026E+04  0.11751105026E+04  0.25500000920E-02 0.  1.
    10030    2    1    2    0    0  0.00000000000E+00  0.00000000000E+00 -0.50428894897E+03  0.18459320563E+04  0.17757133249E+04 0.  0.
        3    1    3    3  502    0  0.44665705952E+02 -0.72537664074E+03 -0.78233548220E+03  0.10678085564E+04  0.10100000352E+00 0.  1.
       -3    1    3    3    0  502 -0.44665705952E+02  0.72537664074E+03  0.27804653323E+03  0.77812349987E+03  0.10100000352E+00 0. -1.
</event>
<event>
 5   0  0.8254914E-05  0.1826281E+04  0.7818609E-02  0.8692447E-01
        1   -1    0    0  501    0  0.00000000000E+00  0.00000000000E+00  0.55931691531E+03  0.55931691533E+03  0.50400001928E-02 0. -1.
       -1   -1    0    0    0  501  0.00000000000E+00  0.00000000000E+00 -0.14907928108E+04  0.14907928108E+04  0.50400001928E-02 0.  1.
    10030    2    1    2    0    0  0.00000000000E+00  0.00000000000E+00 -0.93147589553E+03  0.20501097262E+04  0.18262810697E+04 0.  0.
        4    1    3    3  502    0  0.87895028413E+03  0.24474981598E+03 -0.42421918031E+03  0.10061906381E+04  0.12699999809E+01 0.  1.
       -4    1    3    3    0  502 -0.87895028413E+03 -0.24474981598E+03 -0.50725671521E+03  0.10439190881E+04  0.12699999809E+01 0. -1.
</event>
<event>
 5   0  0.1628397E-04  0.1759492E+04  0.7818609E-02  0.8728143E-01
        2   -1    0    0  501    0  0.00000000000E+00  0.00000000000E+00  0.12935355635E+04  0.12935355635E+04  0.25500000920E-02 0. -1.
       -2   -1    0    0    0  501  0.00000000000E+00  0.00000000000E+00 -0.59832389004E+03  0.59832389004E+03  0.25500000920E-02 0.  1.
    10030    2    1    2    0    0  0.00000000000E+00  0.00000000000E+00  0.69521167347E+03  0.18918594535E+04  0.17594922339E+04 0.  0.
        3    1    3    3  502    0 -0.82372730337E+02 -0.40550855425E+03  0.11823688447E+04  0.12526845370E+04  0.10100000352E+00 0. -1.
       -3    1    3    3    0  502  0.82372730337E+02  0.40550855425E+03 -0.48715717119E+03  0.63917491653E+03  0.10100000352E+00 0.  1.
</event>
<event>
 5   0  0.1549012E-04  0.1847291E+04  0.7818609E-02  0.8681547E-01
       -2   -1    0    0    0  501  0.00000000000E+00  0.00000000000E+00  0.18770823431E+04  0.18770823431E+04  0.25500000920E-02 0. -1.
        2   -1    0    0  501    0  0.00000000000E+00  0.00000000000E+00 -0.45449320000E+03  0.45449320001E+03  0.25500000920E-02 0.  1.
    10030    2    1    2    0    0  0.00000000000E+00  0.00000000000E+00  0.14225891431E+04  0.23315755431E+04  0.18472911636E+04 0.  0.
        4    1    3    3  502    0 -0.73577004422E+03 -0.34086275870E+03  0.15311963718E+03  0.82522252419E+03  0.12699999809E+01 0.  1.
       -4    1    3    3    0  502  0.73577004422E+03  0.34086275870E+03  0.12694695059E+04  0.15063530189E+04  0.12699999809E+01 0. -1.
</event>
<event>
 5   0  0.1608627E-04  0.1796306E+04  0.7818609E-02  0.8708266E-01
       -2   -1    0    0    0  501  0.00000000000E+00  0.00000000000E+00  0.94466689501E+03  0.94466689501E+03  0.25500000920E-02 0. -1.
        2   -1    0    0  501    0  0.00000000000E+00  0.00000000000E+00 -0.85392951015E+03  0.85392951015E+03  0.25500000920E-02 0.  1.
    10030    2    1    2    0    0  0.00000000000E+00  0.00000000000E+00  0.90737384865E+02  0.17985964052E+04  0.17963061420E+04 0.  0.
        2    1    3    3  502    0  0.55631511030E+03  0.40826000062E+02  0.75020204558E+03  0.93485633839E+03  0.25500000920E-02 0. -1.
       -2    1    3    3    0  502 -0.55631511030E+03 -0.40826000062E+02 -0.65946466071E+03  0.86374006678E+03  0.25500000920E-02 0.  1.
</event>
<event>
 5   0  0.1608627E-04  0.1809565E+04  0.7818609E-02  0.8701229E-01
        2   -1    0    0  501    0  0.00000000000E+00  0.00000000000E+00  0.71595777231E+03  0.71595777231E+03  0.25500000920E-02 0.  1.
       -2   -1    0    0    0  501  0.00000000000E+00  0.00000000000E+00 -0.11434075959E+04  0.11434075960E+04  0.25500000920E-02 0. -1.
    10030    2    1    2    0    0  0.00000000000E+00  0.00000000000E+00 -0.42744982364E+03  0.18593653683E+04  0.18095652022E+04 0.  0.
        2    1    3    3  502    0 -0.86875745231E+03  0.46439160116E+02 -0.46902902163E+03  0.98837458976E+03  0.25500000920E-02 0. -1.
       -2    1    3    3    0  502  0.86875745231E+03 -0.46439160116E+02  0.41579197988E+02  0.87099077851E+03  0.25500000920E-02 0.  1.
</event>
<event>
 5   0  0.8254914E-05  0.1791602E+04  0.7818609E-02  0.8710778E-01
       -1   -1    0    0    0  501  0.00000000000E+00  0.00000000000E+00  0.83476999863E+03  0.83476999864E+03  0.50400001928E-02 0. -1.
        1   -1    0    0  501    0  0.00000000000E+00  0.00000000000E+00 -0.96129424966E+03  0.96129424968E+03  0.50400001928E-02 0.  1.
    10030    2    1    2    0    0  0.00000000000E+00  0.00000000000E+00 -0.12652425104E+03  0.17960642483E+04  0.17916021874E+04 0.  0.
        4    1    3    3  502    0  0.51451935246E+02  0.22467270794E+03 -0.93105818306E+03  0.95916426146E+03  0.12699999809E+01 0.  1.
       -4    1    3    3    0  502 -0.51451935246E+02 -0.22467270794E+03  0.80453393202E+03  0.83689998686E+03  0.12699999809E+01 0. -1.
</event>
<event>
 5   0  0.1608627E-04  0.1844969E+04  0.7818609E-02  0.8682744E-01
        2   -1    0    0  501    0  0.00000000000E+00  0.00000000000E+00  0.85873469259E+03  0.85873469259E+03  0.25500000920E-02 0.  1.
       -2   -1    0    0    0  501  0.00000000000E+00  0.00000000000E+00 -0.99096669473E+03  0.99096669473E+03  0.25500000920E-02 0. -1.
    10030    2    1    2    0    0  0.00000000000E+00  0.00000000000E+00 -0.13223200214E+03  0.18497013873E+04  0.18449688127E+04 0.  0.
        2    1    3    3  502    0  0.15835215382E+03 -0.49651243010E+03 -0.82923699083E+03  0.97940491363E+03  0.25500000920E-02 0. -1.
       -2    1    3    3    0  502 -0.15835215382E+03  0.49651243010E+03  0.69700498869E+03  0.87029647370E+03  0.25500000920E-02 0.  1.
</event>
<event>
 5   0  0.1603564E-04  0.1793869E+04  0.7818609E-02  0.8709567E-01
       -2   -1    0    0    0  501  0.00000000000E+00  0.00000000000E+00  0.10830582796E+04  0.10830582796E+04  0.25500000920E-02 0.  1.
        2   -1    0    0  501    0  0.00000000000E+00  0.00000000000E+00 -0.74279595905E+03  0.74279595906E+03  0.25500000920E-02 0. -1.
    10030    2    1    2    0    0  0.00000000000E+00  0.00000000000E+00  0.34026232056E+03  0.18258542387E+04  0.17938687951E+04 0.  0.
        5    1    3    3  502    0  0.11687001473E+03 -0.87979736461E+03  0.38334026615E+02  0.88836568524E+03  0.46999998093E+01 0.  1.
       -5    1    3    3    0  502 -0.11687001473E+03  0.87979736461E+03  0.30192829394E+03  0.93748855343E+03  0.46999998093E+01 0. -1.
</event>
<event>
 5   0  0.1603564E-04  0.1796706E+04  0.7818609E-02  0.8708053E-01
        2   -1    0    0  501    0  0.00000000000E+00  0.00000000000E+00  0.13711148279E+04  0.13711148279E+04  0.25500000920E-02 0. -1.
       -2   -1    0    0    0  501  0.00000000000E+00  0.00000000000E+00 -0.58859969960E+03  0.58859969960E+03  0.25500000920E-02 0.  1.
    10030    2    1    2    0    0  0.00000000000E+00  0.00000000000E+00  0.78251512832E+03  0.19597145275E+04  0.17967056251E+04 0.  0.
        5    1    3    3  502    0  0.38535208540E+03 -0.83028506868E+02 -0.48921331082E+03  0.62828474131E+03  0.46999998093E+01 0.  1.
       -5    1    3    3    0  502 -0.38535208540E+03  0.83028506868E+02  0.12717284391E+04  0.13314297862E+04  0.46999998093E+01 0. -1.
</event>
<event>
 5   0  0.1628397E-04  0.1874055E+04  0.7818609E-02  0.8667880E-01
       -2   -1    0    0    0  501  0.00000000000E+00  0.00000000000E+00  0.52080047732E+03  0.52080047733E+03  0.25500000920E-02 0. -1.
        2   -1    0    0  501    0  0.00000000000E+00  0.00000000000E+00 -0.16859054967E+04  0.16859054967E+04  0.25500000920E-02 0.  1.
    10030    2    1    2    0    0  0.00000000000E+00  0.00000000000E+00 -0.11651050194E+04  0.22067059741E+04  0.18740548417E+04 0.  0.
        3    1    3    3  502    0 -0.45277749081E+03 -0.23610130421E+03 -0.15076754319E+04  0.15918029087E+04  0.10100000352E+00 0.  1.
       -3    1    3    3    0  502  0.45277749081E+03  0.23610130421E+03  0.34257041251E+03  0.61490306533E+03  0.10100000352E+00 0. -1.
</event>
<event>
 5   0  0.8430513E-05  0.1785996E+04  0.7818609E-02  0.8713782E-01
       -1   -1    0    0    0  501  0.00000000000E+00  0.00000000000E+00  0.84130160153E+03  0.84130160154E+03  0.50400001928E-02 0. -1.
        1   -1    0    0  501    0  0.00000000000E+00  0.00000000000E+00 -0.94787073122E+03  0.94787073123E+03  0.50400001928E-02 0.  1.
    10030    2    1    2    0    0  0.00000000000E+00  0.00000000000E+00 -0.10656912969E+03  0.17891723328E+04  0.17859957046E+04 0.  0.
        5    1    3    3  502    0 -0.11988016716E+03  0.75055153840E+03 -0.52286578236E+03  0.92255600515E+03  0.46999998093E+01 0.  1.
       -5    1    3    3    0  502  0.11988016716E+03 -0.75055153840E+03  0.41629665267E+03  0.86661632762E+03  0.46999998093E+01 0. -1.
</event>
<event>
 5   0  0.8206783E-05  0.1795340E+04  0.7818609E-02  0.8708782E-01
       -1   -1    0    0    0  501  0.00000000000E+00  0.00000000000E+00  0.14752438181E+04  0.14752438181E+04  0.50400001928E-02 0.  1.
        1   -1    0    0  501    0  0.00000000000E+00  0.00000000000E+00 -0.54622229541E+03  0.54622229543E+03  0.50400001928E-02 0. -1.
    10030    2    1    2    0    0  0.00000000000E+00  0.00000000000E+00  0.92902152265E+03  0.20214661135E+04  0.17953395942E+04 0.  0.
        1    1    3    3  502    0 -0.45475598566E+03  0.22139903341E+03 -0.37051036022E+03  0.62697564989E+03  0.50400001928E-02 0. -1.
       -1    1    3    3    0  502  0.45475598566E+03 -0.22139903341E+03  0.12995318829E+04  0.13944904636E+04  0.50400001928E-02 0.  1.
</event>
<event>
 5   0  0.1628397E-04  0.1694463E+04  0.7818609E-02  0.8764529E-01
       -2   -1    0    0    0  501  0.00000000000E+00  0.00000000000E+00  0.76304367667E+03  0.76304367667E+03  0.25500000920E-02 0.  1.
        2   -1    0    0  501    0  0.00000000000E+00  0.00000000000E+00 -0.94070753873E+03  0.94070753873E+03  0.25500000920E-02 0. -1.
    10030    2    1    2    0    0  0.00000000000E+00  0.00000000000E+00 -0.17766386206E+03  0.17037512154E+04  0.16944626747E+04 0.  0.
        3    1    3    3  502    0 -0.32579306316E+03 -0.44320573837E+03  0.55908262949E+03  0.78431233786E+03  0.10100000352E+00 0.  1.
       -3    1    3    3    0  502  0.32579306316E+03  0.44320573837E+03 -0.73674649155E+03  0.91943887754E+03  0.10100000352E+00 0. -1.
</event>
<event>
 5   0  0.8492114E-05  0.1792287E+04  0.7818609E-02  0.8710412E-01
       -1   -1    0    0    0  501  0.00000000000E+00  0.00000000000E+00  0.46139800156E+03  0.46139800158E+03  0.50400001928E-02 0.  1.
        1   -1    0    0  501    0  0.00000000000E+00  0.00000000000E+00 -0.17405218289E+04  0.17405218289E+04  0.50400001928E-02 0. -1.
    10030    2    1    2    0    0  0.00000000000E+00  0.00000000000E+00 -0.12791238274E+04  0.22019198305E+04  0.17922871350E+04 0.  0.
        2    1    3    3  502    0 -0.60823464832E+03  0.24632542328E+03 -0.13893293235E+04  0.15365095413E+04  0.25500000920E-02 0. -1.
       -2    1    3    3    0  502  0.60823464832E+03 -0.24632542328E+03  0.11020549609E+03  0.66541028918E+03  0.25500000920E-02 0.  1.
</event>
<event>
 5   0  0.1549012E-04  0.1793164E+04  0.7818609E-02  0.8709943E-01
        2   -1    0    0  501    0  0.00000000000E+00  0.00000000000E+00  0.14466630601E+04  0.14466630601E+04  0.25500000920E-02 0. -1.
       -2   -1    0    0    0  501  0.00000000000E+00  0.00000000000E+00 -0.55566428889E+03  0.55566428889E+03  0.25500000920E-02 0.  1.
    10030    2    1    2    0    0  0.00000000000E+00  0.00000000000E+00  0.89099877119E+03  0.20023273490E+04  0.17931636853E+04 0.  0.
        4    1    3    3  502    0  0.89379276484E+03  0.66219931928E+02  0.47300609029E+03  0.10134036512E+04  0.12699999809E+01 0. -1.
       -4    1    3    3    0  502 -0.89379276484E+03 -0.66219931928E+02  0.41799268089E+03  0.98892369779E+03  0.12699999809E+01 0.  1.
</event>
<event>
 5   0  0.8254914E-05  0.1808698E+04  0.7818609E-02  0.8701687E-01
       -1   -1    0    0    0  501  0.00000000000E+00  0.00000000000E+00  0.11377313089E+04  0.11377313089E+04  0.50400001928E-02 0. -1.
        1   -1    0    0  501    0  0.00000000000E+00  0.00000000000E+00 -0.71884055928E+03  0.71884055929E+03  0.50400001928E-02 0.  1.
    10030    2    1    2    0    0  0.00000000000E+00  0.00000000000E+00  0.41889074965E+03  0.18565718682E+04  0.18086983280E+04 0.  0.
        4    1    3    3  502    0  0.88503711294E+03 -0.75419955860E+02  0.38384517258E+03  0.96763505023E+03  0.12699999809E+01 0. -1.
       -4    1    3    3    0  502 -0.88503711294E+03  0.75419955860E+02  0.35045577068E+02  0.88893681800E+03  0.12699999809E+01 0.  1.
</event>
<event>
 5   0  0.1549012E-04  0.1857722E+04  0.7818609E-02  0.8676192E-01
        2   -1    0    0  501    0  0.00000000000E+00  0.00000000000E+00  0.11964012339E+04  0.11964012339E+04  0.25500000920E-02 0.  1.
       -2   -1    0    0    0  501  0.00000000000E+00  0.00000000000E+00 -0.72114862290E+03  0.72114862290E+03  0.25500000920E-02 0. -1.
    10030    2    1    2    0    0  0.00000000000E+00  0.00000000000E+00  0.47525261099E+03  0.19175498568E+04  0.18577223714E+04 0.  0.
        4    1    3    3  502    0  0.37598010006E+03  0.84908662664E+03  0.21519266624E+03  0.95321489272E+03  0.12699999809E+01 0. -1.
       -4    1    3    3    0  502 -0.37598010006E+03 -0.84908662664E+03  0.26005994475E+03  0.96433496408E+03  0.12699999809E+01 0.  1.
</event>
<event>
 5   0  0.1573981E-04  0.1821659E+04  0.7818609E-02  0.8694865E-01
        2   -1    0    0  501    0  0.00000000000E+00  0.00000000000E+00  0.10506439372E+04  0.10506439372E+04  0.25500000920E-02 0.  1.
       -2   -1    0    0    0  501  0.00000000000E+00  0.00000000000E+00 -0.78962119168E+03  0.78962119168E+03  0.25500000920E-02 0. -1.
    10030    2    1    2    0    0  0.00000000000E+00  0.00000000000E+00  0.26102274553E+03  0.18402651289E+04  0.18216593729E+04 0.  0.
        1    1    3    3  502    0  0.26615695481E+03 -0.32165286722E+03 -0.68726927530E+03  0.80413876189E+03  0.50400001928E-02 0. -1.
       -1    1    3    3    0  502 -0.26615695481E+03  0.32165286722E+03  0.94829202083E+03  0.10361263670E+04  0.50400001928E-02 0.  1.
</event>
<event>
 5   0  0.1608627E-04  0.1803852E+04  0.7818609E-02  0.8704254E-01
        2   -1    0    0  501    0  0.00000000000E+00  0.00000000000E+00  0.99877094859E+03  0.99877094859E+03  0.25500000920E-02 0.  1.
       -2   -1    0    0    0  501  0.00000000000E+00  0.00000000000E+00 -0.81447142155E+03  0.81447142155E+03  0.25500000920E-02 0. -1.
    10030    2    1    2    0    0  0.00000000000E+00  0.00000000000E+00  0.18429952704E+03  0.18132423701E+04  0.18038518723E+04 0.  0.
        2    1    3    3  502    0 -0.63341433269E+03  0.49955818731E+03  0.49760833691E+03  0.94783234611E+03  0.25500000920E-02 0.  1.
       -2    1    3    3    0  502  0.63341433269E+03 -0.49955818731E+03 -0.31330880987E+03  0.86541002404E+03  0.25500000920E-02 0. -1.
</event>
<event>
 5   0  0.8132598E-05  0.1799726E+04  0.7818609E-02  0.8706445E-01
        1   -1    0    0  501    0  0.00000000000E+00  0.00000000000E+00  0.23057451039E+04  0.23057451039E+04  0.50400001928E-02 0.  1.
       -1   -1    0    0    0  501  0.00000000000E+00  0.00000000000E+00 -0.35118932164E+03  0.35118932167E+03  0.50400001928E-02 0. -1.
    10030    2    1    2    0    0  0.00000000000E+00  0.00000000000E+00  0.19545557823E+04  0.26569344256E+04  0.17997256002E+04 0.  0.
        3    1    3    3  502    0 -0.41976353506E+03  0.24590265310E+03  0.20948704389E+04  0.21506165874E+04  0.10100000352E+00 0.  1.
       -3    1    3    3    0  502  0.41976353506E+03 -0.24590265310E+03 -0.14031465663E+03  0.50631783816E+03  0.10100000352E+00 0. -1.
</event>
<event>
 5   0  0.8206783E-05  0.1770716E+04  0.7818609E-02  0.8722029E-01
        1   -1    0    0  501    0  0.00000000000E+00  0.00000000000E+00  0.83572214318E+03  0.83572214320E+03  0.50400001928E-02 0.  1.
       -1   -1    0    0    0  501  0.00000000000E+00  0.00000000000E+00 -0.93794170219E+03  0.93794170221E+03  0.50400001928E-02 0. -1.
    10030    2    1    2    0    0  0.00000000000E+00  0.00000000000E+00 -0.10221955901E+03  0.17736638454E+04  0.17707158435E+04 0.  0.
        1    1    3    3  502    0 -0.49493112902E+03  0.54472797054E+03 -0.54404010701E+03  0.91524041782E+03  0.50400001928E-02 0. -1.
       -1    1    3    3    0  502  0.49493112902E+03 -0.54472797054E+03  0.44182054800E+03  0.85842342758E+03  0.50400001928E-02 0.  1.
</event>
<event>
 5   0  0.8492114E-05  0.1807370E+04  0.7818609E-02  0.8702390E-01
       -1   -1    0    0    0  501  0.00000000000E+00  0.00000000000E+00  0.46056945685E+03  0.46056945687E+03  0.50400001928E-02 0.  1.
        1   -1    0    0  501    0  0.00000000000E+00  0.00000000000E+00 -0.17731245838E+04  0.17731245838E+04  0.50400001928E-02 0. -1.
    10030    2    1    2    0    0  0.00000000000E+00  0.00000000000E+00 -0.13125551270E+04  0.22336940407E+04  0.18073704950E+04 0.  0.
        2    1    3    3  502    0  0.24711736808E+03 -0.62689183209E+03 -0.14004651313E+04  0.15541437986E+04  0.25500000920E-02 0. -1.
       -2    1    3    3    0  502 -0.24711736808E+03  0.62689183209E+03  0.87910004272E+02  0.67955024215E+03  0.25500000920E-02 0.  1.
</event>
<event>
 5   0  0.1608627E-04  0.1801133E+04  0.7818609E-02  0.8705697E-01
        2   -1    0    0  501    0  0.00000000000E+00  0.00000000000E+00  0.19998577650E+04  0.19998577650E+04  0.25500000920E-02 0. -1.
       -2   -1    0    0    0  501  0.00000000000E+00  0.00000000000E+00 -0.40553895347E+03  0.40553895347E+03  0.25500000920E-02 0.  1.
    10030    2    1    2    0    0  0.00000000000E+00  0.00000000000E+00  0.15943188115E+04  0.24053967184E+04  0.18011332267E+04 0.  0.
        2    1    3    3  502    0 -0.22325933243E+03  0.85303363285E+03  0.10416276012E+04  0.13647341015E+04  0.25500000920E-02 0.  1.
       -2    1    3    3    0  502  0.22325933243E+03 -0.85303363285E+03  0.55269121029E+03  0.10406626169E+04  0.25500000920E-02 0. -1.
</event>
<event>
 5   0  0.1603564E-04  0.1791172E+04  0.7818609E-02  0.8711008E-01
        2   -1    0    0  501    0  0.00000000000E+00  0.00000000000E+00  0.10748635434E+04  0.10748635434E+04  0.25500000920E-02 0. -1.
       -2   -1    0    0    0  501  0.00000000000E+00  0.00000000000E+00 -0.74621073300E+03  0.74621073301E+03  0.25500000920E-02 0.  1.
    10030    2    1    2    0    0  0.00000000000E+00  0.00000000000E+00  0.32865281036E+03  0.18210742764E+04  0.17911724792E+04 0.  0.
        5    1    3    3  502    0 -0.88714856851E+03  0.60440175355E+02  0.27272250664E+03  0.93009959307E+03  0.46999998093E+01 0. -1.
       -5    1    3    3    0  502  0.88714856851E+03 -0.60440175355E+02  0.55930303720E+02  0.89097468330E+03  0.46999998093E+01 0.  1.
</event>
<event>
 5   0  0.8206783E-05  0.1881672E+04  0.7818609E-02  0.8664033E-01
       -1   -1    0    0    0  501  0.00000000000E+00  0.00000000000E+00  0.14596740835E+04  0.14596740836E+04  0.50400001928E-02 0. -1.
        1   -1    0    0  501    0  0.00000000000E+00  0.00000000000E+00 -0.60641808436E+03  0.60641808438E+03  0.50400001928E-02 0.  1.
    10030    2    1    2    0    0  0.00000000000E+00  0.00000000000E+00  0.85325599918E+03  0.20660921679E+04  0.18816724067E+04 0.  0.
        1    1    3    3  502    0 -0.49419284670E+02  0.52769325653E+03 -0.42690694801E+03  0.68055270257E+03  0.50400001928E-02 0.  1.
       -1    1    3    3    0  502  0.49419284670E+02 -0.52769325653E+03  0.12801629472E+04  0.13855394654E+04  0.50400001928E-02 0. -1.
</event>
<event>
 5   0  0.1573981E-04  0.1819355E+04  0.7818609E-02  0.8696074E-01
       -2   -1    0    0    0  501  0.00000000000E+00  0.00000000000E+00  0.97098990858E+03  0.97098990859E+03  0.25500000920E-02 0. -1.
        2   -1    0    0  501    0  0.00000000000E+00  0.00000000000E+00 -0.85223678867E+03  0.85223678868E+03  0.25500000920E-02 0.  1.
    10030    2    1    2    0    0  0.00000000000E+00  0.00000000000E+00  0.11875311991E+03  0.18232266973E+04  0.18193551842E+04 0.  0.
        1    1    3    3  502    0 -0.35163261473E+03  0.53051364025E+03 -0.59194733345E+03  0.86919034960E+03  0.50400001928E-02 0.  1.
       -1    1    3    3    0  502  0.35163261473E+03 -0.53051364025E+03  0.71070045336E+03  0.95403634766E+03  0.50400001928E-02 0. -1.
</event>
<event>
 5   0  0.8206783E-05  0.1836667E+04  0.7818609E-02  0.8687040E-01
        1   -1    0    0  501    0  0.00000000000E+00  0.00000000000E+00  0.52774230568E+03  0.52774230571E+03  0.50400001928E-02 0.  1.
       -1   -1    0    0    0  501  0.00000000000E+00  0.00000000000E+00 -0.15980071461E+04  0.15980071461E+04  0.50400001928E-02 0. -1.
    10030    2    1    2    0    0  0.00000000000E+00  0.00000000000E+00 -0.10702648404E+04  0.21257494518E+04  0.18366665193E+04 0.  0.
        1    1    3    3  502    0  0.33321676767E+03  0.22569249387E+03 -0.14905029127E+04  0.15438812936E+04  0.50400001928E-02 0. -1.
       -1    1    3    3    0  502 -0.33321676767E+03 -0.22569249387E+03  0.42023807230E+03  0.58186815816E+03  0.50400001928E-02 0.  1.
</event>
<event>
 5   0  0.1603564E-04  0.1772335E+04  0.7818609E-02  0.8721151E-01
       -2   -1    0    0    0  501  0.00000000000E+00  0.00000000000E+00  0.58661173015E+03  0.58661173016E+03  0.25500000920E-02 0.  1.
        2   -1    0    0  501    0  0.00000000000E+00  0.00000000000E+00 -0.13386931991E+04  0.13386931991E+04  0.25500000920E-02 0. -1.
    10030    2    1    2    0    0  0.00000000000E+00  0.00000000000E+00 -0.75208146896E+03  0.19253049293E+04  0.17723353336E+04 0.  0.
        5    1    3    3  502    0  0.75797693299E+03  0.13848568003E+03  0.99415195547E+02  0.77692521238E+03  0.46999998093E+01 0.  1.
       -5    1    3    3    0  502 -0.75797693299E+03 -0.13848568003E+03 -0.85149666451E+03  0.11483797169E+04  0.46999998093E+01 0. -1.
</event>
<event>
 5   0  0.1549012E-04  0.1954043E+04  0.7818609E-02  0.8628413E-01
        2   -1    0    0  501    0  0.00000000000E+00  0.00000000000E+00  0.16184194578E+04  0.16184194578E+04  0.25500000920E-02 0. -1.
       -2   -1    0    0    0  501  0.00000000000E+00  0.00000000000E+00 -0.58981702428E+03  0.58981702428E+03  0.25500000920E-02 0.  1.
    10030    2    1    2    0    0  0.00000000000E+00  0.00000000000E+00  0.10286024336E+04  0.22082364821E+04  0.19540433451E+04 0.  0.
        4    1    3    3  502    0  0.43433427286E+03  0.19443611770E+03 -0.44999906227E+03  0.65494460330E+03  0.12699999809E+01 0.  1.
       -4    1    3    3    0  502 -0.43433427286E+03 -0.19443611770E+03  0.14786014958E+04  0.15532918788E+04  0.12699999809E+01 0. -1.
</event>
<event>
 5   0  0.1603564E-04  0.1798740E+04  0.7818609E-02  0.8706970E-01
       -2   -1    0    0    0  501  0.00000000000E+00  0.00000000000E+00  0.75877403336E+03  0.75877403336E+03  0.25500000920E-02 0.  1.
        2   -1    0    0  501    0  0.00000000000E+00  0.00000000000E+00 -0.10660170741E+04  0.10660170741E+04  0.25500000920E-02 0. -1.
    10030    2    1    2    0    0  0.00000000000E+00  0.00000000000E+00 -0.30724304078E+03  0.18247911075E+04  0.17987396421E+04 0.  0.
        5    1    3    3  502    0  0.34629765838E+03 -0.22234370508E+03  0.65763854189E+03  0.77580238022E+03  0.46999998093E+01 0.  1.
       -5    1    3    3    0  502 -0.34629765838E+03  0.22234370508E+03 -0.96488158266E+03  0.10489887273E+04  0.46999998093E+01 0. -1.
</event>
<event>
 5   0  0.1603564E-04  0.1815678E+04  0.7818609E-02  0.8698006E-01
       -2   -1    0    0    0  501  0.00000000000E+00  0.00000000000E+00  0.40722861032E+03  0.40722861033E+03  0.25500000920E-02 0.  1.
        2   -1    0    0  501    0  0.00000000000E+00  0.00000000000E+00 -0.20238550752E+04  0.20238550752E+04  0.25500000920E-02 0. -1.
    10030    2    1    2    0    0  0.00000000000E+00  0.00000000000E+00 -0.16166264649E+04  0.24310836855E+04  0.18156780439E+04 0.  0.
        5    1    3    3  502    0  0.22111124843E+03  0.10467971763E+03  0.36224613154E+03  0.43714114114E+03  0.46999998093E+01 0.  1.
       -5    1    3    3    0  502 -0.22111124843E+03 -0.10467971763E+03 -0.19788725964E+04  0.19939425444E+04  0.46999998093E+01 0. -1.
</event>
<event>
 5   0  0.5820500E-05  0.1802004E+04  0.7818609E-02  0.8705235E-01
        4   -1    0    0  501    0  0.00000000000E+00  0.00000000000E+00  0.74295649122E+03  0.74295757668E+03  0.12699999809E+01 0. -1.
       -4   -1    0    0    0  501  0.00000000000E+00  0.00000000000E+00 -0.10926652299E+04  0.10926659680E+04  0.12699999809E+01 0.  1.
    10030    2    1    2    0    0  0.00000000000E+00  0.00000000000E+00 -0.34970873871E+03  0.18356235447E+04  0.18020037724E+04 0.  0.
        1    1    3    3  502    0  0.30160397804E+03 -0.12651664031E+03 -0.10300609460E+04  0.10807390861E+04  0.50400001928E-02 0.  1.
       -1    1    3    3    0  502 -0.30160397804E+03  0.12651664031E+03  0.68035220725E+03  0.75488445856E+03  0.50400001928E-02 0. -1.
</event>
<event>
 5   0  0.1573981E-04  0.1806580E+04  0.7818609E-02  0.8702808E-01
        2   -1    0    0  501    0  0.00000000000E+00  0.00000000000E+00  0.20436855327E+04  0.20436855327E+04  0.25500000920E-02 0.  1.
       -2   -1    0    0    0  501  0.00000000000E+00  0.00000000000E+00 -0.39924565679E+03  0.39924565679E+03  0.25500000920E-02 0. -1.
    10030    2    1    2    0    0  0.00000000000E+00  0.00000000000E+00  0.16444398759E+04  0.24429311895E+04  0.18065797218E+04 0.  0.
        1    1    3    3  502    0 -0.63884120442E+03 -0.61911871239E+03  0.61053262934E+03  0.10789699514E+04  0.50400001928E-02 0.  1.
       -1    1    3    3    0  502  0.63884120442E+03  0.61911871239E+03  0.10339072466E+04  0.13639612381E+04  0.50400001928E-02 0. -1.
</event>
<event>
 5   0  0.8492114E-05  0.1792792E+04  0.7818609E-02  0.8710142E-01
       -1   -1    0    0    0  501  0.00000000000E+00  0.00000000000E+00  0.28673932116E+04  0.28673932116E+04  0.50400001928E-02 0.  1.
        1   -1    0    0  501    0  0.00000000000E+00  0.00000000000E+00 -0.28022882375E+03  0.28022882380E+03  0.50400001928E-02 0. -1.
    10030    2    1    2    0    0  0.00000000000E+00  0.00000000000E+00  0.25871643878E+04  0.31476220354E+04  0.17927924888E+04 0.  0.
        2    1    3    3  502    0  0.14035773042E+03  0.51142314240E+03  0.25624052184E+04  0.26167106119E+04  0.25500000920E-02 0.  1.
       -2    1    3    3    0  502 -0.14035773042E+03 -0.51142314240E+03  0.24759169375E+02  0.53091142344E+03  0.25500000920E-02 0. -1.
</event>
<event>
 5   0  0.1549012E-04  0.1819580E+04  0.7818609E-02  0.8695956E-01
       -2   -1    0    0    0  501  0.00000000000E+00  0.00000000000E+00  0.77474240218E+03  0.77474240218E+03  0.25500000920E-02 0.  1.
        2   -1    0    0  501    0  0.00000000000E+00  0.00000000000E+00 -0.10683786764E+04  0.10683786764E+04  0.25500000920E-02 0. -1.
    10030    2    1    2    0    0  0.00000000000E+00  0.00000000000E+00 -0.29363627426E+03  0.18431210786E+04  0.18195804596E+04 0.  0.
        4    1    3    3  502    0 -0.16022410058E+03  0.88404513945E+03 -0.29188080939E+03  0.94467115484E+03  0.12699999809E+01 0. -1.
       -4    1    3    3    0  502  0.16022410058E+03 -0.88404513945E+03 -0.17554648716E+01  0.89844992379E+03  0.12699999809E+01 0.  1.
</event>
<event>
 5   0  0.8132598E-05  0.1799722E+04  0.7818609E-02  0.8706448E-01
        1   -1    0    0  501    0  0.00000000000E+00  0.00000000000E+00  0.93700568747E+03  0.93700568749E+03  0.50400001928E-02 0. -1.
       -1   -1    0    0    0  501  0.00000000000E+00  0.00000000000E+00 -0.86418839739E+03  0.86418839740E+03  0.50400001928E-02 0.  1.
    10030    2    1    2    0    0  0.00000000000E+00  0.00000000000E+00  0.72817290087E+02  0.18011940849E+04  0.17997215823E+04 0.  0.
        3    1    3    3  502    0 -0.27158298168E+03 -0.55780650618E+03 -0.61592524502E+03  0.87422498931E+03  0.10100000352E+00 0.  1.
       -3    1    3    3    0  502  0.27158298168E+03  0.55780650618E+03  0.68874253511E+03  0.92696909558E+03  0.10100000352E+00 0. -1.
</event>
<event>
 5   0  0.1628397E-04  0.1925403E+04  0.7818609E-02  0.8642314E-01
        2   -1    0    0  501    0  0.00000000000E+00  0.00000000000E+00  0.14670662629E+04  0.14670662629E+04  0.25500000920E-02 0.  1.
       -2   -1    0    0    0  501  0.00000000000E+00  0.00000000000E+00 -0.63173291422E+03  0.63173291422E+03  0.25500000920E-02 0. -1.
    10030    2    1    2    0    0  0.00000000000E+00  0.00000000000E+00  0.83533334873E+03  0.20987991772E+04  0.19254028624E+04 0.  0.
        3    1    3    3  502    0  0.75222999287E+02 -0.23666730838E+03  0.14315511718E+04  0.14529310659E+04  0.10100000352E+00 0.  1.
       -3    1    3    3    0  502 -0.75222999287E+02  0.23666730838E+03 -0.59621782306E+03  0.64586811131E+03  0.10100000352E+00 0. -1.
</event>
<event>
 5   0  0.8254914E-05  0.1801134E+04  0.7818609E-02  0.8705697E-01
        1   -1    0    0  501    0  0.00000000000E+00  0.00000000000E+00  0.92149834528E+03  0.92149834530E+03  0.50400001928E-02 0.  1.
       -1   -1    0    0    0  501  0.00000000000E+00  0.00000000000E+00 -0.88011119707E+03  0.88011119708E+03  0.50400001928E-02 0. -1.
    10030    2    1    2    0    0  0.00000000000E+00  0.00000000000E+00  0.41387148213E+02  0.18016095424E+04  0.18011341003E+04 0.  0.
        4    1    3    3  502    0 -0.18026857149E+03 -0.66312116800E+03 -0.56151930990E+03  0.88742999139E+03  0.12699999809E+01 0. -1.
       -4    1    3    3    0  502  0.18026857149E+03  0.66312116800E+03  0.60290645812E+03  0.91417955099E+03  0.12699999809E+01 0.  1.
</event>
<event>
 5   0  0.1573981E-04  0.1805351E+04  0.7818609E-02  0.8703459E-01
       -2   -1    0    0    0  501  0.00000000000E+00  0.00000000000E+00  0.60380985680E+03  0.60380985680E+03  0.25500000920E-02 0. -1.
        2   -1    0    0  501    0  0.00000000000E+00  0.00000000000E+00 -0.13494689213E+04  0.13494689213E+04  0.25500000920E-02 0.  1.
    10030    2    1    2    0    0  0.00000000000E+00  0.00000000000E+00 -0.74565906452E+03  0.19532787781E+04  0.18053505323E+04 0.  0.
        1    1    3    3  502    0  0.18025097564E+03 -0.89348569157E+02 -0.13249043529E+04  0.13400914616E+04  0.50400001928E-02 0.  1.
       -1    1    3    3    0  502 -0.18025097564E+03  0.89348569157E+02  0.57924528838E+03  0.61318731654E+03  0.50400001928E-02 0. -1.
</event>
<event>
 5   0  0.8430513E-05  0.1801166E+04  0.7818609E-02  0.8705680E-01
       -1   -1    0    0    0  501  0.00000000000E+00  0.00000000000E+00  0.52268855907E+03  0.52268855909E+03  0.50400001928E-02 0.  1.
        1   -1    0    0  501    0  0.00000000000E+00  0.00000000000E+00 -0.15516880856E+04  0.15516880856E+04  0.50400001928E-02 0. -1.
    10030    2    1    2    0    0  0.00000000000E+00  0.00000000000E+00 -0.10289995265E+04  0.20743766447E+04  0.18011658553E+04 0.  0.
        5    1    3    3  502    0 -0.50590538043E+03  0.40708750498E+03  0.20414372592E+03  0.68070349014E+03  0.46999998093E+01 0.  1.
       -5    1    3    3    0  502  0.50590538043E+03 -0.40708750498E+03 -0.12331432525E+04  0.13936731546E+04  0.46999998093E+01 0. -1.
</event>
<event>
 5   0  0.8254914E-05  0.1805157E+04  0.7818609E-02  0.8703562E-01
        1   -1    0    0  501    0  0.00000000000E+00  0.00000000000E+00  0.12885986598E+04  0.12885986598E+04  0.50400001928E-02 0. -1.
       -1   -1    0    0    0  501  0.00000000000E+00  0.00000000000E+00 -0.63219689188E+03  0.63219689190E+03  0.50400001928E-02 0.  1.
    10030    2    1    2    0    0  0.00000000000E+00  0.00000000000E+00  0.65640176791E+03  0.19207955517E+04  0.18051571318E+04 0.  0.
        4    1    3    3  502    0  0.58552867270E+03 -0.65196254640E+03  0.55826303088E+03  0.10390179079E+04  0.12699999809E+01 0. -1.
       -4    1    3    3    0  502 -0.58552867270E+03  0.65196254640E+03  0.98138737030E+02  0.88177764377E+03  0.12699999809E+01 0.  1.
</event>
<event>
 5   0  0.1628397E-04  0.1785013E+04  0.7818609E-02  0.8714310E-01
        2   -1    0    0  501    0  0.00000000000E+00  0.00000000000E+00  0.19298081493E+04  0.19298081493E+04  0.25500000920E-02 0. -1.
       -2   -1    0    0    0  501  0.00000000000E+00  0.00000000000E+00 -0.41277027310E+03  0.41277027310E+03  0.25500000920E-02 0.  1.
    10030    2    1    2    0    0  0.00000000000E+00  0.00000000000E+00  0.15170378762E+04  0.23425784224E+04  0.17850125342E+04 0.  0.
        3    1    3    3  502    0  0.54113756324E+03  0.13218603303E+02 -0.17275983190E+03  0.56819940474E+03  0.10100000352E+00 0.  1.
       -3    1    3    3    0  502 -0.54113756324E+03 -0.13218603303E+02  0.16897977081E+04  0.17743790177E+04  0.10100000352E+00 0. -1.
</event>
<event>
 5   0  0.8430513E-05  0.1797485E+04  0.7818609E-02  0.8707638E-01
        1   -1    0    0  501    0  0.00000000000E+00  0.00000000000E+00  0.51572865236E+03  0.51572865239E+03  0.50400001928E-02 0. -1.
       -1   -1    0    0    0  501  0.00000000000E+00  0.00000000000E+00 -0.15662074722E+04  0.15662074722E+04  0.50400001928E-02 0.  1.
    10030    2    1    2    0    0  0.00000000000E+00  0.00000000000E+00 -0.10504788199E+04  0.20819361246E+04  0.17974849863E+04 0.  0.
        5    1    3    3  502    0  0.28275499618E+03 -0.83805552510E+03 -0.34054117739E+03  0.94777520252E+03  0.46999998093E+01 0. -1.
       -5    1    3    3    0  502 -0.28275499618E+03  0.83805552510E+03 -0.70993764247E+03  0.11341609221E+04  0.46999998093E+01 0.  1.
</event>
<event>
 5   0  0.8132598E-05  0.1799785E+04  0.7818609E-02  0.8706414E-01
       -1   -1    0    0    0  501  0.00000000000E+00  0.00000000000E+00  0.12768079787E+04  0.12768079787E+04  0.50400001928E-02 0. -1.
        1   -1    0    0  501    0  0.00000000000E+00  0.00000000000E+00 -0.63424324491E+03  0.63424324493E+03  0.50400001928E-02 0.  1.
    10030    2    1    2    0    0  0.00000000000E+00  0.00000000000E+00  0.64256473374E+03  0.19110512236E+04  0.17997853600E+04 0.  0.
        3    1    3    3  502    0  0.80094589558E+03  0.67892236255E+02  0.75087179938E+03  0.10999691599E+04  0.10100000352E+00 0. -1.
       -3    1    3    3    0  502 -0.80094589558E+03 -0.67892236255E+02 -0.10830706564E+03  0.81108206370E+03  0.10100000352E+00 0.  1.
</event>
<event>
 5   0  0.8492114E-05  0.1778699E+04  0.7818609E-02  0.8717710E-01
       -1   -1    0    0    0  501  0.00000000000E+00  0.00000000000E+00  0.57496044194E+03  0.57496044196E+03  0.50400001928E-02 0. -1.
        1   -1    0    0  501    0  0.00000000000E+00  0.00000000000E+00 -0.13756464190E+04  0.13756464190E+04  0.50400001928E-02 0.  1.
    10030    2    1    2    0    0  0.00000000000E+00  0.00000000000E+00 -0.80068597709E+03  0.19506068610E+04  0.17786987076E+04 0.  0.
        2    1    3    3  502    0  0.79187129879E+03  0.40153292164E+03 -0.45683295846E+03  0.99849145862E+03  0.25500000920E-02 0.  1.
       -2    1    3    3    0  502 -0.79187129879E+03 -0.40153292164E+03 -0.34385301863E+03  0.95211540237E+03  0.25500000920E-02 0. -1.
</event>
<event>
 5   0  0.1608627E-04  0.1724367E+04  0.7818609E-02  0.8747588E-01
       -2   -1    0    0    0  501  0.00000000000E+00  0.00000000000E+00  0.54671244298E+03  0.54671244298E+03  0.25500000920E-02 0.  1.
        2   -1    0    0  501    0  0.00000000000E+00  0.00000000000E+00 -0.13596912163E+04  0.13596912163E+04  0.25500000920E-02 0. -1.
    10030    2    1    2    0    0  0.00000000000E+00  0.00000000000E+00 -0.81297877333E+03  0.19064036593E+04  0.17243666740E+04 0.  0.
        2    1    3    3  502    0  0.43532233661E+03 -0.64146994353E+02 -0.12262061294E+04  0.13027669958E+04  0.25500000920E-02 0. -1.
       -2    1    3    3    0  502 -0.43532233661E+03  0.64146994353E+02  0.41322735609E+03  0.60363666345E+03  0.25500000920E-02 0.  1.
</event>
<event>
 5   0  0.8492114E-05  0.1791974E+04  0.7818609E-02  0.8710579E-01
        1   -1    0    0  501    0  0.00000000000E+00  0.00000000000E+00  0.11036755178E+04  0.11036755178E+04  0.50400001928E-02 0.  1.
       -1   -1    0    0    0  501  0.00000000000E+00  0.00000000000E+00 -0.72738133506E+03  0.72738133508E+03  0.50400001928E-02 0. -1.
    10030    2    1    2    0    0  0.00000000000E+00  0.00000000000E+00  0.37629418272E+03  0.18310568529E+04  0.17919742985E+04 0.  0.
        2    1    3    3  502    0  0.10538409738E+03  0.79755284185E+03  0.59120750213E+03  0.99835998222E+03  0.25500000920E-02 0.  1.
       -2    1    3    3    0  502 -0.10538409738E+03 -0.79755284185E+03 -0.21491331941E+03  0.83269687065E+03  0.25500000920E-02 0. -1.
</event>
<event>
 5   0  0.8492114E-05  0.1585442E+04  0.7818609E-02  0.8829542E-01
        1   -1    0    0  501    0  0.00000000000E+00  0.00000000000E+00  0.17409236654E+04  0.17409236654E+04  0.50400001928E-02 0.  1.
       -1   -1    0    0    0  501  0.00000000000E+00  0.00000000000E+00 -0.36096170081E+03  0.36096170085E+03  0.50400001928E-02 0. -1.
    10030    2    1    2    0    0  0.00000000000E+00  0.00000000000E+00  0.13799619646E+04  0.21018853662E+04  0.15854422314E+04 0.  0.
        2    1    3    3  502    0  0.47157185877E+03 -0.48104829148E+02 -0.15237331637E+03  0.49790734090E+03  0.25500000920E-02 0. -1.
       -2    1    3    3    0  502 -0.47157185877E+03  0.48104829148E+02  0.15323352809E+04  0.16039780253E+04  0.25500000920E-02 0.  1.
</event>
<event>
 5   0  0.8132598E-05  0.1796543E+04  0.7818609E-02  0.8708140E-01
        1   -1    0    0  501    0  0.00000000000E+00  0.00000000000E+00  0.12857680542E+04  0.12857680542E+04  0.50400001928E-02 0.  1.
       -1   -1    0    0    0  501  0.00000000000E+00  0.00000000000E+00 -0.62755595218E+03  0.62755595220E+03  0.50400001928E-02 0. -1.
    10030    2    1    2    0    0  0.00000000000E+00  0.00000000000E+00  0.65821210199E+03  0.19133240064E+04  0.17965426748E+04 0.  0.
        3    1    3    3  502    0  0.37284891944E+03  0.80269498806E+03  0.49256177750E+03  0.10128932202E+04  0.10100000352E+00 0. -1.
       -3    1    3    3    0  502 -0.37284891944E+03 -0.80269498806E+03  0.16565032449E+03  0.90043078623E+03  0.10100000352E+00 0.  1.
</event>
<event>
 5   0  0.1573981E-04  0.1812667E+04  0.7818609E-02  0.8699592E-01
        2   -1    0    0  501    0  0.00000000000E+00  0.00000000000E+00  0.11213611859E+04  0.11213611859E+04  0.25500000920E-02 0. -1.
       -2   -1    0    0    0  501  0.00000000000E+00  0.00000000000E+00 -0.73253902318E+03  0.73253902318E+03  0.25500000920E-02 0.  1.
    10030    2    1    2    0    0  0.00000000000E+00  0.00000000000E+00  0.38882216277E+03  0.18539002091E+04  0.18126674574E+04 0.  0.
        1    1    3    3  502    0  0.18143263207E+03 -0.80733851265E+03 -0.18376689824E+03  0.84763408786E+03  0.50400001928E-02 0.  1.
       -1    1    3    3    0  502 -0.18143263207E+03  0.80733851265E+03  0.57258906101E+03  0.10062661213E+04  0.50400001928E-02 0. -1.
</event>
<event>
 5   0  0.1549012E-04  0.1798122E+04  0.7818609E-02  0.8707299E-01
        2   -1    0    0  501    0  0.00000000000E+00  0.00000000000E+00  0.10749338751E+04  0.10749338751E+04  0.25500000920E-02 0. -1.
       -2   -1    0    0    0  501  0.00000000000E+00  0.00000000000E+00 -0.75196335293E+03  0.75196335293E+03  0.25500000920E-02 0.  1.
    10030    2    1    2    0    0  0.00000000000E+00  0.00000000000E+00  0.32297052218E+03  0.18268972280E+04  0.17981222215E+04 0.  0.
        4    1    3    3  502    0 -0.16959730165E+03 -0.63320931566E+01  0.10585104115E+04  0.10720304307E+04  0.12699999809E+01 0. -1.
       -4    1    3    3    0  502  0.16959730165E+03  0.63320931566E+01 -0.73553988931E+03  0.75486679738E+03  0.12699999809E+01 0.  1.
</event>
<event>
 5   0  0.8206783E-05  0.1791189E+04  0.7818609E-02  0.8710999E-01
        1   -1    0    0  501    0  0.00000000000E+00  0.00000000000E+00  0.11731731493E+04  0.11731731493E+04  0.50400001928E-02 0. -1.
       -1   -1    0    0    0  501  0.00000000000E+00  0.00000000000E+00 -0.68369238235E+03  0.68369238236E+03  0.50400001928E-02 0.  1.
    10030    2    1    2    0    0  0.00000000000E+00  0.00000000000E+00  0.48948076691E+03  0.18568655316E+04  0.17911890412E+04 0.  0.
        1    1    3    3  502    0  0.47231198582E+02  0.56034094351E+03  0.96734728683E+03  0.11189162312E+04  0.50400001928E-02 0. -1.
       -1    1    3    3    0  502 -0.47231198582E+02 -0.56034094351E+03 -0.47786651993E+03  0.73794930042E+03  0.50400001928E-02 0.  1.
</event>
<event>
 5   0  0.1573981E-04  0.1799639E+04  0.7818609E-02  0.8706491E-01
       -2   -1    0    0    0  501  0.00000000000E+00  0.00000000000E+00  0.60186489141E+03  0.60186489142E+03  0.25500000920E-02 0.  1.
        2   -1    0    0  501    0  0.00000000000E+00  0.00000000000E+00 -0.13452777438E+04  0.13452777438E+04  0.25500000920E-02 0. -1.
    10030    2    1    2    0    0  0.00000000000E+00  0.00000000000E+00 -0.74341285236E+03  0.19471426352E+04  0.17996393452E+04 0.  0.
        1    1    3    3  502    0 -0.76857922602E+03  0.46206403695E+03 -0.45164174100E+03  0.10040903660E+04  0.50400001928E-02 0.  1.
       -1    1    3    3    0  502  0.76857922602E+03 -0.46206403695E+03 -0.29177111136E+03  0.94305226916E+03  0.50400001928E-02 0. -1.
</event>
<event>
 5   0  0.1549012E-04  0.1796356E+04  0.7818609E-02  0.8708240E-01
       -2   -1    0    0    0  501  0.00000000000E+00  0.00000000000E+00  0.63626499701E+03  0.63626499701E+03  0.25500000920E-02 0. -1.
        2   -1    0    0  501    0  0.00000000000E+00  0.00000000000E+00 -0.12679052052E+04  0.12679052052E+04  0.25500000920E-02 0.  1.
    10030    2    1    2    0    0  0.00000000000E+00  0.00000000000E+00 -0.63164020815E+03  0.19041702022E+04  0.17963559798E+04 0.  0.
        4    1    3    3  502    0  0.25489405137E+03 -0.70334177549E+03  0.21106492754E+03  0.77730987844E+03  0.12699999809E+01 0. -1.
       -4    1    3    3    0  502 -0.25489405137E+03  0.70334177549E+03 -0.84270513569E+03  0.11268603237E+04  0.12699999809E+01 0.  1.
</event>
<event>
 5   0  0.1603564E-04  0.1848936E+04  0.7818609E-02  0.8680700E-01
        2   -1    0    0  501    0  0.00000000000E+00  0.00000000000E+00  0.28931586749E+04  0.28931586749E+04  0.25500000920E-02 0.  1.
       -2   -1    0    0    0  501  0.00000000000E+00  0.00000000000E+00 -0.29540060698E+03  0.29540060699E+03  0.25500000920E-02 0. -1.
    10030    2    1    2    0    0  0.00000000000E+00  0.00000000000E+00  0.25977580679E+04  0.31885592818E+04  0.18489357249E+04 0.  0.
        5    1    3    3  502    0 -0.13447299152E+03 -0.68616055147E+03  0.23417887449E+04  0.24439508800E+04  0.46999998093E+01 0.  1.
       -5    1    3    3    0  502  0.13447299152E+03  0.68616055147E+03  0.25596932294E+03  0.74460840187E+03  0.46999998093E+01 0. -1.
</event>
<event>
 5   0  0.1573981E-04  0.1824028E+04  0.7818609E-02  0.8693625E-01
       -2   -1    0    0    0  501  0.00000000000E+00  0.00000000000E+00  0.67716118350E+03  0.67716118351E+03  0.25500000920E-02 0.  1.
        2   -1    0    0  501    0  0.00000000000E+00  0.00000000000E+00 -0.12283178477E+04  0.12283178477E+04  0.25500000920E-02 0. -1.
    10030    2    1    2    0    0  0.00000000000E+00  0.00000000000E+00 -0.55115666421E+03  0.19054790312E+04  0.18240275957E+04 0.  0.
        1    1    3    3  502    0 -0.48002295016E+03 -0.10658232136E+03 -0.10779842390E+04  0.11848340996E+04  0.50400001928E-02 0. -1.
       -1    1    3    3    0  502  0.48002295016E+03  0.10658232136E+03  0.52682757481E+03  0.72064493165E+03  0.50400001928E-02 0.  1.
</event>
<event>
 5   0  0.1603564E-04  0.1799513E+04  0.7818609E-02  0.8706559E-01
       -2   -1    0    0    0  501  0.00000000000E+00  0.00000000000E+00  0.63767602103E+03  0.63767602104E+03  0.25500000920E-02 0.  1.
        2   -1    0    0  501    0  0.00000000000E+00  0.00000000000E+00 -0.12695498972E+04  0.12695498973E+04  0.25500000920E-02 0. -1.
    10030    2    1    2    0    0  0.00000000000E+00  0.00000000000E+00 -0.63187387622E+03  0.19072259183E+04  0.17995127418E+04 0.  0.
        5    1    3    3  502    0 -0.28393669705E+03  0.85368670324E+03 -0.32840554797E+03  0.95774387451E+03  0.46999998093E+01 0.  1.
       -5    1    3    3    0  502  0.28393669705E+03 -0.85368670324E+03 -0.30346832825E+03  0.94948204378E+03  0.46999998093E+01 0. -1.
</event>
<event>
 5   0  0.1573981E-04  0.1768750E+04  0.7818609E-02  0.8723097E-01
       -2   -1    0    0    0  501  0.00000000000E+00  0.00000000000E+00  0.13068249712E+04  0.13068249712E+04  0.25500000920E-02 0.  1.
        2   -1    0    0  501    0  0.00000000000E+00  0.00000000000E+00 -0.59848786725E+03  0.59848786725E+03  0.25500000920E-02 0. -1.
    10030    2    1    2    0    0  0.00000000000E+00  0.00000000000E+00  0.70833710390E+03  0.19053128384E+04  0.17687497164E+04 0.  0.
        1    1    3    3  502    0  0.17884405283E+03  0.49591171606E+03  0.11190666808E+04  0.12370221750E+04  0.50400001928E-02 0.  1.
       -1    1    3    3    0  502 -0.17884405283E+03 -0.49591171606E+03 -0.41072957693E+03  0.66829066337E+03  0.50400001928E-02 0. -1.
</event>
<event>
 5   0  0.8254914E-05  0.1878215E+04  0.7818609E-02  0.8665777E-01
        1   -1    0    0  501    0  0.00000000000E+00  0.00000000000E+00  0.68182169760E+03  0.68182169762E+03  0.50400001928E-02 0.  1.
       -1   -1    0    0    0  501  0.00000000000E+00  0.00000000000E+00 -0.12934798159E+04  0.12934798159E+04  0.50400001928E-02 0. -1.
    10030    2    1    2    0    0  0.00000000000E+00  0.00000000000E+00 -0.61165811831E+03  0.19753015135E+04  0.18782146884E+04 0.  0.
        4    1    3    3  502    0 -0.67934179639E+03 -0.27922499338E+03 -0.92126972569E+03  0.11782238300E+04  0.12699999809E+01 0. -1.
       -4    1    3    3    0  502  0.67934179639E+03  0.27922499338E+03  0.30961160738E+03  0.79707768353E+03  0.12699999809E+01 0.  1.
</event>
<event>
 5   0  0.8132598E-05  0.1803062E+04  0.7818609E-02  0.8704673E-01
        1   -1    0    0  501    0  0.00000000000E+00  0.00000000000E+00  0.64016682633E+03  0.64016682635E+03  0.50400001928E-02 0.  1.
       -1   -1    0    0    0  501  0.00000000000E+00  0.00000000000E+00 -0.12696031588E+04  0.12696031588E+04  0.50400001928E-02 0. -1.
    10030    2    1    2    0    0  0.00000000000E+00  0.00000000000E+00 -0.62943633249E+03  0.19097699852E+04  0.18030616461E+04 0.  0.
        3    1    3    3  502    0  0.12766654597E+03  0.63533044997E+03  0.34912291630E+03  0.73609126371E+03  0.10100000352E+00 0.  1.
       -3    1    3    3    0  502 -0.12766654597E+03 -0.63533044997E+03 -0.97855924879E+03  0.11736787215E+04  0.10100000352E+00 0. -1.
</event>
<event>
 5   0  0.1573981E-04  0.1798731E+04  0.7818609E-02  0.8706975E-01
        2   -1    0    0  501    0  0.00000000000E+00  0.00000000000E+00  0.16388972407E+04  0.16388972407E+04  0.25500000920E-02 0.  1.
       -2   -1    0    0    0  501  0.00000000000E+00  0.00000000000E+00 -0.49353814143E+03  0.49353814144E+03  0.25500000920E-02 0. -1.
    10030    2    1    2    0    0  0.00000000000E+00  0.00000000000E+00  0.11453590992E+04  0.21324353821E+04  0.17987309951E+04 0.  0.
        1    1    3    3  502    0  0.24596341143E+03 -0.21489989552E+03  0.15661006354E+04  0.15997972262E+04  0.50400001928E-02 0.  1.
       -1    1    3    3    0  502 -0.24596341143E+03  0.21489989552E+03 -0.42074153614E+03  0.53263815589E+03  0.50400001928E-02 0. -1.
</event>
<event>
 5   0  0.8492114E-05  0.1800785E+04  0.7818609E-02  0.8705882E-01
       -1   -1    0    0    0  501  0.00000000000E+00  0.00000000000E+00  0.53771878721E+03  0.53771878723E+03  0.50400001928E-02 0. -1.
        1   -1    0    0  501    0  0.00000000000E+00  0.00000000000E+00 -0.15076779829E+04  0.15076779830E+04  0.50400001928E-02 0.  1.
    10030    2    1    2    0    0  0.00000000000E+00  0.00000000000E+00 -0.96995919574E+03  0.20453967702E+04  0.18007851360E+04 0.  0.
        2    1    3    3  502    0 -0.30957323957E+03  0.53713821763E+03 -0.12266324947E+04  0.13744018090E+04  0.25500000920E-02 0.  1.
       -2    1    3    3    0  502  0.30957323957E+03 -0.53713821763E+03  0.25667329899E+03  0.67099496117E+03  0.25500000920E-02 0. -1.
</event>
<event>
 5   0  0.1608627E-04  0.1734276E+04  0.7818609E-02  0.8742053E-01
       -2   -1    0    0    0  501  0.00000000000E+00  0.00000000000E+00  0.97058962530E+03  0.97058962530E+03  0.25500000920E-02 0.  1.
        2   -1    0    0  501    0  0.00000000000E+00  0.00000000000E+00 -0.77471295415E+03  0.77471295415E+03  0.25500000920E-02 0. -1.
    10030    2    1    2    0    0  0.00000000000E+00  0.00000000000E+00  0.19587667115E+03  0.17453025795E+04  0.17342760517E+04 0.  0.
        2    1    3    3  502    0  0.66001612157E+03 -0.29312676587E+03 -0.38509649503E+03  0.81843991355E+03  0.25500000920E-02 0. -1.
       -2    1    3    3    0  502 -0.66001612157E+03  0.29312676587E+03  0.58097316618E+03  0.92686266590E+03  0.25500000920E-02 0.  1.
</event>
<event>
 5   0  0.8254914E-05  0.1798278E+04  0.7818609E-02  0.8707215E-01
       -1   -1    0    0    0  501  0.00000000000E+00  0.00000000000E+00  0.33757471446E+03  0.33757471449E+03  0.50400001928E-02 0.  1.
        1   -1    0    0  501    0  0.00000000000E+00  0.00000000000E+00 -0.23948812623E+04  0.23948812623E+04  0.50400001928E-02 0. -1.
    10030    2    1    2    0    0  0.00000000000E+00  0.00000000000E+00 -0.20573065479E+04  0.27324559768E+04  0.17982784638E+04 0.  0.
        4    1    3    3  502    0  0.41011477045E+03 -0.18242314690E+03 -0.22124646162E+04  0.22575370695E+04  0.12699999809E+01 0. -1.
       -4    1    3    3    0  502 -0.41011477045E+03  0.18242314690E+03  0.15515806831E+03  0.47491890732E+03  0.12699999809E+01 0.  1.
</event>
<event>
 5   0  0.1603564E-04  0.1872842E+04  0.7818609E-02  0.8668494E-01
        2   -1    0    0  501    0  0.00000000000E+00  0.00000000000E+00  0.14801989917E+04  0.14801989917E+04  0.25500000920E-02 0.  1.
       -2   -1    0    0    0  501  0.00000000000E+00  0.00000000000E+00 -0.59240972591E+03  0.59240972591E+03  0.25500000920E-02 0. -1.
    10030    2    1    2    0    0  0.00000000000E+00  0.00000000000E+00  0.88778926580E+03  0.20726087176E+04  0.18728419890E+04 0.  0.
        5    1    3    3  502    0  0.88069497139E+03  0.27492139842E+03  0.26663197095E+03  0.96037498190E+03  0.46999998093E+01 0.  1.
       -5    1    3    3    0  502 -0.88069497139E+03 -0.27492139842E+03  0.62115729485E+03  0.11122337357E+04  0.46999998093E+01 0. -1.
</event>
<event>
 5   0  0.8206783E-05  0.1793093E+04  0.7818609E-02  0.8709981E-01
        1   -1    0    0  501    0  0.00000000000E+00  0.00000000000E+00  0.90281565061E+03  0.90281565063E+03  0.50400001928E-02 0.  1.
       -1   -1    0    0    0  501  0.00000000000E+00  0.00000000000E+00 -0.89032133648E+03  0.89032133650E+03  0.50400001928E-02 0. -1.
    10030    2    1    2    0    0  0.00000000000E+00  0.00000000000E+00  0.12494314133E+02  0.17931369871E+04  0.17930934573E+04 0.  0.
        1    1    3    3  502    0 -0.48828973632E+02 -0.89127988810E+03 -0.77611476816E+02  0.89598417897E+03  0.50400001928E-02 0. -1.
       -1    1    3    3    0  502  0.48828973632E+02  0.89127988810E+03  0.90105790948E+02  0.89715280816E+03  0.50400001928E-02 0.  1.
</event>
<event>
 5   0  0.1573981E-04  0.1780607E+04  0.7818609E-02  0.8716681E-01
       -2   -1    0    0    0  501  0.00000000000E+00  0.00000000000E+00  0.58252411007E+03  0.58252411008E+03  0.25500000920E-02 0.  1.
        2   -1    0    0  501    0  0.00000000000E+00  0.00000000000E+00 -0.13607003615E+04  0.13607003615E+04  0.25500000920E-02 0. -1.
    10030    2    1    2    0    0  0.00000000000E+00  0.00000000000E+00 -0.77817625145E+03  0.19432244716E+04  0.17806074999E+04 0.  0.
        1    1    3    3  502    0 -0.72381422377E+03  0.51054300141E+03 -0.48718364593E+03  0.10108951932E+04  0.50400001928E-02 0.  1.
       -1    1    3    3    0  502  0.72381422377E+03 -0.51054300141E+03 -0.29099260552E+03  0.93232927837E+03  0.50400001928E-02 0. -1.
</event>
<event>
 5   0  0.8492114E-05  0.1808719E+04  0.7818609E-02  0.8701676E-01
       -1   -1    0    0    0  501  0.00000000000E+00  0.00000000000E+00  0.11147017428E+04  0.11147017428E+04  0.50400001928E-02 0. -1.
        1   -1    0    0  501    0  0.00000000000E+00  0.00000000000E+00 -0.73370852838E+03  0.73370852840E+03  0.50400001928E-02 0.  1.
    10030    2    1    2    0    0  0.00000000000E+00  0.00000000000E+00  0.38099321443E+03  0.18484102712E+04  0.18087190775E+04 0.  0.
        2    1    3    3  502    0  0.75648265434E+03 -0.29204983440E+03 -0.21867320316E+03  0.83986730016E+03  0.25500000920E-02 0.  1.
       -2    1    3    3    0  502 -0.75648265434E+03  0.29204983440E+03  0.59966641758E+03  0.10085429711E+04  0.25500000920E-02 0. -1.
</event>
<event>
 5   0  0.8492114E-05  0.1800947E+04  0.7818609E-02  0.8705796E-01
        1   -1    0    0  501    0  0.00000000000E+00  0.00000000000E+00  0.11130142638E+04  0.11130142639E+04  0.50400001928E-02 0. -1.
       -1   -1    0    0    0  501  0.00000000000E+00  0.00000000000E+00 -0.72851909115E+03  0.72851909116E+03  0.50400001928E-02 0.  1.
    10030    2    1    2    0    0  0.00000000000E+00  0.00000000000E+00  0.38449517270E+03  0.18415333550E+04  0.18009465733E+04 0.  0.
        2    1    3    3  502    0 -0.38853160189E+03 -0.10887167673E+03 -0.63090516662E+03  0.74889997792E+03  0.25500000920E-02 0.  1.
       -2    1    3    3    0  502  0.38853160189E+03  0.10887167673E+03  0.10154003393E+04  0.10926333771E+04  0.25500000920E-02 0. -1.
</event>
<event>
 5   0  0.8430513E-05  0.1798960E+04  0.7818609E-02  0.8706853E-01
        1   -1    0    0  501    0  0.00000000000E+00  0.00000000000E+00  0.74163728758E+03  0.74163728760E+03  0.50400001928E-02 0. -1.
       -1   -1    0    0    0  501  0.00000000000E+00  0.00000000000E+00 -0.10909166522E+04  0.10909166522E+04  0.50400001928E-02 0.  1.
    10030    2    1    2    0    0  0.00000000000E+00  0.00000000000E+00 -0.34927936463E+03  0.18325539398E+04  0.17989602185E+04 0.  0.
        5    1    3    3  502    0 -0.10663933287E+03  0.86724393133E+03 -0.39206965246E+03  0.95771847958E+03  0.46999998093E+01 0.  1.
       -5    1    3    3    0  502  0.10663933287E+03 -0.86724393133E+03  0.42790287836E+02  0.87483546023E+03  0.46999998093E+01 0. -1.
</event>
<event>
 5   0  0.8430513E-05  0.1828999E+04  0.7818609E-02  0.8691028E-01
       -1   -1    0    0    0  501  0.00000000000E+00  0.00000000000E+00  0.73758651252E+03  0.73758651254E+03  0.50400001928E-02 0. -1.
        1   -1    0    0  501    0  0.00000000000E+00  0.00000000000E+00 -0.11338463383E+04  0.11338463383E+04  0.50400001928E-02 0.  1.
    10030    2    1    2    0    0  0.00000000000E+00  0.00000000000E+00 -0.39625982580E+03  0.18714328509E+04  0.18289994712E+04 0.  0.
        5    1    3    3  502    0  0.26607702624E+03 -0.57970477653E+03 -0.86864477572E+03  0.10776921862E+04  0.46999998093E+01 0.  1.
       -5    1    3    3    0  502 -0.26607702624E+03  0.57970477653E+03  0.47238494992E+03  0.79374066466E+03  0.46999998093E+01 0. -1.
</event>
<event>
 5   0  0.8254914E-05  0.1794046E+04  0.7818609E-02  0.8709472E-01
       -1   -1    0    0    0  501  0.00000000000E+00  0.00000000000E+00  0.19614933216E+04  0.19614933217E+04  0.50400001928E-02 0.  1.
        1   -1    0    0  501    0  0.00000000000E+00  0.00000000000E+00 -0.41022307147E+03  0.41022307150E+03  0.50400001928E-02 0. -1.
    10030    2    1    2    0    0  0.00000000000E+00  0.00000000000E+00  0.15512702502E+04  0.23717163932E+04  0.17940455012E+04 0.  0.
        4    1    3    3  502    0 -0.49652411018E+03 -0.58728229192E+03  0.16520686008E+03  0.78659494145E+03  0.12699999809E+01 0. -1.
       -4    1    3    3    0  502  0.49652411018E+03  0.58728229192E+03  0.13860633901E+04  0.15851214517E+04  0.12699999809E+01 0.  1.
</event>
<event>
 5   0  0.1549012E-04  0.1807328E+04  0.7818609E-02  0.8702412E-01
        2   -1    0    0  501    0  0.00000000000E+00  0.00000000000E+00  0.49517639832E+03  0.49517639833E+03  0.25500000920E-02 0.  1.
       -2   -1    0    0    0  501  0.00000000000E+00  0.00000000000E+00 -0.16491266670E+04  0.16491266670E+04  0.25500000920E-02 0. -1.
    10030    2    1    2    0    0  0.00000000000E+00  0.00000000000E+00 -0.11539502687E+04  0.21443030654E+04  0.18073279762E+04 0.  0.
        4    1    3    3  502    0 -0.42073526570E+03 -0.31692902643E+03  0.29419286328E+03  0.60333508542E+03  0.12699999809E+01 0.  1.
       -4    1    3    3    0  502  0.42073526570E+03  0.31692902643E+03 -0.14481431320E+04  0.15409679800E+04  0.12699999809E+01 0. -1.
</event>
<event>
 5   0  0.1573981E-04  0.1644785E+04  0.7818609E-02  0.8793498E-01
       -2   -1    0    0    0  501  0.00000000000E+00  0.00000000000E+00  0.82549493362E+03  0.82549493362E+03  0.25500000920E-02 0. -1.
        2   -1    0    0  501    0  0.00000000000E+00  0.00000000000E+00 -0.81930141177E+03  0.81930141178E+03  0.25500000920E-02 0.  1.
    10030    2    1    2    0    0  0.00000000000E+00  0.00000000000E+00  0.61935218429E+01  0.16447963454E+04  0.16447846844E+04 0.  0.
        1    1    3    3  502    0  0.39590693773E+03 -0.72078637560E+03 -0.42423589577E+01  0.82237053706E+03  0.50400001928E-02 0. -1.
       -1    1    3    3    0  502 -0.39590693773E+03  0.72078637560E+03  0.10435880801E+02  0.82242580834E+03  0.50400001928E-02 0.  1.
</event>
<event>
 5   0  0.1603564E-04  0.1793120E+04  0.7818609E-02  0.8709967E-01
       -2   -1    0    0    0  501  0.00000000000E+00  0.00000000000E+00  0.65099434955E+03  0.65099434955E+03  0.25500000920E-02 0.  1.
        2   -1    0    0  501    0  0.00000000000E+00  0.00000000000E+00 -0.12347573431E+04  0.12347573431E+04  0.25500000920E-02 0. -1.
    10030    2    1    2    0    0  0.00000000000E+00  0.00000000000E+00 -0.58376299360E+03  0.18857516927E+04  0.17931202452E+04 0.  0.
        5    1    3    3  502    0 -0.49746828944E+03 -0.70893064058E+03 -0.53567739438E+03  0.10183465584E+04  0.46999998093E+01 0. -1.
       -5    1    3    3    0  502  0.49746828944E+03  0.70893064058E+03 -0.48085599211E+02  0.86740513430E+03  0.46999998093E+01 0.  1.
</event>
<event>
 5   0  0.1608627E-04  0.1798102E+04  0.7818609E-02  0.8707310E-01
       -2   -1    0    0    0  501  0.00000000000E+00  0.00000000000E+00  0.89153327143E+03  0.89153327144E+03  0.25500000920E-02 0.  1.
        2   -1    0    0  501    0  0.00000000000E+00  0.00000000000E+00 -0.90663198183E+03  0.90663198184E+03  0.25500000920E-02 0. -1.
    10030    2    1    2    0    0  0.00000000000E+00  0.00000000000E+00 -0.15098710401E+02  0.17981652533E+04  0.17981018622E+04 0.  0.
        2    1    3    3  502    0  0.67877416042E+03 -0.11466029745E+03  0.57075403528E+03  0.89422676848E+03  0.25500000920E-02 0.  1.
       -2    1    3    3    0  502 -0.67877416042E+03  0.11466029745E+03 -0.58585274568E+03  0.90393848480E+03  0.25500000920E-02 0. -1.
</event>
<event>
 5   0  0.8492114E-05  0.1808424E+04  0.7818609E-02  0.8701833E-01
       -1   -1    0    0    0  501  0.00000000000E+00  0.00000000000E+00  0.84471289351E+03  0.84471289352E+03  0.50400001928E-02 0.  1.
        1   -1    0    0  501    0  0.00000000000E+00  0.00000000000E+00 -0.96790170321E+03  0.96790170323E+03  0.50400001928E-02 0. -1.
    10030    2    1    2    0    0  0.00000000000E+00  0.00000000000E+00 -0.12318880971E+03  0.18126145967E+04  0.18084236764E+04 0.  0.
        2    1    3    3  502    0 -0.35908133111E+02  0.10715002234E+03  0.83760698485E+03  0.84519582488E+03  0.25500000920E-02 0.  1.
       -2    1    3    3    0  502  0.35908133111E+02 -0.10715002234E+03 -0.96079579456E+03  0.96741877187E+03  0.25500000920E-02 0. -1.
</event>
<event>
 5   0  0.8206783E-05  0.1798559E+04  0.7818609E-02  0.8707066E-01
        1   -1    0    0  501    0  0.00000000000E+00  0.00000000000E+00  0.57643170480E+03  0.57643170482E+03  0.50400001928E-02 0. -1.
       -1   -1    0    0    0  501  0.00000000000E+00  0.00000000000E+00 -0.14029473357E+04  0.14029473357E+04  0.50400001928E-02 0.  1.
    10030    2    1    2    0    0  0.00000000000E+00  0.00000000000E+00 -0.82651563089E+03  0.19793790405E+04  0.17985586724E+04 0.  0.
        1    1    3    3  502    0 -0.33410593204E+03  0.26428617622E+03  0.45834284278E+03  0.62574125509E+03  0.50400001928E-02 0. -1.
       -1    1    3    3    0  502  0.33410593204E+03 -0.26428617622E+03 -0.12848584737E+04  0.13536377854E+04  0.50400001928E-02 0.  1.
</event>
<event>
 5   0  0.1603564E-04  0.1796337E+04  0.7818609E-02  0.8708250E-01
        2   -1    0    0  501    0  0.00000000000E+00  0.00000000000E+00  0.14273729720E+04  0.14273729720E+04  0.25500000920E-02 0.  1.
       -2   -1    0    0    0  501  0.00000000000E+00  0.00000000000E+00 -0.56516848083E+03  0.56516848083E+03  0.25500000920E-02 0. -1.
    10030    2    1    2    0    0  0.00000000000E+00  0.00000000000E+00  0.86220449117E+03  0.19925414528E+04  0.17963365099E+04 0.  0.
        5    1    3    3  502    0 -0.53560186831E+03 -0.48525143827E+03 -0.16038186267E+03  0.74032611163E+03  0.46999998093E+01 0. -1.
       -5    1    3    3    0  502  0.53560186831E+03  0.48525143827E+03  0.10225863538E+04  0.12522153412E+04  0.46999998093E+01 0.  1.
</event>
<event>
 5   0  0.1573981E-04  0.1802832E+04  0.7818609E-02  0.8704795E-01
       -2   -1    0    0    0  501  0.00000000000E+00  0.00000000000E+00  0.45836980644E+03  0.45836980645E+03  0.25500000920E-02 0.  1.
        2   -1    0    0  501    0  0.00000000000E+00  0.00000000000E+00 -0.17726968111E+04  0.17726968111E+04  0.25500000920E-02 0. -1.
    10030    2    1    2    0    0  0.00000000000E+00  0.00000000000E+00 -0.13143270047E+04  0.22310666176E+04  0.18028318770E+04 0.  0.
        1    1    3    3  502    0 -0.63569124092E+02  0.12015252405E+03 -0.17599400789E+04  0.17651817878E+04  0.50400001928E-02 0. -1.
       -1    1    3    3    0  502  0.63569124092E+02 -0.12015252405E+03  0.44561307429E+03  0.46588482973E+03  0.50400001928E-02 0.  1.
</event>
<event>
 5   0  0.5820500E-05  0.1803799E+04  0.7818609E-02  0.8704282E-01
       -3   -1    0    0    0  501  0.00000000000E+00  0.00000000000E+00  0.54132936390E+03  0.54132937333E+03  0.10100000352E+00 0.  1.
        3   -1    0    0  501    0  0.00000000000E+00  0.00000000000E+00 -0.15026390235E+04  0.15026390269E+04  0.10100000352E+00 0. -1.
    10030    2    1    2    0    0  0.00000000000E+00  0.00000000000E+00 -0.96130965960E+03  0.20439684002E+04  0.18037989243E+04 0.  0.
        2    1    3    3  502    0  0.28657953174E+03 -0.61247303186E+03 -0.11569179369E+04  0.13400411022E+04  0.25500000920E-02 0. -1.
       -2    1    3    3    0  502 -0.28657953174E+03  0.61247303186E+03  0.19560827731E+03  0.70392729804E+03  0.25500000920E-02 0.  1.
</event>
<event>
 5   0  0.8132598E-05  0.1792524E+04  0.7818609E-02  0.8710285E-01
       -1   -1    0    0    0  501  0.00000000000E+00  0.00000000000E+00  0.77173258434E+03  0.77173258435E+03  0.50400001928E-02 0.  1.
        1   -1    0    0  501    0  0.00000000000E+00  0.00000000000E+00 -0.10408859329E+04  0.10408859329E+04  0.50400001928E-02 0. -1.
    10030    2    1    2    0    0  0.00000000000E+00  0.00000000000E+00 -0.26915334858E+03  0.18126185173E+04  0.17925240205E+04 0.  0.
        3    1    3    3  502    0  0.29264433650E+03  0.78002186178E+03 -0.46875183024E+03  0.95593048968E+03  0.10100000352E+00 0. -1.
       -3    1    3    3    0  502 -0.29264433650E+03 -0.78002186178E+03  0.19959848166E+03  0.85668802760E+03  0.10100000352E+00 0.  1.
</event>
<event>
 5   0  0.1603564E-04  0.1802567E+04  0.7818609E-02  0.8704935E-01
       -2   -1    0    0    0  501  0.00000000000E+00  0.00000000000E+00  0.12401844183E+04  0.12401844183E+04  0.25500000920E-02 0.  1.
        2   -1    0    0  501    0  0.00000000000E+00  0.00000000000E+00 -0.65499300615E+03  0.65499300616E+03  0.25500000920E-02 0. -1.
    10030    2    1    2    0    0  0.00000000000E+00  0.00000000000E+00  0.58519141218E+03  0.18951774245E+04  0.18025671919E+04 0.  0.
        5    1    3    3  502    0 -0.72539821387E+03  0.51752830243E+03  0.15055505158E+03  0.90372950934E+03  0.46999998093E+01 0. -1.
       -5    1    3    3    0  502  0.72539821387E+03 -0.51752830243E+03  0.43463636059E+03  0.99144791515E+03  0.46999998093E+01 0.  1.
</event>
<event>
 5   0  0.8132598E-05  0.1781343E+04  0.7818609E-02  0.8716284E-01
       -1   -1    0    0    0  501  0.00000000000E+00  0.00000000000E+00  0.47121473375E+03  0.47121473378E+03  0.50400001928E-02 0. -1.
        1   -1    0    0  501    0  0.00000000000E+00  0.00000000000E+00 -0.16835123738E+04  0.16835123738E+04  0.50400001928E-02 0.  1.
    10030    2    1    2    0    0  0.00000000000E+00  0.00000000000E+00 -0.12122976400E+04  0.21547271076E+04  0.17813431281E+04 0.  0.
        3    1    3    3  502    0 -0.12849321045E+03  0.87904989768E+03 -0.52910716056E+03  0.10340181939E+04  0.10100000352E+00 0.  1.
       -3    1    3    3    0  502  0.12849321045E+03 -0.87904989768E+03 -0.68319047946E+03  0.11207089137E+04  0.10100000352E+00 0. -1.
</event>
<event>
 5   0  0.1603564E-04  0.1811974E+04  0.7818609E-02  0.8699958E-01
       -2   -1    0    0    0  501  0.00000000000E+00  0.00000000000E+00  0.43636818342E+03  0.43636818342E+03  0.25500000920E-02 0. -1.
        2   -1    0    0  501    0  0.00000000000E+00  0.00000000000E+00 -0.18810086584E+04  0.18810086584E+04  0.25500000920E-02 0.  1.
    10030    2    1    2    0    0  0.00000000000E+00  0.00000000000E+00 -0.14446404750E+04  0.23173768419E+04  0.18119738754E+04 0.  0.
        5    1    3    3  502    0  0.14832669330E+03  0.15470331562E+03 -0.18481048801E+04  0.18604966169E+04  0.46999998093E+01 0.  1.
       -5    1    3    3    0  502 -0.14832669330E+03 -0.15470331562E+03  0.40346440505E+03  0.45688022495E+03  0.46999998093E+01 0. -1.
</event>
<event>
 5   0  0.8492114E-05  0.1764313E+04  0.7818609E-02  0.8725511E-01
       -1   -1    0    0    0  501  0.00000000000E+00  0.00000000000E+00  0.10097333391E+04  0.10097333391E+04  0.50400001928E-02 0.  1.
        1   -1    0    0  501    0  0.00000000000E+00  0.00000000000E+00 -0.77069846541E+03  0.77069846543E+03  0.50400001928E-02 0. -1.
    10030    2    1    2    0    0  0.00000000000E+00  0.00000000000E+00  0.23903487365E+03  0.17804318045E+04  0.17643128236E+04 0.  0.
        2    1    3    3  502    0 -0.11060823697E+03  0.68461520741E+03  0.66972133871E+03  0.96408445472E+03  0.25500000920E-02 0.  1.
       -2    1    3    3    0  502  0.11060823697E+03 -0.68461520741E+03 -0.43068646506E+03  0.81634734978E+03  0.25500000920E-02 0. -1.
</event>
<event>
 5   0  0.1573981E-04  0.1801149E+04  0.7818609E-02  0.8705689E-01
       -2   -1    0    0    0  501  0.00000000000E+00  0.00000000000E+00  0.71663886380E+03  0.71663886380E+03  0.25500000920E-02 0. -1.
        2   -1    0    0  501    0  0.00000000000E+00  0.00000000000E+00 -0.11317195424E+04  0.11317195424E+04  0.25500000920E-02 0.  1.
    10030    2    1    2    0    0  0.00000000000E+00  0.00000000000E+00 -0.41508067862E+03  0.18483584062E+04  0.18011487523E+04 0.  0.
        1    1    3    3  502    0 -0.23022643781E+03  0.37730102211E+02  0.68508995175E+03  0.72372371476E+03  0.50400001928E-02 0. -1.
       -1    1    3    3    0  502  0.23022643781E+03 -0.37730102211E+02 -0.11001706304E+04  0.11246346915E+04  0.50400001928E-02 0.  1.
</event>
<event>
 5   0  0.8492114E-05  0.1798357E+04  0.7818609E-02  0.8707174E-01
        1   -1    0    0  501    0  0.00000000000E+00  0.00000000000E+00  0.12091957451E+04  0.12091957451E+04  0.50400001928E-02 0. -1.
       -1   -1    0    0    0  501  0.00000000000E+00  0.00000000000E+00 -0.66864460478E+03  0.66864460480E+03  0.50400001928E-02 0.  1.
    10030    2    1    2    0    0  0.00000000000E+00  0.00000000000E+00  0.54055114030E+03  0.18778403499E+04  0.17983572627E+04 0.  0.
        2    1    3    3  502    0 -0.11647218385E+03 -0.68972068975E+03 -0.31971161257E+03  0.76908771587E+03  0.25500000920E-02 0.  1.
       -2    1    3    3    0  502  0.11647218385E+03  0.68972068975E+03  0.86026275287E+03  0.11087526340E+04  0.25500000920E-02 0. -1.
</event>
<event>
 5   0  0.1549012E-04  0.1800506E+04  0.7818609E-02  0.8706030E-01
       -2   -1    0    0    0  501  0.00000000000E+00  0.00000000000E+00  0.60108919641E+03  0.60108919641E+03  0.25500000920E-02 0.  1.
        2   -1    0    0  501    0  0.00000000000E+00  0.00000000000E+00 -0.13483116687E+04  0.13483116687E+04  0.25500000920E-02 0. -1.
    10030    2    1    2    0    0  0.00000000000E+00  0.00000000000E+00 -0.74722247228E+03  0.19494008651E+04  0.18005061260E+04 0.  0.
        4    1    3    3  502    0  0.77808183275E+03 -0.31067073517E+03 -0.16935069583E+02  0.83798332539E+03  0.12699999809E+01 0. -1.
       -4    1    3    3    0  502 -0.77808183275E+03  0.31067073517E+03 -0.73028740270E+03  0.11114175397E+04  0.12699999809E+01 0.  1.
</event>
<event>
 5   0  0.8254914E-05  0.1800861E+04  0.7818609E-02  0.8705842E-01
       -1   -1    0    0    0  501  0.00000000000E+00  0.00000000000E+00  0.58028709518E+03  0.58028709520E+03  0.50400001928E-02 0.  1.
        1   -1    0    0  501    0  0.00000000000E+00  0.00000000000E+00 -0.13971957516E+04  0.13971957516E+04  0.50400001928E-02 0. -1.
    10030    2    1    2    0    0  0.00000000000E+00  0.00000000000E+00 -0.81690865645E+03  0.19774828468E+04  0.18008605322E+04 0.  0.
        4    1    3    3  502    0  0.81544513866E+03 -0.18874522749E+03 -0.77297196644E+03  0.11393255939E+04  0.12699999809E+01 0. -1.
       -4    1    3    3    0  502 -0.81544513866E+03  0.18874522749E+03 -0.43936690017E+02  0.83815725296E+03  0.12699999809E+01 0.  1.
</event>
<event>
 5   0  0.5820500E-05  0.1795059E+04  0.7818609E-02  0.8708932E-01
       -4   -1    0    0    0  501  0.00000000000E+00  0.00000000000E+00  0.13365409982E+04  0.13365416016E+04  0.12699999809E+01 0.  1.
        4   -1    0    0  501    0  0.00000000000E+00  0.00000000000E+00 -0.60271775976E+03  0.60271909778E+03  0.12699999809E+01 0. -1.
    10030    2    1    2    0    0  0.00000000000E+00  0.00000000000E+00  0.73382323844E+03  0.19392606994E+04  0.17950586383E+04 0.  0.
        3    1    3    3  502    0 -0.73264612093E+03 -0.51825572072E+03  0.35165106550E+03  0.96385570115E+03  0.10100000352E+00 0.  1.
       -3    1    3    3    0  502  0.73264612093E+03  0.51825572072E+03  0.38217217294E+03  0.97540499821E+03  0.10100000352E+00 0. -1.
</event>
<event>
 5   0  0.8430513E-05  0.1804850E+04  0.7818609E-02  0.8703725E-01
       -1   -1    0    0    0  501  0.00000000000E+00  0.00000000000E+00  0.11240123203E+04  0.11240123203E+04  0.50400001928E-02 0.  1.
        1   -1    0    0  501    0  0.00000000000E+00  0.00000000000E+00 -0.72452138236E+03  0.72452138237E+03  0.50400001928E-02 0. -1.
    10030    2    1    2    0    0  0.00000000000E+00  0.00000000000E+00  0.39949093796E+03  0.18485337027E+04  0.18048500881E+04 0.  0.
        5    1    3    3  502    0 -0.29128856272E+03 -0.71268059002E+03  0.68186820508E+03  0.10284595224E+04  0.46999998093E+01 0.  1.
       -5    1    3    3    0  502  0.29128856272E+03  0.71268059002E+03 -0.28237726712E+03  0.82007418027E+03  0.46999998093E+01 0. -1.
</event>
<event>
 5   0  0.8492114E-05  0.1803253E+04  0.7818609E-02  0.8704571E-01
        1   -1    0    0  501    0  0.00000000000E+00  0.00000000000E+00  0.18626756671E+04  0.18626756671E+04  0.50400001928E-02 0. -1.
       -1   -1    0    0    0  501  0.00000000000E+00  0.00000000000E+00 -0.43643162269E+03  0.43643162272E+03  0.50400001928E-02 0.  1.
    10030    2    1    2    0    0  0.00000000000E+00  0.00000000000E+00  0.14262440444E+04  0.22991072898E+04  0.18032532423E+04 0.  0.
        2    1    3    3  502    0 -0.16312083384E+03  0.58623510293E+03 -0.13514586550E+03  0.62333330354E+03  0.25500000920E-02 0.  1.
       -2    1    3    3    0  502  0.16312083384E+03 -0.58623510293E+03  0.15613899099E+04  0.16757739863E+04  0.25500000920E-02 0. -1.
</event>
<event>
 5   0  0.8132598E-05  0.1800489E+04  0.7818609E-02  0.8706039E-01
        1   -1    0    0  501    0  0.00000000000E+00  0.00000000000E+00  0.59720092845E+03  0.59720092847E+03  0.50400001928E-02 0.  1.
       -1   -1    0    0    0  501  0.00000000000E+00  0.00000000000E+00 -0.13570650747E+04  0.13570650747E+04  0.50400001928E-02 0. -1.
    10030    2    1    2    0    0  0.00000000000E+00  0.00000000000E+00 -0.75986414624E+03  0.19542660032E+04  0.18004894030E+04 0.  0.
        3    1    3    3  502    0 -0.29363446389E+01 -0.34196384549E+03 -0.12838188412E+04  0.13285852329E+04  0.10100000352E+00 0. -1.
       -3    1    3    3    0  502  0.29363446389E+01  0.34196384549E+03  0.52395469497E+03  0.62568077030E+03  0.10100000352E+00 0.  1.
</event>
<event>
 5   0  0.8430513E-05  0.1799979E+04  0.7818609E-02  0.8706310E-01
       -1   -1    0    0    0  501  0.00000000000E+00  0.00000000000E+00  0.64476580426E+03  0.64476580428E+03  0.50400001928E-02 0. -1.
        1   -1    0    0  501    0  0.00000000000E+00  0.00000000000E+00 -0.12562413379E+04  0.12562413379E+04  0.50400001928E-02 0.  1.
    10030    2    1    2    0    0  0.00000000000E+00  0.00000000000E+00 -0.61147553364E+03  0.19010071422E+04  0.17999793961E+04 0.  0.
        5    1    3    3  502    0 -0.87402119064E+03  0.18713767571E+03 -0.19484031420E+03  0.91483243788E+03  0.46999998093E+01 0. -1.
       -5    1    3    3    0  502  0.87402119064E+03 -0.18713767571E+03 -0.41663521944E+03  0.98617470432E+03  0.46999998093E+01 0.  1.
</event>
<event>
 5   0  0.8430513E-05  0.1805173E+04  0.7818609E-02  0.8703553E-01
       -1   -1    0    0    0  501  0.00000000000E+00  0.00000000000E+00  0.44818999410E+03  0.44818999413E+03  0.50400001928E-02 0.  1.
        1   -1    0    0  501    0  0.00000000000E+00  0.00000000000E+00 -0.18176716070E+04  0.18176716070E+04  0.50400001928E-02 0. -1.
    10030    2    1    2    0    0  0.00000000000E+00  0.00000000000E+00 -0.13694816129E+04  0.22658616012E+04  0.18051728193E+04 0.  0.
        5    1    3    3  502    0 -0.20477049706E+03 -0.42338954672E+03  0.28221546348E+03  0.54850462402E+03  0.46999998093E+01 0.  1.
       -5    1    3    3    0  502  0.20477049706E+03  0.42338954672E+03 -0.16516970764E+04  0.17173569771E+04  0.46999998093E+01 0. -1.
</event>
<event>
 5   0  0.8430513E-05  0.1804930E+04  0.7818609E-02  0.8703682E-01
       -1   -1    0    0    0  501  0.00000000000E+00  0.00000000000E+00  0.58930372938E+03  0.58930372940E+03  0.50400001928E-02 0.  1.
        1   -1    0    0  501    0  0.00000000000E+00  0.00000000000E+00 -0.13820435991E+04  0.13820435991E+04  0.50400001928E-02 0. -1.
    10030    2    1    2    0    0  0.00000000000E+00  0.00000000000E+00 -0.79273986969E+03  0.19713473285E+04  0.18049304110E+04 0.  0.
        5    1    3    3  502    0 -0.79869359850E+03 -0.19981032839E+03 -0.80002029401E+03  0.11479939862E+04  0.46999998093E+01 0. -1.
       -5    1    3    3    0  502  0.79869359850E+03  0.19981032839E+03  0.72804243155E+01  0.82335334224E+03  0.46999998093E+01 0.  1.
</event>
<event>
 5   0  0.1549012E-04  0.1814617E+04  0.7818609E-02  0.8698565E-01
       -2   -1    0    0    0  501  0.00000000000E+00  0.00000000000E+00  0.11784548169E+04  0.11784548169E+04  0.25500000920E-02 0. -1.
        2   -1    0    0  501    0  0.00000000000E+00  0.00000000000E+00 -0.69854930638E+03  0.69854930639E+03  0.25500000920E-02 0.  1.
    10030    2    1    2    0    0  0.00000000000E+00  0.00000000000E+00  0.47990551052E+03  0.18770041233E+04  0.18146170890E+04 0.  0.
        4    1    3    3  502    0 -0.35281082163E+02  0.69741381929E+03 -0.35925293692E+03  0.78529935418E+03  0.12699999809E+01 0.  1.
       -4    1    3    3    0  502  0.35281082163E+02 -0.69741381929E+03  0.83915844743E+03  0.10917047691E+04  0.12699999809E+01 0. -1.
</event>
<event>
 5   0  0.8254914E-05  0.1802393E+04  0.7818609E-02  0.8705028E-01
       -1   -1    0    0    0  501  0.00000000000E+00  0.00000000000E+00  0.17981340503E+04  0.17981340504E+04  0.50400001928E-02 0. -1.
        1   -1    0    0  501    0  0.00000000000E+00  0.00000000000E+00 -0.45166527548E+03  0.45166527551E+03  0.50400001928E-02 0.  1.
    10030    2    1    2    0    0  0.00000000000E+00  0.00000000000E+00  0.13464687749E+04  0.22497993259E+04  0.18023925335E+04 0.  0.
        4    1    3    3  502    0 -0.84236729154E+03 -0.21952011218E+03  0.96431913807E+03  0.12991092127E+04  0.12699999809E+01 0. -1.
       -4    1    3    3    0  502  0.84236729154E+03  0.21952011218E+03  0.38214963680E+03  0.95069011319E+03  0.12699999809E+01 0.  1.
</event>
<event>
 5   0  0.1628397E-04  0.1799523E+04  0.7818609E-02  0.8706553E-01
        2   -1    0    0  501    0  0.00000000000E+00  0.00000000000E+00  0.11042690716E+04  0.11042690716E+04  0.25500000920E-02 0.  1.
       -2   -1    0    0    0  501  0.00000000000E+00  0.00000000000E+00 -0.73312844740E+03  0.73312844741E+03  0.25500000920E-02 0. -1.
    10030    2    1    2    0    0  0.00000000000E+00  0.00000000000E+00  0.37114062422E+03  0.18373975190E+04  0.17995233480E+04 0.  0.
        3    1    3    3  502    0  0.39590352776E+03  0.20635785442E+03  0.98319536040E+03  0.10798130830E+04  0.10100000352E+00 0.  1.
       -3    1    3    3    0  502 -0.39590352776E+03 -0.20635785442E+03 -0.61205473619E+03  0.75758443599E+03  0.10100000352E+00 0. -1.
</event>
<event>
 5   0  0.1573981E-04  0.1803403E+04  0.7818609E-02  0.8704492E-01
        2   -1    0    0  501    0  0.00000000000E+00  0.00000000000E+00  0.97463449846E+03  0.97463449846E+03  0.25500000920E-02 0.  1.
       -2   -1    0    0    0  501  0.00000000000E+00  0.00000000000E+00 -0.83422600817E+03  0.83422600817E+03  0.25500000920E-02 0. -1.
    10030    2    1    2    0    0  0.00000000000E+00  0.00000000000E+00  0.14040849029E+03  0.18088605066E+04  0.18034028358E+04 0.  0.
        1    1    3    3  502    0 -0.14776795097E+03  0.79103283914E+03 -0.33784028278E+03  0.87275676831E+03  0.50400001928E-02 0. -1.
       -1    1    3    3    0  502  0.14776795097E+03 -0.79103283914E+03  0.47824877307E+03  0.93610373832E+03  0.50400001928E-02 0.  1.
</event>
<event>
 5   0  0.8254914E-05  0.1611584E+04  0.7818609E-02  0.8813463E-01
        1   -1    0    0  501    0  0.00000000000E+00  0.00000000000E+00  0.51925248375E+03  0.51925248378E+03  0.50400001928E-02 0. -1.
       -1   -1    0    0    0  501  0.00000000000E+00  0.00000000000E+00 -0.12504531484E+04  0.12504531484E+04  0.50400001928E-02 0.  1.
    10030    2    1    2    0    0  0.00000000000E+00  0.00000000000E+00 -0.73120066466E+03  0.17697056322E+04  0.16115841935E+04 0.  0.
        4    1    3    3  502    0 -0.69424049928E+03  0.37540282435E+03 -0.18717044981E+03  0.81112979329E+03  0.12699999809E+01 0.  1.
       -4    1    3    3    0  502  0.69424049928E+03 -0.37540282435E+03 -0.54403021485E+03  0.95857583891E+03  0.12699999809E+01 0. -1.
</event>
<event>
 5   0  0.1573981E-04  0.2012494E+04  0.7818609E-02  0.8600802E-01
        2   -1    0    0  501    0  0.00000000000E+00  0.00000000000E+00  0.69264349108E+03  0.69264349109E+03  0.25500000920E-02 0.  1.
       -2   -1    0    0    0  501  0.00000000000E+00  0.00000000000E+00 -0.14618381664E+04  0.14618381664E+04  0.25500000920E-02 0. -1.
    10030    2    1    2    0    0  0.00000000000E+00  0.00000000000E+00 -0.76919467532E+03  0.21544816575E+04  0.20124936680E+04 0.  0.
        1    1    3    3  502    0  0.99426808923E+02 -0.91087919893E+03 -0.82980604206E+03  0.12361895780E+04  0.50400001928E-02 0. -1.
       -1    1    3    3    0  502 -0.99426808923E+02  0.91087919893E+03  0.60611366745E+02  0.91829207945E+03  0.50400001928E-02 0.  1.
</event>
<event>
 5   0  0.1573981E-04  0.1810873E+04  0.7818609E-02  0.8700539E-01
        2   -1    0    0  501    0  0.00000000000E+00  0.00000000000E+00  0.12029659118E+04  0.12029659118E+04  0.25500000920E-02 0. -1.
       -2   -1    0    0    0  501  0.00000000000E+00  0.00000000000E+00 -0.68149487060E+03  0.68149487061E+03  0.25500000920E-02 0.  1.
    10030    2    1    2    0    0  0.00000000000E+00  0.00000000000E+00  0.52147104118E+03  0.18844607824E+04  0.18108728265E+04 0.  0.
        1    1    3    3  502    0  0.49245454162E+03  0.75732606571E+03  0.19691764667E+03  0.92457060572E+03  0.50400001928E-02 0.  1.
       -1    1    3    3    0  502 -0.49245454162E+03 -0.75732606571E+03  0.32455339450E+03  0.95989017667E+03  0.50400001928E-02 0. -1.
</event>
<event>
 5   0  0.8492114E-05  0.1754821E+04  0.7818609E-02  0.8730701E-01
       -1   -1    0    0    0  501  0.00000000000E+00  0.00000000000E+00  0.36191926442E+03  0.36191926445E+03  0.50400001928E-02 0. -1.
        1   -1    0    0  501    0  0.00000000000E+00  0.00000000000E+00 -0.21271286630E+04  0.21271286630E+04  0.50400001928E-02 0.  1.
    10030    2    1    2    0    0  0.00000000000E+00  0.00000000000E+00 -0.17652093986E+04  0.24890479275E+04  0.17548206075E+04 0.  0.
        2    1    3    3  502    0  0.43685361181E+03 -0.17144574846E+03 -0.19341535993E+04  0.19902725614E+04  0.25500000920E-02 0.  1.
       -2    1    3    3    0  502 -0.43685361181E+03  0.17144574846E+03  0.16894420075E+03  0.49877536606E+03  0.25500000920E-02 0. -1.
</event>
<event>
 5   0  0.1573981E-04  0.1805360E+04  0.7818609E-02  0.8703454E-01
       -2   -1    0    0    0  501  0.00000000000E+00  0.00000000000E+00  0.56909894098E+03  0.56909894099E+03  0.25500000920E-02 0.  1.
        2   -1    0    0  501    0  0.00000000000E+00  0.00000000000E+00 -0.14317920170E+04  0.14317920170E+04  0.25500000920E-02 0. -1.
    10030    2    1    2    0    0  0.00000000000E+00  0.00000000000E+00 -0.86269307600E+03  0.20008909580E+04  0.18053601531E+04 0.  0.
        1    1    3    3  502    0  0.47632540272E+03  0.36494433363E+03  0.31605021402E+03  0.67820203017E+03  0.50400001928E-02 0.  1.
       -1    1    3    3    0  502 -0.47632540272E+03 -0.36494433363E+03 -0.11787432900E+04  0.13226889278E+04  0.50400001928E-02 0. -1.
</event>
<event>
 5   0  0.8206783E-05  0.1800313E+04  0.7818609E-02  0.8706133E-01
       -1   -1    0    0    0  501  0.00000000000E+00  0.00000000000E+00  0.70903143440E+03  0.70903143442E+03  0.50400001928E-02 0. -1.
        1   -1    0    0  501    0  0.00000000000E+00  0.00000000000E+00 -0.11428003970E+04  0.11428003970E+04  0.50400001928E-02 0.  1.
    10030    2    1    2    0    0  0.00000000000E+00  0.00000000000E+00 -0.43376896258E+03  0.18518318314E+04  0.18003126448E+04 0.  0.
        1    1    3    3  502    0  0.55383592274E+03  0.59502643816E+03 -0.61458917832E+03  0.10190733779E+04  0.50400001928E-02 0. -1.
       -1    1    3    3    0  502 -0.55383592274E+03 -0.59502643816E+03  0.18082021575E+03  0.83275845350E+03  0.50400001928E-02 0.  1.
</event>
<event>
 5   0  0.8492114E-05  0.1797144E+04  0.7818609E-02  0.8707820E-01
        1   -1    0    0  501    0  0.00000000000E+00  0.00000000000E+00  0.65908285490E+03  0.65908285492E+03  0.50400001928E-02 0. -1.
       -1   -1    0    0    0  501  0.00000000000E+00  0.00000000000E+00 -0.12250831662E+04  0.12250831662E+04  0.50400001928E-02 0.  1.
    10030    2    1    2    0    0  0.00000000000E+00  0.00000000000E+00 -0.56600031132E+03  0.18841660212E+04  0.17971436345E+04 0.  0.
        2    1    3    3  502    0  0.32263467913E+03  0.13882336793E+03  0.58413233600E+03  0.68159786504E+03  0.25500000920E-02 0. -1.
       -2    1    3    3    0  502 -0.32263467913E+03 -0.13882336793E+03 -0.11501326473E+04  0.12025681561E+04  0.25500000920E-02 0.  1.
</event>
<event>
 5   0  0.8206783E-05  0.1792662E+04  0.7818609E-02  0.8710211E-01
       -1   -1    0    0    0  501  0.00000000000E+00  0.00000000000E+00  0.66605170690E+03  0.66605170692E+03  0.50400001928E-02 0. -1.
        1   -1    0    0  501    0  0.00000000000E+00  0.00000000000E+00 -0.12062268969E+04  0.12062268969E+04  0.50400001928E-02 0.  1.
    10030    2    1    2    0    0  0.00000000000E+00  0.00000000000E+00 -0.54017518996E+03  0.18722786038E+04  0.17926622477E+04 0.  0.
        1    1    3    3  502    0 -0.11754562171E+03 -0.57590441175E+03 -0.97684431466E+03  0.11400472270E+04  0.50400001928E-02 0.  1.
       -1    1    3    3    0  502  0.11754562171E+03  0.57590441175E+03  0.43666912471E+03  0.73223137679E+03  0.50400001928E-02 0. -1.
</event>
<event>
 5   0  0.1573981E-04  0.1804289E+04  0.7818609E-02  0.8704022E-01
        2   -1    0    0  501    0  0.00000000000E+00  0.00000000000E+00  0.10356725671E+04  0.10356725671E+04  0.25500000920E-02 0. -1.
       -2   -1    0    0    0  501  0.00000000000E+00  0.00000000000E+00 -0.78583237128E+03  0.78583237129E+03  0.25500000920E-02 0.  1.
    10030    2    1    2    0    0  0.00000000000E+00  0.00000000000E+00  0.24984019580E+03  0.18215049384E+04  0.18042893662E+04 0.  0.
        1    1    3    3  502    0 -0.62032751052E+03 -0.40617292110E+03  0.64371280874E+03  0.98191081178E+03  0.50400001928E-02 0. -1.
       -1    1    3    3    0  502  0.62032751052E+03  0.40617292110E+03 -0.39387261294E+03  0.83959412658E+03  0.50400001928E-02 0.  1.
</event>
<event>
 5   0  0.8206783E-05  0.1811674E+04  0.7818609E-02  0.8700116E-01
        1   -1    0    0  501    0  0.00000000000E+00  0.00000000000E+00  0.60234962785E+03  0.60234962787E+03  0.50400001928E-02 0.  1.
       -1   -1    0    0    0  501  0.00000000000E+00  0.00000000000E+00 -0.13622325272E+04  0.13622325272E+04  0.50400001928E-02 0. -1.
    10030    2    1    2    0    0  0.00000000000E+00  0.00000000000E+00 -0.75988289937E+03  0.19645821551E+04  0.18116735422E+04 0.  0.
        1    1    3    3  502    0 -0.85319379440E+03 -0.30292575716E+03 -0.34857634353E+03  0.97015933354E+03  0.50400001928E-02 0. -1.
       -1    1    3    3    0  502  0.85319379440E+03  0.30292575716E+03 -0.41130655584E+03  0.99442282157E+03  0.50400001928E-02 0.  1.
</event>
<event>
 5   0  0.8254914E-05  0.1644426E+04  0.7818609E-02  0.8793711E-01
       -1   -1    0    0    0  501  0.00000000000E+00  0.00000000000E+00  0.89826520801E+03  0.89826520803E+03  0.50400001928E-02 0.  1.
        1   -1    0    0  501    0  0.00000000000E+00  0.00000000000E+00 -0.75259996164E+03  0.75259996166E+03  0.50400001928E-02 0. -1.
    10030    2    1    2    0    0  0.00000000000E+00  0.00000000000E+00  0.14566524637E+03  0.16508651697E+04  0.16444261748E+04 0.  0.
        4    1    3    3  502    0 -0.35327121663E+03 -0.51518649554E+02  0.81639332202E+03  0.89104118473E+03  0.12699999809E+01 0.  1.
       -4    1    3    3    0  502  0.35327121663E+03  0.51518649554E+02 -0.67072807565E+03  0.75982398495E+03  0.12699999809E+01 0. -1.
</event>
<event>
 5   0  0.1608627E-04  0.1826821E+04  0.7818609E-02  0.8692165E-01
        2   -1    0    0  501    0  0.00000000000E+00  0.00000000000E+00  0.72800612258E+03  0.72800612259E+03  0.25500000920E-02 0. -1.
       -2   -1    0    0    0  501  0.00000000000E+00  0.00000000000E+00 -0.11460326336E+04  0.11460326336E+04  0.25500000920E-02 0.  1.
    10030    2    1    2    0    0  0.00000000000E+00  0.00000000000E+00 -0.41802651097E+03  0.18740387561E+04  0.18268210355E+04 0.  0.
        2    1    3    3  502    0  0.86369206432E+03 -0.16041250211E+02 -0.51349712002E+03  0.10049381055E+04  0.25500000920E-02 0.  1.
       -2    1    3    3    0  502 -0.86369206432E+03  0.16041250211E+02  0.95470609053E+02  0.86910065061E+03  0.25500000920E-02 0. -1.
</event>
<event>
 5   0  0.1608627E-04  0.1799636E+04  0.7818609E-02  0.8706493E-01
       -2   -1    0    0    0  501  0.00000000000E+00  0.00000000000E+00  0.63669616735E+03  0.63669616736E+03  0.25500000920E-02 0.  1.
        2   -1    0    0  501    0  0.00000000000E+00  0.00000000000E+00 -0.12716772375E+04  0.12716772375E+04  0.25500000920E-02 0. -1.
    10030    2    1    2    0    0  0.00000000000E+00  0.00000000000E+00 -0.63498107011E+03  0.19083734048E+04  0.17996355445E+04 0.  0.
        2    1    3    3  502    0  0.69967095656E+03 -0.21481552527E+03 -0.87255530765E+03  0.11388757273E+04  0.25500000920E-02 0. -1.
       -2    1    3    3    0  502 -0.69967095656E+03  0.21481552527E+03  0.23757423754E+03  0.76949767751E+03  0.25500000920E-02 0.  1.
</event>
<event>
 5   0  0.1603564E-04  0.1796483E+04  0.7818609E-02  0.8708172E-01
        2   -1    0    0  501    0  0.00000000000E+00  0.00000000000E+00  0.11502604814E+04  0.11502604814E+04  0.25500000920E-02 0.  1.
       -2   -1    0    0    0  501  0.00000000000E+00  0.00000000000E+00 -0.70143891381E+03  0.70143891381E+03  0.25500000920E-02 0. -1.
    10030    2    1    2    0    0  0.00000000000E+00  0.00000000000E+00  0.44882156757E+03  0.18516993952E+04  0.17964826330E+04 0.  0.
        5    1    3    3  502    0 -0.20671647130E+03 -0.27576008826E+03  0.10793875636E+04  0.11330820484E+04  0.46999998093E+01 0.  1.
       -5    1    3    3    0  502  0.20671647130E+03  0.27576008826E+03 -0.63056599606E+03  0.71861734684E+03  0.46999998093E+01 0. -1.
</event>
<event>
 5   0  0.1573981E-04  0.1795988E+04  0.7818609E-02  0.8708436E-01
        2   -1    0    0  501    0  0.00000000000E+00  0.00000000000E+00  0.10048489415E+04  0.10048489415E+04  0.25500000920E-02 0.  1.
       -2   -1    0    0    0  501  0.00000000000E+00  0.00000000000E+00 -0.80250211813E+03  0.80250211813E+03  0.25500000920E-02 0. -1.
    10030    2    1    2    0    0  0.00000000000E+00  0.00000000000E+00  0.20234682335E+03  0.18073510596E+04  0.17959882003E+04 0.  0.
        1    1    3    3  502    0  0.73768002577E+02 -0.27824537668E+03 -0.75481457488E+03  0.80784110462E+03  0.50400001928E-02 0. -1.
       -1    1    3    3    0  502 -0.73768002577E+02  0.27824537668E+03  0.95716139823E+03  0.99950995499E+03  0.50400001928E-02 0.  1.
</event>
<event>
 5   0  0.8132598E-05  0.1825562E+04  0.7818609E-02  0.8692823E-01
        1   -1    0    0  501    0  0.00000000000E+00  0.00000000000E+00  0.98001622936E+03  0.98001622937E+03  0.50400001928E-02 0. -1.
       -1   -1    0    0    0  501  0.00000000000E+00  0.00000000000E+00 -0.85015809279E+03  0.85015809281E+03  0.50400001928E-02 0.  1.
    10030    2    1    2    0    0  0.00000000000E+00  0.00000000000E+00  0.12985813656E+03  0.18301743222E+04  0.18255615339E+04 0.  0.
        3    1    3    3  502    0  0.76827525594E+02 -0.72882103127E+03 -0.48058383916E+03  0.87638085384E+03  0.10100000352E+00 0.  1.
       -3    1    3    3    0  502 -0.76827525594E+02  0.72882103127E+03  0.61044197573E+03  0.95379346834E+03  0.10100000352E+00 0. -1.
</event>
<event>
 5   0  0.1549012E-04  0.1805877E+04  0.7818609E-02  0.8703180E-01
        2   -1    0    0  501    0  0.00000000000E+00  0.00000000000E+00  0.15381175185E+04  0.15381175185E+04  0.25500000920E-02 0.  1.
       -2   -1    0    0    0  501  0.00000000000E+00  0.00000000000E+00 -0.53006242887E+03  0.53006242887E+03  0.25500000920E-02 0. -1.
    10030    2    1    2    0    0  0.00000000000E+00  0.00000000000E+00  0.10080550896E+04  0.20681799474E+04  0.18058774130E+04 0.  0.
        4    1    3    3  502    0 -0.64280904403E+03 -0.41498927309E+03  0.10531231161E+04  0.13017255757E+04  0.12699999809E+01 0.  1.
       -4    1    3    3    0  502  0.64280904403E+03  0.41498927309E+03 -0.45068026517E+02  0.76645437163E+03  0.12699999809E+01 0. -1.
</event>
<event>
 5   0  0.1603564E-04  0.1805998E+04  0.7818609E-02  0.8703116E-01
       -2   -1    0    0    0  501  0.00000000000E+00  0.00000000000E+00  0.61182372844E+03  0.61182372845E+03  0.25500000920E-02 0.  1.
        2   -1    0    0  501    0  0.00000000000E+00  0.00000000000E+00 -0.13327486993E+04  0.13327486993E+04  0.25500000920E-02 0. -1.
    10030    2    1    2    0    0  0.00000000000E+00  0.00000000000E+00 -0.72092497085E+03  0.19445724277E+04  0.18059980933E+04 0.  0.
        5    1    3    3  502    0 -0.62303636168E+03 -0.59605473170E+03 -0.71686701977E+02  0.86522634287E+03  0.46999998093E+01 0.  1.
       -5    1    3    3    0  502  0.62303636168E+03  0.59605473170E+03 -0.64923826887E+03  0.10793460849E+04  0.46999998093E+01 0. -1.
</event>
<event>
 5   0  0.1573981E-04  0.1708770E+04  0.7818609E-02  0.8756378E-01
       -2   -1    0    0    0  501  0.00000000000E+00  0.00000000000E+00  0.79779434024E+03  0.79779434024E+03  0.25500000920E-02 0. -1.
        2   -1    0    0  501    0  0.00000000000E+00  0.00000000000E+00 -0.91499005410E+03  0.91499005410E+03  0.25500000920E-02 0.  1.
    10030    2    1    2    0    0  0.00000000000E+00  0.00000000000E+00 -0.11719571386E+03  0.17127843943E+04  0.17087701853E+04 0.  0.
        1    1    3    3  502    0 -0.31842515679E+03 -0.77388844914E+02 -0.84949536106E+03  0.91050863932E+03  0.50400001928E-02 0.  1.
       -1    1    3    3    0  502  0.31842515679E+03  0.77388844914E+02  0.73229964720E+03  0.80227575503E+03  0.50400001928E-02 0. -1.
</event>
<event>
 5   0  0.8206783E-05  0.1798777E+04  0.7818609E-02  0.8706950E-01
       -1   -1    0    0    0  501  0.00000000000E+00  0.00000000000E+00  0.89610185207E+03  0.89610185208E+03  0.50400001928E-02 0.  1.
        1   -1    0    0  501    0  0.00000000000E+00  0.00000000000E+00 -0.90268747833E+03  0.90268747834E+03  0.50400001928E-02 0. -1.
    10030    2    1    2    0    0  0.00000000000E+00  0.00000000000E+00 -0.65856262552E+01  0.17987893304E+04  0.17987772749E+04 0.  0.
        1    1    3    3  502    0  0.37965540167E+03 -0.36479241352E+03 -0.73246722232E+03  0.90206427752E+03  0.50400001928E-02 0. -1.
       -1    1    3    3    0  502 -0.37965540167E+03  0.36479241352E+03  0.72588159606E+03  0.89672505291E+03  0.50400001928E-02 0.  1.
</event>
<event>
 5   0  0.5820500E-05  0.1800565E+04  0.7818609E-02  0.8705999E-01
        4   -1    0    0  501    0  0.00000000000E+00  0.00000000000E+00  0.75317955025E+03  0.75318062097E+03  0.12699999809E+01 0. -1.
       -4   -1    0    0    0  501  0.00000000000E+00  0.00000000000E+00 -0.10761137670E+04  0.10761145164E+04  0.12699999809E+01 0.  1.
    10030    2    1    2    0    0  0.00000000000E+00  0.00000000000E+00 -0.32293421678E+03  0.18292951374E+04  0.18005649645E+04 0.  0.
        5    1    3    3  502    0  0.72925105771E+03  0.52777808390E+03 -0.14989917068E+03  0.91260542535E+03  0.46999998093E+01 0. -1.
       -5    1    3    3    0  502 -0.72925105771E+03 -0.52777808390E+03 -0.17303504609E+03  0.91668971205E+03  0.46999998093E+01 0.  1.
</event>
<event>
 5   0  0.8492114E-05  0.1792578E+04  0.7818609E-02  0.8710256E-01
        1   -1    0    0  501    0  0.00000000000E+00  0.00000000000E+00  0.99969388557E+03  0.99969388559E+03  0.50400001928E-02 0.  1.
       -1   -1    0    0    0  501  0.00000000000E+00  0.00000000000E+00 -0.80358024495E+03  0.80358024496E+03  0.50400001928E-02 0. -1.
    10030    2    1    2    0    0  0.00000000000E+00  0.00000000000E+00  0.19611364063E+03  0.18032741305E+04  0.17925783190E+04 0.  0.
        2    1    3    3  502    0 -0.47570910819E+02  0.14006708792E+03 -0.79121575482E+03  0.80492493523E+03  0.25500000920E-02 0. -1.
       -2    1    3    3    0  502  0.47570910819E+02 -0.14006708792E+03  0.98732939545E+03  0.99834919532E+03  0.25500000920E-02 0.  1.
</event>
<event>
 5   0  0.1608627E-04  0.1802622E+04  0.7818609E-02  0.8704906E-01
        2   -1    0    0  501    0  0.00000000000E+00  0.00000000000E+00  0.15849482286E+04  0.15849482286E+04  0.25500000920E-02 0. -1.
       -2   -1    0    0    0  501  0.00000000000E+00  0.00000000000E+00 -0.51254792142E+03  0.51254792143E+03  0.25500000920E-02 0.  1.
    10030    2    1    2    0    0  0.00000000000E+00  0.00000000000E+00  0.10724003072E+04  0.20974961501E+04  0.18026224454E+04 0.  0.
        2    1    3    3  502    0 -0.48157020103E+03  0.67125997188E+03  0.11688782814E+03  0.83436357348E+03  0.25500000920E-02 0.  1.
       -2    1    3    3    0  502  0.48157020103E+03 -0.67125997188E+03  0.95551247907E+03  0.12631325766E+04  0.25500000920E-02 0. -1.
</event>
<event>
 5   0  0.1549012E-04  0.1676273E+04  0.7818609E-02  0.8775013E-01
       -2   -1    0    0    0  501  0.00000000000E+00  0.00000000000E+00  0.30517972815E+03  0.30517972816E+03  0.25500000920E-02 0.  1.
        2   -1    0    0  501    0  0.00000000000E+00  0.00000000000E+00 -0.23018342223E+04  0.23018342223E+04  0.25500000920E-02 0. -1.
    10030    2    1    2    0    0  0.00000000000E+00  0.00000000000E+00 -0.19966544941E+04  0.26070139504E+04  0.16762734171E+04 0.  0.
        4    1    3    3  502    0  0.21492404689E+03  0.49475420989E+03 -0.19959861308E+04  0.20675919137E+04  0.12699999809E+01 0. -1.
       -4    1    3    3    0  502 -0.21492404689E+03 -0.49475420989E+03 -0.66836329591E+00  0.53942203676E+03  0.12699999809E+01 0.  1.
</event>
<event>
 5   0  0.1603564E-04  0.1837618E+04  0.7818609E-02  0.8686547E-01
        2   -1    0    0  501    0  0.00000000000E+00  0.00000000000E+00  0.76378949422E+03  0.76378949423E+03  0.25500000920E-02 0. -1.
       -2   -1    0    0    0  501  0.00000000000E+00  0.00000000000E+00 -0.11052909056E+04  0.11052909057E+04  0.25500000920E-02 0.  1.
    10030    2    1    2    0    0  0.00000000000E+00  0.00000000000E+00 -0.34150141142E+03  0.18690803999E+04  0.18376175683E+04 0.  0.
        5    1    3    3  502    0 -0.20284775730E+03 -0.12194769353E+03  0.73223844953E+03  0.76955421483E+03  0.46999998093E+01 0. -1.
       -5    1    3    3    0  502  0.20284775730E+03  0.12194769353E+03 -0.10737398610E+04  0.10995261850E+04  0.46999998093E+01 0.  1.
</event>
<event>
 5   0  0.8206783E-05  0.1792942E+04  0.7818609E-02  0.8710062E-01
        1   -1    0    0  501    0  0.00000000000E+00  0.00000000000E+00  0.19112105872E+04  0.19112105872E+04  0.50400001928E-02 0. -1.
       -1   -1    0    0    0  501  0.00000000000E+00  0.00000000000E+00 -0.42049801002E+03  0.42049801005E+03  0.50400001928E-02 0.  1.
    10030    2    1    2    0    0  0.00000000000E+00  0.00000000000E+00  0.14907125772E+04  0.23317085973E+04  0.17929419943E+04 0.  0.
        1    1    3    3  502    0  0.36585934822E+03 -0.78839581053E+03  0.10309891870E+04  0.13484656912E+04  0.50400001928E-02 0. -1.
       -1    1    3    3    0  502 -0.36585934822E+03  0.78839581053E+03  0.45972339023E+03  0.98324290605E+03  0.50400001928E-02 0.  1.
</event>
<event>
 5   0  0.8254914E-05  0.1856065E+04  0.7818609E-02  0.8677040E-01
        1   -1    0    0  501    0  0.00000000000E+00  0.00000000000E+00  0.11881601973E+04  0.11881601973E+04  0.50400001928E-02 0. -1.
       -1   -1    0    0    0  501  0.00000000000E+00  0.00000000000E+00 -0.72485532210E+03  0.72485532212E+03  0.50400001928E-02 0.  1.
    10030    2    1    2    0    0  0.00000000000E+00  0.00000000000E+00  0.46330487523E+03  0.19130155195E+04  0.18560649154E+04 0.  0.
        4    1    3    3  502    0  0.64178092822E+03  0.57431020263E+03 -0.12468343250E+03  0.87020833133E+03  0.12699999809E+01 0. -1.
       -4    1    3    3    0  502 -0.64178092822E+03 -0.57431020263E+03  0.58798830774E+03  0.10428071881E+04  0.12699999809E+01 0.  1.
</event>
<event>
 5   0  0.1608627E-04  0.1799652E+04  0.7818609E-02  0.8706485E-01
       -2   -1    0    0    0  501  0.00000000000E+00  0.00000000000E+00  0.84217964076E+03  0.84217964076E+03  0.25500000920E-02 0. -1.
        2   -1    0    0  501    0  0.00000000000E+00  0.00000000000E+00 -0.96141794636E+03  0.96141794637E+03  0.25500000920E-02 0.  1.
    10030    2    1    2    0    0  0.00000000000E+00  0.00000000000E+00 -0.11923830561E+03  0.18035975871E+04  0.17996517671E+04 0.  0.
        2    1    3    3  502    0  0.37673645000E+03 -0.78885993272E+03  0.15405307981E+03  0.88767262975E+03  0.25500000920E-02 0. -1.
       -2    1    3    3    0  502 -0.37673645000E+03  0.78885993272E+03 -0.27329138542E+03  0.91592495738E+03  0.25500000920E-02 0.  1.
</event>
<event>
 5   0  0.1573981E-04  0.1798117E+04  0.7818609E-02  0.8707301E-01
        2   -1    0    0  501    0  0.00000000000E+00  0.00000000000E+00  0.48898328125E+03  0.48898328126E+03  0.25500000920E-02 0. -1.
       -2   -1    0    0    0  501  0.00000000000E+00  0.00000000000E+00 -0.16530352532E+04  0.16530352532E+04  0.25500000920E-02 0.  1.
    10030    2    1    2    0    0  0.00000000000E+00  0.00000000000E+00 -0.11640519720E+04  0.21420185345E+04  0.17981174624E+04 0.  0.
        1    1    3    3  502    0  0.22323929581E+03  0.14896613009E+02 -0.16193419532E+04  0.16347250698E+04  0.50400001928E-02 0.  1.
       -1    1    3    3    0  502 -0.22323929581E+03 -0.14896613009E+02  0.45528998126E+03  0.50729346470E+03  0.50400001928E-02 0. -1.
</event>
<event>
 5   0  0.1573981E-04  0.1811907E+04  0.7818609E-02  0.8699993E-01
       -2   -1    0    0    0  501  0.00000000000E+00  0.00000000000E+00  0.48873797715E+03  0.48873797716E+03  0.25500000920E-02 0.  1.
        2   -1    0    0  501    0  0.00000000000E+00  0.00000000000E+00 -0.16793294672E+04  0.16793294672E+04  0.25500000920E-02 0. -1.
    10030    2    1    2    0    0  0.00000000000E+00  0.00000000000E+00 -0.11905914901E+04  0.21680674444E+04  0.18119073782E+04 0.  0.
        1    1    3    3  502    0 -0.59095000733E+01 -0.21406753366E+03  0.45801728077E+03  0.50560820866E+03  0.50400001928E-02 0.  1.
       -1    1    3    3    0  502  0.59095000733E+01  0.21406753366E+03 -0.16486087708E+04  0.16624592357E+04  0.50400001928E-02 0. -1.
</event>
<event>
 5   0  0.8492114E-05  0.1802068E+04  0.7818609E-02  0.8705201E-01
        1   -1    0    0  501    0  0.00000000000E+00  0.00000000000E+00  0.61883447261E+03  0.61883447263E+03  0.50400001928E-02 0.  1.
       -1   -1    0    0    0  501  0.00000000000E+00  0.00000000000E+00 -0.13119210680E+04  0.13119210680E+04  0.50400001928E-02 0. -1.
    10030    2    1    2    0    0  0.00000000000E+00  0.00000000000E+00 -0.69308659539E+03  0.19307555406E+04  0.18020676816E+04 0.  0.
        2    1    3    3  502    0  0.75712693425E+03 -0.46108776166E+03 -0.17372076914E+03  0.90333937374E+03  0.25500000920E-02 0. -1.
       -2    1    3    3    0  502 -0.75712693425E+03  0.46108776166E+03 -0.51936582625E+03  0.10274161669E+04  0.25500000920E-02 0.  1.
</event>
<event>
 5   0  0.1603564E-04  0.1806871E+04  0.7818609E-02  0.8702654E-01
       -2   -1    0    0    0  501  0.00000000000E+00  0.00000000000E+00  0.60042249147E+03  0.60042249148E+03  0.25500000920E-02 0.  1.
        2   -1    0    0  501    0  0.00000000000E+00  0.00000000000E+00 -0.13593690586E+04  0.13593690586E+04  0.25500000920E-02 0. -1.
    10030    2    1    2    0    0  0.00000000000E+00  0.00000000000E+00 -0.75894656715E+03  0.19597915501E+04  0.18068710602E+04 0.  0.
        5    1    3    3  502    0 -0.53893781880E+02 -0.77176181031E+03  0.12654345529E+03  0.78393632882E+03  0.46999998093E+01 0.  1.
       -5    1    3    3    0  502  0.53893781880E+02  0.77176181031E+03 -0.88549002245E+03  0.11758552213E+04  0.46999998093E+01 0. -1.
</event>
<event>
 5   0  0.8254914E-05  0.1800576E+04  0.7818609E-02  0.8705993E-01
        1   -1    0    0  501    0  0.00000000000E+00  0.00000000000E+00  0.87679204689E+03  0.87679204690E+03  0.50400001928E-02 0. -1.
       -1   -1    0    0    0  501  0.00000000000E+00  0.00000000000E+00 -0.92441359153E+03  0.92441359154E+03  0.50400001928E-02 0.  1.
    10030    2    1    2    0    0  0.00000000000E+00  0.00000000000E+00 -0.47621544638E+02  0.18012056384E+04  0.18005760024E+04 0.  0.
        4    1    3    3  502    0  0.28339384578E+03 -0.70666070074E+03 -0.50443216432E+03  0.91330982645E+03  0.12699999809E+01 0.  1.
       -4    1    3    3    0  502 -0.28339384578E+03  0.70666070074E+03  0.45681061968E+03  0.88789581199E+03  0.12699999809E+01 0. -1.
</event>
<event>
 5   0  0.8206783E-05  0.1808173E+04  0.7818609E-02  0.8701965E-01
       -1   -1    0    0    0  501  0.00000000000E+00  0.00000000000E+00  0.28774757132E+03  0.28774757137E+03  0.50400001928E-02 0.  1.
        1   -1    0    0  501    0  0.00000000000E+00  0.00000000000E+00 -0.28405892256E+04  0.28405892256E+04  0.50400001928E-02 0. -1.
    10030    2    1    2    0    0  0.00000000000E+00  0.00000000000E+00 -0.25528416543E+04  0.31283367970E+04  0.18081732781E+04 0.  0.
        1    1    3    3  502    0 -0.19928601531E+03 -0.68931377657E+03 -0.22279874457E+04  0.23406829039E+04  0.50400001928E-02 0. -1.
       -1    1    3    3    0  502  0.19928601531E+03  0.68931377657E+03 -0.32485420866E+03  0.78765389314E+03  0.50400001928E-02 0.  1.
</event>
<event>
 5   0  0.8206783E-05  0.1807661E+04  0.7818609E-02  0.8702236E-01
       -1   -1    0    0    0  501  0.00000000000E+00  0.00000000000E+00  0.41733777785E+03  0.41733777788E+03  0.50400001928E-02 0.  1.
        1   -1    0    0  501    0  0.00000000000E+00  0.00000000000E+00 -0.19574295536E+04  0.19574295536E+04  0.50400001928E-02 0. -1.
    10030    2    1    2    0    0  0.00000000000E+00  0.00000000000E+00 -0.15400917758E+04  0.23747673315E+04  0.18076606985E+04 0.  0.
        1    1    3    3  502    0  0.53519861521E+03  0.65215060160E+03 -0.11960883091E+04  0.14636820720E+04  0.50400001928E-02 0. -1.
       -1    1    3    3    0  502 -0.53519861521E+03 -0.65215060160E+03 -0.34400346671E+03  0.91108525947E+03  0.50400001928E-02 0.  1.
</event>
<event>
 5   0  0.8492114E-05  0.1805182E+04  0.7818609E-02  0.8703549E-01
        1   -1    0    0  501    0  0.00000000000E+00  0.00000000000E+00  0.64199224699E+03  0.64199224701E+03  0.50400001928E-02 0.  1.
       -1   -1    0    0    0  501  0.00000000000E+00  0.00000000000E+00 -0.12689724429E+04  0.12689724429E+04  0.50400001928E-02 0. -1.
    10030    2    1    2    0    0  0.00000000000E+00  0.00000000000E+00 -0.62698019591E+03  0.19109646899E+04  0.18051819521E+04 0.  0.
        2    1    3    3  502    0  0.57900729484E+03 -0.13642589185E+03  0.40511807984E+03  0.71970975404E+03  0.25500000920E-02 0.  1.
       -2    1    3    3    0  502 -0.57900729484E+03  0.13642589185E+03 -0.10320982757E+04  0.11912549359E+04  0.25500000920E-02 0. -1.
</event>
<event>
 5   0  0.8132598E-05  0.1803311E+04  0.7818609E-02  0.8704541E-01
        1   -1    0    0  501    0  0.00000000000E+00  0.00000000000E+00  0.12007994987E+04  0.12007994987E+04  0.50400001928E-02 0.  1.
       -1   -1    0    0    0  501  0.00000000000E+00  0.00000000000E+00 -0.67703425037E+03  0.67703425038E+03  0.50400001928E-02 0. -1.
    10030    2    1    2    0    0  0.00000000000E+00  0.00000000000E+00  0.52376524830E+03  0.18778337491E+04  0.18033107203E+04 0.  0.
        3    1    3    3  502    0 -0.72791207476E+02 -0.78020064963E+03 -0.20261255410E+03  0.80935991429E+03  0.10100000352E+00 0. -1.
       -3    1    3    3    0  502  0.72791207476E+02  0.78020064963E+03  0.72637780240E+03  0.10684738348E+04  0.10100000352E+00 0.  1.
</event>
<event>
 5   0  0.1573981E-04  0.1796623E+04  0.7818609E-02  0.8708097E-01
       -2   -1    0    0    0  501  0.00000000000E+00  0.00000000000E+00  0.55071378556E+03  0.55071378556E+03  0.25500000920E-02 0.  1.
        2   -1    0    0  501    0  0.00000000000E+00  0.00000000000E+00 -0.14653045220E+04  0.14653045220E+04  0.25500000920E-02 0. -1.
    10030    2    1    2    0    0  0.00000000000E+00  0.00000000000E+00 -0.91459073648E+03  0.20160183076E+04  0.17966228322E+04 0.  0.
        1    1    3    3  502    0 -0.32851168325E+03  0.21757785788E+03 -0.13631583944E+04  0.14189647136E+04  0.50400001928E-02 0. -1.
       -1    1    3    3    0  502  0.32851168325E+03 -0.21757785788E+03  0.44856765794E+03  0.59705359395E+03  0.50400001928E-02 0.  1.
</event>
<event>
 5   0  0.8132598E-05  0.1801453E+04  0.7818609E-02  0.8705527E-01
        1   -1    0    0  501    0  0.00000000000E+00  0.00000000000E+00  0.11210128537E+04  0.11210128537E+04  0.50400001928E-02 0. -1.
       -1   -1    0    0    0  501  0.00000000000E+00  0.00000000000E+00 -0.72372783883E+03  0.72372783884E+03  0.50400001928E-02 0.  1.
    10030    2    1    2    0    0  0.00000000000E+00  0.00000000000E+00  0.39728501488E+03  0.18447406926E+04  0.18014529802E+04 0.  0.
        3    1    3    3  502    0 -0.45227113599E+03 -0.77870674233E+03  0.21846822108E+03  0.92664002980E+03  0.10100000352E+00 0. -1.
       -3    1    3    3    0  502  0.45227113599E+03  0.77870674233E+03  0.17881679379E+03  0.91810066275E+03  0.10100000352E+00 0.  1.
</event>
<event>
 5   0  0.1549012E-04  0.1775533E+04  0.7818609E-02  0.8719420E-01
       -2   -1    0    0    0  501  0.00000000000E+00  0.00000000000E+00  0.49005819672E+03  0.49005819673E+03  0.25500000920E-02 0.  1.
        2   -1    0    0  501    0  0.00000000000E+00  0.00000000000E+00 -0.16082356015E+04  0.16082356015E+04  0.25500000920E-02 0. -1.
    10030    2    1    2    0    0  0.00000000000E+00  0.00000000000E+00 -0.11181774048E+04  0.20982937982E+04  0.17755326398E+04 0.  0.
        4    1    3    3  502    0 -0.11990688083E+03 -0.50580695583E+03  0.29139188105E+03  0.59592715820E+03  0.12699999809E+01 0.  1.
       -4    1    3    3    0  502  0.11990688083E+03  0.50580695583E+03 -0.14095692858E+04  0.15023666400E+04  0.12699999809E+01 0. -1.
</event>
<event>
 5   0  0.1628397E-04  0.1783615E+04  0.7818609E-02  0.8715061E-01
       -2   -1    0    0    0  501  0.00000000000E+00  0.00000000000E+00  0.11706634777E+04  0.11706634777E+04  0.25500000920E-02 0.  1.
        2   -1    0    0  501    0  0.00000000000E+00  0.00000000000E+00 -0.67937625605E+03  0.67937625606E+03  0.25500000920E-02 0. -1.
    10030    2    1    2    0    0  0.00000000000E+00  0.00000000000E+00  0.49128722166E+03  0.18500397338E+04  0.17836153964E+04 0.  0.
        3    1    3    3  502    0 -0.10133690964E+03  0.51128191883E+03  0.99622419285E+03  0.11243402609E+04  0.10100000352E+00 0.  1.
       -3    1    3    3    0  502  0.10133690964E+03 -0.51128191883E+03 -0.50493697119E+03  0.72569947282E+03  0.10100000352E+00 0. -1.
</event>
<event>
 5   0  0.1608627E-04  0.1811759E+04  0.7818609E-02  0.8700071E-01
        2   -1    0    0  501    0  0.00000000000E+00  0.00000000000E+00  0.10138725359E+04  0.10138725359E+04  0.25500000920E-02 0.  1.
       -2   -1    0    0    0  501  0.00000000000E+00  0.00000000000E+00 -0.80938940408E+03  0.80938940409E+03  0.25500000920E-02 0. -1.
    10030    2    1    2    0    0  0.00000000000E+00  0.00000000000E+00  0.20448313184E+03  0.18232619400E+04  0.18117590211E+04 0.  0.
        2    1    3    3  502    0  0.89593170484E+03 -0.19505311754E+02 -0.31051674230E+02  0.89668181838E+03  0.25500000920E-02 0.  1.
       -2    1    3    3    0  502 -0.89593170484E+03  0.19505311754E+02  0.23553480607E+03  0.92658012163E+03  0.25500000920E-02 0. -1.
</event>
<event>
 5   0  0.8430513E-05  0.1809938E+04  0.7818609E-02  0.8701033E-01
        1   -1    0    0  501    0  0.00000000000E+00  0.00000000000E+00  0.75115597809E+03  0.75115597811E+03  0.50400001928E-02 0.  1.
       -1   -1    0    0    0  501  0.00000000000E+00  0.00000000000E+00 -0.10902775673E+04  0.10902775674E+04  0.50400001928E-02 0. -1.
    10030    2    1    2    0    0  0.00000000000E+00  0.00000000000E+00 -0.33912158926E+03  0.18414335455E+04  0.18099375818E+04 0.  0.
        5    1    3    3  502    0 -0.30335965924E+03  0.63038807888E+03  0.41447581327E+03  0.81315958005E+03  0.46999998093E+01 0.  1.
       -5    1    3    3    0  502  0.30335965924E+03 -0.63038807888E+03 -0.75359740252E+03  0.10282739654E+04  0.46999998093E+01 0. -1.
</event>
<event>
 5   0  0.8206783E-05  0.1801599E+04  0.7818609E-02  0.8705450E-01
       -1   -1    0    0    0  501  0.00000000000E+00  0.00000000000E+00  0.73533735660E+03  0.73533735662E+03  0.50400001928E-02 0. -1.
        1   -1    0    0  501    0  0.00000000000E+00  0.00000000000E+00 -0.11034932863E+04  0.11034932863E+04  0.50400001928E-02 0.  1.
    10030    2    1    2    0    0  0.00000000000E+00  0.00000000000E+00 -0.36815592973E+03  0.18388306430E+04  0.18015991077E+04 0.  0.
        1    1    3    3  502    0  0.46306756750E+03  0.71317844047E+03  0.11936167029E+03  0.85866307035E+03  0.50400001928E-02 0. -1.
       -1    1    3    3    0  502 -0.46306756750E+03 -0.71317844047E+03 -0.48751760002E+03  0.98016757261E+03  0.50400001928E-02 0.  1.
</event>
<event>
 5   0  0.1549012E-04  0.1784810E+04  0.7818609E-02  0.8714419E-01
       -2   -1    0    0    0  501  0.00000000000E+00  0.00000000000E+00  0.47531501199E+03  0.47531501200E+03  0.25500000920E-02 0. -1.
        2   -1    0    0  501    0  0.00000000000E+00  0.00000000000E+00 -0.16754918863E+04  0.16754918863E+04  0.25500000920E-02 0.  1.
    10030    2    1    2    0    0  0.00000000000E+00  0.00000000000E+00 -0.12001768743E+04  0.21508068983E+04  0.17848097333E+04 0.  0.
        4    1    3    3  502    0  0.49056079478E+02  0.87374677277E+03 -0.81069840842E+03  0.11929264203E+04  0.12699999809E+01 0. -1.
       -4    1    3    3    0  502 -0.49056079478E+02 -0.87374677277E+03 -0.38947846585E+03  0.95788047799E+03  0.12699999809E+01 0.  1.
</event>
<event>
 5   0  0.1549012E-04  0.1815572E+04  0.7818609E-02  0.8698062E-01
        2   -1    0    0  501    0  0.00000000000E+00  0.00000000000E+00  0.11400889006E+04  0.11400889006E+04  0.25500000920E-02 0. -1.
       -2   -1    0    0    0  501  0.00000000000E+00  0.00000000000E+00 -0.72281662827E+03  0.72281662828E+03  0.25500000920E-02 0.  1.
    10030    2    1    2    0    0  0.00000000000E+00  0.00000000000E+00  0.41727227228E+03  0.18629055288E+04  0.18155717722E+04 0.  0.
        4    1    3    3  502    0  0.25419322304E+03 -0.86691475235E+03  0.11733184640E+03  0.91100151348E+03  0.12699999809E+01 0.  1.
       -4    1    3    3    0  502 -0.25419322304E+03  0.86691475235E+03  0.29994042588E+03  0.95190401536E+03  0.12699999809E+01 0. -1.
</event>
<event>
 5   0  0.1603564E-04  0.1777259E+04  0.7818609E-02  0.8718487E-01
       -2   -1    0    0    0  501  0.00000000000E+00  0.00000000000E+00  0.25323161216E+03  0.25323161217E+03  0.25500000920E-02 0.  1.
        2   -1    0    0  501    0  0.00000000000E+00  0.00000000000E+00 -0.31183388239E+04  0.31183388239E+04  0.25500000920E-02 0. -1.
    10030    2    1    2    0    0  0.00000000000E+00  0.00000000000E+00 -0.28651072117E+04  0.33715704361E+04  0.17772585267E+04 0.  0.
        5    1    3    3  502    0  0.34205009561E+03  0.95440975993E+02  0.11274628104E+03  0.37261382381E+03  0.46999998093E+01 0.  1.
       -5    1    3    3    0  502 -0.34205009561E+03 -0.95440975993E+02 -0.29778534928E+04  0.29989566123E+04  0.46999998093E+01 0. -1.
</event>
<event>
 5   0  0.1628397E-04  0.1831352E+04  0.7818609E-02  0.8689802E-01
       -2   -1    0    0    0  501  0.00000000000E+00  0.00000000000E+00  0.14965265344E+04  0.14965265344E+04  0.25500000920E-02 0.  1.
        2   -1    0    0  501    0  0.00000000000E+00  0.00000000000E+00 -0.56027243338E+03  0.56027243338E+03  0.25500000920E-02 0. -1.
    10030    2    1    2    0    0  0.00000000000E+00  0.00000000000E+00  0.93625410100E+03  0.20567989678E+04  0.18313520285E+04 0.  0.
        3    1    3    3  502    0 -0.80135689084E+03 -0.40660360832E+03  0.27050159905E+03  0.93844045420E+03  0.10100000352E+00 0.  1.
       -3    1    3    3    0  502  0.80135689084E+03  0.40660360832E+03  0.66575250195E+03  0.11183585136E+04  0.10100000352E+00 0. -1.
</event>
<event>
 5   0  0.1549012E-04  0.1801130E+04  0.7818609E-02  0.8705699E-01
       -2   -1    0    0    0  501  0.00000000000E+00  0.00000000000E+00  0.50331302229E+03  0.50331302230E+03  0.25500000920E-02 0. -1.
        2   -1    0    0  501    0  0.00000000000E+00  0.00000000000E+00 -0.16113571926E+04  0.16113571926E+04  0.25500000920E-02 0.  1.
    10030    2    1    2    0    0  0.00000000000E+00  0.00000000000E+00 -0.11080441703E+04  0.21146702149E+04  0.18011297106E+04 0.  0.
        4    1    3    3  502    0  0.59491351590E+03 -0.34698062125E+03  0.12724561549E+03  0.70036469249E+03  0.12699999809E+01 0. -1.
       -4    1    3    3    0  502 -0.59491351590E+03  0.34698062125E+03 -0.12352897858E+04  0.14143055224E+04  0.12699999809E+01 0.  1.
</event>
<event>
 5   0  0.8430513E-05  0.1812524E+04  0.7818609E-02  0.8699667E-01
       -1   -1    0    0    0  501  0.00000000000E+00  0.00000000000E+00  0.56087798167E+03  0.56087798169E+03  0.50400001928E-02 0.  1.
        1   -1    0    0  501    0  0.00000000000E+00  0.00000000000E+00 -0.14643309359E+04  0.14643309359E+04  0.50400001928E-02 0. -1.
    10030    2    1    2    0    0  0.00000000000E+00  0.00000000000E+00 -0.90345295420E+03  0.20252089176E+04  0.18125241845E+04 0.  0.
        5    1    3    3  502    0 -0.86467575159E+03 -0.26047790655E+03 -0.36680854446E+03  0.97472226479E+03  0.46999998093E+01 0.  1.
       -5    1    3    3    0  502  0.86467575159E+03  0.26047790655E+03 -0.53664440974E+03  0.10504866528E+04  0.46999998093E+01 0. -1.
</event>
<event>
 5   0  0.8492114E-05  0.1807922E+04  0.7818609E-02  0.8702098E-01
       -1   -1    0    0    0  501  0.00000000000E+00  0.00000000000E+00  0.14182972951E+04  0.14182972951E+04  0.50400001928E-02 0.  1.
        1   -1    0    0  501    0  0.00000000000E+00  0.00000000000E+00 -0.57614551536E+03  0.57614551538E+03  0.50400001928E-02 0. -1.
    10030    2    1    2    0    0  0.00000000000E+00  0.00000000000E+00  0.84215177977E+03  0.19944428105E+04  0.18079221511E+04 0.  0.
        2    1    3    3  502    0 -0.39226871647E+03  0.76795230581E+03  0.72019558751E+03  0.11235244431E+04  0.25500000920E-02 0.  1.
       -2    1    3    3    0  502  0.39226871647E+03 -0.76795230581E+03  0.12195619226E+03  0.87091836745E+03  0.25500000920E-02 0. -1.
</event>
<event>
 5   0  0.1549012E-04  0.1782924E+04  0.7818609E-02  0.8715433E-01
        2   -1    0    0  501    0  0.00000000000E+00  0.00000000000E+00  0.63552437152E+03  0.63552437153E+03  0.25500000920E-02 0. -1.
       -2   -1    0    0    0  501  0.00000000000E+00  0.00000000000E+00 -0.12504702882E+04  0.12504702882E+04  0.25500000920E-02 0.  1.
    10030    2    1    2    0    0  0.00000000000E+00  0.00000000000E+00 -0.61494591670E+03  0.18859946598E+04  0.17829238279E+04 0.  0.
        4    1    3    3  502    0 -0.89578761677E+02 -0.46615387402E+03 -0.11056667954E+04  0.12032557767E+04  0.12699999809E+01 0.  1.
       -4    1    3    3    0  502  0.89578761677E+02  0.46615387402E+03  0.49072087867E+03  0.68273888308E+03  0.12699999809E+01 0. -1.
</event>
<event>
 5   0  0.1628397E-04  0.1806933E+04  0.7818609E-02  0.8702621E-01
       -2   -1    0    0    0  501  0.00000000000E+00  0.00000000000E+00  0.93523279933E+03  0.93523279933E+03  0.25500000920E-02 0.  1.
        2   -1    0    0  501    0  0.00000000000E+00  0.00000000000E+00 -0.87277925242E+03  0.87277925243E+03  0.25500000920E-02 0. -1.
    10030    2    1    2    0    0  0.00000000000E+00  0.00000000000E+00  0.62453546902E+02  0.18080120518E+04  0.18069330740E+04 0.  0.
        3    1    3    3  502    0 -0.76405122609E+03  0.11495716522E+02  0.51353674665E+03  0.92066629565E+03  0.10100000352E+00 0.  1.
       -3    1    3    3    0  502  0.76405122609E+03 -0.11495716522E+02 -0.45108319975E+03  0.88734575611E+03  0.10100000352E+00 0. -1.
</event>
<event>
 5   0  0.5820500E-05  0.1798896E+04  0.7818609E-02  0.8706887E-01
       -3   -1    0    0    0  501  0.00000000000E+00  0.00000000000E+00  0.12481049029E+04  0.12481049070E+04  0.10100000352E+00 0. -1.
        3   -1    0    0  501    0  0.00000000000E+00  0.00000000000E+00 -0.64818838186E+03  0.64818838973E+03  0.10100000352E+00 0.  1.
    10030    2    1    2    0    0  0.00000000000E+00  0.00000000000E+00  0.59991652101E+03  0.18962932967E+04  0.17988964492E+04 0.  0.
        3    1    3    3  502    0 -0.13715231930E+03  0.44014233457E+02  0.12358677232E+04  0.12442335194E+04  0.10100000352E+00 0. -1.
       -3    1    3    3    0  502  0.13715231930E+03 -0.44014233457E+02 -0.63595120216E+03  0.65205977729E+03  0.10100000352E+00 0.  1.
</event>
<event>
 5   0  0.1608627E-04  0.1843802E+04  0.7818609E-02  0.8683347E-01
        2   -1    0    0  501    0  0.00000000000E+00  0.00000000000E+00  0.10311019957E+04  0.10311019957E+04  0.25500000920E-02 0. -1.
       -2   -1    0    0    0  501  0.00000000000E+00  0.00000000000E+00 -0.82426495419E+03  0.82426495419E+03  0.25500000920E-02 0.  1.
    10030    2    1    2    0    0  0.00000000000E+00  0.00000000000E+00  0.20683704147E+03  0.18553669499E+04  0.18438017672E+04 0.  0.
        2    1    3    3  502    0  0.75929251178E+03 -0.20218800088E+03 -0.38178445558E+03  0.87359285520E+03  0.25500000920E-02 0.  1.
       -2    1    3    3    0  502 -0.75929251178E+03  0.20218800088E+03  0.58862149705E+03  0.98177409465E+03  0.25500000920E-02 0. -1.
</event>
<event>
 5   0  0.1549012E-04  0.1743927E+04  0.7818609E-02  0.8736700E-01
       -2   -1    0    0    0  501  0.00000000000E+00  0.00000000000E+00  0.77309745346E+03  0.77309745346E+03  0.25500000920E-02 0.  1.
        2   -1    0    0  501    0  0.00000000000E+00  0.00000000000E+00 -0.98347324265E+03  0.98347324265E+03  0.25500000920E-02 0. -1.
    10030    2    1    2    0    0  0.00000000000E+00  0.00000000000E+00 -0.21037578919E+03  0.17565706961E+04  0.17439273602E+04 0.  0.
        4    1    3    3  502    0  0.23858107044E+02  0.82715417618E+03 -0.38207319614E+03  0.91144653192E+03  0.12699999809E+01 0. -1.
       -4    1    3    3    0  502 -0.23858107044E+02 -0.82715417618E+03  0.17169740696E+03  0.84512416419E+03  0.12699999809E+01 0.  1.
</event>
<event>
 5   0  0.8206783E-05  0.1808956E+04  0.7818609E-02  0.8701551E-01
       -1   -1    0    0    0  501  0.00000000000E+00  0.00000000000E+00  0.60341078445E+03  0.60341078447E+03  0.50400001928E-02 0.  1.
        1   -1    0    0  501    0  0.00000000000E+00  0.00000000000E+00 -0.13557605084E+04  0.13557605085E+04  0.50400001928E-02 0. -1.
    10030    2    1    2    0    0  0.00000000000E+00  0.00000000000E+00 -0.75234972400E+03  0.19591712929E+04  0.18089560658E+04 0.  0.
        1    1    3    3  502    0  0.47664035647E+03 -0.68512123059E+03 -0.75369365208E+03  0.11245582471E+04  0.50400001928E-02 0. -1.
       -1    1    3    3    0  502 -0.47664035647E+03  0.68512123059E+03  0.13439280748E+01  0.83461304578E+03  0.50400001928E-02 0.  1.
</event>
<event>
 5   0  0.1608627E-04  0.1808650E+04  0.7818609E-02  0.8701713E-01
       -2   -1    0    0    0  501  0.00000000000E+00  0.00000000000E+00  0.35589218633E+03  0.35589218634E+03  0.25500000920E-02 0.  1.
        2   -1    0    0  501    0  0.00000000000E+00  0.00000000000E+00 -0.22978963425E+04  0.22978963425E+04  0.25500000920E-02 0. -1.
    10030    2    1    2    0    0  0.00000000000E+00  0.00000000000E+00 -0.19420041562E+04  0.26537885289E+04  0.18086496104E+04 0.  0.
        2    1    3    3  502    0 -0.25773579108E+03  0.52960290160E+02 -0.22404892630E+04  0.22558866700E+04  0.25500000920E-02 0. -1.
       -2    1    3    3    0  502  0.25773579108E+03 -0.52960290160E+02  0.29848510677E+03  0.39790185888E+03  0.25500000920E-02 0.  1.
</event>
<event>
 5   0  0.8430513E-05  0.1803588E+04  0.7818609E-02  0.8704394E-01
       -1   -1    0    0    0  501  0.00000000000E+00  0.00000000000E+00  0.41889826908E+03  0.41889826911E+03  0.50400001928E-02 0. -1.
        1   -1    0    0  501    0  0.00000000000E+00  0.00000000000E+00 -0.19413603854E+04  0.19413603855E+04  0.50400001928E-02 0.  1.
    10030    2    1    2    0    0  0.00000000000E+00  0.00000000000E+00 -0.15224621164E+04  0.23602586546E+04  0.18035880962E+04 0.  0.
        5    1    3    3  502    0 -0.44239313561E+03 -0.12908688073E+03 -0.17756093833E+04  0.18344442976E+04  0.46999998093E+01 0.  1.
       -5    1    3    3    0  502  0.44239313561E+03  0.12908688073E+03  0.25314726689E+03  0.52581435693E+03  0.46999998093E+01 0. -1.
</event>
<event>
 5   0  0.8132598E-05  0.1841928E+04  0.7818609E-02  0.8684315E-01
       -1   -1    0    0    0  501  0.00000000000E+00  0.00000000000E+00  0.78687038288E+03  0.78687038290E+03  0.50400001928E-02 0. -1.
        1   -1    0    0  501    0  0.00000000000E+00  0.00000000000E+00 -0.10779095075E+04  0.10779095075E+04  0.50400001928E-02 0.  1.
    10030    2    1    2    0    0  0.00000000000E+00  0.00000000000E+00 -0.29103912461E+03  0.18647798904E+04  0.18419284100E+04 0.  0.
        3    1    3    3  502    0 -0.40693342501E+03  0.36894873456E+03 -0.89391797452E+03  0.10491936601E+04  0.10100000352E+00 0.  1.
       -3    1    3    3    0  502  0.40693342501E+03 -0.36894873456E+03  0.60287884991E+03  0.81558623026E+03  0.10100000352E+00 0. -1.
</event>
<event>
 5   0  0.1603564E-04  0.1793819E+04  0.7818609E-02  0.8709593E-01
        2   -1    0    0  501    0  0.00000000000E+00  0.00000000000E+00  0.86972018412E+03  0.86972018412E+03  0.25500000920E-02 0. -1.
       -2   -1    0    0    0  501  0.00000000000E+00  0.00000000000E+00 -0.92494881234E+03  0.92494881235E+03  0.25500000920E-02 0.  1.
    10030    2    1    2    0    0  0.00000000000E+00  0.00000000000E+00 -0.55228628228E+02  0.17946689965E+04  0.17938190002E+04 0.  0.
        5    1    3    3  502    0  0.64712302388E+03 -0.44973800241E+02  0.59206089465E+03  0.87826479134E+03  0.46999998093E+01 0. -1.
       -5    1    3    3    0  502 -0.64712302388E+03  0.44973800241E+02 -0.64728952288E+03  0.91640420512E+03  0.46999998093E+01 0.  1.
</event>
<event>
 5   0  0.8430513E-05  0.1795075E+04  0.7818609E-02  0.8708923E-01
       -1   -1    0    0    0  501  0.00000000000E+00  0.00000000000E+00  0.76910328618E+03  0.76910328620E+03  0.50400001928E-02 0. -1.
        1   -1    0    0  501    0  0.00000000000E+00  0.00000000000E+00 -0.10474196202E+04  0.10474196202E+04  0.50400001928E-02 0.  1.
    10030    2    1    2    0    0  0.00000000000E+00  0.00000000000E+00 -0.27831633398E+03  0.18165229064E+04  0.17950753432E+04 0.  0.
        5    1    3    3  502    0 -0.48243099263E+03  0.70726564803E+03 -0.41179773467E+03  0.95003359088E+03  0.46999998093E+01 0.  1.
       -5    1    3    3    0  502  0.48243099263E+03 -0.70726564803E+03  0.13348140069E+03  0.86648931549E+03  0.46999998093E+01 0. -1.
</event>
<event>
 5   0  0.1628397E-04  0.1775514E+04  0.7818609E-02  0.8719430E-01
       -2   -1    0    0    0  501  0.00000000000E+00  0.00000000000E+00  0.43753668174E+03  0.43753668175E+03  0.25500000920E-02 0.  1.
        2   -1    0    0  501    0  0.00000000000E+00  0.00000000000E+00 -0.18012495998E+04  0.18012495998E+04  0.25500000920E-02 0. -1.
    10030    2    1    2    0    0  0.00000000000E+00  0.00000000000E+00 -0.13637129181E+04  0.22387862816E+04  0.17755143175E+04 0.  0.
        3    1    3    3  502    0 -0.62404225308E+03 -0.19950492192E+02 -0.14776235641E+04  0.16041191237E+04  0.10100000352E+00 0. -1.
       -3    1    3    3    0  502  0.62404225308E+03  0.19950492192E+02  0.11391064600E+03  0.63466715784E+03  0.10100000352E+00 0.  1.
</event>
<event>
 5   0  0.8206783E-05  0.1803259E+04  0.7818609E-02  0.8704568E-01
       -1   -1    0    0    0  501  0.00000000000E+00  0.00000000000E+00  0.46677517223E+03  0.46677517226E+03  0.50400001928E-02 0.  1.
        1   -1    0    0  501    0  0.00000000000E+00  0.00000000000E+00 -0.17416001706E+04  0.17416001706E+04  0.50400001928E-02 0. -1.
    10030    2    1    2    0    0  0.00000000000E+00  0.00000000000E+00 -0.12748249983E+04  0.22083753428E+04  0.18032589604E+04 0.  0.
        1    1    3    3  502    0  0.36760343727E+03 -0.39073043287E+02 -0.16445227409E+04  0.16855604514E+04  0.50400001928E-02 0. -1.
       -1    1    3    3    0  502 -0.36760343727E+03  0.39073043287E+02  0.36969774260E+03  0.52281489144E+03  0.50400001928E-02 0.  1.
</event>
<event>
 5   0  0.8430513E-05  0.1804626E+04  0.7818609E-02  0.8703843E-01
       -1   -1    0    0    0  501  0.00000000000E+00  0.00000000000E+00  0.40268564699E+03  0.40268564702E+03  0.50400001928E-02 0. -1.
        1   -1    0    0  501    0  0.00000000000E+00  0.00000000000E+00 -0.20218472217E+04  0.20218472217E+04  0.50400001928E-02 0.  1.
    10030    2    1    2    0    0  0.00000000000E+00  0.00000000000E+00 -0.16191615747E+04  0.24245328687E+04  0.18046261182E+04 0.  0.
        5    1    3    3  502    0  0.84194906453E+03  0.32354253723E+03 -0.77698119364E+03  0.11904956388E+04  0.46999998093E+01 0. -1.
       -5    1    3    3    0  502 -0.84194906453E+03 -0.32354253723E+03 -0.84218038105E+03  0.12340372299E+04  0.46999998093E+01 0.  1.
</event>
<event>
 5   0  0.1628397E-04  0.1678079E+04  0.7818609E-02  0.8773967E-01
       -2   -1    0    0    0  501  0.00000000000E+00  0.00000000000E+00  0.17760077956E+04  0.17760077956E+04  0.25500000920E-02 0.  1.
        2   -1    0    0  501    0  0.00000000000E+00  0.00000000000E+00 -0.39638729100E+03  0.39638729101E+03  0.25500000920E-02 0. -1.
    10030    2    1    2    0    0  0.00000000000E+00  0.00000000000E+00  0.13796205046E+04  0.21723950866E+04  0.16780785666E+04 0.  0.
        3    1    3    3  502    0  0.21476750136E+03 -0.30018708732E+03 -0.28563953339E+03  0.46671974489E+03  0.10100000352E+00 0. -1.
       -3    1    3    3    0  502 -0.21476750136E+03  0.30018708732E+03  0.16652600380E+04  0.17056753417E+04  0.10100000352E+00 0.  1.
</event>
<event>
 5   0  0.1603564E-04  0.1802429E+04  0.7818609E-02  0.8705009E-01
        2   -1    0    0  501    0  0.00000000000E+00  0.00000000000E+00  0.16865636465E+04  0.16865636465E+04  0.25500000920E-02 0. -1.
       -2   -1    0    0    0  501  0.00000000000E+00  0.00000000000E+00 -0.48156370819E+03  0.48156370820E+03  0.25500000920E-02 0.  1.
    10030    2    1    2    0    0  0.00000000000E+00  0.00000000000E+00  0.12049999383E+04  0.21681273547E+04  0.18024292982E+04 0.  0.
        5    1    3    3  502    0 -0.83222325581E+03 -0.27315534523E+03  0.34745184236E+03  0.94231325094E+03  0.46999998093E+01 0.  1.
       -5    1    3    3    0  502  0.83222325581E+03  0.27315534523E+03  0.85754809598E+03  0.12258141038E+04  0.46999998093E+01 0. -1.
</event>
<event>
 5   0  0.1603564E-04  0.1809496E+04  0.7818609E-02  0.8701266E-01
        2   -1    0    0  501    0  0.00000000000E+00  0.00000000000E+00  0.26395405196E+04  0.26395405196E+04  0.25500000920E-02 0. -1.
       -2   -1    0    0    0  501  0.00000000000E+00  0.00000000000E+00 -0.31011796399E+03  0.31011796401E+03  0.25500000920E-02 0.  1.
    10030    2    1    2    0    0  0.00000000000E+00  0.00000000000E+00  0.23294225556E+04  0.29496584836E+04  0.18094959871E+04 0.  0.
        5    1    3    3  502    0 -0.49485394493E+03 -0.51876260822E+03  0.26512115967E+03  0.76439936539E+03  0.46999998093E+01 0.  1.
       -5    1    3    3    0  502  0.49485394493E+03  0.51876260822E+03  0.20643013959E+04  0.21852591182E+04  0.46999998093E+01 0. -1.
</event>
<event>
 5   0  0.8254914E-05  0.1781751E+04  0.7818609E-02  0.8716065E-01
       -1   -1    0    0    0  501  0.00000000000E+00  0.00000000000E+00  0.74841489347E+03  0.74841489348E+03  0.50400001928E-02 0. -1.
        1   -1    0    0  501    0  0.00000000000E+00  0.00000000000E+00 -0.10604534254E+04  0.10604534254E+04  0.50400001928E-02 0.  1.
    10030    2    1    2    0    0  0.00000000000E+00  0.00000000000E+00 -0.31203853189E+03  0.18088683189E+04  0.17817509785E+04 0.  0.
        4    1    3    3  502    0  0.75910623978E+03  0.38425859166E+03  0.11212281485E+03  0.85817835387E+03  0.12699999809E+01 0. -1.
       -4    1    3    3    0  502 -0.75910623978E+03 -0.38425859166E+03 -0.42416134674E+03  0.95068996498E+03  0.12699999809E+01 0.  1.
</event>
<event>
 5   0  0.5820500E-05  0.1792832E+04  0.7818609E-02  0.8710120E-01
       -3   -1    0    0    0  501  0.00000000000E+00  0.00000000000E+00  0.11395136621E+04  0.11395136666E+04  0.10100000352E+00 0. -1.
        3   -1    0    0  501    0  0.00000000000E+00  0.00000000000E+00 -0.70517981661E+03  0.70517982385E+03  0.10100000352E+00 0.  1.
    10030    2    1    2    0    0  0.00000000000E+00  0.00000000000E+00  0.43433384549E+03  0.18446934904E+04  0.17928324473E+04 0.  0.
        1    1    3    3  502    0 -0.42704428689E+03 -0.48356657062E+03 -0.42321801716E+03  0.77156784618E+03  0.50400001928E-02 0.  1.
       -1    1    3    3    0  502  0.42704428689E+03  0.48356657062E+03  0.85755186264E+03  0.10731256442E+04  0.50400001928E-02 0. -1.
</event>
<event>
 5   0  0.8254914E-05  0.1803302E+04  0.7818609E-02  0.8704546E-01
       -1   -1    0    0    0  501  0.00000000000E+00  0.00000000000E+00  0.10743289043E+04  0.10743289043E+04  0.50400001928E-02 0. -1.
        1   -1    0    0  501    0  0.00000000000E+00  0.00000000000E+00 -0.75672767459E+03  0.75672767461E+03  0.50400001928E-02 0.  1.
    10030    2    1    2    0    0  0.00000000000E+00  0.00000000000E+00  0.31760122967E+03  0.18310565789E+04  0.18033018754E+04 0.  0.
        4    1    3    3  502    0 -0.21335851167E+02 -0.33727418463E+03 -0.68998595570E+03  0.76830418854E+03  0.12699999809E+01 0.  1.
       -4    1    3    3    0  502  0.21335851167E+02  0.33727418463E+03  0.10075871854E+04  0.10627523903E+04  0.12699999809E+01 0. -1.
</event>
<event>
 5   0  0.8132598E-05  0.1783528E+04  0.7818609E-02  0.8715109E-01
        1   -1    0    0  501    0  0.00000000000E+00  0.00000000000E+00  0.74463448167E+03  0.74463448169E+03  0.50400001928E-02 0. -1.
       -1   -1    0    0    0  501  0.00000000000E+00  0.00000000000E+00 -0.10679637331E+04  0.10679637331E+04  0.50400001928E-02 0.  1.
    10030    2    1    2    0    0  0.00000000000E+00  0.00000000000E+00 -0.32332925146E+03  0.18125982148E+04  0.17835275393E+04 0.  0.
        3    1    3    3  502    0 -0.30356998132E+03 -0.64453053567E+03 -0.70675398705E+03  0.10035315408E+04  0.10100000352E+00 0.  1.
       -3    1    3    3    0  502  0.30356998132E+03  0.64453053567E+03  0.38342473559E+03  0.80906667403E+03  0.10100000352E+00 0. -1.
</event>
<event>
 5   0  0.8206783E-05  0.1811783E+04  0.7818609E-02  0.8700059E-01
        1   -1    0    0  501    0  0.00000000000E+00  0.00000000000E+00  0.79730419412E+03  0.79730419413E+03  0.50400001928E-02 0. -1.
       -1   -1    0    0    0  501  0.00000000000E+00  0.00000000000E+00 -0.10292672225E+04  0.10292672225E+04  0.50400001928E-02 0.  1.
    10030    2    1    2    0    0  0.00000000000E+00  0.00000000000E+00 -0.23196302839E+03  0.18265714166E+04  0.18117826287E+04 0.  0.
        1    1    3    3  502    0  0.34036236464E+03 -0.43791822779E+03 -0.83808224039E+03  0.10049879378E+04  0.50400001928E-02 0. -1.
       -1    1    3    3    0  502 -0.34036236464E+03  0.43791822779E+03  0.60611921200E+03  0.82158347882E+03  0.50400001928E-02 0.  1.
</event>
<event>
 5   0  0.1628397E-04  0.1795143E+04  0.7818609E-02  0.8708887E-01
       -2   -1    0    0    0  501  0.00000000000E+00  0.00000000000E+00  0.36358110209E+03  0.36358110210E+03  0.25500000920E-02 0. -1.
        2   -1    0    0  501    0  0.00000000000E+00  0.00000000000E+00 -0.22158323626E+04  0.22158323626E+04  0.25500000920E-02 0.  1.
    10030    2    1    2    0    0  0.00000000000E+00  0.00000000000E+00 -0.18522512605E+04  0.25794134647E+04  0.17951431948E+04 0.  0.
        3    1    3    3  502    0  0.69979703701E+03 -0.51918532721E+03 -0.12355248233E+04  0.15118832283E+04  0.10100000352E+00 0. -1.
       -3    1    3    3    0  502 -0.69979703701E+03  0.51918532721E+03 -0.61672643726E+03  0.10675302364E+04  0.10100000352E+00 0.  1.
</event>
<event>
 5   0  0.1603564E-04  0.1797201E+04  0.7818609E-02  0.8707789E-01
        2   -1    0    0  501    0  0.00000000000E+00  0.00000000000E+00  0.14369983913E+04  0.14369983913E+04  0.25500000920E-02 0. -1.
       -2   -1    0    0    0  501  0.00000000000E+00  0.00000000000E+00 -0.56192325776E+03  0.56192325777E+03  0.25500000920E-02 0.  1.
    10030    2    1    2    0    0  0.00000000000E+00  0.00000000000E+00  0.87507513358E+03  0.19989216491E+04  0.17972009542E+04 0.  0.
        5    1    3    3  502    0  0.87825247285E+02  0.85542557022E+03  0.14751207350E+03  0.87249531923E+03  0.46999998093E+01 0. -1.
       -5    1    3    3    0  502 -0.87825247285E+02 -0.85542557022E+03  0.72756306008E+03  0.11264263299E+04  0.46999998093E+01 0.  1.
</event>
<event>
 5   0  0.1603564E-04  0.1802331E+04  0.7818609E-02  0.8705061E-01
       -2   -1    0    0    0  501  0.00000000000E+00  0.00000000000E+00  0.87571837726E+03  0.87571837726E+03  0.25500000920E-02 0.  1.
        2   -1    0    0  501    0  0.00000000000E+00  0.00000000000E+00 -0.92735189957E+03  0.92735189958E+03  0.25500000920E-02 0. -1.
    10030    2    1    2    0    0  0.00000000000E+00  0.00000000000E+00 -0.51633522315E+02  0.18030702768E+04  0.18023308250E+04 0.  0.
        5    1    3    3  502    0 -0.69351682842E+03 -0.57404368132E+03  0.14015039632E+02  0.90039449726E+03  0.46999998093E+01 0. -1.
       -5    1    3    3    0  502  0.69351682842E+03  0.57404368132E+03 -0.65648561947E+02  0.90267577958E+03  0.46999998093E+01 0.  1.
</event>
<event>
 5   0  0.8206783E-05  0.1728214E+04  0.7818609E-02  0.8745434E-01
        1   -1    0    0  501    0  0.00000000000E+00  0.00000000000E+00  0.75448804444E+03  0.75448804446E+03  0.50400001928E-02 0. -1.
       -1   -1    0    0    0  501  0.00000000000E+00  0.00000000000E+00 -0.98965261920E+03  0.98965261921E+03  0.50400001928E-02 0.  1.
    10030    2    1    2    0    0  0.00000000000E+00  0.00000000000E+00 -0.23516457475E+03  0.17441406637E+04  0.17282141874E+04 0.  0.
        1    1    3    3  502    0 -0.25716995934E+03  0.77114085356E+03 -0.41334696510E+03  0.91194863759E+03  0.50400001928E-02 0.  1.
       -1    1    3    3    0  502  0.25716995934E+03 -0.77114085356E+03  0.17818239034E+03  0.83219202608E+03  0.50400001928E-02 0. -1.
</event>
<event>
 5   0  0.1573981E-04  0.1804132E+04  0.7818609E-02  0.8704105E-01
       -2   -1    0    0    0  501  0.00000000000E+00  0.00000000000E+00  0.10282734900E+04  0.10282734900E+04  0.25500000920E-02 0. -1.
        2   -1    0    0  501    0  0.00000000000E+00  0.00000000000E+00 -0.79134930819E+03  0.79134930820E+03  0.25500000920E-02 0.  1.
    10030    2    1    2    0    0  0.00000000000E+00  0.00000000000E+00  0.23692418179E+03  0.18196227982E+04  0.18041324951E+04 0.  0.
        1    1    3    3  502    0 -0.10974281090E+03 -0.77308223623E+03  0.57403034044E+03  0.96912871193E+03  0.50400001928E-02 0. -1.
       -1    1    3    3    0  502  0.10974281090E+03  0.77308223623E+03 -0.33710615865E+03  0.85049408625E+03  0.50400001928E-02 0.  1.
</event>
<event>
 5   0  0.1573981E-04  0.1805217E+04  0.7818609E-02  0.8703530E-01
        2   -1    0    0  501    0  0.00000000000E+00  0.00000000000E+00  0.20476148934E+04  0.20476148934E+04  0.25500000920E-02 0.  1.
       -2   -1    0    0    0  501  0.00000000000E+00  0.00000000000E+00 -0.39787868749E+03  0.39787868749E+03  0.25500000920E-02 0. -1.
    10030    2    1    2    0    0  0.00000000000E+00  0.00000000000E+00  0.16497362059E+04  0.24454935809E+04  0.18052172460E+04 0.  0.
        1    1    3    3  502    0 -0.47612396186E+03  0.50641429672E+03  0.16049019396E+04  0.17489596058E+04  0.50400001928E-02 0.  1.
       -1    1    3    3    0  502  0.47612396186E+03 -0.50641429672E+03  0.44834266303E+02  0.69653397508E+03  0.50400001928E-02 0. -1.
</event>
<event>
 5   0  0.8132598E-05  0.1783636E+04  0.7818609E-02  0.8715050E-01
        1   -1    0    0  501    0  0.00000000000E+00  0.00000000000E+00  0.13522832598E+04  0.13522832598E+04  0.50400001928E-02 0. -1.
       -1   -1    0    0    0  501  0.00000000000E+00  0.00000000000E+00 -0.58814580613E+03  0.58814580615E+03  0.50400001928E-02 0.  1.
    10030    2    1    2    0    0  0.00000000000E+00  0.00000000000E+00  0.76413745364E+03  0.19404290659E+04  0.17836364293E+04 0.  0.
        3    1    3    3  502    0  0.22751681725E+03 -0.61266676750E+03  0.10422182619E+04  0.12301802249E+04  0.10100000352E+00 0. -1.
       -3    1    3    3    0  502 -0.22751681725E+03  0.61266676750E+03 -0.27808080822E+03  0.71024884106E+03  0.10100000352E+00 0.  1.
</event>
<event>
 5   0  0.1549012E-04  0.1803275E+04  0.7818609E-02  0.8704560E-01
        2   -1    0    0  501    0  0.00000000000E+00  0.00000000000E+00  0.11402155304E+04  0.11402155304E+04  0.25500000920E-02 0.  1.
       -2   -1    0    0    0  501  0.00000000000E+00  0.00000000000E+00 -0.71297901397E+03  0.71297901398E+03  0.25500000920E-02 0. -1.
    10030    2    1    2    0    0  0.00000000000E+00  0.00000000000E+00  0.42723651647E+03  0.18531945444E+04  0.18032745156E+04 0.  0.
        4    1    3    3  502    0  0.69277105636E+02  0.38410081902E+03  0.10489009965E+04  0.11191638263E+04  0.12699999809E+01 0.  1.
       -4    1    3    3    0  502 -0.69277105636E+02 -0.38410081902E+03 -0.62166448007E+03  0.73403071817E+03  0.12699999809E+01 0. -1.
</event>
<event>
 5   0  0.8492114E-05  0.1803881E+04  0.7818609E-02  0.8704238E-01
        1   -1    0    0  501    0  0.00000000000E+00  0.00000000000E+00  0.10726941540E+04  0.10726941540E+04  0.50400001928E-02 0.  1.
       -1   -1    0    0    0  501  0.00000000000E+00  0.00000000000E+00 -0.75836777413E+03  0.75836777414E+03  0.50400001928E-02 0. -1.
    10030    2    1    2    0    0  0.00000000000E+00  0.00000000000E+00  0.31432637984E+03  0.18310619281E+04  0.18038810137E+04 0.  0.
        2    1    3    3  502    0  0.22002608061E+03 -0.26269426751E+03  0.10040468690E+04  0.10609099253E+04  0.25500000920E-02 0.  1.
       -2    1    3    3    0  502 -0.22002608061E+03  0.26269426751E+03 -0.68972048917E+03  0.77015200287E+03  0.25500000920E-02 0. -1.
</event>
<event>
 5   0  0.1608627E-04  0.1790151E+04  0.7818609E-02  0.8711555E-01
       -2   -1    0    0    0  501  0.00000000000E+00  0.00000000000E+00  0.65776778781E+03  0.65776778782E+03  0.25500000920E-02 0.  1.
        2   -1    0    0  501    0  0.00000000000E+00  0.00000000000E+00 -0.12179981481E+04  0.12179981481E+04  0.25500000920E-02 0. -1.
    10030    2    1    2    0    0  0.00000000000E+00  0.00000000000E+00 -0.56023036026E+03  0.18757659359E+04  0.17901507729E+04 0.  0.
        2    1    3    3  502    0 -0.31523950321E+02 -0.54490207114E+03  0.46321202698E+03  0.71587527442E+03  0.25500000920E-02 0.  1.
       -2    1    3    3    0  502  0.31523950321E+02  0.54490207114E+03 -0.10234423872E+04  0.11598906615E+04  0.25500000920E-02 0. -1.
</event>
<event>
 5   0  0.8206783E-05  0.1794912E+04  0.7818609E-02  0.8709010E-01
       -1   -1    0    0    0  501  0.00000000000E+00  0.00000000000E+00  0.99781778381E+03  0.99781778382E+03  0.50400001928E-02 0. -1.
        1   -1    0    0  501    0  0.00000000000E+00  0.00000000000E+00 -0.80718844364E+03  0.80718844365E+03  0.50400001928E-02 0.  1.
    10030    2    1    2    0    0  0.00000000000E+00  0.00000000000E+00  0.19062934018E+03  0.18050062275E+04  0.17949116791E+04 0.  0.
        1    1    3    3  502    0 -0.46700679430E+02  0.83613049178E+03 -0.22919479909E+03  0.86823119542E+03  0.50400001928E-02 0.  1.
       -1    1    3    3    0  502  0.46700679430E+02 -0.83613049178E+03  0.41982413927E+03  0.93677503206E+03  0.50400001928E-02 0. -1.
</event>
<event>
 5   0  0.1608627E-04  0.1802322E+04  0.7818609E-02  0.8705066E-01
        2   -1    0    0  501    0  0.00000000000E+00  0.00000000000E+00  0.28015205124E+04  0.28015205124E+04  0.25500000920E-02 0. -1.
       -2   -1    0    0    0  501  0.00000000000E+00  0.00000000000E+00 -0.28987518467E+03  0.28987518469E+03  0.25500000920E-02 0.  1.
    10030    2    1    2    0    0  0.00000000000E+00  0.00000000000E+00  0.25116453277E+04  0.30913956971E+04  0.18023221420E+04 0.  0.
        2    1    3    3  502    0 -0.52233808653E+03  0.59422360288E+03  0.51578022275E+03  0.94444057783E+03  0.25500000920E-02 0.  1.
       -2    1    3    3    0  502  0.52233808653E+03 -0.59422360288E+03  0.19958651049E+04  0.21469551192E+04  0.25500000920E-02 0. -1.
</event>
<event>
 5   0  0.1603564E-04  0.1793613E+04  0.7818609E-02  0.8709704E-01
        2   -1    0    0  501    0  0.00000000000E+00  0.00000000000E+00  0.76075328687E+03  0.76075328687E+03  0.25500000920E-02 0.  1.
       -2   -1    0    0    0  501  0.00000000000E+00  0.00000000000E+00 -0.10571911908E+04  0.10571911908E+04  0.25500000920E-02 0. -1.
    10030    2    1    2    0    0  0.00000000000E+00  0.00000000000E+00 -0.29643790395E+03  0.18179444777E+04  0.17936127489E+04 0.  0.
        5    1    3    3  502    0  0.48257304709E+03 -0.12648659409E+03 -0.90355600052E+03  0.10321391090E+04  0.46999998093E+01 0. -1.
       -5    1    3    3    0  502 -0.48257304709E+03  0.12648659409E+03  0.60711809657E+03  0.78580536868E+03  0.46999998093E+01 0.  1.
</event>
<event>
 5   0  0.1603564E-04  0.1801121E+04  0.7818609E-02  0.8705704E-01
        2   -1    0    0  501    0  0.00000000000E+00  0.00000000000E+00  0.23318718834E+04  0.23318718834E+04  0.25500000920E-02 0.  1.
       -2   -1    0    0    0  501  0.00000000000E+00  0.00000000000E+00 -0.34779321124E+03  0.34779321125E+03  0.25500000920E-02 0. -1.
    10030    2    1    2    0    0  0.00000000000E+00  0.00000000000E+00  0.19840786722E+04  0.26796650947E+04  0.18011209960E+04 0.  0.
        5    1    3    3  502    0 -0.63244254193E+03  0.60324868284E+03  0.13149059112E+04  0.15788895425E+04  0.46999998093E+01 0.  1.
       -5    1    3    3    0  502  0.63244254193E+03 -0.60324868284E+03  0.66917276099E+03  0.11007755522E+04  0.46999998093E+01 0. -1.
</event>
<event>
 5   0  0.1603564E-04  0.1809543E+04  0.7818609E-02  0.8701241E-01
        2   -1    0    0  501    0  0.00000000000E+00  0.00000000000E+00  0.10676351423E+04  0.10676351423E+04  0.25500000920E-02 0. -1.
       -2   -1    0    0    0  501  0.00000000000E+00  0.00000000000E+00 -0.76675233479E+03  0.76675233480E+03  0.25500000920E-02 0.  1.
    10030    2    1    2    0    0  0.00000000000E+00  0.00000000000E+00  0.30088280750E+03  0.18343874771E+04  0.18095432994E+04 0.  0.
        5    1    3    3  502    0 -0.61672146419E+03  0.29436564146E+03 -0.45065247002E+03  0.81860016736E+03  0.46999998093E+01 0.  1.
       -5    1    3    3    0  502  0.61672146419E+03 -0.29436564146E+03  0.75153527752E+03  0.10157873097E+04  0.46999998093E+01 0. -1.
</event>
<event>
 5   0  0.8132598E-05  0.1809586E+04  0.7818609E-02  0.8701218E-01
       -1   -1    0    0    0  501  0.00000000000E+00  0.00000000000E+00  0.43565568783E+03  0.43565568786E+03  0.50400001928E-02 0. -1.
        1   -1    0    0  501    0  0.00000000000E+00  0.00000000000E+00 -0.18791220548E+04  0.18791220548E+04  0.50400001928E-02 0.  1.
    10030    2    1    2    0    0  0.00000000000E+00  0.00000000000E+00 -0.14434663670E+04  0.23147777427E+04  0.18095858215E+04 0.  0.
        3    1    3    3  502    0 -0.30541283964E+03 -0.82731080823E+03 -0.98052534543E+03  0.13187684176E+04  0.10100000352E+00 0.  1.
       -3    1    3    3    0  502  0.30541283964E+03  0.82731080823E+03 -0.46294102158E+03  0.99600932510E+03  0.10100000352E+00 0. -1.
</event>
<event>
 5   0  0.8132598E-05  0.1800741E+04  0.7818609E-02  0.8705905E-01
       -1   -1    0    0    0  501  0.00000000000E+00  0.00000000000E+00  0.79093224385E+03  0.79093224387E+03  0.50400001928E-02 0.  1.
        1   -1    0    0  501    0  0.00000000000E+00  0.00000000000E+00 -0.10249516331E+04  0.10249516331E+04  0.50400001928E-02 0. -1.
    10030    2    1    2    0    0  0.00000000000E+00  0.00000000000E+00 -0.23401938928E+03  0.18158838770E+04  0.18007412863E+04 0.  0.
        3    1    3    3  502    0 -0.15002141410E+03  0.44892624481E+03  0.65534614874E+03  0.80840570436E+03  0.10100000352E+00 0.  1.
       -3    1    3    3    0  502  0.15002141410E+03 -0.44892624481E+03 -0.88936553801E+03  0.10074781727E+04  0.10100000352E+00 0. -1.
</event>
<event>
 5   0  0.8430513E-05  0.1800114E+04  0.7818609E-02  0.8706239E-01
        1   -1    0    0  501    0  0.00000000000E+00  0.00000000000E+00  0.18143580133E+04  0.18143580133E+04  0.50400001928E-02 0. -1.
       -1   -1    0    0    0  501  0.00000000000E+00  0.00000000000E+00 -0.44649564577E+03  0.44649564580E+03  0.50400001928E-02 0.  1.
    10030    2    1    2    0    0  0.00000000000E+00  0.00000000000E+00  0.13678623676E+04  0.22608536591E+04  0.18001143884E+04 0.  0.
        5    1    3    3  502    0 -0.77030739374E+02  0.80010612861E+03  0.17534538517E+03  0.82272209521E+03  0.46999998093E+01 0.  1.
       -5    1    3    3    0  502  0.77030739374E+02 -0.80010612861E+03  0.11925169824E+04  0.14381315639E+04  0.46999998093E+01 0. -1.
</event>
<event>
 5   0  0.1573981E-04  0.1803682E+04  0.7818609E-02  0.8704344E-01
       -2   -1    0    0    0  501  0.00000000000E+00  0.00000000000E+00  0.66097313477E+03  0.66097313478E+03  0.25500000920E-02 0.  1.
        2   -1    0    0  501    0  0.00000000000E+00  0.00000000000E+00 -0.12304850779E+04  0.12304850779E+04  0.25500000920E-02 0. -1.
    10030    2    1    2    0    0  0.00000000000E+00  0.00000000000E+00 -0.56951194317E+03  0.18914582127E+04  0.18036824324E+04 0.  0.
        1    1    3    3  502    0  0.69441973627E+03 -0.23897420585E+03 -0.83366976142E+03  0.11110052711E+04  0.50400001928E-02 0. -1.
       -1    1    3    3    0  502 -0.69441973627E+03  0.23897420585E+03  0.26415781825E+03  0.78045294167E+03  0.50400001928E-02 0.  1.
</event>
<event>
 5   0  0.8430513E-05  0.1815392E+04  0.7818609E-02  0.8698157E-01
       -1   -1    0    0    0  501  0.00000000000E+00  0.00000000000E+00  0.72439211712E+03  0.72439211714E+03  0.50400001928E-02 0. -1.
        1   -1    0    0  501    0  0.00000000000E+00  0.00000000000E+00 -0.11373835652E+04  0.11373835652E+04  0.50400001928E-02 0.  1.
    10030    2    1    2    0    0  0.00000000000E+00  0.00000000000E+00 -0.41299144806E+03  0.18617756823E+04  0.18153916258E+04 0.  0.
        5    1    3    3  502    0  0.52319354667E+03 -0.72686526177E+03 -0.35800324047E+03  0.96449624480E+03  0.46999998093E+01 0. -1.
       -5    1    3    3    0  502 -0.52319354667E+03  0.72686526177E+03 -0.54988207591E+02  0.89727943753E+03  0.46999998093E+01 0.  1.
</event>
<event>
 5   0  0.1573981E-04  0.1812985E+04  0.7818609E-02  0.8699424E-01
        2   -1    0    0  501    0  0.00000000000E+00  0.00000000000E+00  0.22262412554E+04  0.22262412554E+04  0.25500000920E-02 0.  1.
       -2   -1    0    0    0  501  0.00000000000E+00  0.00000000000E+00 -0.36911037708E+03  0.36911037709E+03  0.25500000920E-02 0. -1.
    10030    2    1    2    0    0  0.00000000000E+00  0.00000000000E+00  0.18571308783E+04  0.25953516325E+04  0.18129851067E+04 0.  0.
        1    1    3    3  502    0  0.87196978361E+00  0.67250726135E+03  0.58430029291E+02  0.67504136558E+03  0.50400001928E-02 0. -1.
       -1    1    3    3    0  502 -0.87196978361E+00 -0.67250726135E+03  0.17987008490E+04  0.19203102669E+04  0.50400001928E-02 0.  1.
</event>
<event>
 5   0  0.1628397E-04  0.1793162E+04  0.7818609E-02  0.8709945E-01
        2   -1    0    0  501    0  0.00000000000E+00  0.00000000000E+00  0.14120694468E+04  0.14120694468E+04  0.25500000920E-02 0.  1.
       -2   -1    0    0    0  501  0.00000000000E+00  0.00000000000E+00 -0.56927590153E+03  0.56927590153E+03  0.25500000920E-02 0. -1.
    10030    2    1    2    0    0  0.00000000000E+00  0.00000000000E+00  0.84279354528E+03  0.19813453483E+04  0.17931615737E+04 0.  0.
        3    1    3    3  502    0  0.22441653411E+03 -0.21890245275E+03 -0.50674146668E+03  0.59587581664E+03  0.10100000352E+00 0. -1.
       -3    1    3    3    0  502 -0.22441653411E+03  0.21890245275E+03  0.13495350120E+04  0.13854695317E+04  0.10100000352E+00 0.  1.
</event>
<event>
 5   0  0.1608627E-04  0.1784030E+04  0.7818609E-02  0.8714839E-01
        2   -1    0    0  501    0  0.00000000000E+00  0.00000000000E+00  0.22161001313E+04  0.22161001313E+04  0.25500000920E-02 0. -1.
       -2   -1    0    0    0  501  0.00000000000E+00  0.00000000000E+00 -0.35904990787E+03  0.35904990788E+03  0.25500000920E-02 0.  1.
    10030    2    1    2    0    0  0.00000000000E+00  0.00000000000E+00  0.18570502234E+04  0.25751500392E+04  0.17840297621E+04 0.  0.
        2    1    3    3  502    0  0.63677697388E+03  0.61801027596E+03  0.10597829240E+04  0.13822306109E+04  0.25500000920E-02 0. -1.
       -2    1    3    3    0  502 -0.63677697388E+03 -0.61801027596E+03  0.79726729944E+03  0.11929194283E+04  0.25500000920E-02 0.  1.
</event>
<event>
 5   0  0.8492114E-05  0.1798768E+04  0.7818609E-02  0.8706955E-01
       -1   -1    0    0    0  501  0.00000000000E+00  0.00000000000E+00  0.63313997946E+03  0.63313997948E+03  0.50400001928E-02 0. -1.
        1   -1    0    0  501    0  0.00000000000E+00  0.00000000000E+00 -0.12775870604E+04  0.12775870604E+04  0.50400001928E-02 0.  1.
    10030    2    1    2    0    0  0.00000000000E+00  0.00000000000E+00 -0.64444708092E+03  0.19107270399E+04  0.17987678507E+04 0.  0.
        2    1    3    3  502    0 -0.24764864372E+03  0.85852630152E+03 -0.43104082171E+03  0.99206524540E+03  0.25500000920E-02 0. -1.
       -2    1    3    3    0  502  0.24764864372E+03 -0.85852630152E+03 -0.21340625920E+03  0.91866179447E+03  0.25500000920E-02 0.  1.
</event>
<event>
 5   0  0.1603564E-04  0.1806537E+04  0.7818609E-02  0.8702831E-01
       -2   -1    0    0    0  501  0.00000000000E+00  0.00000000000E+00  0.72729645136E+03  0.72729645136E+03  0.25500000920E-02 0. -1.
        2   -1    0    0  501    0  0.00000000000E+00  0.00000000000E+00 -0.11218174938E+04  0.11218174938E+04  0.25500000920E-02 0.  1.
    10030    2    1    2    0    0  0.00000000000E+00  0.00000000000E+00 -0.39452104240E+03  0.18491139451E+04  0.18065368884E+04 0.  0.
        5    1    3    3  502    0  0.13234703564E+03  0.63648245511E+03  0.44461242798E+03  0.78760901126E+03  0.46999998093E+01 0. -1.
       -5    1    3    3    0  502 -0.13234703564E+03 -0.63648245511E+03 -0.83913347039E+03  0.10615049339E+04  0.46999998093E+01 0.  1.
</event>
<event>
 5   0  0.1603564E-04  0.1792886E+04  0.7818609E-02  0.8710092E-01
       -2   -1    0    0    0  501  0.00000000000E+00  0.00000000000E+00  0.39731266970E+03  0.39731266971E+03  0.25500000920E-02 0.  1.
        2   -1    0    0  501    0  0.00000000000E+00  0.00000000000E+00 -0.20226139189E+04  0.20226139189E+04  0.25500000920E-02 0. -1.
    10030    2    1    2    0    0  0.00000000000E+00  0.00000000000E+00 -0.16253012492E+04  0.24199265887E+04  0.17928860933E+04 0.  0.
        5    1    3    3  502    0  0.44023617191E+03 -0.74865739536E+03 -0.51298365764E+03  0.10086972319E+04  0.46999998093E+01 0.  1.
       -5    1    3    3    0  502 -0.44023617191E+03  0.74865739536E+03 -0.11123175916E+04  0.14112293567E+04  0.46999998093E+01 0. -1.
</event>
<event>
 5   0  0.1573981E-04  0.1819627E+04  0.7818609E-02  0.8695931E-01
       -2   -1    0    0    0  501  0.00000000000E+00  0.00000000000E+00  0.51132109700E+03  0.51132109700E+03  0.25500000920E-02 0.  1.
        2   -1    0    0  501    0  0.00000000000E+00  0.00000000000E+00 -0.16188662125E+04  0.16188662125E+04  0.25500000920E-02 0. -1.
    10030    2    1    2    0    0  0.00000000000E+00  0.00000000000E+00 -0.11075451155E+04  0.21301873095E+04  0.18196268273E+04 0.  0.
        1    1    3    3  502    0 -0.40801244941E+03 -0.29510355582E+02  0.39758564474E+03  0.57045540131E+03  0.50400001928E-02 0.  1.
       -1    1    3    3    0  502  0.40801244941E+03  0.29510355582E+02 -0.15051307603E+04  0.15597319082E+04  0.50400001928E-02 0. -1.
</event>
<event>
 5   0  0.1549012E-04  0.1794127E+04  0.7818609E-02  0.8709429E-01
       -2   -1    0    0    0  501  0.00000000000E+00  0.00000000000E+00  0.10276733726E+04  0.10276733726E+04  0.25500000920E-02 0. -1.
        2   -1    0    0  501    0  0.00000000000E+00  0.00000000000E+00 -0.78305316800E+03  0.78305316800E+03  0.25500000920E-02 0.  1.
    10030    2    1    2    0    0  0.00000000000E+00  0.00000000000E+00  0.24462020465E+03  0.18107265407E+04  0.17941269633E+04 0.  0.
        4    1    3    3  502    0  0.61557637568E+03  0.54675246819E+03  0.48176365102E+03  0.95392366786E+03  0.12699999809E+01 0. -1.
       -4    1    3    3    0  502 -0.61557637568E+03 -0.54675246819E+03 -0.23714344637E+03  0.85680287279E+03  0.12699999809E+01 0.  1.
</event>
<event>
 5   0  0.8492114E-05  0.1800385E+04  0.7818609E-02  0.8706095E-01
        1   -1    0    0  501    0  0.00000000000E+00  0.00000000000E+00  0.78204384435E+03  0.78204384436E+03  0.50400001928E-02 0. -1.
       -1   -1    0    0    0  501  0.00000000000E+00  0.00000000000E+00 -0.10361906286E+04  0.10361906286E+04  0.50400001928E-02 0.  1.
    10030    2    1    2    0    0  0.00000000000E+00  0.00000000000E+00 -0.25414678421E+03  0.18182344729E+04  0.18003849618E+04 0.  0.
        2    1    3    3  502    0 -0.52370343956E+03  0.39844091787E+03  0.49328534412E+03  0.82240554982E+03  0.25500000920E-02 0. -1.
       -2    1    3    3    0  502  0.52370343956E+03 -0.39844091787E+03 -0.74743212833E+03  0.99582892311E+03  0.25500000920E-02 0.  1.
</event>
<event>
 5   0  0.8492114E-05  0.1777733E+04  0.7818609E-02  0.8718231E-01
        1   -1    0    0  501    0  0.00000000000E+00  0.00000000000E+00  0.12139752609E+04  0.12139752609E+04  0.50400001928E-02 0. -1.
       -1   -1    0    0    0  501  0.00000000000E+00  0.00000000000E+00 -0.65082350184E+03  0.65082350186E+03  0.50400001928E-02 0.  1.
    10030    2    1    2    0    0  0.00000000000E+00  0.00000000000E+00  0.56315175906E+03  0.18647987628E+04  0.17777329726E+04 0.  0.
        2    1    3    3  502    0  0.59686878408E+02 -0.66671988009E+03  0.89503004860E+03  0.11176567943E+04  0.25500000920E-02 0. -1.
       -2    1    3    3    0  502 -0.59686878408E+02  0.66671988009E+03 -0.33187828954E+03  0.74714196846E+03  0.25500000920E-02 0.  1.
</event>
<event>
 5   0  0.1603564E-04  0.1807120E+04  0.7818609E-02  0.8702522E-01
        2   -1    0    0  501    0  0.00000000000E+00  0.00000000000E+00  0.14789627593E+04  0.14789627593E+04  0.25500000920E-02 0. -1.
       -2   -1    0    0    0  501  0.00000000000E+00  0.00000000000E+00 -0.55202231770E+03  0.55202231771E+03  0.25500000920E-02 0.  1.
    10030    2    1    2    0    0  0.00000000000E+00  0.00000000000E+00  0.92694044163E+03  0.20309850770E+04  0.18071197528E+04 0.  0.
        5    1    3    3  502    0  0.10144873968E+03 -0.28465255335E+03 -0.49353122501E+03  0.57871761936E+03  0.46999998093E+01 0.  1.
       -5    1    3    3    0  502 -0.10144873968E+03  0.28465255335E+03  0.14204716666E+04  0.14522674577E+04  0.46999998093E+01 0. -1.
</event>
<event>
 5   0  0.1628397E-04  0.1796434E+04  0.7818609E-02  0.8708198E-01
        2   -1    0    0  501    0  0.00000000000E+00  0.00000000000E+00  0.82973816283E+03  0.82973816283E+03  0.25500000920E-02 0.  1.
       -2   -1    0    0    0  501  0.00000000000E+00  0.00000000000E+00 -0.97234738188E+03  0.97234738188E+03  0.25500000920E-02 0. -1.
    10030    2    1    2    0    0  0.00000000000E+00  0.00000000000E+00 -0.14260921905E+03  0.18020855447E+04  0.17964339457E+04 0.  0.
        3    1    3    3  502    0  0.76018393193E+03 -0.20638317611E+01  0.40864582671E+03  0.86306158046E+03  0.10100000352E+00 0.  1.
       -3    1    3    3    0  502 -0.76018393193E+03  0.20638317611E+01 -0.55125504576E+03  0.93902396426E+03  0.10100000352E+00 0. -1.
</event>
<event>
 5   0  0.8492114E-05  0.1904315E+04  0.7818609E-02  0.8652711E-01
       -1   -1    0    0    0  501  0.00000000000E+00  0.00000000000E+00  0.48663043355E+03  0.48663043357E+03  0.50400001928E-02 0. -1.
        1   -1    0    0  501    0  0.00000000000E+00  0.00000000000E+00 -0.18630237251E+04  0.18630237251E+04  0.50400001928E-02 0.  1.
    10030    2    1    2    0    0  0.00000000000E+00  0.00000000000E+00 -0.13763932916E+04  0.23496541587E+04  0.19043151453E+04 0.  0.
        2    1    3    3  502    0 -0.23082759212E+03 -0.19029869231E+03  0.42713786169E+03  0.52148031840E+03  0.25500000920E-02 0. -1.
       -2    1    3    3    0  502  0.23082759212E+03  0.19029869231E+03 -0.18035311533E+04  0.18281738403E+04  0.25500000920E-02 0.  1.
</event>
<event>
 5   0  0.1549012E-04  0.1795044E+04  0.7818609E-02  0.8708940E-01
       -2   -1    0    0    0  501  0.00000000000E+00  0.00000000000E+00  0.68945071251E+03  0.68945071252E+03  0.25500000920E-02 0.  1.
        2   -1    0    0  501    0  0.00000000000E+00  0.00000000000E+00 -0.11683872343E+04  0.11683872343E+04  0.25500000920E-02 0. -1.
    10030    2    1    2    0    0  0.00000000000E+00  0.00000000000E+00 -0.47893652182E+03  0.18578379468E+04  0.17950436331E+04 0.  0.
        4    1    3    3  502    0 -0.70199092524E+03 -0.25664083062E+03 -0.75372836188E+03  0.10614913243E+04  0.12699999809E+01 0. -1.
       -4    1    3    3    0  502  0.70199092524E+03  0.25664083062E+03  0.27479184006E+03  0.79634662260E+03  0.12699999809E+01 0.  1.
</event>
<event>
 5   0  0.8254914E-05  0.1825004E+04  0.7818609E-02  0.8693114E-01
        1   -1    0    0  501    0  0.00000000000E+00  0.00000000000E+00  0.10177177322E+04  0.10177177322E+04  0.50400001928E-02 0. -1.
       -1   -1    0    0    0  501  0.00000000000E+00  0.00000000000E+00 -0.81816409458E+03  0.81816409460E+03  0.50400001928E-02 0.  1.
    10030    2    1    2    0    0  0.00000000000E+00  0.00000000000E+00  0.19955363760E+03  0.18358818268E+04  0.18250042267E+04 0.  0.
        4    1    3    3  502    0  0.32748721879E+03  0.75548510058E+03 -0.29582643217E+03  0.87494028741E+03  0.12699999809E+01 0.  1.
       -4    1    3    3    0  502 -0.32748721879E+03 -0.75548510058E+03  0.49538006977E+03  0.96094153937E+03  0.12699999809E+01 0. -1.
</event>
<event>
 5   0  0.8132598E-05  0.1801236E+04  0.7818609E-02  0.8705643E-01
        1   -1    0    0  501    0  0.00000000000E+00  0.00000000000E+00  0.95248438602E+03  0.95248438603E+03  0.50400001928E-02 0. -1.
       -1   -1    0    0    0  501  0.00000000000E+00  0.00000000000E+00 -0.85157561406E+03  0.85157561408E+03  0.50400001928E-02 0.  1.
    10030    2    1    2    0    0  0.00000000000E+00  0.00000000000E+00  0.10090877196E+03  0.18040600001E+04  0.18012356602E+04 0.  0.
        3    1    3    3  502    0  0.35347008306E+03 -0.57400418771E+03  0.64862661712E+03  0.93548832476E+03  0.10100000352E+00 0. -1.
       -3    1    3    3    0  502 -0.35347008306E+03  0.57400418771E+03 -0.54771784516E+03  0.86857167536E+03  0.10100000352E+00 0.  1.
</event>
<event>
 5   0  0.1573981E-04  0.1806997E+04  0.7818609E-02  0.8702587E-01
       -2   -1    0    0    0  501  0.00000000000E+00  0.00000000000E+00  0.76863207493E+03  0.76863207493E+03  0.25500000920E-02 0.  1.
        2   -1    0    0  501    0  0.00000000000E+00  0.00000000000E+00 -0.10620290388E+04  0.10620290388E+04  0.25500000920E-02 0. -1.
    10030    2    1    2    0    0  0.00000000000E+00  0.00000000000E+00 -0.29339696384E+03  0.18306611137E+04  0.18069970489E+04 0.  0.
        1    1    3    3  502    0 -0.78482961121E+03  0.29077080549E+03 -0.49145544830E+03  0.97058417340E+03  0.50400001928E-02 0.  1.
       -1    1    3    3    0  502  0.78482961121E+03 -0.29077080549E+03  0.19805848446E+03  0.86007694031E+03  0.50400001928E-02 0. -1.
</event>
<event>
 5   0  0.8492114E-05  0.1807065E+04  0.7818609E-02  0.8702552E-01
       -1   -1    0    0    0  501  0.00000000000E+00  0.00000000000E+00  0.10129442449E+04  0.10129442449E+04  0.50400001928E-02 0. -1.
        1   -1    0    0  501    0  0.00000000000E+00  0.00000000000E+00 -0.80593851351E+03  0.80593851353E+03  0.50400001928E-02 0.  1.
    10030    2    1    2    0    0  0.00000000000E+00  0.00000000000E+00  0.20700573141E+03  0.18188827585E+04  0.18070647792E+04 0.  0.
        2    1    3    3  502    0  0.13876723017E+03 -0.59201845971E+03 -0.56917051077E+03  0.83288490870E+03  0.25500000920E-02 0.  1.
       -2    1    3    3    0  502 -0.13876723017E+03  0.59201845971E+03  0.77617624218E+03  0.98599784976E+03  0.25500000920E-02 0. -1.
</event>
<event>
 5   0  0.1573981E-04  0.1791320E+04  0.7818609E-02  0.8710929E-01
        2   -1    0    0  501    0  0.00000000000E+00  0.00000000000E+00  0.81234149818E+03  0.81234149819E+03  0.25500000920E-02 0.  1.
       -2   -1    0    0    0  501  0.00000000000E+00  0.00000000000E+00 -0.98752455897E+03  0.98752455897E+03  0.25500000920E-02 0. -1.
    10030    2    1    2    0    0  0.00000000000E+00  0.00000000000E+00 -0.17518306078E+03  0.17998660572E+04  0.17913203842E+04 0.  0.
        1    1    3    3  502    0 -0.51955809533E+03 -0.63669511865E+03  0.27031826630E+03  0.86509725098E+03  0.50400001928E-02 0.  1.
       -1    1    3    3    0  502  0.51955809533E+03  0.63669511865E+03 -0.44550132708E+03  0.93476880617E+03  0.50400001928E-02 0. -1.
</event>
<event>
 5   0  0.1628397E-04  0.1827361E+04  0.7818609E-02  0.8691883E-01
       -2   -1    0    0    0  501  0.00000000000E+00  0.00000000000E+00  0.67093020462E+03  0.67093020463E+03  0.25500000920E-02 0. -1.
        2   -1    0    0  501    0  0.00000000000E+00  0.00000000000E+00 -0.12442611863E+04  0.12442611863E+04  0.25500000920E-02 0.  1.
    10030    2    1    2    0    0  0.00000000000E+00  0.00000000000E+00 -0.57333098167E+03  0.19151913909E+04  0.18273613899E+04 0.  0.
        3    1    3    3  502    0  0.35642250744E+03 -0.63270265070E+03  0.29447882305E+03  0.78362455005E+03  0.10100000352E+00 0. -1.
       -3    1    3    3    0  502 -0.35642250744E+03  0.63270265070E+03 -0.86780980472E+03  0.11315668409E+04  0.10100000352E+00 0.  1.
</event>
<event>
 5   0  0.8206783E-05  0.1803155E+04  0.7818609E-02  0.8704623E-01
       -1   -1    0    0    0  501  0.00000000000E+00  0.00000000000E+00  0.54354025529E+03  0.54354025532E+03  0.50400001928E-02 0. -1.
        1   -1    0    0  501    0  0.00000000000E+00  0.00000000000E+00 -0.14954590651E+04  0.14954590651E+04  0.50400001928E-02 0.  1.
    10030    2    1    2    0    0  0.00000000000E+00  0.00000000000E+00 -0.95191880983E+03  0.20389993205E+04  0.18031552369E+04 0.  0.
        1    1    3    3  502    0  0.17176498389E+03  0.72781126904E+03  0.93527916136E+02  0.75363115922E+03  0.50400001928E-02 0. -1.
       -1    1    3    3    0  502 -0.17176498389E+03 -0.72781126904E+03 -0.10454467260E+04  0.12853681612E+04  0.50400001928E-02 0.  1.
</event>
<event>
 5   0  0.8206783E-05  0.1788660E+04  0.7818609E-02  0.8712353E-01
       -1   -1    0    0    0  501  0.00000000000E+00  0.00000000000E+00  0.63893045488E+03  0.63893045490E+03  0.50400001928E-02 0.  1.
        1   -1    0    0  501    0  0.00000000000E+00  0.00000000000E+00 -0.12518205749E+04  0.12518205749E+04  0.50400001928E-02 0. -1.
    10030    2    1    2    0    0  0.00000000000E+00  0.00000000000E+00 -0.61289012005E+03  0.18907510298E+04  0.17886601571E+04 0.  0.
        1    1    3    3  502    0  0.36336373018E+03  0.33634168378E+03 -0.10937134567E+04  0.12005698872E+04  0.50400001928E-02 0. -1.
       -1    1    3    3    0  502 -0.36336373018E+03 -0.33634168378E+03  0.48082333661E+03  0.69018114268E+03  0.50400001928E-02 0.  1.
</event>
<event>
 5   0  0.1573981E-04  0.1806971E+04  0.7818609E-02  0.8702601E-01
       -2   -1    0    0    0  501  0.00000000000E+00  0.00000000000E+00  0.53952685104E+03  0.53952685105E+03  0.25500000920E-02 0. -1.
        2   -1    0    0  501    0  0.00000000000E+00  0.00000000000E+00 -0.15129666362E+04  0.15129666362E+04  0.25500000920E-02 0.  1.
    10030    2    1    2    0    0  0.00000000000E+00  0.00000000000E+00 -0.97343978515E+03  0.20524934872E+04  0.18069710844E+04 0.  0.
        1    1    3    3  502    0 -0.39566699124E+03  0.31427310911E+03  0.36402415738E+03  0.62276282986E+03  0.50400001928E-02 0. -1.
       -1    1    3    3    0  502  0.39566699124E+03 -0.31427310911E+03 -0.13374639425E+04  0.14297306574E+04  0.50400001928E-02 0.  1.
</event>
<event>
 5   0  0.8492114E-05  0.1771541E+04  0.7818609E-02  0.8721582E-01
        1   -1    0    0  501    0  0.00000000000E+00  0.00000000000E+00  0.26066909463E+04  0.26066909463E+04  0.50400001928E-02 0. -1.
       -1   -1    0    0    0  501  0.00000000000E+00  0.00000000000E+00 -0.30099054745E+03  0.30099054749E+03  0.50400001928E-02 0.  1.
    10030    2    1    2    0    0  0.00000000000E+00  0.00000000000E+00  0.23057003989E+04  0.29076814938E+04  0.17715409507E+04 0.  0.
        2    1    3    3  502    0  0.11363879358E+03  0.27491402034E+03 -0.21655123947E+03  0.36794827532E+03  0.25500000920E-02 0.  1.
       -2    1    3    3    0  502 -0.11363879358E+03 -0.27491402034E+03  0.25222516384E+04  0.25397332185E+04  0.25500000920E-02 0. -1.
</event>
<event>
 5   0  0.8206783E-05  0.1788962E+04  0.7818609E-02  0.8712191E-01
       -1   -1    0    0    0  501  0.00000000000E+00  0.00000000000E+00  0.61042113817E+03  0.61042113819E+03  0.50400001928E-02 0.  1.
        1   -1    0    0  501    0  0.00000000000E+00  0.00000000000E+00 -0.13107284083E+04  0.13107284083E+04  0.50400001928E-02 0. -1.
    10030    2    1    2    0    0  0.00000000000E+00  0.00000000000E+00 -0.70030727017E+03  0.19211495465E+04  0.17889620755E+04 0.  0.
        1    1    3    3  502    0 -0.78600193469E+03  0.31923650713E+03 -0.45680864045E+02  0.84958679968E+03  0.50400001928E-02 0.  1.
       -1    1    3    3    0  502  0.78600193469E+03 -0.31923650713E+03 -0.65462640612E+03  0.10715627469E+04  0.50400001928E-02 0. -1.
</event>
<event>
 5   0  0.1628397E-04  0.1806126E+04  0.7818609E-02  0.8703049E-01
       -2   -1    0    0    0  501  0.00000000000E+00  0.00000000000E+00  0.10604822784E+04  0.10604822784E+04  0.25500000920E-02 0. -1.
        2   -1    0    0  501    0  0.00000000000E+00  0.00000000000E+00 -0.76901100757E+03  0.76901100758E+03  0.25500000920E-02 0.  1.
    10030    2    1    2    0    0  0.00000000000E+00  0.00000000000E+00  0.29147127085E+03  0.18294932860E+04  0.18061257381E+04 0.  0.
        3    1    3    3  502    0  0.24687965561E+03 -0.27726904355E+03 -0.68813740025E+03  0.78189563158E+03  0.10100000352E+00 0.  1.
       -3    1    3    3    0  502 -0.24687965561E+03  0.27726904355E+03  0.97960867109E+03  0.10475976544E+04  0.10100000352E+00 0. -1.
</event>
<event>
 5   0  0.8254914E-05  0.1801458E+04  0.7818609E-02  0.8705525E-01
        1   -1    0    0  501    0  0.00000000000E+00  0.00000000000E+00  0.87467548173E+03  0.87467548174E+03  0.50400001928E-02 0.  1.
       -1   -1    0    0    0  501  0.00000000000E+00  0.00000000000E+00 -0.92755825509E+03  0.92755825510E+03  0.50400001928E-02 0. -1.
    10030    2    1    2    0    0  0.00000000000E+00  0.00000000000E+00 -0.52882773364E+02  0.18022337368E+04  0.18014577027E+04 0.  0.
        4    1    3    3  502    0  0.88115225679E+03  0.12129613583E+03 -0.16851946003E+03  0.90528585183E+03  0.12699999809E+01 0.  1.
       -4    1    3    3    0  502 -0.88115225679E+03 -0.12129613583E+03  0.11563668667E+03  0.89694788501E+03  0.12699999809E+01 0. -1.
</event>
<event>
 5   0  0.8206783E-05  0.1792594E+04  0.7818609E-02  0.8710248E-01
        1   -1    0    0  501    0  0.00000000000E+00  0.00000000000E+00  0.86267001053E+03  0.86267001055E+03  0.50400001928E-02 0.  1.
       -1   -1    0    0    0  501  0.00000000000E+00  0.00000000000E+00 -0.93123507814E+03  0.93123507816E+03  0.50400001928E-02 0. -1.
    10030    2    1    2    0    0  0.00000000000E+00  0.00000000000E+00 -0.68565067609E+02  0.17939050887E+04  0.17925942929E+04 0.  0.
        1    1    3    3  502    0  0.51356803240E+03  0.14746869489E+03 -0.75442630009E+03  0.92447724805E+03  0.50400001928E-02 0. -1.
       -1    1    3    3    0  502 -0.51356803240E+03 -0.14746869489E+03  0.68586123248E+03  0.86942784066E+03  0.50400001928E-02 0.  1.
</event>
<event>
 5   0  0.8206783E-05  0.1806292E+04  0.7818609E-02  0.8702961E-01
        1   -1    0    0  501    0  0.00000000000E+00  0.00000000000E+00  0.72333830956E+03  0.72333830958E+03  0.50400001928E-02 0.  1.
       -1   -1    0    0    0  501  0.00000000000E+00  0.00000000000E+00 -0.11276498908E+04  0.11276498908E+04  0.50400001928E-02 0. -1.
    10030    2    1    2    0    0  0.00000000000E+00  0.00000000000E+00 -0.40431158121E+03  0.18509882004E+04  0.18062916329E+04 0.  0.
        1    1    3    3  502    0 -0.48845069424E+03  0.42748112794E+03  0.44135479464E+03  0.78493200357E+03  0.50400001928E-02 0.  1.
       -1    1    3    3    0  502  0.48845069424E+03 -0.42748112794E+03 -0.84566637585E+03  0.10660561968E+04  0.50400001928E-02 0. -1.
</event>
<event>
 5   0  0.1608627E-04  0.1795310E+04  0.7818609E-02  0.8708798E-01
       -2   -1    0    0    0  501  0.00000000000E+00  0.00000000000E+00  0.12753493193E+04  0.12753493193E+04  0.25500000920E-02 0. -1.
        2   -1    0    0  501    0  0.00000000000E+00  0.00000000000E+00 -0.63181450772E+03  0.63181450772E+03  0.25500000920E-02 0.  1.
    10030    2    1    2    0    0  0.00000000000E+00  0.00000000000E+00  0.64353481154E+03  0.19071638270E+04  0.17953096695E+04 0.  0.
        2    1    3    3  502    0  0.55019773706E+03  0.62401366020E+03 -0.36393719849E+02  0.83272750695E+03  0.25500000920E-02 0. -1.
       -2    1    3    3    0  502 -0.55019773706E+03 -0.62401366020E+03  0.67992853139E+03  0.10744363200E+04  0.25500000920E-02 0.  1.
</event>
<event>
 5   0  0.1549012E-04  0.1679906E+04  0.7818609E-02  0.8772908E-01
       -2   -1    0    0    0  501  0.00000000000E+00  0.00000000000E+00  0.64807433993E+03  0.64807433994E+03  0.25500000920E-02 0.  1.
        2   -1    0    0  501    0  0.00000000000E+00  0.00000000000E+00 -0.10886419927E+04  0.10886419927E+04  0.25500000920E-02 0. -1.
    10030    2    1    2    0    0  0.00000000000E+00  0.00000000000E+00 -0.44056765280E+03  0.17367163327E+04  0.16799058794E+04 0.  0.
        4    1    3    3  502    0 -0.40895149337E+03  0.14205014840E+03  0.52384929221E+03  0.67958756790E+03  0.12699999809E+01 0.  1.
       -4    1    3    3    0  502  0.40895149337E+03 -0.14205014840E+03 -0.96441694502E+03  0.10571287648E+04  0.12699999809E+01 0. -1.
</event>
<event>
 5   0  0.1628397E-04  0.1794038E+04  0.7818609E-02  0.8709476E-01
        2   -1    0    0  501    0  0.00000000000E+00  0.00000000000E+00  0.12264587266E+04  0.12264587266E+04  0.25500000920E-02 0. -1.
       -2   -1    0    0    0  501  0.00000000000E+00  0.00000000000E+00 -0.65607030964E+03  0.65607030964E+03  0.25500000920E-02 0.  1.
    10030    2    1    2    0    0  0.00000000000E+00  0.00000000000E+00  0.57038841697E+03  0.18825290363E+04  0.17940380782E+04 0.  0.
        3    1    3    3  502    0  0.44102700940E+03  0.68064950648E+03 -0.11692402289E+03  0.81942651350E+03  0.10100000352E+00 0.  1.
       -3    1    3    3    0  502 -0.44102700940E+03 -0.68064950648E+03  0.68731243987E+03  0.10631025228E+04  0.10100000352E+00 0. -1.
</event>
<event>
 5   0  0.8132598E-05  0.1807195E+04  0.7818609E-02  0.8702482E-01
        1   -1    0    0  501    0  0.00000000000E+00  0.00000000000E+00  0.15757014690E+04  0.15757014690E+04  0.50400001928E-02 0.  1.
       -1   -1    0    0    0  501  0.00000000000E+00  0.00000000000E+00 -0.51817475159E+03  0.51817475161E+03  0.50400001928E-02 0. -1.
    10030    2    1    2    0    0  0.00000000000E+00  0.00000000000E+00  0.10575267174E+04  0.20938762206E+04  0.18071953047E+04 0.  0.
        3    1    3    3  502    0 -0.15130629849E+03  0.18006304353E+03  0.15396150330E+04  0.15574757640E+04  0.10100000352E+00 0.  1.
       -3    1    3    3    0  502  0.15130629849E+03 -0.18006304353E+03 -0.48208831557E+03  0.53640045658E+03  0.10100000352E+00 0. -1.
</event>
<event>
 5   0  0.1628397E-04  0.1809972E+04  0.7818609E-02  0.8701014E-01
       -2   -1    0    0    0  501  0.00000000000E+00  0.00000000000E+00  0.65110399808E+03  0.65110399809E+03  0.25500000920E-02 0. -1.
        2   -1    0    0  501    0  0.00000000000E+00  0.00000000000E+00 -0.12578632471E+04  0.12578632472E+04  0.25500000920E-02 0.  1.
    10030    2    1    2    0    0  0.00000000000E+00  0.00000000000E+00 -0.60675924906E+03  0.19089672452E+04  0.18099721426E+04 0.  0.
        3    1    3    3  502    0  0.87902519061E+03 -0.21506339228E+03 -0.31169972773E+03  0.95712814131E+03  0.10100000352E+00 0.  1.
       -3    1    3    3    0  502 -0.87902519061E+03  0.21506339228E+03 -0.29505952134E+03  0.95183910393E+03  0.10100000352E+00 0. -1.
</event>
<event>
 5   0  0.1608627E-04  0.1783050E+04  0.7818609E-02  0.8715365E-01
       -2   -1    0    0    0  501  0.00000000000E+00  0.00000000000E+00  0.32216258197E+03  0.32216258198E+03  0.25500000920E-02 0.  1.
        2   -1    0    0  501    0  0.00000000000E+00  0.00000000000E+00 -0.24671308381E+04  0.24671308381E+04  0.25500000920E-02 0. -1.
    10030    2    1    2    0    0  0.00000000000E+00  0.00000000000E+00 -0.21449682561E+04  0.27892934201E+04  0.17830504658E+04 0.  0.
        2    1    3    3  502    0 -0.58406773940E+03 -0.61089497167E+03 -0.15162971571E+04  0.17359391865E+04  0.25500000920E-02 0. -1.
       -2    1    3    3    0  502  0.58406773940E+03  0.61089497167E+03 -0.62867109901E+03  0.10533542336E+04  0.25500000920E-02 0.  1.
</event>
<event>
 5   0  0.8132598E-05  0.1799811E+04  0.7818609E-02  0.8706400E-01
       -1   -1    0    0    0  501  0.00000000000E+00  0.00000000000E+00  0.78898137563E+03  0.78898137565E+03  0.50400001928E-02 0. -1.
        1   -1    0    0  501    0  0.00000000000E+00  0.00000000000E+00 -0.10264247304E+04  0.10264247304E+04  0.50400001928E-02 0.  1.
    10030    2    1    2    0    0  0.00000000000E+00  0.00000000000E+00 -0.23744335479E+03  0.18154061061E+04  0.17998110965E+04 0.  0.
        3    1    3    3  502    0  0.29506132655E+03 -0.49674911538E+03  0.57719060492E+03  0.81668223604E+03  0.10100000352E+00 0.  1.
       -3    1    3    3    0  502 -0.29506132655E+03  0.49674911538E+03 -0.81463395971E+03  0.99872387003E+03  0.10100000352E+00 0. -1.
</event>
<event>
 5   0  0.1603564E-04  0.1797817E+04  0.7818609E-02  0.8707461E-01
        2   -1    0    0  501    0  0.00000000000E+00  0.00000000000E+00  0.12963290636E+04  0.12963290636E+04  0.25500000920E-02 0.  1.
       -2   -1    0    0    0  501  0.00000000000E+00  0.00000000000E+00 -0.62332634081E+03  0.62332634082E+03  0.25500000920E-02 0. -1.
    10030    2    1    2    0    0  0.00000000000E+00  0.00000000000E+00  0.67300272279E+03  0.19196554044E+04  0.17978165109E+04 0.  0.
        5    1    3    3  502    0 -0.86395368562E+03 -0.24818548316E+03  0.33500771362E+03  0.95930405145E+03  0.46999998093E+01 0. -1.
       -5    1    3    3    0  502  0.86395368562E+03  0.24818548316E+03  0.33799500917E+03  0.96035135298E+03  0.46999998093E+01 0.  1.
</event>
<event>
 5   0  0.5820500E-05  0.1791844E+04  0.7818609E-02  0.8710649E-01
       -3   -1    0    0    0  501  0.00000000000E+00  0.00000000000E+00  0.76204367897E+03  0.76204368566E+03  0.10100000352E+00 0.  1.
        3   -1    0    0  501    0  0.00000000000E+00  0.00000000000E+00 -0.10533200537E+04  0.10533200585E+04  0.10100000352E+00 0. -1.
    10030    2    1    2    0    0  0.00000000000E+00  0.00000000000E+00 -0.29127637473E+03  0.18153637442E+04  0.17918436308E+04 0.  0.
        1    1    3    3  502    0  0.18895422556E+03  0.28163623046E+03 -0.98577167326E+03  0.10424818739E+04  0.50400001928E-02 0. -1.
       -1    1    3    3    0  502 -0.18895422556E+03 -0.28163623046E+03  0.69449529854E+03  0.77288187026E+03  0.50400001928E-02 0.  1.
</event>
<event>
 5   0  0.1603564E-04  0.1813256E+04  0.7818609E-02  0.8699282E-01
        2   -1    0    0  501    0  0.00000000000E+00  0.00000000000E+00  0.13095960468E+04  0.13095960468E+04  0.25500000920E-02 0.  1.
       -2   -1    0    0    0  501  0.00000000000E+00  0.00000000000E+00 -0.62765487153E+03  0.62765487154E+03  0.25500000920E-02 0. -1.
    10030    2    1    2    0    0  0.00000000000E+00  0.00000000000E+00  0.68194117530E+03  0.19372509184E+04  0.18132560090E+04 0.  0.
        5    1    3    3  502    0 -0.78788670959E+03 -0.13625135786E+03 -0.11559556517E+03  0.80790737362E+03  0.46999998093E+01 0. -1.
       -5    1    3    3    0  502  0.78788670959E+03  0.13625135786E+03  0.79753674047E+03  0.11293435447E+04  0.46999998093E+01 0.  1.
</event>
<event>
 5   0  0.1573981E-04  0.1799732E+04  0.7818609E-02  0.8706442E-01
       -2   -1    0    0    0  501  0.00000000000E+00  0.00000000000E+00  0.87269061092E+03  0.87269061092E+03  0.25500000920E-02 0.  1.
        2   -1    0    0  501    0  0.00000000000E+00  0.00000000000E+00 -0.92788726546E+03  0.92788726547E+03  0.25500000920E-02 0. -1.
    10030    2    1    2    0    0  0.00000000000E+00  0.00000000000E+00 -0.55196654547E+02  0.18005778764E+04  0.17997316517E+04 0.  0.
        1    1    3    3  502    0  0.74608158430E+03  0.50266525634E+03 -0.64125784242E+01  0.89963948977E+03  0.50400001928E-02 0.  1.
       -1    1    3    3    0  502 -0.74608158430E+03 -0.50266525634E+03 -0.48784076122E+02  0.90093838662E+03  0.50400001928E-02 0. -1.
</event>
<event>
 5   0  0.1549012E-04  0.1787206E+04  0.7818609E-02  0.8713133E-01
       -2   -1    0    0    0  501  0.00000000000E+00  0.00000000000E+00  0.84532315641E+03  0.84532315642E+03  0.25500000920E-02 0.  1.
        2   -1    0    0  501    0  0.00000000000E+00  0.00000000000E+00 -0.94464031197E+03  0.94464031197E+03  0.25500000920E-02 0. -1.
    10030    2    1    2    0    0  0.00000000000E+00  0.00000000000E+00 -0.99317155559E+02  0.17899634684E+04  0.17872060096E+04 0.  0.
        4    1    3    3  502    0 -0.20353249442E+02 -0.31390144144E+03 -0.88735586732E+03  0.94146185152E+03  0.12699999809E+01 0. -1.
       -4    1    3    3    0  502  0.20353249442E+02  0.31390144144E+03  0.78803871176E+03  0.84850161687E+03  0.12699999809E+01 0.  1.
</event>
<event>
 5   0  0.8132598E-05  0.1791980E+04  0.7818609E-02  0.8710576E-01
        1   -1    0    0  501    0  0.00000000000E+00  0.00000000000E+00  0.18275097824E+04  0.18275097824E+04  0.50400001928E-02 0. -1.
       -1   -1    0    0    0  501  0.00000000000E+00  0.00000000000E+00 -0.43928530038E+03  0.43928530041E+03  0.50400001928E-02 0.  1.
    10030    2    1    2    0    0  0.00000000000E+00  0.00000000000E+00  0.13882244820E+04  0.22667950828E+04  0.17919801157E+04 0.  0.
        3    1    3    3  502    0 -0.56020131238E+03  0.66703315893E+03  0.42865173952E+03  0.97082494277E+03  0.10100000352E+00 0.  1.
       -3    1    3    3    0  502  0.56020131238E+03 -0.66703315893E+03  0.95957274249E+03  0.12959701400E+04  0.10100000352E+00 0. -1.
</event>
<event>
 5   0  0.8254914E-05  0.1793709E+04  0.7818609E-02  0.8709652E-01
        1   -1    0    0  501    0  0.00000000000E+00  0.00000000000E+00  0.48682612747E+03  0.48682612750E+03  0.50400001928E-02 0. -1.
       -1   -1    0    0    0  501  0.00000000000E+00  0.00000000000E+00 -0.16522276748E+04  0.16522276748E+04  0.50400001928E-02 0.  1.
    10030    2    1    2    0    0  0.00000000000E+00  0.00000000000E+00 -0.11654015474E+04  0.21390538023E+04  0.17937085613E+04 0.  0.
        4    1    3    3  502    0  0.30550695335E+03  0.65386090886E+03 -0.12176354533E+04  0.14154526826E+04  0.12699999809E+01 0.  1.
       -4    1    3    3    0  502 -0.30550695335E+03 -0.65386090886E+03  0.52233905906E+02  0.72360111976E+03  0.12699999809E+01 0. -1.
</event>
<event>
 5   0  0.1573981E-04  0.1799845E+04  0.7818609E-02  0.8706382E-01
        2   -1    0    0  501    0  0.00000000000E+00  0.00000000000E+00  0.14069762144E+04  0.14069762144E+04  0.25500000920E-02 0.  1.
       -2   -1    0    0    0  501  0.00000000000E+00  0.00000000000E+00 -0.57560374541E+03  0.57560374541E+03  0.25500000920E-02 0. -1.
    10030    2    1    2    0    0  0.00000000000E+00  0.00000000000E+00  0.83137246903E+03  0.19825799599E+04  0.17998453031E+04 0.  0.
        1    1    3    3  502    0  0.60507350496E+03 -0.65966013512E+03  0.31356242106E+03  0.94846551450E+03  0.50400001928E-02 0. -1.
       -1    1    3    3    0  502 -0.60507350496E+03  0.65966013512E+03  0.51781004797E+03  0.10341144454E+04  0.50400001928E-02 0.  1.
</event>
<event>
 5   0  0.8206783E-05  0.1766976E+04  0.7818609E-02  0.8724061E-01
       -1   -1    0    0    0  501  0.00000000000E+00  0.00000000000E+00  0.45442639244E+03  0.45442639247E+03  0.50400001928E-02 0. -1.
        1   -1    0    0  501    0  0.00000000000E+00  0.00000000000E+00 -0.17176617908E+04  0.17176617908E+04  0.50400001928E-02 0.  1.
    10030    2    1    2    0    0  0.00000000000E+00  0.00000000000E+00 -0.12632353984E+04  0.21720881833E+04  0.17669757792E+04 0.  0.
        1    1    3    3  502    0 -0.54827633610E+02  0.85270257947E+03 -0.35552958592E+03  0.92547773875E+03  0.50400001928E-02 0. -1.
       -1    1    3    3    0  502  0.54827633610E+02 -0.85270257947E+03 -0.90770581248E+03  0.12466104446E+04  0.50400001928E-02 0.  1.
</event>
<event>
 5   0  0.1549012E-04  0.1877465E+04  0.7818609E-02  0.8666156E-01
        2   -1    0    0  501    0  0.00000000000E+00  0.00000000000E+00  0.12552114094E+04  0.12552114094E+04  0.25500000920E-02 0. -1.
       -2   -1    0    0    0  501  0.00000000000E+00  0.00000000000E+00 -0.70204767529E+03  0.70204767530E+03  0.25500000920E-02 0.  1.
    10030    2    1    2    0    0  0.00000000000E+00  0.00000000000E+00  0.55316373415E+03  0.19572590847E+04  0.18774645158E+04 0.  0.
        4    1    3    3  502    0  0.12924515990E+03 -0.91129610081E+03  0.84207917090E+02  0.92426050490E+03  0.12699999809E+01 0.  1.
       -4    1    3    3    0  502 -0.12924515990E+03  0.91129610081E+03  0.46895581706E+03  0.10329985798E+04  0.12699999809E+01 0. -1.
</event>
<event>
 5   0  0.1603564E-04  0.1807054E+04  0.7818609E-02  0.8702557E-01
       -2   -1    0    0    0  501  0.00000000000E+00  0.00000000000E+00  0.52716403063E+03  0.52716403063E+03  0.25500000920E-02 0. -1.
        2   -1    0    0  501    0  0.00000000000E+00  0.00000000000E+00 -0.15485910188E+04  0.15485910188E+04  0.25500000920E-02 0.  1.
    10030    2    1    2    0    0  0.00000000000E+00  0.00000000000E+00 -0.10214269882E+04  0.20757550494E+04  0.18070544909E+04 0.  0.
        5    1    3    3  502    0 -0.35486211556E+03  0.49918514419E+03  0.25230599479E+03  0.66241477508E+03  0.46999998093E+01 0. -1.
       -5    1    3    3    0  502  0.35486211556E+03 -0.49918514419E+03 -0.12737329830E+04  0.14133402744E+04  0.46999998093E+01 0.  1.
</event>
<event>
 5   0  0.1603564E-04  0.1796256E+04  0.7818609E-02  0.8708293E-01
        2   -1    0    0  501    0  0.00000000000E+00  0.00000000000E+00  0.18973739069E+04  0.18973739069E+04  0.25500000920E-02 0. -1.
       -2   -1    0    0    0  501  0.00000000000E+00  0.00000000000E+00 -0.42513195959E+03  0.42513195960E+03  0.25500000920E-02 0.  1.
    10030    2    1    2    0    0  0.00000000000E+00  0.00000000000E+00  0.14722419473E+04  0.23225058665E+04  0.17962564262E+04 0.  0.
        5    1    3    3  502    0  0.44663069492E+03 -0.75400313452E+03  0.48205154905E+03  0.10001977257E+04  0.46999998093E+01 0.  1.
       -5    1    3    3    0  502 -0.44663069492E+03  0.75400313452E+03  0.99019039828E+03  0.13223081408E+04  0.46999998093E+01 0. -1.
</event>
<event>
 5   0  0.8254914E-05  0.1732167E+04  0.7818609E-02  0.8743228E-01
       -1   -1    0    0    0  501  0.00000000000E+00  0.00000000000E+00  0.48787005976E+03  0.48787005979E+03  0.50400001928E-02 0. -1.
        1   -1    0    0  501    0  0.00000000000E+00  0.00000000000E+00 -0.15375013782E+04  0.15375013782E+04  0.50400001928E-02 0.  1.
    10030    2    1    2    0    0  0.00000000000E+00  0.00000000000E+00 -0.10496313185E+04  0.20253714380E+04  0.17321673006E+04 0.  0.
        4    1    3    3  502    0 -0.61525039636E+03  0.68715706210E+02  0.18338410723E+03  0.64566728443E+03  0.12699999809E+01 0. -1.
       -4    1    3    3    0  502  0.61525039636E+03 -0.68715706210E+02 -0.12330154257E+04  0.13797041536E+04  0.12699999809E+01 0.  1.
</event>
<event>
 5   0  0.8254914E-05  0.1800891E+04  0.7818609E-02  0.8705826E-01
        1   -1    0    0  501    0  0.00000000000E+00  0.00000000000E+00  0.86949232564E+03  0.86949232566E+03  0.50400001928E-02 0. -1.
       -1   -1    0    0    0  501  0.00000000000E+00  0.00000000000E+00 -0.93250048911E+03  0.93250048912E+03  0.50400001928E-02 0.  1.
    10030    2    1    2    0    0  0.00000000000E+00  0.00000000000E+00 -0.63008163469E+02  0.18019928148E+04  0.18008909117E+04 0.  0.
        4    1    3    3  502    0 -0.69634607099E+03  0.46466100859E+03 -0.36335848542E+03  0.91259997004E+03  0.12699999809E+01 0.  1.
       -4    1    3    3    0  502  0.69634607099E+03 -0.46466100859E+03  0.30035032195E+03  0.88939284474E+03  0.12699999809E+01 0. -1.
</event>
<event>
 5   0  0.8206783E-05  0.1776187E+04  0.7818609E-02  0.8719067E-01
        1   -1    0    0  501    0  0.00000000000E+00  0.00000000000E+00  0.14721829372E+04  0.14721829372E+04  0.50400001928E-02 0.  1.
       -1   -1    0    0    0  501  0.00000000000E+00  0.00000000000E+00 -0.53574158768E+03  0.53574158770E+03  0.50400001928E-02 0. -1.
    10030    2    1    2    0    0  0.00000000000E+00  0.00000000000E+00  0.93644134956E+03  0.20079245250E+04  0.17761865039E+04 0.  0.
        1    1    3    3  502    0 -0.77517529827E+03 -0.29966784810E+03  0.11430599132E+03  0.83890608646E+03  0.50400001928E-02 0. -1.
       -1    1    3    3    0  502  0.77517529827E+03  0.29966784810E+03  0.82213535824E+03  0.11690184385E+04  0.50400001928E-02 0.  1.
</event>
<event>
 5   0  0.1603564E-04  0.1762994E+04  0.7818609E-02  0.8726230E-01
        2   -1    0    0  501    0  0.00000000000E+00  0.00000000000E+00  0.16568976400E+04  0.16568976400E+04  0.25500000920E-02 0. -1.
       -2   -1    0    0    0  501  0.00000000000E+00  0.00000000000E+00 -0.46897090606E+03  0.46897090607E+03  0.25500000920E-02 0.  1.
    10030    2    1    2    0    0  0.00000000000E+00  0.00000000000E+00  0.11879267339E+04  0.21258685461E+04  0.17629938031E+04 0.  0.
        5    1    3    3  502    0  0.19965892601E+03 -0.16181730909E+01  0.16292559002E+04  0.16414515478E+04  0.46999998093E+01 0. -1.
       -5    1    3    3    0  502 -0.19965892601E+03  0.16181730909E+01 -0.44132916630E+03  0.48441699830E+03  0.46999998093E+01 0.  1.
</event>
<event>
 5   0  0.1549012E-04  0.1827593E+04  0.7818609E-02  0.8691762E-01
       -2   -1    0    0    0  501  0.00000000000E+00  0.00000000000E+00  0.95305377367E+03  0.95305377367E+03  0.25500000920E-02 0.  1.
        2   -1    0    0  501    0  0.00000000000E+00  0.00000000000E+00 -0.87615644205E+03  0.87615644205E+03  0.25500000920E-02 0. -1.
    10030    2    1    2    0    0  0.00000000000E+00  0.00000000000E+00  0.76897331624E+02  0.18292102157E+04  0.18275931751E+04 0.  0.
        4    1    3    3  502    0  0.45344177133E+03 -0.45883881164E+03  0.68623077985E+03  0.94183692388E+03  0.12699999809E+01 0.  1.
       -4    1    3    3    0  502 -0.45344177133E+03  0.45883881164E+03 -0.60933344823E+03  0.88737329185E+03  0.12699999809E+01 0. -1.
</event>
<event>
 5   0  0.1573981E-04  0.1802855E+04  0.7818609E-02  0.8704783E-01
        2   -1    0    0  501    0  0.00000000000E+00  0.00000000000E+00  0.19312006515E+04  0.19312006515E+04  0.25500000920E-02 0. -1.
       -2   -1    0    0    0  501  0.00000000000E+00  0.00000000000E+00 -0.42075985181E+03  0.42075985181E+03  0.25500000920E-02 0.  1.
    10030    2    1    2    0    0  0.00000000000E+00  0.00000000000E+00  0.15104407997E+04  0.23519605033E+04  0.18028551799E+04 0.  0.
        1    1    3    3  502    0 -0.63811425248E+03  0.30510185027E+03  0.14842606932E+04  0.16441735747E+04  0.50400001928E-02 0. -1.
       -1    1    3    3    0  502  0.63811425248E+03 -0.30510185027E+03  0.26180106420E+02  0.70778692857E+03  0.50400001928E-02 0.  1.
</event>
<event>
 5   0  0.1573981E-04  0.1804352E+04  0.7818609E-02  0.8703988E-01
       -2   -1    0    0    0  501  0.00000000000E+00  0.00000000000E+00  0.58281612579E+03  0.58281612580E+03  0.25500000920E-02 0.  1.
        2   -1    0    0  501    0  0.00000000000E+00  0.00000000000E+00 -0.13965328357E+04  0.13965328358E+04  0.25500000920E-02 0. -1.
    10030    2    1    2    0    0  0.00000000000E+00  0.00000000000E+00 -0.81371670995E+03  0.19793489615E+04  0.18043523568E+04 0.  0.
        1    1    3    3  502    0  0.57992298688E+03  0.64768605199E+03 -0.67130695191E+03  0.10983901476E+04  0.50400001928E-02 0. -1.
       -1    1    3    3    0  502 -0.57992298688E+03 -0.64768605199E+03 -0.14240975805E+03  0.88095881394E+03  0.50400001928E-02 0.  1.
</event>
<event>
 5   0  0.8492114E-05  0.1766786E+04  0.7818609E-02  0.8724164E-01
       -1   -1    0    0    0  501  0.00000000000E+00  0.00000000000E+00  0.16888230651E+04  0.16888230651E+04  0.50400001928E-02 0. -1.
        1   -1    0    0  501    0  0.00000000000E+00  0.00000000000E+00 -0.46208700059E+03  0.46208700062E+03  0.50400001928E-02 0.  1.
    10030    2    1    2    0    0  0.00000000000E+00  0.00000000000E+00  0.12267360645E+04  0.21509100657E+04  0.17667859913E+04 0.  0.
        2    1    3    3  502    0  0.64664011833E+03 -0.49253931072E+03  0.10344679567E+04  0.13156224264E+04  0.25500000920E-02 0. -1.
       -2    1    3    3    0  502 -0.64664011833E+03  0.49253931072E+03  0.19226810781E+03  0.83528763939E+03  0.25500000920E-02 0.  1.
</event>
<event>
 5   0  0.8430513E-05  0.1843078E+04  0.7818609E-02  0.8683721E-01
       -1   -1    0    0    0  501  0.00000000000E+00  0.00000000000E+00  0.11239124528E+04  0.11239124528E+04  0.50400001928E-02 0.  1.
        1   -1    0    0  501    0  0.00000000000E+00  0.00000000000E+00 -0.75560545804E+03  0.75560545806E+03  0.50400001928E-02 0. -1.
    10030    2    1    2    0    0  0.00000000000E+00  0.00000000000E+00  0.36830699476E+03  0.18795179109E+04  0.18430782769E+04 0.  0.
        5    1    3    3  502    0  0.67281983138E+02 -0.88300482486E+03 -0.75813947653E+02  0.88881619620E+03  0.46999998093E+01 0.  1.
       -5    1    3    3    0  502 -0.67281983138E+02  0.88300482486E+03  0.44412094242E+03  0.99070171468E+03  0.46999998093E+01 0. -1.
</event>
<event>
 5   0  0.1603564E-04  0.1800588E+04  0.7818609E-02  0.8705987E-01
       -2   -1    0    0    0  501  0.00000000000E+00  0.00000000000E+00  0.59801816209E+03  0.59801816209E+03  0.25500000920E-02 0.  1.
        2   -1    0    0  501    0  0.00000000000E+00  0.00000000000E+00 -0.13553585383E+04  0.13553585383E+04  0.25500000920E-02 0. -1.
    10030    2    1    2    0    0  0.00000000000E+00  0.00000000000E+00 -0.75734037618E+03  0.19533767004E+04  0.18005877063E+04 0.  0.
        5    1    3    3  502    0  0.43256202546E+03 -0.72379377151E+03 -0.72090646200E+03  0.11093761970E+04  0.46999998093E+01 0. -1.
       -5    1    3    3    0  502 -0.43256202546E+03  0.72379377151E+03 -0.36433914183E+02  0.84400050335E+03  0.46999998093E+01 0.  1.
</event>
<event>
 5   0  0.8254914E-05  0.1825028E+04  0.7818609E-02  0.8693102E-01
        1   -1    0    0  501    0  0.00000000000E+00  0.00000000000E+00  0.59079227519E+03  0.59079227522E+03  0.50400001928E-02 0. -1.
       -1   -1    0    0    0  501  0.00000000000E+00  0.00000000000E+00 -0.14094322893E+04  0.14094322893E+04  0.50400001928E-02 0.  1.
    10030    2    1    2    0    0  0.00000000000E+00  0.00000000000E+00 -0.81864001414E+03  0.20002245646E+04  0.18250279000E+04 0.  0.
        4    1    3    3  502    0 -0.24662381862E+03  0.14702644087E+03  0.53999284410E+03  0.61158316426E+03  0.12699999809E+01 0. -1.
       -4    1    3    3    0  502  0.24662381862E+03 -0.14702644087E+03 -0.13586328582E+04  0.13886414003E+04  0.12699999809E+01 0.  1.
</event>
<event>
 5   0  0.1608627E-04  0.1799909E+04  0.7818609E-02  0.8706348E-01
        2   -1    0    0  501    0  0.00000000000E+00  0.00000000000E+00  0.74190775573E+03  0.74190775574E+03  0.25500000920E-02 0. -1.
       -2   -1    0    0    0  501  0.00000000000E+00  0.00000000000E+00 -0.10916697052E+04  0.10916697052E+04  0.25500000920E-02 0.  1.
    10030    2    1    2    0    0  0.00000000000E+00  0.00000000000E+00 -0.34976194946E+03  0.18335774609E+04  0.17999091321E+04 0.  0.
        2    1    3    3  502    0  0.60904505210E+03 -0.54242940618E+03 -0.56246154302E+03  0.99072121384E+03  0.25500000920E-02 0. -1.
       -2    1    3    3    0  502 -0.60904505210E+03  0.54242940618E+03  0.21269959356E+03  0.84285624710E+03  0.25500000920E-02 0.  1.
</event>
<event>
 5   0  0.8206783E-05  0.1786989E+04  0.7818609E-02  0.8713250E-01
        1   -1    0    0  501    0  0.00000000000E+00  0.00000000000E+00  0.74075287099E+03  0.74075287100E+03  0.50400001928E-02 0. -1.
       -1   -1    0    0    0  501  0.00000000000E+00  0.00000000000E+00 -0.10777306468E+04  0.10777306468E+04  0.50400001928E-02 0.  1.
    10030    2    1    2    0    0  0.00000000000E+00  0.00000000000E+00 -0.33697777577E+03  0.18184835178E+04  0.17869886074E+04 0.  0.
        1    1    3    3  502    0  0.77482610451E+03  0.21270306173E+03 -0.56618873895E+03  0.98293833624E+03  0.50400001928E-02 0.  1.
       -1    1    3    3    0  502 -0.77482610451E+03 -0.21270306173E+03  0.22921096319E+03  0.83554518153E+03  0.50400001928E-02 0. -1.
</event>
<event>
 5   0  0.1628397E-04  0.1798745E+04  0.7818609E-02  0.8706967E-01
       -2   -1    0    0    0  501  0.00000000000E+00  0.00000000000E+00  0.14636189391E+04  0.14636189391E+04  0.25500000920E-02 0. -1.
        2   -1    0    0  501    0  0.00000000000E+00  0.00000000000E+00 -0.55265156347E+03  0.55265156347E+03  0.25500000920E-02 0.  1.
    10030    2    1    2    0    0  0.00000000000E+00  0.00000000000E+00  0.91096737563E+03  0.20162705026E+04  0.17987454462E+04 0.  0.
        3    1    3    3  502    0  0.22462003191E+03 -0.10808653628E+03 -0.51315581457E+03  0.57049606334E+03  0.10100000352E+00 0.  1.
       -3    1    3    3    0  502 -0.22462003191E+03  0.10808653628E+03  0.14241231902E+04  0.14457744392E+04  0.10100000352E+00 0. -1.
</event>
<event>
 5   0  0.1603564E-04  0.1800261E+04  0.7818609E-02  0.8706161E-01
       -2   -1    0    0    0  501  0.00000000000E+00  0.00000000000E+00  0.39236661045E+03  0.39236661046E+03  0.25500000920E-02 0.  1.
        2   -1    0    0  501    0  0.00000000000E+00  0.00000000000E+00 -0.20649939573E+04  0.20649939573E+04  0.25500000920E-02 0. -1.
    10030    2    1    2    0    0  0.00000000000E+00  0.00000000000E+00 -0.16726273468E+04  0.24573605677E+04  0.18002607363E+04 0.  0.
        5    1    3    3  502    0  0.16521562481E+03  0.21002103190E+03 -0.20095868415E+04  0.20272805431E+04  0.46999998093E+01 0. -1.
       -5    1    3    3    0  502 -0.16521562481E+03 -0.21002103190E+03  0.33695949474E+03  0.43008002467E+03  0.46999998093E+01 0.  1.
</event>
<event>
 5   0  0.8206783E-05  0.1801814E+04  0.7818609E-02  0.8705335E-01
       -1   -1    0    0    0  501  0.00000000000E+00  0.00000000000E+00  0.40298510530E+03  0.40298510533E+03  0.50400001928E-02 0.  1.
        1   -1    0    0  501    0  0.00000000000E+00  0.00000000000E+00 -0.20140530693E+04  0.20140530693E+04  0.50400001928E-02 0. -1.
    10030    2    1    2    0    0  0.00000000000E+00  0.00000000000E+00 -0.16110679640E+04  0.24170381746E+04  0.18018139618E+04 0.  0.
        1    1    3    3  502    0  0.62116980480E+03  0.65248676078E+03 -0.79678996341E+03  0.12026907937E+04  0.50400001928E-02 0.  1.
       -1    1    3    3    0  502 -0.62116980480E+03 -0.65248676078E+03 -0.81427800059E+03  0.12143473810E+04  0.50400001928E-02 0. -1.
</event>
<event>
 5   0  0.8254914E-05  0.1775779E+04  0.7818609E-02  0.8719287E-01
       -1   -1    0    0    0  501  0.00000000000E+00  0.00000000000E+00  0.11212940215E+04  0.11212940216E+04  0.50400001928E-02 0. -1.
        1   -1    0    0  501    0  0.00000000000E+00  0.00000000000E+00 -0.70306967820E+03  0.70306967822E+03  0.50400001928E-02 0.  1.
    10030    2    1    2    0    0  0.00000000000E+00  0.00000000000E+00  0.41822434335E+03  0.18243636998E+04  0.17757790706E+04 0.  0.
        4    1    3    3  502    0  0.72087562265E+03  0.31577009027E+03 -0.21319861630E+03  0.81536965613E+03  0.12699999809E+01 0.  1.
       -4    1    3    3    0  502 -0.72087562265E+03 -0.31577009027E+03  0.63142295965E+03  0.10089940436E+04  0.12699999809E+01 0. -1.
</event>
<event>
 5   0  0.5820500E-05  0.1803311E+04  0.7818609E-02  0.8704541E-01
        3   -1    0    0  501    0  0.00000000000E+00  0.00000000000E+00  0.67987907947E+03  0.67987908697E+03  0.10100000352E+00 0. -1.
       -3   -1    0    0    0  501  0.00000000000E+00  0.00000000000E+00 -0.11957757365E+04  0.11957757408E+04  0.10100000352E+00 0.  1.
    10030    2    1    2    0    0  0.00000000000E+00  0.00000000000E+00 -0.51589665701E+03  0.18756548277E+04  0.18033113076E+04 0.  0.
        1    1    3    3  502    0 -0.34228151165E+03  0.30426530433E+03 -0.10657978759E+04  0.11600254829E+04  0.50400001928E-02 0.  1.
       -1    1    3    3    0  502  0.34228151165E+03 -0.30426530433E+03  0.54990121889E+03  0.71562934484E+03  0.50400001928E-02 0. -1.
</event>
<event>
 5   0  0.8430513E-05  0.1795328E+04  0.7818609E-02  0.8708788E-01
        1   -1    0    0  501    0  0.00000000000E+00  0.00000000000E+00  0.64172015374E+03  0.64172015376E+03  0.50400001928E-02 0. -1.
       -1   -1    0    0    0  501  0.00000000000E+00  0.00000000000E+00 -0.12556890635E+04  0.12556890635E+04  0.50400001928E-02 0.  1.
    10030    2    1    2    0    0  0.00000000000E+00  0.00000000000E+00 -0.61396890974E+03  0.18974092172E+04  0.17953283587E+04 0.  0.
        5    1    3    3  502    0  0.81211933008E+03 -0.33837478554E+03 -0.49528219847E+03  0.10096345120E+04  0.46999998093E+01 0.  1.
       -5    1    3    3    0  502 -0.81211933008E+03  0.33837478554E+03 -0.11868671127E+03  0.88777470521E+03  0.46999998093E+01 0. -1.
</event>
<event>
 5   0  0.1603564E-04  0.1786645E+04  0.7818609E-02  0.8713434E-01
        2   -1    0    0  501    0  0.00000000000E+00  0.00000000000E+00  0.16902421370E+04  0.16902421370E+04  0.25500000920E-02 0. -1.
       -2   -1    0    0    0  501  0.00000000000E+00  0.00000000000E+00 -0.47213677298E+03  0.47213677299E+03  0.25500000920E-02 0.  1.
    10030    2    1    2    0    0  0.00000000000E+00  0.00000000000E+00  0.12181053640E+04  0.21623789100E+04  0.17866454244E+04 0.  0.
        5    1    3    3  502    0 -0.50609230046E+03  0.49888883123E+03  0.12641642980E+04  0.14502251359E+04  0.46999998093E+01 0. -1.
       -5    1    3    3    0  502  0.50609230046E+03 -0.49888883123E+03 -0.46058933982E+02  0.71215377406E+03  0.46999998093E+01 0.  1.
</event>
<event>
 5   0  0.1603564E-04  0.1806390E+04  0.7818609E-02  0.8702909E-01
        2   -1    0    0  501    0  0.00000000000E+00  0.00000000000E+00  0.72011453485E+03  0.72011453486E+03  0.25500000920E-02 0. -1.
       -2   -1    0    0    0  501  0.00000000000E+00  0.00000000000E+00 -0.11328216726E+04  0.11328216726E+04  0.25500000920E-02 0.  1.
    10030    2    1    2    0    0  0.00000000000E+00  0.00000000000E+00 -0.41270713773E+03  0.18529362074E+04  0.18063901592E+04 0.  0.
        5    1    3    3  502    0  0.82544200344E+03  0.29228038587E+03  0.20609934986E+02  0.87591619715E+03  0.46999998093E+01 0.  1.
       -5    1    3    3    0  502 -0.82544200344E+03 -0.29228038587E+03 -0.43331707271E+03  0.97702001029E+03  0.46999998093E+01 0. -1.
</event>
<event>
 5   0  0.1628397E-04  0.1789419E+04  0.7818609E-02  0.8711947E-01
        2   -1    0    0  501    0  0.00000000000E+00  0.00000000000E+00  0.12888692003E+04  0.12888692003E+04  0.25500000920E-02 0. -1.
       -2   -1    0    0    0  501  0.00000000000E+00  0.00000000000E+00 -0.62109104736E+03  0.62109104737E+03  0.25500000920E-02 0.  1.
    10030    2    1    2    0    0  0.00000000000E+00  0.00000000000E+00  0.66777815294E+03  0.19099602477E+04  0.17894190359E+04 0.  0.
        3    1    3    3  502    0 -0.43139158291E+03  0.33586205486E+03  0.10898378702E+04  0.12192820065E+04  0.10100000352E+00 0. -1.
       -3    1    3    3    0  502  0.43139158291E+03 -0.33586205486E+03 -0.42205971729E+03  0.69067824120E+03  0.10100000352E+00 0.  1.
</event>
<event>
 5   0  0.1603564E-04  0.1783484E+04  0.7818609E-02  0.8715132E-01
        2   -1    0    0  501    0  0.00000000000E+00  0.00000000000E+00  0.19298599487E+04  0.19298599487E+04  0.25500000920E-02 0.  1.
       -2   -1    0    0    0  501  0.00000000000E+00  0.00000000000E+00 -0.41205244082E+03  0.41205244083E+03  0.25500000920E-02 0. -1.
    10030    2    1    2    0    0  0.00000000000E+00  0.00000000000E+00  0.15178075079E+04  0.23419123895E+04  0.17834836723E+04 0.  0.
        5    1    3    3  502    0 -0.11991541281E+02 -0.16877947577E+03 -0.39076323954E+03  0.42585010025E+03  0.46999998093E+01 0. -1.
       -5    1    3    3    0  502  0.11991541281E+02  0.16877947577E+03  0.19085707474E+04  0.19160622893E+04  0.46999998093E+01 0.  1.
</event>
<event>
 5   0  0.8492114E-05  0.1818527E+04  0.7818609E-02  0.8696509E-01
       -1   -1    0    0    0  501  0.00000000000E+00  0.00000000000E+00  0.63462869423E+03  0.63462869425E+03  0.50400001928E-02 0.  1.
        1   -1    0    0  501    0  0.00000000000E+00  0.00000000000E+00 -0.13027461294E+04  0.13027461294E+04  0.50400001928E-02 0. -1.
    10030    2    1    2    0    0  0.00000000000E+00  0.00000000000E+00 -0.66811743516E+03  0.19373748236E+04  0.18185269589E+04 0.  0.
        2    1    3    3  502    0  0.13102570118E+03  0.56253923648E+03 -0.10821935599E+04  0.12266870131E+04  0.25500000920E-02 0. -1.
       -2    1    3    3    0  502 -0.13102570118E+03 -0.56253923648E+03  0.41407612477E+03  0.71068781055E+03  0.25500000920E-02 0.  1.
</event>
<event>
 5   0  0.1628397E-04  0.1746901E+04  0.7818609E-02  0.8735058E-01
       -2   -1    0    0    0  501  0.00000000000E+00  0.00000000000E+00  0.66509264979E+03  0.66509264979E+03  0.25500000920E-02 0. -1.
        2   -1    0    0  501    0  0.00000000000E+00  0.00000000000E+00 -0.11470819509E+04  0.11470819509E+04  0.25500000920E-02 0.  1.
    10030    2    1    2    0    0  0.00000000000E+00  0.00000000000E+00 -0.48198930108E+03  0.18121746007E+04  0.17469009980E+04 0.  0.
        3    1    3    3  502    0  0.24884687423E+03  0.13846300489E+03 -0.10975714233E+04  0.11339134932E+04  0.10100000352E+00 0.  1.
       -3    1    3    3    0  502 -0.24884687423E+03 -0.13846300489E+03  0.61558212222E+03  0.67826110749E+03  0.10100000352E+00 0. -1.
</event>
<event>
 5   0  0.1549012E-04  0.1789156E+04  0.7818609E-02  0.8712088E-01
       -2   -1    0    0    0  501  0.00000000000E+00  0.00000000000E+00  0.84652489672E+03  0.84652489672E+03  0.25500000920E-02 0.  1.
        2   -1    0    0  501    0  0.00000000000E+00  0.00000000000E+00 -0.94535832533E+03  0.94535832533E+03  0.25500000920E-02 0. -1.
    10030    2    1    2    0    0  0.00000000000E+00  0.00000000000E+00 -0.98833428608E+02  0.17918832221E+04  0.17891555089E+04 0.  0.
        4    1    3    3  502    0  0.56079350428E+03 -0.41556150698E+03  0.51097815213E+03  0.86503237245E+03  0.12699999809E+01 0.  1.
       -4    1    3    3    0  502 -0.56079350428E+03  0.41556150698E+03 -0.60981158074E+03  0.92685084961E+03  0.12699999809E+01 0. -1.
</event>
<event>
 5   0  0.1628397E-04  0.1777105E+04  0.7818609E-02  0.8718570E-01
       -2   -1    0    0    0  501  0.00000000000E+00  0.00000000000E+00  0.47759794547E+03  0.47759794548E+03  0.25500000920E-02 0.  1.
        2   -1    0    0  501    0  0.00000000000E+00  0.00000000000E+00 -0.16531173702E+04  0.16531173702E+04  0.25500000920E-02 0. -1.
    10030    2    1    2    0    0  0.00000000000E+00  0.00000000000E+00 -0.11755194247E+04  0.21307153157E+04  0.17771049037E+04 0.  0.
        3    1    3    3  502    0  0.50786997178E+03 -0.72880238641E+03 -0.56259187894E+03  0.10514725194E+04  0.10100000352E+00 0. -1.
       -3    1    3    3    0  502 -0.50786997178E+03  0.72880238641E+03 -0.61292754579E+03  0.10792427963E+04  0.10100000352E+00 0.  1.
</event>
<event>
 5   0  0.8492114E-05  0.1801359E+04  0.7818609E-02  0.8705577E-01
       -1   -1    0    0    0  501  0.00000000000E+00  0.00000000000E+00  0.18072572718E+04  0.18072572718E+04  0.50400001928E-02 0. -1.
        1   -1    0    0  501    0  0.00000000000E+00  0.00000000000E+00 -0.44887010753E+03  0.44887010756E+03  0.50400001928E-02 0.  1.
    10030    2    1    2    0    0  0.00000000000E+00  0.00000000000E+00  0.13583871642E+04  0.22561273793E+04  0.18013592267E+04 0.  0.
        2    1    3    3  502    0  0.76660261470E+03 -0.17149903376E+03  0.12310322942E+04  0.14603191421E+04  0.25500000920E-02 0. -1.
       -2    1    3    3    0  502 -0.76660261470E+03  0.17149903376E+03  0.12735487000E+03  0.79580823718E+03  0.25500000920E-02 0.  1.
</event>
<event>
 5   0  0.1608627E-04  0.1818870E+04  0.7818609E-02  0.8696328E-01
       -2   -1    0    0    0  501  0.00000000000E+00  0.00000000000E+00  0.10536960423E+04  0.10536960423E+04  0.25500000920E-02 0. -1.
        2   -1    0    0  501    0  0.00000000000E+00  0.00000000000E+00 -0.78492487952E+03  0.78492487952E+03  0.25500000920E-02 0.  1.
    10030    2    1    2    0    0  0.00000000000E+00  0.00000000000E+00  0.26877116281E+03  0.18386209219E+04  0.18188702418E+04 0.  0.
        2    1    3    3  502    0  0.58467886960E+03  0.68033712875E+03 -0.16785126614E+02  0.89721219886E+03  0.25500000920E-02 0.  1.
       -2    1    3    3    0  502 -0.58467886960E+03 -0.68033712875E+03  0.28555628942E+03  0.94140872300E+03  0.25500000920E-02 0. -1.
</event>
<event>
 5   0  0.8254914E-05  0.1809485E+04  0.7818609E-02  0.8701272E-01
        1   -1    0    0  501    0  0.00000000000E+00  0.00000000000E+00  0.14227050316E+04  0.14227050316E+04  0.50400001928E-02 0. -1.
       -1   -1    0    0    0  501  0.00000000000E+00  0.00000000000E+00 -0.57535403917E+03  0.57535403919E+03  0.50400001928E-02 0.  1.
    10030    2    1    2    0    0  0.00000000000E+00  0.00000000000E+00  0.84735099239E+03  0.19980590708E+04  0.18094851052E+04 0.  0.
        4    1    3    3  502    0  0.56068300432E+03  0.55075446984E+03 -0.71206577642E+02  0.78915645279E+03  0.12699999809E+01 0.  1.
       -4    1    3    3    0  502 -0.56068300432E+03 -0.55075446984E+03  0.91855757003E+03  0.12089026180E+04  0.12699999809E+01 0. -1.
</event>
<event>
 5   0  0.8254914E-05  0.1781540E+04  0.7818609E-02  0.8716178E-01
       -1   -1    0    0    0  501  0.00000000000E+00  0.00000000000E+00  0.15335699361E+04  0.15335699361E+04  0.50400001928E-02 0.  1.
        1   -1    0    0  501    0  0.00000000000E+00  0.00000000000E+00 -0.51740155137E+03  0.51740155139E+03  0.50400001928E-02 0. -1.
    10030    2    1    2    0    0  0.00000000000E+00  0.00000000000E+00  0.10161683847E+04  0.20509714875E+04  0.17815403045E+04 0.  0.
        4    1    3    3  502    0  0.69921793467E+03  0.54850210092E+03  0.57820164436E+03  0.10602259331E+04  0.12699999809E+01 0.  1.
       -4    1    3    3    0  502 -0.69921793467E+03 -0.54850210092E+03  0.43796674035E+03  0.99074555433E+03  0.12699999809E+01 0. -1.
</event>
<event>
 5   0  0.1549012E-04  0.1802815E+04  0.7818609E-02  0.8704804E-01
        2   -1    0    0  501    0  0.00000000000E+00  0.00000000000E+00  0.12824707346E+04  0.12824707346E+04  0.25500000920E-02 0.  1.
       -2   -1    0    0    0  501  0.00000000000E+00  0.00000000000E+00 -0.63357018277E+03  0.63357018277E+03  0.25500000920E-02 0. -1.
    10030    2    1    2    0    0  0.00000000000E+00  0.00000000000E+00  0.64890055185E+03  0.19160409174E+04  0.18028147079E+04 0.  0.
        4    1    3    3  502    0  0.80805502358E+03 -0.15720109604E+03 -0.65859068594E+02  0.82583541674E+03  0.12699999809E+01 0. -1.
       -4    1    3    3    0  502 -0.80805502358E+03  0.15720109604E+03  0.71475962045E+03  0.10902055007E+04  0.12699999809E+01 0.  1.
</event>
<event>
 5   0  0.8132598E-05  0.1800717E+04  0.7818609E-02  0.8705918E-01
        1   -1    0    0  501    0  0.00000000000E+00  0.00000000000E+00  0.74987046127E+03  0.74987046129E+03  0.50400001928E-02 0. -1.
       -1   -1    0    0    0  501  0.00000000000E+00  0.00000000000E+00 -0.10810468596E+04  0.10810468596E+04  0.50400001928E-02 0.  1.
    10030    2    1    2    0    0  0.00000000000E+00  0.00000000000E+00 -0.33117639829E+03  0.18309173209E+04  0.18007166432E+04 0.  0.
        3    1    3    3  502    0  0.63381117997E+03  0.29617999176E+03  0.41066733609E+03  0.81122553615E+03  0.10100000352E+00 0. -1.
       -3    1    3    3    0  502 -0.63381117997E+03 -0.29617999176E+03 -0.74184373438E+03  0.10196917847E+04  0.10100000352E+00 0.  1.
</event>
<event>
 5   0  0.5820500E-05  0.1802493E+04  0.7818609E-02  0.8704975E-01
       -4   -1    0    0    0  501  0.00000000000E+00  0.00000000000E+00  0.98123805823E+03  0.98123888010E+03  0.12699999809E+01 0.  1.
        4   -1    0    0  501    0  0.00000000000E+00  0.00000000000E+00 -0.82777429680E+03  0.82777527104E+03  0.12699999809E+01 0. -1.
    10030    2    1    2    0    0  0.00000000000E+00  0.00000000000E+00  0.15346376143E+03  0.18090141511E+04  0.18024930161E+04 0.  0.
        5    1    3    3  502    0 -0.25162816270E+03  0.60136834531E+03 -0.54782375138E+03  0.85152426365E+03  0.46999998093E+01 0. -1.
       -5    1    3    3    0  502  0.25162816270E+03 -0.60136834531E+03  0.70128751282E+03  0.95748988749E+03  0.46999998093E+01 0.  1.
</event>
<event>
 5   0  0.1573981E-04  0.1805066E+04  0.7818609E-02  0.8703610E-01
       -2   -1    0    0    0  501  0.00000000000E+00  0.00000000000E+00  0.69710112785E+03  0.69710112786E+03  0.25500000920E-02 0.  1.
        2   -1    0    0  501    0  0.00000000000E+00  0.00000000000E+00 -0.11685039883E+04  0.11685039884E+04  0.25500000920E-02 0. -1.
    10030    2    1    2    0    0  0.00000000000E+00  0.00000000000E+00 -0.47140286050E+03  0.18656051162E+04  0.18050655924E+04 0.  0.
        1    1    3    3  502    0  0.50106441255E+03  0.40196284263E+03  0.41953745915E+03  0.76723617748E+03  0.50400001928E-02 0.  1.
       -1    1    3    3    0  502 -0.50106441255E+03 -0.40196284263E+03 -0.89094031965E+03  0.10983689387E+04  0.50400001928E-02 0. -1.
</event>
<event>
 5   0  0.1628397E-04  0.1801706E+04  0.7818609E-02  0.8705393E-01
       -2   -1    0    0    0  501  0.00000000000E+00  0.00000000000E+00  0.42399898401E+03  0.42399898401E+03  0.25500000920E-02 0. -1.
        2   -1    0    0  501    0  0.00000000000E+00  0.00000000000E+00 -0.19140041699E+04  0.19140041699E+04  0.25500000920E-02 0.  1.
    10030    2    1    2    0    0  0.00000000000E+00  0.00000000000E+00 -0.14900051859E+04  0.23380031539E+04  0.18017056623E+04 0.  0.
        3    1    3    3  502    0  0.86331792513E+03  0.21056116511E+03 -0.55304537380E+03  0.10466675880E+04  0.10100000352E+00 0.  1.
       -3    1    3    3    0  502 -0.86331792513E+03 -0.21056116511E+03 -0.93695981207E+03  0.12913355659E+04  0.10100000352E+00 0. -1.
</event>
<event>
 5   0  0.1549012E-04  0.1795621E+04  0.7818609E-02  0.8708631E-01
       -2   -1    0    0    0  501  0.00000000000E+00  0.00000000000E+00  0.55690074912E+03  0.55690074913E+03  0.25500000920E-02 0. -1.
        2   -1    0    0  501    0  0.00000000000E+00  0.00000000000E+00 -0.14474103930E+04  0.14474103930E+04  0.25500000920E-02 0.  1.
    10030    2    1    2    0    0  0.00000000000E+00  0.00000000000E+00 -0.89050964389E+03  0.20043111421E+04  0.17956212654E+04 0.  0.
        4    1    3    3  502    0 -0.31792744585E+03 -0.46074446411E+03 -0.12287588614E+04  0.13502641499E+04  0.12699999809E+01 0.  1.
       -4    1    3    3    0  502  0.31792744585E+03  0.46074446411E+03  0.33824921753E+03  0.65404699226E+03  0.12699999809E+01 0. -1.
</event>
<event>
 5   0  0.8206783E-05  0.1798985E+04  0.7818609E-02  0.8706839E-01
       -1   -1    0    0    0  501  0.00000000000E+00  0.00000000000E+00  0.50679022578E+03  0.50679022580E+03  0.50400001928E-02 0.  1.
        1   -1    0    0  501    0  0.00000000000E+00  0.00000000000E+00 -0.15964933135E+04  0.15964933135E+04  0.50400001928E-02 0. -1.
    10030    2    1    2    0    0  0.00000000000E+00  0.00000000000E+00 -0.10897030877E+04  0.21032835393E+04  0.17989854995E+04 0.  0.
        1    1    3    3  502    0  0.36667311931E+03  0.55751344284E+03  0.16034719979E+03  0.68628102107E+03  0.50400001928E-02 0.  1.
       -1    1    3    3    0  502 -0.36667311931E+03 -0.55751344284E+03 -0.12500502875E+04  0.14170025182E+04  0.50400001928E-02 0. -1.
</event>
<event>
 5   0  0.1549012E-04  0.1812894E+04  0.7818609E-02  0.8699473E-01
        2   -1    0    0  501    0  0.00000000000E+00  0.00000000000E+00  0.17589786995E+04  0.17589786995E+04  0.25500000920E-02 0. -1.
       -2   -1    0    0    0  501  0.00000000000E+00  0.00000000000E+00 -0.46711535181E+03  0.46711535181E+03  0.25500000920E-02 0.  1.
    10030    2    1    2    0    0  0.00000000000E+00  0.00000000000E+00  0.12918633477E+04  0.22260940513E+04  0.18128937686E+04 0.  0.
        4    1    3    3  502    0  0.60367105326E+03  0.43078434410E+03  0.59369894117E+01  0.74164058169E+03  0.12699999809E+01 0.  1.
       -4    1    3    3    0  502 -0.60367105326E+03 -0.43078434410E+03  0.12859263583E+04  0.14844534696E+04  0.12699999809E+01 0. -1.
</event>
<event>
 5   0  0.8132598E-05  0.1773384E+04  0.7818609E-02  0.8720583E-01
       -1   -1    0    0    0  501  0.00000000000E+00  0.00000000000E+00  0.48752286565E+03  0.48752286568E+03  0.50400001928E-02 0.  1.
        1   -1    0    0  501    0  0.00000000000E+00  0.00000000000E+00 -0.16126897294E+04  0.16126897294E+04  0.50400001928E-02 0. -1.
    10030    2    1    2    0    0  0.00000000000E+00  0.00000000000E+00 -0.11251668637E+04  0.21002125951E+04  0.17733844685E+04 0.  0.
        3    1    3    3  502    0  0.31180629613E+03 -0.29204756197E+03  0.35759888313E+03  0.55712827624E+03  0.10100000352E+00 0.  1.
       -3    1    3    3    0  502 -0.31180629613E+03  0.29204756197E+03 -0.14827657468E+04  0.15430843188E+04  0.10100000352E+00 0. -1.
</event>
<event>
 5   0  0.1628397E-04  0.1782112E+04  0.7818609E-02  0.8715870E-01
       -2   -1    0    0    0  501  0.00000000000E+00  0.00000000000E+00  0.59150697076E+03  0.59150697077E+03  0.25500000920E-02 0. -1.
        2   -1    0    0  501    0  0.00000000000E+00  0.00000000000E+00 -0.13423021785E+04  0.13423021785E+04  0.25500000920E-02 0.  1.
    10030    2    1    2    0    0  0.00000000000E+00  0.00000000000E+00 -0.75079520771E+03  0.19338091492E+04  0.17821123370E+04 0.  0.
        3    1    3    3  502    0  0.60032750621E+03 -0.65239884723E+03 -0.27856170701E+03  0.92930834786E+03  0.10100000352E+00 0. -1.
       -3    1    3    3    0  502 -0.60032750621E+03  0.65239884723E+03 -0.47223350070E+03  0.10045008014E+04  0.10100000352E+00 0.  1.
</event>
<event>
 5   0  0.1628397E-04  0.1792616E+04  0.7818609E-02  0.8710236E-01
        2   -1    0    0  501    0  0.00000000000E+00  0.00000000000E+00  0.17944694084E+04  0.17944694084E+04  0.25500000920E-02 0. -1.
       -2   -1    0    0    0  501  0.00000000000E+00  0.00000000000E+00 -0.44769116783E+03  0.44769116783E+03  0.25500000920E-02 0.  1.
    10030    2    1    2    0    0  0.00000000000E+00  0.00000000000E+00  0.13467782406E+04  0.22421605763E+04  0.17926160828E+04 0.  0.
        3    1    3    3  502    0  0.11904907957E+02 -0.82704084039E+02 -0.44280914135E+03  0.45062361036E+03  0.10100000352E+00 0.  1.
       -3    1    3    3    0  502 -0.11904907957E+02  0.82704084039E+02  0.17895873819E+04  0.17915369659E+04  0.10100000352E+00 0. -1.
</event>
<event>
 5   0  0.8206783E-05  0.1849518E+04  0.7818609E-02  0.8680401E-01
        1   -1    0    0  501    0  0.00000000000E+00  0.00000000000E+00  0.21094989268E+04  0.21094989268E+04  0.50400001928E-02 0. -1.
       -1   -1    0    0    0  501  0.00000000000E+00  0.00000000000E+00 -0.40539465971E+03  0.40539465974E+03  0.50400001928E-02 0.  1.
    10030    2    1    2    0    0  0.00000000000E+00  0.00000000000E+00  0.17041042671E+04  0.25148935865E+04  0.18495184234E+04 0.  0.
        1    1    3    3  502    0 -0.55625223682E+03  0.21162180684E+03  0.18144858407E+04  0.19095966083E+04  0.50400001928E-02 0. -1.
       -1    1    3    3    0  502  0.55625223682E+03 -0.21162180684E+03 -0.11038157363E+03  0.60529697829E+03  0.50400001928E-02 0.  1.
</event>
<event>
 5   0  0.8206783E-05  0.1801850E+04  0.7818609E-02  0.8705316E-01
       -1   -1    0    0    0  501  0.00000000000E+00  0.00000000000E+00  0.77703505825E+03  0.77703505827E+03  0.50400001928E-02 0. -1.
        1   -1    0    0  501    0  0.00000000000E+00  0.00000000000E+00 -0.10445679638E+04  0.10445679638E+04  0.50400001928E-02 0.  1.
    10030    2    1    2    0    0  0.00000000000E+00  0.00000000000E+00 -0.26753290555E+03  0.18216030221E+04  0.18018500810E+04 0.  0.
        1    1    3    3  502    0 -0.83184597809E+03 -0.22804519941E+03  0.12926570019E+03  0.87217083505E+03  0.50400001928E-02 0. -1.
       -1    1    3    3    0  502  0.83184597809E+03  0.22804519941E+03 -0.39679860574E+03  0.94943218703E+03  0.50400001928E-02 0.  1.
</event>
<event>
 5   0  0.1573981E-04  0.1769905E+04  0.7818609E-02  0.8722469E-01
       -2   -1    0    0    0  501  0.00000000000E+00  0.00000000000E+00  0.16165395930E+04  0.16165395930E+04  0.25500000920E-02 0. -1.
        2   -1    0    0  501    0  0.00000000000E+00  0.00000000000E+00 -0.48445538092E+03  0.48445538093E+03  0.25500000920E-02 0.  1.
    10030    2    1    2    0    0  0.00000000000E+00  0.00000000000E+00  0.11320842121E+04  0.21009949739E+04  0.17699054261E+04 0.  0.
        1    1    3    3  502    0  0.16206486996E+03  0.75872130215E+03  0.10713731049E+04  0.13227862134E+04  0.50400001928E-02 0. -1.
       -1    1    3    3    0  502 -0.16206486996E+03 -0.75872130215E+03  0.60711107177E+02  0.77820876053E+03  0.50400001928E-02 0.  1.
</event>
<event>
 5   0  0.8254914E-05  0.1765097E+04  0.7818609E-02  0.8725084E-01
       -1   -1    0    0    0  501  0.00000000000E+00  0.00000000000E+00  0.64133349011E+03  0.64133349013E+03  0.50400001928E-02 0.  1.
        1   -1    0    0  501    0  0.00000000000E+00  0.00000000000E+00 -0.12144878298E+04  0.12144878299E+04  0.50400001928E-02 0. -1.
    10030    2    1    2    0    0  0.00000000000E+00  0.00000000000E+00 -0.57315433973E+03  0.18558213200E+04  0.17650968457E+04 0.  0.
        4    1    3    3  502    0  0.43936219468E+03 -0.72350628695E+03 -0.23959591497E+02  0.84680349568E+03  0.12699999809E+01 0.  1.
       -4    1    3    3    0  502 -0.43936219468E+03  0.72350628695E+03 -0.54919474824E+03  0.10090178243E+04  0.12699999809E+01 0. -1.
</event>
<event>
 5   0  0.1603564E-04  0.1806982E+04  0.7818609E-02  0.8702595E-01
       -2   -1    0    0    0  501  0.00000000000E+00  0.00000000000E+00  0.38406230585E+03  0.38406230586E+03  0.25500000920E-02 0.  1.
        2   -1    0    0  501    0  0.00000000000E+00  0.00000000000E+00 -0.21254261580E+04  0.21254261580E+04  0.25500000920E-02 0. -1.
    10030    2    1    2    0    0  0.00000000000E+00  0.00000000000E+00 -0.17413638522E+04  0.25094884639E+04  0.18069820931E+04 0.  0.
        5    1    3    3  502    0 -0.79776958562E+03  0.15982719139E+03 -0.32516983670E+03  0.87620691366E+03  0.46999998093E+01 0.  1.
       -5    1    3    3    0  502  0.79776958562E+03 -0.15982719139E+03 -0.14161940155E+04  0.16332815502E+04  0.46999998093E+01 0. -1.
</event>
<event>
 5   0  0.8492114E-05  0.1800128E+04  0.7818609E-02  0.8706232E-01
        1   -1    0    0  501    0  0.00000000000E+00  0.00000000000E+00  0.10707166637E+04  0.10707166637E+04  0.50400001928E-02 0. -1.
       -1   -1    0    0    0  501  0.00000000000E+00  0.00000000000E+00 -0.75661000521E+03  0.75661000522E+03  0.50400001928E-02 0.  1.
    10030    2    1    2    0    0  0.00000000000E+00  0.00000000000E+00  0.31410665849E+03  0.18273266689E+04  0.18001277072E+04 0.  0.
        2    1    3    3  502    0 -0.59510586842E+03  0.25826096096E+03  0.79039152166E+03  0.10225304280E+04  0.25500000920E-02 0. -1.
       -2    1    3    3    0  502  0.59510586842E+03 -0.25826096096E+03 -0.47628486317E+03  0.80479624097E+03  0.25500000920E-02 0.  1.
</event>
<event>
 5   0  0.8430513E-05  0.1710306E+04  0.7818609E-02  0.8755508E-01
        1   -1    0    0  501    0  0.00000000000E+00  0.00000000000E+00  0.68065335199E+03  0.68065335201E+03  0.50400001928E-02 0.  1.
       -1   -1    0    0    0  501  0.00000000000E+00  0.00000000000E+00 -0.10743898457E+04  0.10743898457E+04  0.50400001928E-02 0. -1.
    10030    2    1    2    0    0  0.00000000000E+00  0.00000000000E+00 -0.39373649367E+03  0.17550431977E+04  0.17103064635E+04 0.  0.
        5    1    3    3  502    0 -0.32135974051E+03  0.13273112801E+03  0.60483262810E+03  0.69766340966E+03  0.46999998093E+01 0.  1.
       -5    1    3    3    0  502  0.32135974051E+03 -0.13273112801E+03 -0.99856912177E+03  0.10573797880E+04  0.46999998093E+01 0. -1.
</event>
<event>
 5   0  0.8206783E-05  0.1790235E+04  0.7818609E-02  0.8711510E-01
        1   -1    0    0  501    0  0.00000000000E+00  0.00000000000E+00  0.65703708567E+03  0.65703708569E+03  0.50400001928E-02 0.  1.
       -1   -1    0    0    0  501  0.00000000000E+00  0.00000000000E+00 -0.12194669069E+04  0.12194669069E+04  0.50400001928E-02 0. -1.
    10030    2    1    2    0    0  0.00000000000E+00  0.00000000000E+00 -0.56242982122E+03  0.18765039926E+04  0.17902346021E+04 0.  0.
        1    1    3    3  502    0 -0.75513139485E+03  0.41270262244E+03 -0.53943577609E+03  0.10156465107E+04  0.50400001928E-02 0. -1.
       -1    1    3    3    0  502  0.75513139485E+03 -0.41270262244E+03 -0.22994045131E+02  0.86085748193E+03  0.50400001928E-02 0.  1.
</event>
<event>
 5   0  0.1603564E-04  0.1810879E+04  0.7818609E-02  0.8700536E-01
        2   -1    0    0  501    0  0.00000000000E+00  0.00000000000E+00  0.10507577520E+04  0.10507577520E+04  0.25500000920E-02 0. -1.
       -2   -1    0    0    0  501  0.00000000000E+00  0.00000000000E+00 -0.78021843956E+03  0.78021843956E+03  0.25500000920E-02 0.  1.
    10030    2    1    2    0    0  0.00000000000E+00  0.00000000000E+00  0.27053931245E+03  0.18309761916E+04  0.18108788735E+04 0.  0.
        5    1    3    3  502    0 -0.44179370938E+03 -0.92749344489E+01  0.93431277895E+03  0.10335522072E+04  0.46999998093E+01 0. -1.
       -5    1    3    3    0  502  0.44179370938E+03  0.92749344489E+01 -0.66377346650E+03  0.79742398440E+03  0.46999998093E+01 0.  1.
</event>
<event>
 5   0  0.8492114E-05  0.1791119E+04  0.7818609E-02  0.8711037E-01
       -1   -1    0    0    0  501  0.00000000000E+00  0.00000000000E+00  0.69194685008E+03  0.69194685010E+03  0.50400001928E-02 0. -1.
        1   -1    0    0  501    0  0.00000000000E+00  0.00000000000E+00 -0.11590875041E+04  0.11590875041E+04  0.50400001928E-02 0.  1.
    10030    2    1    2    0    0  0.00000000000E+00  0.00000000000E+00 -0.46714065404E+03  0.18510343542E+04  0.17911191445E+04 0.  0.
        2    1    3    3  502    0 -0.48834891462E+03 -0.63837209218E+03  0.17464077520E+03  0.82249801876E+03  0.25500000920E-02 0. -1.
       -2    1    3    3    0  502  0.48834891462E+03  0.63837209218E+03 -0.64178142923E+03  0.10285363355E+04  0.25500000920E-02 0.  1.
</event>
<event>
 5   0  0.8132598E-05  0.1805475E+04  0.7818609E-02  0.8703393E-01
       -1   -1    0    0    0  501  0.00000000000E+00  0.00000000000E+00  0.54882441756E+03  0.54882441758E+03  0.50400001928E-02 0.  1.
        1   -1    0    0  501    0  0.00000000000E+00  0.00000000000E+00 -0.14848737943E+04  0.14848737943E+04  0.50400001928E-02 0. -1.
    10030    2    1    2    0    0  0.00000000000E+00  0.00000000000E+00 -0.93604937671E+03  0.20336982118E+04  0.18054750016E+04 0.  0.
        3    1    3    3  502    0 -0.52728103101E+03 -0.69133191117E+03 -0.19449140484E+03  0.89095006247E+03  0.10100000352E+00 0. -1.
       -3    1    3    3    0  502  0.52728103101E+03  0.69133191117E+03 -0.74155797187E+03  0.11427481494E+04  0.10100000352E+00 0.  1.
</event>
<event>
 5   0  0.1628397E-04  0.1801331E+04  0.7818609E-02  0.8705592E-01
        2   -1    0    0  501    0  0.00000000000E+00  0.00000000000E+00  0.62107371644E+03  0.62107371645E+03  0.25500000920E-02 0. -1.
       -2   -1    0    0    0  501  0.00000000000E+00  0.00000000000E+00 -0.13061218454E+04  0.13061218454E+04  0.25500000920E-02 0.  1.
    10030    2    1    2    0    0  0.00000000000E+00  0.00000000000E+00 -0.68504812896E+03  0.19271955618E+04  0.18013305623E+04 0.  0.
        3    1    3    3  502    0 -0.20365585337E+03 -0.36060888520E+03  0.51316293022E+03  0.65943208737E+03  0.10100000352E+00 0. -1.
       -3    1    3    3    0  502  0.20365585337E+03  0.36060888520E+03 -0.11982110592E+04  0.12677634745E+04  0.10100000352E+00 0.  1.
</event>
<event>
 5   0  0.1603564E-04  0.1777781E+04  0.7818609E-02  0.8718205E-01
        2   -1    0    0  501    0  0.00000000000E+00  0.00000000000E+00  0.95712699106E+03  0.95712699106E+03  0.25500000920E-02 0.  1.
       -2   -1    0    0    0  501  0.00000000000E+00  0.00000000000E+00 -0.82551904437E+03  0.82551904438E+03  0.25500000920E-02 0. -1.
    10030    2    1    2    0    0  0.00000000000E+00  0.00000000000E+00  0.13160794669E+03  0.17826460354E+04  0.17777812678E+04 0.  0.
        5    1    3    3  502    0 -0.38520270440E+01 -0.49885999183E+03 -0.67189139418E+03  0.83686095926E+03  0.46999998093E+01 0. -1.
       -5    1    3    3    0  502  0.38520270440E+01  0.49885999183E+03  0.80349934087E+03  0.94578507618E+03  0.46999998093E+01 0.  1.
</event>
<event>
 5   0  0.1573981E-04  0.1794534E+04  0.7818609E-02  0.8709212E-01
       -2   -1    0    0    0  501  0.00000000000E+00  0.00000000000E+00  0.60328710754E+03  0.60328710755E+03  0.25500000920E-02 0. -1.
        2   -1    0    0  501    0  0.00000000000E+00  0.00000000000E+00 -0.13345026870E+04  0.13345026871E+04  0.25500000920E-02 0.  1.
    10030    2    1    2    0    0  0.00000000000E+00  0.00000000000E+00 -0.73121557951E+03  0.19377897946E+04  0.17945342193E+04 0.  0.
        1    1    3    3  502    0  0.35699177957E+03  0.74038907108E+03 -0.75414988995E+03  0.11155093741E+04  0.50400001928E-02 0. -1.
       -1    1    3    3    0  502 -0.35699177957E+03 -0.74038907108E+03  0.22934310439E+02  0.82228042046E+03  0.50400001928E-02 0.  1.
</event>
<event>
 5   0  0.8254914E-05  0.1776727E+04  0.7818609E-02  0.8718774E-01
        1   -1    0    0  501    0  0.00000000000E+00  0.00000000000E+00  0.13961145054E+04  0.13961145054E+04  0.50400001928E-02 0. -1.
       -1   -1    0    0    0  501  0.00000000000E+00  0.00000000000E+00 -0.56527599824E+03  0.56527599826E+03  0.50400001928E-02 0.  1.
    10030    2    1    2    0    0  0.00000000000E+00  0.00000000000E+00  0.83083850711E+03  0.19613905036E+04  0.17767273519E+04 0.  0.
        4    1    3    3  502    0 -0.22531369023E+03  0.44517128038E+03  0.12268258416E+04  0.13244043893E+04  0.12699999809E+01 0. -1.
       -4    1    3    3    0  502  0.22531369023E+03 -0.44517128038E+03 -0.39598733449E+03  0.63698611433E+03  0.12699999809E+01 0.  1.
</event>
<event>
 5   0  0.8430513E-05  0.1801743E+04  0.7818609E-02  0.8705373E-01
        1   -1    0    0  501    0  0.00000000000E+00  0.00000000000E+00  0.13776888561E+04  0.13776888561E+04  0.50400001928E-02 0.  1.
       -1   -1    0    0    0  501  0.00000000000E+00  0.00000000000E+00 -0.58908057742E+03  0.58908057744E+03  0.50400001928E-02 0. -1.
    10030    2    1    2    0    0  0.00000000000E+00  0.00000000000E+00  0.78860827865E+03  0.19667694335E+04  0.18017433190E+04 0.  0.
        5    1    3    3  502    0 -0.34717184298E+03  0.30900957949E+03 -0.44808594165E+03  0.64561467601E+03  0.46999998093E+01 0. -1.
       -5    1    3    3    0  502  0.34717184298E+03 -0.30900957949E+03  0.12366942203E+04  0.13211547575E+04  0.46999998093E+01 0.  1.
</event>
<event>
 5   0  0.8132598E-05  0.1767711E+04  0.7818609E-02  0.8723662E-01
       -1   -1    0    0    0  501  0.00000000000E+00  0.00000000000E+00  0.64815808333E+03  0.64815808335E+03  0.50400001928E-02 0.  1.
        1   -1    0    0  501    0  0.00000000000E+00  0.00000000000E+00 -0.12052619538E+04  0.12052619539E+04  0.50400001928E-02 0. -1.
    10030    2    1    2    0    0  0.00000000000E+00  0.00000000000E+00 -0.55710387051E+03  0.18534200372E+04  0.17677106980E+04 0.  0.
        3    1    3    3  502    0 -0.46356837213E+03  0.11104529531E+03 -0.10589338353E+04  0.11612784209E+04  0.10100000352E+00 0. -1.
       -3    1    3    3    0  502  0.46356837213E+03 -0.11104529531E+03  0.50182996475E+03  0.69214161627E+03  0.10100000352E+00 0.  1.
</event>
<event>
 5   0  0.1608627E-04  0.1782303E+04  0.7818609E-02  0.8715768E-01
        2   -1    0    0  501    0  0.00000000000E+00  0.00000000000E+00  0.13083301590E+04  0.13083301590E+04  0.25500000920E-02 0. -1.
       -2   -1    0    0    0  501  0.00000000000E+00  0.00000000000E+00 -0.60699568257E+03  0.60699568257E+03  0.25500000920E-02 0.  1.
    10030    2    1    2    0    0  0.00000000000E+00  0.00000000000E+00  0.70133447645E+03  0.19153258416E+04  0.17823027329E+04 0.  0.
        2    1    3    3  502    0  0.40538094876E+03  0.81996880138E+02 -0.49761002211E+03  0.64704940776E+03  0.25500000920E-02 0.  1.
       -2    1    3    3    0  502 -0.40538094876E+03 -0.81996880138E+02  0.11989444986E+04  0.12682764338E+04  0.25500000920E-02 0. -1.
</event>
<event>
 5   0  0.8132598E-05  0.1798333E+04  0.7818609E-02  0.8707186E-01
        1   -1    0    0  501    0  0.00000000000E+00  0.00000000000E+00  0.10329067865E+04  0.10329067865E+04  0.50400001928E-02 0.  1.
       -1   -1    0    0    0  501  0.00000000000E+00  0.00000000000E+00 -0.78274323784E+03  0.78274323786E+03  0.50400001928E-02 0. -1.
    10030    2    1    2    0    0  0.00000000000E+00  0.00000000000E+00  0.25016354861E+03  0.18156500243E+04  0.17983334534E+04 0.  0.
        3    1    3    3  502    0 -0.70733279876E+03  0.28905599337E+03 -0.35343107828E+03  0.84189464471E+03  0.10100000352E+00 0. -1.
       -3    1    3    3    0  502  0.70733279876E+03 -0.28905599337E+03  0.60359462689E+03  0.97375537961E+03  0.10100000352E+00 0.  1.
</event>
<event>
 5   0  0.5820500E-05  0.1789445E+04  0.7818609E-02  0.8711933E-01
        4   -1    0    0  501    0  0.00000000000E+00  0.00000000000E+00  0.10266781243E+04  0.10266789098E+04  0.12699999809E+01 0. -1.
       -4   -1    0    0    0  501  0.00000000000E+00  0.00000000000E+00 -0.77972490052E+03  0.77972593479E+03  0.12699999809E+01 0.  1.
    10030    2    1    2    0    0  0.00000000000E+00  0.00000000000E+00  0.24695322377E+03  0.18064048446E+04  0.17894447652E+04 0.  0.
        3    1    3    3  502    0  0.58696157085E+02  0.17662335844E+03 -0.75996766981E+03  0.78242694162E+03  0.10100000352E+00 0.  1.
       -3    1    3    3    0  502 -0.58696157085E+02 -0.17662335844E+03  0.10069208936E+04  0.10239779030E+04  0.10100000352E+00 0. -1.
</event>
<event>
 5   0  0.8254914E-05  0.1797871E+04  0.7818609E-02  0.8707432E-01
       -1   -1    0    0    0  501  0.00000000000E+00  0.00000000000E+00  0.94816941449E+03  0.94816941451E+03  0.50400001928E-02 0. -1.
        1   -1    0    0  501    0  0.00000000000E+00  0.00000000000E+00 -0.85225842698E+03  0.85225842699E+03  0.50400001928E-02 0.  1.
    10030    2    1    2    0    0  0.00000000000E+00  0.00000000000E+00  0.95910987513E+02  0.18004278415E+04  0.17978713789E+04 0.  0.
        4    1    3    3  502    0  0.60728544841E+03 -0.29648714153E+03  0.64157449775E+03  0.93183672927E+03  0.12699999809E+01 0. -1.
       -4    1    3    3    0  502 -0.60728544841E+03  0.29648714153E+03 -0.54566351024E+03  0.86859111223E+03  0.12699999809E+01 0.  1.
</event>
<event>
 5   0  0.1573981E-04  0.1788320E+04  0.7818609E-02  0.8712536E-01
       -2   -1    0    0    0  501  0.00000000000E+00  0.00000000000E+00  0.50915862288E+03  0.50915862288E+03  0.25500000920E-02 0.  1.
        2   -1    0    0  501    0  0.00000000000E+00  0.00000000000E+00 -0.15702805650E+04  0.15702805650E+04  0.25500000920E-02 0. -1.
    10030    2    1    2    0    0  0.00000000000E+00  0.00000000000E+00 -0.10611219421E+04  0.20794391879E+04  0.17883197589E+04 0.  0.
        1    1    3    3  502    0  0.44544113240E+03  0.14248573625E+02 -0.14319298021E+04  0.14996812269E+04  0.50400001928E-02 0. -1.
       -1    1    3    3    0  502 -0.44544113240E+03 -0.14248573625E+02  0.37080785995E+03  0.57975796097E+03  0.50400001928E-02 0.  1.
</event>
<event>
 5   0  0.1628397E-04  0.1800739E+04  0.7818609E-02  0.8705906E-01
        2   -1    0    0  501    0  0.00000000000E+00  0.00000000000E+00  0.92060653058E+03  0.92060653058E+03  0.25500000920E-02 0.  1.
       -2   -1    0    0    0  501  0.00000000000E+00  0.00000000000E+00 -0.88057767125E+03  0.88057767125E+03  0.25500000920E-02 0. -1.
    10030    2    1    2    0    0  0.00000000000E+00  0.00000000000E+00  0.40028859335E+02  0.18011842018E+04  0.18007393535E+04 0.  0.
        3    1    3    3  502    0  0.53943676689E+03  0.57409529773E+02  0.73878617703E+03  0.91656582151E+03  0.10100000352E+00 0.  1.
       -3    1    3    3    0  502 -0.53943676689E+03 -0.57409529773E+02 -0.69875731769E+03  0.88461838033E+03  0.10100000352E+00 0. -1.
</event>
<event>
 5   0  0.8492114E-05  0.1822614E+04  0.7818609E-02  0.8694365E-01
        1   -1    0    0  501    0  0.00000000000E+00  0.00000000000E+00  0.14881130510E+04  0.14881130510E+04  0.50400001928E-02 0. -1.
       -1   -1    0    0    0  501  0.00000000000E+00  0.00000000000E+00 -0.55807605264E+03  0.55807605267E+03  0.50400001928E-02 0.  1.
    10030    2    1    2    0    0  0.00000000000E+00  0.00000000000E+00  0.93003699837E+03  0.20461891037E+04  0.18226137906E+04 0.  0.
        2    1    3    3  502    0  0.63087943165E+03  0.54388339673E+02 -0.27074701488E+03  0.68867328600E+03  0.25500000920E-02 0.  1.
       -2    1    3    3    0  502 -0.63087943165E+03 -0.54388339673E+02  0.12007840133E+04  0.13575158177E+04  0.25500000920E-02 0. -1.
</event>
<event>
 5   0  0.8430513E-05  0.1755098E+04  0.7818609E-02  0.8730549E-01
       -1   -1    0    0    0  501  0.00000000000E+00  0.00000000000E+00  0.44290027438E+03  0.44290027441E+03  0.50400001928E-02 0.  1.
        1   -1    0    0  501    0  0.00000000000E+00  0.00000000000E+00 -0.17387496053E+04  0.17387496053E+04  0.50400001928E-02 0. -1.
    10030    2    1    2    0    0  0.00000000000E+00  0.00000000000E+00 -0.12958493309E+04  0.21816498797E+04  0.17550984899E+04 0.  0.
        5    1    3    3  502    0  0.30567925785E+03  0.45687031965E+03 -0.14982012491E+04  0.15958694717E+04  0.46999998093E+01 0. -1.
       -5    1    3    3    0  502 -0.30567925785E+03 -0.45687031965E+03  0.20235191822E+03  0.58578040806E+03  0.46999998093E+01 0.  1.
</event>
<event>
 5   0  0.1603564E-04  0.1798175E+04  0.7818609E-02  0.8707270E-01
       -2   -1    0    0    0  501  0.00000000000E+00  0.00000000000E+00  0.76739608474E+03  0.76739608475E+03  0.25500000920E-02 0.  1.
        2   -1    0    0  501    0  0.00000000000E+00  0.00000000000E+00 -0.10533785780E+04  0.10533785780E+04  0.25500000920E-02 0. -1.
    10030    2    1    2    0    0  0.00000000000E+00  0.00000000000E+00 -0.28598249326E+03  0.18207746627E+04  0.17981752935E+04 0.  0.
        5    1    3    3  502    0  0.76725142837E+03 -0.42559487055E+03 -0.34175077309E+03  0.94160577158E+03  0.46999998093E+01 0.  1.
       -5    1    3    3    0  502 -0.76725142837E+03  0.42559487055E+03  0.55768279829E+02  0.87916889117E+03  0.46999998093E+01 0. -1.
</event>
<event>
 5   0  0.1573981E-04  0.1808991E+04  0.7818609E-02  0.8701533E-01
        2   -1    0    0  501    0  0.00000000000E+00  0.00000000000E+00  0.29795119684E+04  0.29795119684E+04  0.25500000920E-02 0. -1.
       -2   -1    0    0    0  501  0.00000000000E+00  0.00000000000E+00 -0.27457923952E+03  0.27457923953E+03  0.25500000920E-02 0.  1.
    10030    2    1    2    0    0  0.00000000000E+00  0.00000000000E+00  0.27049327289E+04  0.32540912079E+04  0.18089910231E+04 0.  0.
        1    1    3    3  502    0  0.54388871509E+03 -0.57627240207E+02  0.56579549030E+02  0.54985186970E+03  0.50400001928E-02 0.  1.
       -1    1    3    3    0  502 -0.54388871509E+03  0.57627240207E+02  0.26483531798E+04  0.27042393382E+04  0.50400001928E-02 0. -1.
</event>
<event>
 5   0  0.5820500E-05  0.1794018E+04  0.7818609E-02  0.8709487E-01
        3   -1    0    0  501    0  0.00000000000E+00  0.00000000000E+00  0.14252666063E+04  0.14252666099E+04  0.10100000352E+00 0. -1.
       -3   -1    0    0    0  501  0.00000000000E+00  0.00000000000E+00 -0.56454384975E+03  0.56454385878E+03  0.10100000352E+00 0.  1.
    10030    2    1    2    0    0  0.00000000000E+00  0.00000000000E+00  0.86072275658E+03  0.19898104687E+04  0.17940184050E+04 0.  0.
        1    1    3    3  502    0 -0.60569730078E+03  0.26936923606E+03 -0.23990606161E+03  0.70497086743E+03  0.50400001928E-02 0.  1.
       -1    1    3    3    0  502  0.60569730078E+03 -0.26936923606E+03  0.11006288182E+04  0.12848396013E+04  0.50400001928E-02 0. -1.
</event>
<event>
 5   0  0.8254914E-05  0.1786805E+04  0.7818609E-02  0.8713348E-01
       -1   -1    0    0    0  501  0.00000000000E+00  0.00000000000E+00  0.67464009521E+03  0.67464009523E+03  0.50400001928E-02 0.  1.
        1   -1    0    0  501    0  0.00000000000E+00  0.00000000000E+00 -0.11831019722E+04  0.11831019722E+04  0.50400001928E-02 0. -1.
    10030    2    1    2    0    0  0.00000000000E+00  0.00000000000E+00 -0.50846187696E+03  0.18577420674E+04  0.17868050002E+04 0.  0.
        4    1    3    3  502    0 -0.30988766937E+03 -0.53695960640E+03  0.41458863046E+03  0.74581588340E+03  0.12699999809E+01 0.  1.
       -4    1    3    3    0  502  0.30988766937E+03  0.53695960640E+03 -0.92305050742E+03  0.11119261840E+04  0.12699999809E+01 0. -1.
</event>
<event>
 5   0  0.1549012E-04  0.1830033E+04  0.7818609E-02  0.8690489E-01
       -2   -1    0    0    0  501  0.00000000000E+00  0.00000000000E+00  0.63761773062E+03  0.63761773062E+03  0.25500000920E-02 0. -1.
        2   -1    0    0  501    0  0.00000000000E+00  0.00000000000E+00 -0.13130991437E+04  0.13130991437E+04  0.25500000920E-02 0.  1.
    10030    2    1    2    0    0  0.00000000000E+00  0.00000000000E+00 -0.67548141312E+03  0.19507168744E+04  0.18300331102E+04 0.  0.
        4    1    3    3  502    0 -0.25783527784E+03 -0.86855471056E+03 -0.47419584358E+03  0.10226092248E+04  0.12699999809E+01 0.  1.
       -4    1    3    3    0  502  0.25783527784E+03  0.86855471056E+03 -0.20128556954E+03  0.92810764954E+03  0.12699999809E+01 0. -1.
</event>
<event>
 5   0  0.1573981E-04  0.1798138E+04  0.7818609E-02  0.8707290E-01
       -2   -1    0    0    0  501  0.00000000000E+00  0.00000000000E+00  0.83479688341E+03  0.83479688342E+03  0.25500000920E-02 0. -1.
        2   -1    0    0  501    0  0.00000000000E+00  0.00000000000E+00 -0.96828945871E+03  0.96828945871E+03  0.25500000920E-02 0.  1.
    10030    2    1    2    0    0  0.00000000000E+00  0.00000000000E+00 -0.13349257530E+03  0.18030863421E+04  0.17981379506E+04 0.  0.
        1    1    3    3  502    0  0.24011610224E+03  0.56850176117E+03  0.58886872687E+03  0.85300432151E+03  0.50400001928E-02 0. -1.
       -1    1    3    3    0  502 -0.24011610224E+03 -0.56850176117E+03 -0.72236130217E+03  0.95008202062E+03  0.50400001928E-02 0.  1.
</event>
<event>
 5   0  0.1603564E-04  0.1804352E+04  0.7818609E-02  0.8703989E-01
       -2   -1    0    0    0  501  0.00000000000E+00  0.00000000000E+00  0.90884507674E+03  0.90884507674E+03  0.25500000920E-02 0. -1.
        2   -1    0    0  501    0  0.00000000000E+00  0.00000000000E+00 -0.89555587305E+03  0.89555587305E+03  0.25500000920E-02 0.  1.
    10030    2    1    2    0    0  0.00000000000E+00  0.00000000000E+00  0.13289203690E+02  0.18044009498E+04  0.18043520124E+04 0.  0.
        5    1    3    3  502    0  0.43736443609E+03 -0.52953253807E+03 -0.57835596241E+03  0.89789201360E+03  0.46999998093E+01 0.  1.
       -5    1    3    3    0  502 -0.43736443609E+03  0.52953253807E+03  0.59164516610E+03  0.90650893619E+03  0.46999998093E+01 0. -1.
</event>
<event>
 5   0  0.1603564E-04  0.1808501E+04  0.7818609E-02  0.8701792E-01
       -2   -1    0    0    0  501  0.00000000000E+00  0.00000000000E+00  0.10852045548E+04  0.10852045548E+04  0.25500000920E-02 0.  1.
        2   -1    0    0  501    0  0.00000000000E+00  0.00000000000E+00 -0.75346999493E+03  0.75346999494E+03  0.25500000920E-02 0. -1.
    10030    2    1    2    0    0  0.00000000000E+00  0.00000000000E+00  0.33173455983E+03  0.18386745497E+04  0.18085011146E+04 0.  0.
        5    1    3    3  502    0  0.46771302697E+03 -0.77292021609E+03  0.12667750737E+03  0.91226663696E+03  0.46999998093E+01 0.  1.
       -5    1    3    3    0  502 -0.46771302697E+03  0.77292021609E+03  0.20505705246E+03  0.92640791274E+03  0.46999998093E+01 0. -1.
</event>
<event>
 5   0  0.1603564E-04  0.1798223E+04  0.7818609E-02  0.8707245E-01
        2   -1    0    0  501    0  0.00000000000E+00  0.00000000000E+00  0.16688718297E+04  0.16688718297E+04  0.25500000920E-02 0. -1.
       -2   -1    0    0    0  501  0.00000000000E+00  0.00000000000E+00 -0.48439992021E+03  0.48439992022E+03  0.25500000920E-02 0.  1.
    10030    2    1    2    0    0  0.00000000000E+00  0.00000000000E+00  0.11844719095E+04  0.21532717499E+04  0.17982228796E+04 0.  0.
        5    1    3    3  502    0  0.41794721704E+03 -0.27506188131E+03 -0.30228009049E+03  0.58458041182E+03  0.46999998093E+01 0.  1.
       -5    1    3    3    0  502 -0.41794721704E+03  0.27506188131E+03  0.14867519999E+04  0.15686913381E+04  0.46999998093E+01 0. -1.
</event>
<event>
 5   0  0.8430513E-05  0.1796660E+04  0.7818609E-02  0.8708078E-01
        1   -1    0    0  501    0  0.00000000000E+00  0.00000000000E+00  0.50286833922E+03  0.50286833924E+03  0.50400001928E-02 0.  1.
       -1   -1    0    0    0  501  0.00000000000E+00  0.00000000000E+00 -0.16047877497E+04  0.16047877497E+04  0.50400001928E-02 0. -1.
    10030    2    1    2    0    0  0.00000000000E+00  0.00000000000E+00 -0.11019194105E+04  0.21076560889E+04  0.17966601799E+04 0.  0.
        5    1    3    3  502    0  0.32046932833E+03 -0.63488913801E+03 -0.11947643671E+04  0.13904203648E+04  0.46999998093E+01 0. -1.
       -5    1    3    3    0  502 -0.32046932833E+03  0.63488913801E+03  0.92844956659E+02  0.71723572411E+03  0.46999998093E+01 0.  1.
</event>
<event>
 5   0  0.1573981E-04  0.1805621E+04  0.7818609E-02  0.8703316E-01
       -2   -1    0    0    0  501  0.00000000000E+00  0.00000000000E+00  0.83389373509E+03  0.83389373509E+03  0.25500000920E-02 0. -1.
        2   -1    0    0  501    0  0.00000000000E+00  0.00000000000E+00 -0.97742264136E+03  0.97742264137E+03  0.25500000920E-02 0.  1.
    10030    2    1    2    0    0  0.00000000000E+00  0.00000000000E+00 -0.14352890627E+03  0.18113163765E+04  0.18056207987E+04 0.  0.
        1    1    3    3  502    0  0.71999492046E+03 -0.54221480619E+03 -0.12366773741E+03  0.90977101011E+03  0.50400001928E-02 0. -1.
       -1    1    3    3    0  502 -0.71999492046E+03  0.54221480619E+03 -0.19861168867E+02  0.90154536635E+03  0.50400001928E-02 0.  1.
</event>
<event>
 5   0  0.8492114E-05  0.1788916E+04  0.7818609E-02  0.8712216E-01
        1   -1    0    0  501    0  0.00000000000E+00  0.00000000000E+00  0.13305518697E+04  0.13305518697E+04  0.50400001928E-02 0. -1.
       -1   -1    0    0    0  501  0.00000000000E+00  0.00000000000E+00 -0.60129544711E+03  0.60129544713E+03  0.50400001928E-02 0.  1.
    10030    2    1    2    0    0  0.00000000000E+00  0.00000000000E+00  0.72925642263E+03  0.19318473169E+04  0.17889156285E+04 0.  0.
        2    1    3    3  502    0 -0.46274761027E+03  0.97550627271E+02  0.11845004332E+04  0.12754186575E+04  0.25500000920E-02 0. -1.
       -2    1    3    3    0  502  0.46274761027E+03 -0.97550627271E+02 -0.45524401055E+03  0.65642865937E+03  0.25500000920E-02 0.  1.
</event>
<event>
 5   0  0.8492114E-05  0.1808261E+04  0.7818609E-02  0.8701918E-01
        1   -1    0    0  501    0  0.00000000000E+00  0.00000000000E+00  0.18377921799E+04  0.18377921799E+04  0.50400001928E-02 0. -1.
       -1   -1    0    0    0  501  0.00000000000E+00  0.00000000000E+00 -0.44480129509E+03  0.44480129511E+03  0.50400001928E-02 0.  1.
    10030    2    1    2    0    0  0.00000000000E+00  0.00000000000E+00  0.13929908848E+04  0.22825934750E+04  0.18082614211E+04 0.  0.
        2    1    3    3  502    0  0.90053162083E+02 -0.71023914703E+03  0.13935203404E+04  0.15666678516E+04  0.25500000920E-02 0. -1.
       -2    1    3    3    0  502 -0.90053162083E+02  0.71023914703E+03 -0.52945561535E+00  0.71592562344E+03  0.25500000920E-02 0.  1.
</event>
<event>
 5   0  0.8132598E-05  0.1798521E+04  0.7818609E-02  0.8707087E-01
        1   -1    0    0  501    0  0.00000000000E+00  0.00000000000E+00  0.24509532592E+04  0.24509532592E+04  0.50400001928E-02 0. -1.
       -1   -1    0    0    0  501  0.00000000000E+00  0.00000000000E+00 -0.32994065371E+03  0.32994065375E+03  0.50400001928E-02 0.  1.
    10030    2    1    2    0    0  0.00000000000E+00  0.00000000000E+00  0.21210126055E+04  0.27808939130E+04  0.17985206372E+04 0.  0.
        3    1    3    3  502    0  0.47514170848E+03 -0.41024655952E+03  0.20561121311E+04  0.21498044070E+04  0.10100000352E+00 0. -1.
       -3    1    3    3    0  502 -0.47514170848E+03  0.41024655952E+03  0.64900474441E+02  0.63108950595E+03  0.10100000352E+00 0.  1.
</event>
<event>
 5   0  0.1573981E-04  0.1798211E+04  0.7818609E-02  0.8707251E-01
       -2   -1    0    0    0  501  0.00000000000E+00  0.00000000000E+00  0.25475584594E+03  0.25475584595E+03  0.25500000920E-02 0.  1.
        2   -1    0    0  501    0  0.00000000000E+00  0.00000000000E+00 -0.31731994053E+04  0.31731994053E+04  0.25500000920E-02 0. -1.
    10030    2    1    2    0    0  0.00000000000E+00  0.00000000000E+00 -0.29184435594E+04  0.34279552513E+04  0.17982114435E+04 0.  0.
        1    1    3    3  502    0 -0.88104868962E+03 -0.14592688855E+03 -0.12606569983E+04  0.15449263793E+04  0.50400001928E-02 0. -1.
       -1    1    3    3    0  502  0.88104868962E+03  0.14592688855E+03 -0.16577865611E+04  0.18830288719E+04  0.50400001928E-02 0.  1.
</event>
<event>
 5   0  0.8254914E-05  0.1792892E+04  0.7818609E-02  0.8710089E-01
       -1   -1    0    0    0  501  0.00000000000E+00  0.00000000000E+00  0.56593357957E+03  0.56593357959E+03  0.50400001928E-02 0. -1.
        1   -1    0    0  501    0  0.00000000000E+00  0.00000000000E+00 -0.14199816375E+04  0.14199816375E+04  0.50400001928E-02 0.  1.
    10030    2    1    2    0    0  0.00000000000E+00  0.00000000000E+00 -0.85404805788E+03  0.19859152171E+04  0.17928918440E+04 0.  0.
        4    1    3    3  502    0 -0.40037834062E+02 -0.38215960688E+03  0.47008833364E+03  0.60715207948E+03  0.12699999809E+01 0. -1.
       -4    1    3    3    0  502  0.40037834062E+02  0.38215960688E+03 -0.13241363915E+04  0.13787631376E+04  0.12699999809E+01 0.  1.
</event>
<event>
 5   0  0.8254914E-05  0.1826370E+04  0.7818609E-02  0.8692400E-01
       -1   -1    0    0    0  501  0.00000000000E+00  0.00000000000E+00  0.68986358859E+03  0.68986358861E+03  0.50400001928E-02 0.  1.
        1   -1    0    0  501    0  0.00000000000E+00  0.00000000000E+00 -0.12088000481E+04  0.12088000481E+04  0.50400001928E-02 0. -1.
    10030    2    1    2    0    0  0.00000000000E+00  0.00000000000E+00 -0.51893645949E+03  0.18986636367E+04  0.18263703229E+04 0.  0.
        4    1    3    3  502    0  0.16650885621E+03  0.74973000517E+02 -0.11896246015E+04  0.12035590785E+04  0.12699999809E+01 0. -1.
       -4    1    3    3    0  502 -0.16650885621E+03 -0.74973000517E+02  0.67068814205E+03  0.69510455817E+03  0.12699999809E+01 0.  1.
</event>
<event>
 5   0  0.8430513E-05  0.1802597E+04  0.7818609E-02  0.8704920E-01
        1   -1    0    0  501    0  0.00000000000E+00  0.00000000000E+00  0.70960057076E+03  0.70960057078E+03  0.50400001928E-02 0. -1.
       -1   -1    0    0    0  501  0.00000000000E+00  0.00000000000E+00 -0.11447831165E+04  0.11447831166E+04  0.50400001928E-02 0.  1.
    10030    2    1    2    0    0  0.00000000000E+00  0.00000000000E+00 -0.43518254578E+03  0.18543836873E+04  0.18025967413E+04 0.  0.
        5    1    3    3  502    0  0.43685871454E+03  0.51643496472E+03 -0.83032536538E+03  0.10709868868E+04  0.46999998093E+01 0.  1.
       -5    1    3    3    0  502 -0.43685871454E+03 -0.51643496472E+03  0.39514281960E+03  0.78339680056E+03  0.46999998093E+01 0. -1.
</event>
<event>
 5   0  0.1608627E-04  0.1807866E+04  0.7818609E-02  0.8702128E-01
        2   -1    0    0  501    0  0.00000000000E+00  0.00000000000E+00  0.20310698680E+04  0.20310698680E+04  0.25500000920E-02 0.  1.
       -2   -1    0    0    0  501  0.00000000000E+00  0.00000000000E+00 -0.40229762998E+03  0.40229762999E+03  0.25500000920E-02 0. -1.
    10030    2    1    2    0    0  0.00000000000E+00  0.00000000000E+00  0.16287722381E+04  0.24333674980E+04  0.18078656966E+04 0.  0.
        2    1    3    3  502    0  0.53373423197E+03  0.69456733249E+03  0.51402062613E+03  0.10156343898E+04  0.25500000920E-02 0. -1.
       -2    1    3    3    0  502 -0.53373423197E+03 -0.69456733249E+03  0.11147516119E+04  0.14177331082E+04  0.25500000920E-02 0.  1.
</event>
<event>
 5   0  0.1549012E-04  0.1799434E+04  0.7818609E-02  0.8706600E-01
       -2   -1    0    0    0  501  0.00000000000E+00  0.00000000000E+00  0.65216818021E+03  0.65216818021E+03  0.25500000920E-02 0. -1.
        2   -1    0    0  501    0  0.00000000000E+00  0.00000000000E+00 -0.12412301330E+04  0.12412301330E+04  0.25500000920E-02 0.  1.
    10030    2    1    2    0    0  0.00000000000E+00  0.00000000000E+00 -0.58906195281E+03  0.18933983132E+04  0.17994341300E+04 0.  0.
        4    1    3    3  502    0  0.53431625850E+03 -0.42864598577E+03  0.31924539574E+03  0.75574498398E+03  0.12699999809E+01 0. -1.
       -4    1    3    3    0  502 -0.53431625850E+03  0.42864598577E+03 -0.90830734855E+03  0.11376533292E+04  0.12699999809E+01 0.  1.
</event>
<event>
 5   0  0.1603564E-04  0.1769297E+04  0.7818609E-02  0.8722800E-01
       -2   -1    0    0    0  501  0.00000000000E+00  0.00000000000E+00  0.53258356480E+03  0.53258356481E+03  0.25500000920E-02 0.  1.
        2   -1    0    0  501    0  0.00000000000E+00  0.00000000000E+00 -0.14694455185E+04  0.14694455186E+04  0.25500000920E-02 0. -1.
    10030    2    1    2    0    0  0.00000000000E+00  0.00000000000E+00 -0.93686195374E+03  0.20020290834E+04  0.17692965072E+04 0.  0.
        5    1    3    3  502    0 -0.40508102033E+03 -0.46943391118E+03  0.24553520175E+03  0.66690963053E+03  0.46999998093E+01 0.  1.
       -5    1    3    3    0  502  0.40508102033E+03  0.46943391118E+03 -0.11823971555E+04  0.13351194528E+04  0.46999998093E+01 0. -1.
</event>
<event>
 5   0  0.1628397E-04  0.1793660E+04  0.7818609E-02  0.8709679E-01
        2   -1    0    0  501    0  0.00000000000E+00  0.00000000000E+00  0.99206273072E+03  0.99206273072E+03  0.25500000920E-02 0. -1.
       -2   -1    0    0    0  501  0.00000000000E+00  0.00000000000E+00 -0.81073867963E+03  0.81073867963E+03  0.25500000920E-02 0.  1.
    10030    2    1    2    0    0  0.00000000000E+00  0.00000000000E+00  0.18132405109E+03  0.18028014104E+04  0.17936595311E+04 0.  0.
        3    1    3    3  502    0  0.30721527685E+03 -0.28680565379E+03  0.88695301978E+03  0.98149089597E+03  0.10100000352E+00 0. -1.
       -3    1    3    3    0  502 -0.30721527685E+03  0.28680565379E+03 -0.70562896869E+03  0.82131051438E+03  0.10100000352E+00 0.  1.
</event>
<event>
 5   0  0.1603564E-04  0.1796315E+04  0.7818609E-02  0.8708262E-01
       -2   -1    0    0    0  501  0.00000000000E+00  0.00000000000E+00  0.59407046470E+03  0.59407046471E+03  0.25500000920E-02 0. -1.
        2   -1    0    0  501    0  0.00000000000E+00  0.00000000000E+00 -0.13578972115E+04  0.13578972115E+04  0.25500000920E-02 0.  1.
    10030    2    1    2    0    0  0.00000000000E+00  0.00000000000E+00 -0.76382674676E+03  0.19519676762E+04  0.17963147023E+04 0.  0.
        5    1    3    3  502    0 -0.30038881205E+03  0.29860198138E+03 -0.12425439033E+04  0.13127581740E+04  0.46999998093E+01 0.  1.
       -5    1    3    3    0  502  0.30038881205E+03 -0.29860198138E+03  0.47871715657E+03  0.63920950218E+03  0.46999998093E+01 0. -1.
</event>
<event>
 5   0  0.1608627E-04  0.1791190E+04  0.7818609E-02  0.8710999E-01
        2   -1    0    0  501    0  0.00000000000E+00  0.00000000000E+00  0.24427602971E+04  0.24427602971E+04  0.25500000920E-02 0.  1.
       -2   -1    0    0    0  501  0.00000000000E+00  0.00000000000E+00 -0.32835398881E+03  0.32835398882E+03  0.25500000920E-02 0. -1.
    10030    2    1    2    0    0  0.00000000000E+00  0.00000000000E+00  0.21144063083E+04  0.27711142859E+04  0.17911896463E+04 0.  0.
        2    1    3    3  502    0  0.70461770407E+03 -0.43953755431E+03  0.15759037244E+04  0.17813343087E+04  0.25500000920E-02 0. -1.
       -2    1    3    3    0  502 -0.70461770407E+03  0.43953755431E+03  0.53850258383E+03  0.98977997723E+03  0.25500000920E-02 0.  1.
</event>
<event>
 5   0  0.8206783E-05  0.1805108E+04  0.7818609E-02  0.8703588E-01
        1   -1    0    0  501    0  0.00000000000E+00  0.00000000000E+00  0.14271017887E+04  0.14271017887E+04  0.50400001928E-02 0.  1.
       -1   -1    0    0    0  501  0.00000000000E+00  0.00000000000E+00 -0.57080961289E+03  0.57080961292E+03  0.50400001928E-02 0. -1.
    10030    2    1    2    0    0  0.00000000000E+00  0.00000000000E+00  0.85629217579E+03  0.19979114016E+04  0.18051076639E+04 0.  0.
        1    1    3    3  502    0 -0.36652215072E+03 -0.72809696145E+03 -0.71925866585E+00  0.81514672888E+03  0.50400001928E-02 0. -1.
       -1    1    3    3    0  502  0.36652215072E+03  0.72809696145E+03  0.85701143446E+03  0.11827646727E+04  0.50400001928E-02 0.  1.
</event>
<event>
 5   0  0.8254914E-05  0.1925773E+04  0.7818609E-02  0.8642133E-01
       -1   -1    0    0    0  501  0.00000000000E+00  0.00000000000E+00  0.56294199179E+03  0.56294199181E+03  0.50400001928E-02 0.  1.
        1   -1    0    0  501    0  0.00000000000E+00  0.00000000000E+00 -0.16469733288E+04  0.16469733288E+04  0.50400001928E-02 0. -1.
    10030    2    1    2    0    0  0.00000000000E+00  0.00000000000E+00 -0.10840313370E+04  0.22099153207E+04  0.19257730356E+04 0.  0.
        4    1    3    3  502    0 -0.19747544073E+03  0.21432918760E+03  0.51111458788E+03  0.58836492519E+03  0.12699999809E+01 0.  1.
       -4    1    3    3    0  502  0.19747544073E+03 -0.21432918760E+03 -0.15951459249E+04  0.16215503955E+04  0.12699999809E+01 0. -1.
</event>
<event>
 5   0  0.1549012E-04  0.1805984E+04  0.7818609E-02  0.8703124E-01
        2   -1    0    0  501    0  0.00000000000E+00  0.00000000000E+00  0.11156872301E+04  0.11156872301E+04  0.25500000920E-02 0.  1.
       -2   -1    0    0    0  501  0.00000000000E+00  0.00000000000E+00 -0.73084536518E+03  0.73084536518E+03  0.25500000920E-02 0. -1.
    10030    2    1    2    0    0  0.00000000000E+00  0.00000000000E+00  0.38484186492E+03  0.18465325953E+04  0.18059843201E+04 0.  0.
        4    1    3    3  502    0  0.44078590823E+03  0.58936913669E+03 -0.34253268181E+03  0.81177487470E+03  0.12699999809E+01 0. -1.
       -4    1    3    3    0  502 -0.44078590823E+03 -0.58936913669E+03  0.72737454673E+03  0.10347577206E+04  0.12699999809E+01 0.  1.
</event>
<event>
 5   0  0.1549012E-04  0.1828909E+04  0.7818609E-02  0.8691075E-01
        2   -1    0    0  501    0  0.00000000000E+00  0.00000000000E+00  0.80279089902E+03  0.80279089903E+03  0.25500000920E-02 0. -1.
       -2   -1    0    0    0  501  0.00000000000E+00  0.00000000000E+00 -0.10416500453E+04  0.10416500453E+04  0.25500000920E-02 0.  1.
    10030    2    1    2    0    0  0.00000000000E+00  0.00000000000E+00 -0.23885914623E+03  0.18444409443E+04  0.18289091572E+04 0.  0.
        4    1    3    3  502    0  0.37336552286E+03  0.74414071472E+03 -0.50089885890E+03  0.97162158102E+03  0.12699999809E+01 0.  1.
       -4    1    3    3    0  502 -0.37336552286E+03 -0.74414071472E+03  0.26203971267E+03  0.87281936326E+03  0.12699999809E+01 0. -1.
</event>
<event>
 5   0  0.8492114E-05  0.1804903E+04  0.7818609E-02  0.8703697E-01
        1   -1    0    0  501    0  0.00000000000E+00  0.00000000000E+00  0.77568406178E+03  0.77568406180E+03  0.50400001928E-02 0. -1.
       -1   -1    0    0    0  501  0.00000000000E+00  0.00000000000E+00 -0.10499359726E+04  0.10499359726E+04  0.50400001928E-02 0.  1.
    10030    2    1    2    0    0  0.00000000000E+00  0.00000000000E+00 -0.27425191082E+03  0.18256200344E+04  0.18049028781E+04 0.  0.
        2    1    3    3  502    0  0.54758500438E+03 -0.58642638637E+03 -0.55499424933E+03  0.97558385619E+03  0.25500000920E-02 0.  1.
       -2    1    3    3    0  502 -0.54758500438E+03  0.58642638637E+03  0.28074233851E+03  0.85003617823E+03  0.25500000920E-02 0. -1.
</event>
<event>
 5   0  0.8492114E-05  0.1805169E+04  0.7818609E-02  0.8703556E-01
       -1   -1    0    0    0  501  0.00000000000E+00  0.00000000000E+00  0.10330838313E+04  0.10330838313E+04  0.50400001928E-02 0. -1.
        1   -1    0    0  501    0  0.00000000000E+00  0.00000000000E+00 -0.78856967236E+03  0.78856967238E+03  0.50400001928E-02 0.  1.
    10030    2    1    2    0    0  0.00000000000E+00  0.00000000000E+00  0.24451415892E+03  0.18216535037E+04  0.18051687770E+04 0.  0.
        2    1    3    3  502    0 -0.20934924902E+03  0.25737050149E+03 -0.72480800729E+03  0.79712817699E+03  0.25500000920E-02 0.  1.
       -2    1    3    3    0  502  0.20934924902E+03 -0.25737050149E+03  0.96932216621E+03  0.10245253267E+04  0.25500000920E-02 0. -1.
</event>
<event>
 5   0  0.1608627E-04  0.1797189E+04  0.7818609E-02  0.8707796E-01
       -2   -1    0    0    0  501  0.00000000000E+00  0.00000000000E+00  0.10190372529E+04  0.10190372530E+04  0.25500000920E-02 0.  1.
        2   -1    0    0  501    0  0.00000000000E+00  0.00000000000E+00 -0.79238747622E+03  0.79238747622E+03  0.25500000920E-02 0. -1.
    10030    2    1    2    0    0  0.00000000000E+00  0.00000000000E+00  0.22664977673E+03  0.18114247292E+04  0.17971893134E+04 0.  0.
        2    1    3    3  502    0 -0.88324186850E+03  0.92069301446E+01 -0.53123698149E+02  0.88488592098E+03  0.25500000920E-02 0.  1.
       -2    1    3    3    0  502  0.88324186850E+03 -0.92069301446E+01  0.27977347488E+03  0.92653880819E+03  0.25500000920E-02 0. -1.
</event>
<event>
 5   0  0.1628397E-04  0.1807065E+04  0.7818609E-02  0.8702551E-01
        2   -1    0    0  501    0  0.00000000000E+00  0.00000000000E+00  0.15711638540E+04  0.15711638540E+04  0.25500000920E-02 0. -1.
       -2   -1    0    0    0  501  0.00000000000E+00  0.00000000000E+00 -0.51959644272E+03  0.51959644273E+03  0.25500000920E-02 0.  1.
    10030    2    1    2    0    0  0.00000000000E+00  0.00000000000E+00  0.10515674112E+04  0.20907602967E+04  0.18070651891E+04 0.  0.
        3    1    3    3  502    0  0.64791355133E+03 -0.40993253648E+03 -0.27319652983E+02  0.76719165018E+03  0.10100000352E+00 0.  1.
       -3    1    3    3    0  502 -0.64791355133E+03  0.40993253648E+03  0.10788870642E+04  0.13235686465E+04  0.10100000352E+00 0. -1.
</event>
<event>
 5   0  0.1608627E-04  0.1802449E+04  0.7818609E-02  0.8704998E-01
       -2   -1    0    0    0  501  0.00000000000E+00  0.00000000000E+00  0.44542434907E+03  0.44542434908E+03  0.25500000920E-02 0. -1.
        2   -1    0    0  501    0  0.00000000000E+00  0.00000000000E+00 -0.18234419835E+04  0.18234419835E+04  0.25500000920E-02 0.  1.
    10030    2    1    2    0    0  0.00000000000E+00  0.00000000000E+00 -0.13780176344E+04  0.22688663326E+04  0.18024488437E+04 0.  0.
        2    1    3    3  502    0  0.37500801347E+03 -0.77141312364E+03 -0.10371585055E+04  0.13458852042E+04  0.25500000920E-02 0.  1.
       -2    1    3    3    0  502 -0.37500801347E+03  0.77141312364E+03 -0.34085912896E+03  0.92298112835E+03  0.25500000920E-02 0. -1.
</event>
<event>
 5   0  0.1573981E-04  0.1803998E+04  0.7818609E-02  0.8704176E-01
       -2   -1    0    0    0  501  0.00000000000E+00  0.00000000000E+00  0.63266062050E+03  0.63266062050E+03  0.25500000920E-02 0.  1.
        2   -1    0    0  501    0  0.00000000000E+00  0.00000000000E+00 -0.12860013760E+04  0.12860013760E+04  0.25500000920E-02 0. -1.
    10030    2    1    2    0    0  0.00000000000E+00  0.00000000000E+00 -0.65334075552E+03  0.19186619965E+04  0.18039982578E+04 0.  0.
        1    1    3    3  502    0 -0.65588024561E+03 -0.61909768790E+03 -0.33932562425E+03  0.96364034942E+03  0.50400001928E-02 0.  1.
       -1    1    3    3    0  502  0.65588024561E+03  0.61909768790E+03 -0.31401513126E+03  0.95502164710E+03  0.50400001928E-02 0. -1.
</event>
<event>
 5   0  0.8430513E-05  0.1799404E+04  0.7818609E-02  0.8706617E-01
        1   -1    0    0  501    0  0.00000000000E+00  0.00000000000E+00  0.13559076463E+04  0.13559076464E+04  0.50400001928E-02 0.  1.
       -1   -1    0    0    0  501  0.00000000000E+00  0.00000000000E+00 -0.59699014786E+03  0.59699014788E+03  0.50400001928E-02 0. -1.
    10030    2    1    2    0    0  0.00000000000E+00  0.00000000000E+00  0.75891749849E+03  0.19528977942E+04  0.17994037972E+04 0.  0.
        5    1    3    3  502    0  0.11082744679E+02  0.13750271326E+03 -0.58543064541E+03  0.60148229730E+03  0.46999998093E+01 0. -1.
       -5    1    3    3    0  502 -0.11082744679E+02 -0.13750271326E+03  0.13443481439E+04  0.13514154969E+04  0.46999998093E+01 0.  1.
</event>
<event>
 5   0  0.1603564E-04  0.1784593E+04  0.7818609E-02  0.8714536E-01
        2   -1    0    0  501    0  0.00000000000E+00  0.00000000000E+00  0.19684246423E+04  0.19684246423E+04  0.25500000920E-02 0. -1.
       -2   -1    0    0    0  501  0.00000000000E+00  0.00000000000E+00 -0.40448234210E+03  0.40448234211E+03  0.25500000920E-02 0.  1.
    10030    2    1    2    0    0  0.00000000000E+00  0.00000000000E+00  0.15639423002E+04  0.23729069844E+04  0.17845929615E+04 0.  0.
        5    1    3    3  502    0 -0.11667823021E+03 -0.72329195198E+03  0.10474856668E+03  0.74010770123E+03  0.46999998093E+01 0.  1.
       -5    1    3    3    0  502  0.11667823021E+03  0.72329195198E+03  0.14591937335E+04  0.16327992831E+04  0.46999998093E+01 0. -1.
</event>
<event>
 5   0  0.1549012E-04  0.1802354E+04  0.7818609E-02  0.8705049E-01
        2   -1    0    0  501    0  0.00000000000E+00  0.00000000000E+00  0.15950751124E+04  0.15950751124E+04  0.25500000920E-02 0. -1.
       -2   -1    0    0    0  501  0.00000000000E+00  0.00000000000E+00 -0.50914221414E+03  0.50914221415E+03  0.25500000920E-02 0.  1.
    10030    2    1    2    0    0  0.00000000000E+00  0.00000000000E+00  0.10859328983E+04  0.21042173266E+04  0.18023540989E+04 0.  0.
        4    1    3    3  502    0  0.75575778495E+03  0.12924110446E+03 -0.98897902281E+01  0.76679365767E+03  0.12699999809E+01 0.  1.
       -4    1    3    3    0  502 -0.75575778495E+03 -0.12924110446E+03  0.10958226885E+04  0.13374236689E+04  0.12699999809E+01 0. -1.
</event>
<event>
 5   0  0.1608627E-04  0.1715919E+04  0.7818609E-02  0.8752337E-01
        2   -1    0    0  501    0  0.00000000000E+00  0.00000000000E+00  0.89439154141E+03  0.89439154141E+03  0.25500000920E-02 0.  1.
       -2   -1    0    0    0  501  0.00000000000E+00  0.00000000000E+00 -0.82301109531E+03  0.82301109531E+03  0.25500000920E-02 0. -1.
    10030    2    1    2    0    0  0.00000000000E+00  0.00000000000E+00  0.71380446095E+02  0.17174026367E+04  0.17159186020E+04 0.  0.
        2    1    3    3  502    0 -0.80605720625E+03 -0.69505883860E+02  0.32148030072E+03  0.87057961807E+03  0.25500000920E-02 0. -1.
       -2    1    3    3    0  502  0.80605720625E+03  0.69505883860E+02 -0.25009985462E+03  0.84682301866E+03  0.25500000920E-02 0.  1.
</event>
<event>
 5   0  0.8430513E-05  0.1807142E+04  0.7818609E-02  0.8702511E-01
       -1   -1    0    0    0  501  0.00000000000E+00  0.00000000000E+00  0.96824688917E+03  0.96824688918E+03  0.50400001928E-02 0.  1.
        1   -1    0    0  501    0  0.00000000000E+00  0.00000000000E+00 -0.84321488777E+03  0.84321488779E+03  0.50400001928E-02 0. -1.
    10030    2    1    2    0    0  0.00000000000E+00  0.00000000000E+00  0.12503200139E+03  0.18114617770E+04  0.18071416015E+04 0.  0.
        5    1    3    3  502    0 -0.42450528877E+03 -0.14997382216E+03 -0.72276042274E+03  0.85152898143E+03  0.46999998093E+01 0. -1.
       -5    1    3    3    0  502  0.42450528877E+03  0.14997382216E+03  0.84779242414E+03  0.95993279554E+03  0.46999998093E+01 0.  1.
</event>
<event>
 5   0  0.8430513E-05  0.1799130E+04  0.7818609E-02  0.8706762E-01
       -1   -1    0    0    0  501  0.00000000000E+00  0.00000000000E+00  0.10055194416E+04  0.10055194416E+04  0.50400001928E-02 0.  1.
        1   -1    0    0  501    0  0.00000000000E+00  0.00000000000E+00 -0.80477489944E+03  0.80477489946E+03  0.50400001928E-02 0. -1.
    10030    2    1    2    0    0  0.00000000000E+00  0.00000000000E+00  0.20074454219E+03  0.18102943411E+04  0.17991295757E+04 0.  0.
        5    1    3    3  502    0  0.79520628703E+03  0.41232959826E+03  0.17240068197E+02  0.89592859453E+03  0.46999998093E+01 0. -1.
       -5    1    3    3    0  502 -0.79520628703E+03 -0.41232959826E+03  0.18350447399E+03  0.91436574658E+03  0.46999998093E+01 0.  1.
</event>
<event>
 5   0  0.1573981E-04  0.1804285E+04  0.7818609E-02  0.8704024E-01
       -2   -1    0    0    0  501  0.00000000000E+00  0.00000000000E+00  0.12878337308E+04  0.12878337308E+04  0.25500000920E-02 0.  1.
        2   -1    0    0  501    0  0.00000000000E+00  0.00000000000E+00 -0.63196111765E+03  0.63196111766E+03  0.25500000920E-02 0. -1.
    10030    2    1    2    0    0  0.00000000000E+00  0.00000000000E+00  0.65587261311E+03  0.19197948484E+04  0.18042847268E+04 0.  0.
        1    1    3    3  502    0  0.20550275255E+03  0.86127296436E+03  0.14413986331E+03  0.89710579123E+03  0.50400001928E-02 0.  1.
       -1    1    3    3    0  502 -0.20550275255E+03 -0.86127296436E+03  0.51173274981E+03  0.10226890572E+04  0.50400001928E-02 0. -1.
</event>
<event>
 5   0  0.1603564E-04  0.1774275E+04  0.7818609E-02  0.8720100E-01
       -2   -1    0    0    0  501  0.00000000000E+00  0.00000000000E+00  0.40421207799E+03  0.40421207799E+03  0.25500000920E-02 0. -1.
        2   -1    0    0  501    0  0.00000000000E+00  0.00000000000E+00 -0.19470302050E+04  0.19470302050E+04  0.25500000920E-02 0.  1.
    10030    2    1    2    0    0  0.00000000000E+00  0.00000000000E+00 -0.15428181270E+04  0.23512422830E+04  0.17742752042E+04 0.  0.
        5    1    3    3  502    0 -0.38784869763E+01 -0.92541014930E+02 -0.19405885953E+04  0.19428034044E+04  0.46999998093E+01 0.  1.
       -5    1    3    3    0  502  0.38784869763E+01  0.92541014930E+02  0.39777046827E+03  0.40843887857E+03  0.46999998093E+01 0. -1.
</event>
<event>
 5   0  0.1603564E-04  0.1805961E+04  0.7818609E-02  0.8703136E-01
       -2   -1    0    0    0  501  0.00000000000E+00  0.00000000000E+00  0.10156021857E+04  0.10156021857E+04  0.25500000920E-02 0.  1.
        2   -1    0    0  501    0  0.00000000000E+00  0.00000000000E+00 -0.80284752542E+03  0.80284752543E+03  0.25500000920E-02 0. -1.
    10030    2    1    2    0    0  0.00000000000E+00  0.00000000000E+00  0.21275466024E+03  0.18184497111E+04  0.18059609094E+04 0.  0.
        5    1    3    3  502    0 -0.77657662298E+03  0.26915899967E+03  0.48290683984E+03  0.95327798906E+03  0.46999998093E+01 0.  1.
       -5    1    3    3    0  502  0.77657662298E+03 -0.26915899967E+03 -0.27015217960E+03  0.86517172203E+03  0.46999998093E+01 0. -1.
</event>
<event>
 5   0  0.8254914E-05  0.1801960E+04  0.7818609E-02  0.8705258E-01
        1   -1    0    0  501    0  0.00000000000E+00  0.00000000000E+00  0.12044821472E+04  0.12044821472E+04  0.50400001928E-02 0. -1.
       -1   -1    0    0    0  501  0.00000000000E+00  0.00000000000E+00 -0.67395325894E+03  0.67395325896E+03  0.50400001928E-02 0.  1.
    10030    2    1    2    0    0  0.00000000000E+00  0.00000000000E+00  0.53052888825E+03  0.18784354062E+04  0.18019596760E+04 0.  0.
        4    1    3    3  502    0 -0.57948297812E+03  0.51990077013E+01  0.98442398948E+03  0.11423308433E+04  0.12699999809E+01 0. -1.
       -4    1    3    3    0  502  0.57948297812E+03 -0.51990077013E+01 -0.45389510123E+03  0.73610456284E+03  0.12699999809E+01 0.  1.
</event>
<event>
 5   0  0.8254914E-05  0.1794735E+04  0.7818609E-02  0.8709104E-01
        1   -1    0    0  501    0  0.00000000000E+00  0.00000000000E+00  0.13833580743E+04  0.13833580743E+04  0.50400001928E-02 0.  1.
       -1   -1    0    0    0  501  0.00000000000E+00  0.00000000000E+00 -0.58211163961E+03  0.58211163963E+03  0.50400001928E-02 0. -1.
    10030    2    1    2    0    0  0.00000000000E+00  0.00000000000E+00  0.80124643468E+03  0.19654697139E+04  0.17947354533E+04 0.  0.
        4    1    3    3  502    0  0.33122711743E+03  0.64645059950E+03  0.97768268940E+03  0.12179798171E+04  0.12699999809E+01 0.  1.
       -4    1    3    3    0  502 -0.33122711743E+03 -0.64645059950E+03 -0.17643625472E+03  0.74748989678E+03  0.12699999809E+01 0. -1.
</event>
<event>
 5   0  0.8492114E-05  0.1824990E+04  0.7818609E-02  0.8693122E-01
       -1   -1    0    0    0  501  0.00000000000E+00  0.00000000000E+00  0.47123083087E+03  0.47123083090E+03  0.50400001928E-02 0. -1.
        1   -1    0    0  501    0  0.00000000000E+00  0.00000000000E+00 -0.17669628017E+04  0.17669628018E+04  0.50400001928E-02 0.  1.
    10030    2    1    2    0    0  0.00000000000E+00  0.00000000000E+00 -0.12957319709E+04  0.22381936327E+04  0.18249902457E+04 0.  0.
        2    1    3    3  502    0 -0.15941429899E+03 -0.26344564609E+03  0.40558784125E+03  0.50923277992E+03  0.25500000920E-02 0. -1.
       -2    1    3    3    0  502  0.15941429899E+03  0.26344564609E+03 -0.17013198121E+04  0.17289608527E+04  0.25500000920E-02 0.  1.
</event>
<event>
 5   0  0.1573981E-04  0.1728668E+04  0.7818609E-02  0.8745181E-01
        2   -1    0    0  501    0  0.00000000000E+00  0.00000000000E+00  0.11313155731E+04  0.11313155731E+04  0.25500000920E-02 0. -1.
       -2   -1    0    0    0  501  0.00000000000E+00  0.00000000000E+00 -0.66035821744E+03  0.66035821745E+03  0.25500000920E-02 0.  1.
    10030    2    1    2    0    0  0.00000000000E+00  0.00000000000E+00  0.47095735569E+03  0.17916737906E+04  0.17286683143E+04 0.  0.
        1    1    3    3  502    0 -0.56872565050E+03 -0.46290725162E+03  0.70969334541E+03  0.10204884290E+04  0.50400001928E-02 0. -1.
       -1    1    3    3    0  502  0.56872565050E+03  0.46290725162E+03 -0.23873598972E+03  0.77118536160E+03  0.50400001928E-02 0.  1.
</event>
<event>
 5   0  0.1603564E-04  0.1803683E+04  0.7818609E-02  0.8704343E-01
       -2   -1    0    0    0  501  0.00000000000E+00  0.00000000000E+00  0.11667600673E+04  0.11667600673E+04  0.25500000920E-02 0.  1.
        2   -1    0    0  501    0  0.00000000000E+00  0.00000000000E+00 -0.69707396745E+03  0.69707396746E+03  0.25500000920E-02 0. -1.
    10030    2    1    2    0    0  0.00000000000E+00  0.00000000000E+00  0.46968609989E+03  0.18638340348E+04  0.18036829757E+04 0.  0.
        5    1    3    3  502    0  0.86458981651E+03 -0.31036531372E+02 -0.28239497236E+02  0.86562022636E+03  0.46999998093E+01 0. -1.
       -5    1    3    3    0  502 -0.86458981651E+03  0.31036531372E+02  0.49792559713E+03  0.99821380844E+03  0.46999998093E+01 0.  1.
</event>
<event>
 5   0  0.1628397E-04  0.1794277E+04  0.7818609E-02  0.8709349E-01
       -2   -1    0    0    0  501  0.00000000000E+00  0.00000000000E+00  0.13094427823E+04  0.13094427823E+04  0.25500000920E-02 0.  1.
        2   -1    0    0  501    0  0.00000000000E+00  0.00000000000E+00 -0.61465652088E+03  0.61465652089E+03  0.25500000920E-02 0. -1.
    10030    2    1    2    0    0  0.00000000000E+00  0.00000000000E+00  0.69478626144E+03  0.19240993032E+04  0.17942770632E+04 0.  0.
        3    1    3    3  502    0  0.30328125045E+03 -0.54951896273E+03  0.10347934165E+04  0.12102677524E+04  0.10100000352E+00 0.  1.
       -3    1    3    3    0  502 -0.30328125045E+03  0.54951896273E+03 -0.34000715510E+03  0.71383155085E+03  0.10100000352E+00 0. -1.
</event>
<event>
 5   0  0.8254914E-05  0.1801958E+04  0.7818609E-02  0.8705259E-01
        1   -1    0    0  501    0  0.00000000000E+00  0.00000000000E+00  0.14943382389E+04  0.14943382389E+04  0.50400001928E-02 0. -1.
       -1   -1    0    0    0  501  0.00000000000E+00  0.00000000000E+00 -0.54322558248E+03  0.54322558250E+03  0.50400001928E-02 0.  1.
    10030    2    1    2    0    0  0.00000000000E+00  0.00000000000E+00  0.95111265643E+03  0.20375638214E+04  0.18019575581E+04 0.  0.
        4    1    3    3  502    0  0.60778924444E+03  0.62393324604E+03  0.73602355985E+03  0.11403651848E+04  0.12699999809E+01 0.  1.
       -4    1    3    3    0  502 -0.60778924444E+03 -0.62393324604E+03  0.21508909658E+03  0.89719863661E+03  0.12699999809E+01 0. -1.
</event>
<event>
 5   0  0.1573981E-04  0.1794079E+04  0.7818609E-02  0.8709454E-01
       -2   -1    0    0    0  501  0.00000000000E+00  0.00000000000E+00  0.39366577190E+03  0.39366577191E+03  0.25500000920E-02 0.  1.
        2   -1    0    0  501    0  0.00000000000E+00  0.00000000000E+00 -0.20440689191E+04  0.20440689191E+04  0.25500000920E-02 0. -1.
    10030    2    1    2    0    0  0.00000000000E+00  0.00000000000E+00 -0.16504031472E+04  0.24377346910E+04  0.17940791163E+04 0.  0.
        1    1    3    3  502    0  0.18631147436E+03 -0.75983348477E+03 -0.14215454338E+04  0.16226060244E+04  0.50400001928E-02 0. -1.
       -1    1    3    3    0  502 -0.18631147436E+03  0.75983348477E+03 -0.22885771333E+03  0.81512866655E+03  0.50400001928E-02 0.  1.
</event>
<event>
 5   0  0.8254914E-05  0.1809877E+04  0.7818609E-02  0.8701065E-01
       -1   -1    0    0    0  501  0.00000000000E+00  0.00000000000E+00  0.60555270443E+03  0.60555270445E+03  0.50400001928E-02 0.  1.
        1   -1    0    0  501    0  0.00000000000E+00  0.00000000000E+00 -0.13523407964E+04  0.13523407964E+04  0.50400001928E-02 0. -1.
    10030    2    1    2    0    0  0.00000000000E+00  0.00000000000E+00 -0.74678809197E+03  0.19578935009E+04  0.18098769313E+04 0.  0.
        4    1    3    3  502    0 -0.52785865521E+03 -0.17717275580E+03 -0.11450980039E+04  0.12732933664E+04  0.12699999809E+01 0. -1.
       -4    1    3    3    0  502  0.52785865521E+03  0.17717275580E+03  0.39830991198E+03  0.68460013450E+03  0.12699999809E+01 0.  1.
</event>
<event>
 5   0  0.1628397E-04  0.1800504E+04  0.7818609E-02  0.8706032E-01
        2   -1    0    0  501    0  0.00000000000E+00  0.00000000000E+00  0.12262173818E+04  0.12262173818E+04  0.25500000920E-02 0. -1.
       -2   -1    0    0    0  501  0.00000000000E+00  0.00000000000E+00 -0.66093778602E+03  0.66093778603E+03  0.25500000920E-02 0.  1.
    10030    2    1    2    0    0  0.00000000000E+00  0.00000000000E+00  0.56527959575E+03  0.18871551678E+04  0.18005037090E+04 0.  0.
        3    1    3    3  502    0 -0.26143833058E+03  0.82915708881E+03  0.52755600118E+03  0.10169399310E+04  0.10100000352E+00 0. -1.
       -3    1    3    3    0  502  0.26143833058E+03 -0.82915708881E+03  0.37723594565E+02  0.87021523683E+03  0.10100000352E+00 0.  1.
</event>
<event>
 5   0  0.1549012E-04  0.1798150E+04  0.7818609E-02  0.8707284E-01
        2   -1    0    0  501    0  0.00000000000E+00  0.00000000000E+00  0.10879162494E+04  0.10879162494E+04  0.25500000920E-02 0. -1.
       -2   -1    0    0    0  501  0.00000000000E+00  0.00000000000E+00 -0.74301334589E+03  0.74301334589E+03  0.25500000920E-02 0.  1.
    10030    2    1    2    0    0  0.00000000000E+00  0.00000000000E+00  0.34490290352E+03  0.18309295953E+04  0.17981504859E+04 0.  0.
        4    1    3    3  502    0  0.27729231025E+03 -0.25907673134E+03 -0.65746662109E+03  0.75912828218E+03  0.12699999809E+01 0.  1.
       -4    1    3    3    0  502 -0.27729231025E+03  0.25907673134E+03  0.10023695246E+04  0.10718013131E+04  0.12699999809E+01 0. -1.
</event>
<event>
 5   0  0.8206783E-05  0.1751018E+04  0.7818609E-02  0.8732790E-01
        1   -1    0    0  501    0  0.00000000000E+00  0.00000000000E+00  0.13805694838E+04  0.13805694838E+04  0.50400001928E-02 0.  1.
       -1   -1    0    0    0  501  0.00000000000E+00  0.00000000000E+00 -0.55521721680E+03  0.55521721682E+03  0.50400001928E-02 0. -1.
    10030    2    1    2    0    0  0.00000000000E+00  0.00000000000E+00  0.82535226702E+03  0.19357867006E+04  0.17510179284E+04 0.  0.
        1    1    3    3  502    0 -0.40586974762E+03  0.36808645787E+03  0.11675922733E+04  0.12897633927E+04  0.50400001928E-02 0.  1.
       -1    1    3    3    0  502  0.40586974762E+03 -0.36808645787E+03 -0.34224000626E+03  0.64602330795E+03  0.50400001928E-02 0. -1.
</event>
<event>
 5   0  0.1573981E-04  0.1799889E+04  0.7818609E-02  0.8706358E-01
       -2   -1    0    0    0  501  0.00000000000E+00  0.00000000000E+00  0.65999182366E+03  0.65999182366E+03  0.25500000920E-02 0. -1.
        2   -1    0    0  501    0  0.00000000000E+00  0.00000000000E+00 -0.12271368613E+04  0.12271368613E+04  0.25500000920E-02 0.  1.
    10030    2    1    2    0    0  0.00000000000E+00  0.00000000000E+00 -0.56714503760E+03  0.18871286849E+04  0.17998892132E+04 0.  0.
        1    1    3    3  502    0 -0.39180727068E+03 -0.75965190974E+03 -0.57885457553E+03  0.10323064375E+04  0.50400001928E-02 0.  1.
       -1    1    3    3    0  502  0.39180727068E+03  0.75965190974E+03  0.11709537933E+02  0.85482224739E+03  0.50400001928E-02 0. -1.
</event>
<event>
 5   0  0.8430513E-05  0.1790520E+04  0.7818609E-02  0.8711357E-01
       -1   -1    0    0    0  501  0.00000000000E+00  0.00000000000E+00  0.58690874217E+03  0.58690874219E+03  0.50400001928E-02 0.  1.
        1   -1    0    0  501    0  0.00000000000E+00  0.00000000000E+00 -0.13656128753E+04  0.13656128753E+04  0.50400001928E-02 0. -1.
    10030    2    1    2    0    0  0.00000000000E+00  0.00000000000E+00 -0.77870413314E+03  0.19525216175E+04  0.17905196284E+04 0.  0.
        5    1    3    3  502    0  0.88601633368E+03  0.59516381328E+02 -0.26549328634E+03  0.92686348417E+03  0.46999998093E+01 0. -1.
       -5    1    3    3    0  502 -0.88601633368E+03 -0.59516381328E+02 -0.51321084680E+03  0.10256581333E+04  0.46999998093E+01 0.  1.
</event>
<event>
 5   0  0.8430513E-05  0.1814206E+04  0.7818609E-02  0.8698781E-01
       -1   -1    0    0    0  501  0.00000000000E+00  0.00000000000E+00  0.77341588494E+03  0.77341588496E+03  0.50400001928E-02 0. -1.
        1   -1    0    0  501    0  0.00000000000E+00  0.00000000000E+00 -0.10638980912E+04  0.10638980912E+04  0.50400001928E-02 0.  1.
    10030    2    1    2    0    0  0.00000000000E+00  0.00000000000E+00 -0.29048220623E+03  0.18373139761E+04  0.18142058138E+04 0.  0.
        5    1    3    3  502    0  0.35860369131E+03  0.70790031312E+03 -0.59026298244E+03  0.98901564152E+03  0.46999998093E+01 0.  1.
       -5    1    3    3    0  502 -0.35860369131E+03 -0.70790031312E+03  0.29978077621E+03  0.84829833462E+03  0.46999998093E+01 0. -1.
</event>
<event>
 5   0  0.8206783E-05  0.1803072E+04  0.7818609E-02  0.8704667E-01
        1   -1    0    0  501    0  0.00000000000E+00  0.00000000000E+00  0.17790778993E+04  0.17790778993E+04  0.50400001928E-02 0.  1.
       -1   -1    0    0    0  501  0.00000000000E+00  0.00000000000E+00 -0.45684759022E+03  0.45684759025E+03  0.50400001928E-02 0. -1.
    10030    2    1    2    0    0  0.00000000000E+00  0.00000000000E+00  0.13222303090E+04  0.22359254895E+04  0.18030723237E+04 0.  0.
        1    1    3    3  502    0  0.24310874834E+03  0.41211965234E+03  0.16086272710E+04  0.16782807180E+04  0.50400001928E-02 0.  1.
       -1    1    3    3    0  502 -0.24310874834E+03 -0.41211965234E+03 -0.28639696196E+03  0.55764477153E+03  0.50400001928E-02 0. -1.
</event>
<event>
 5   0  0.8132598E-05  0.1812678E+04  0.7818609E-02  0.8699587E-01
       -1   -1    0    0    0  501  0.00000000000E+00  0.00000000000E+00  0.58782925178E+03  0.58782925180E+03  0.50400001928E-02 0. -1.
        1   -1    0    0  501    0  0.00000000000E+00  0.00000000000E+00 -0.13974295910E+04  0.13974295910E+04  0.50400001928E-02 0.  1.
    10030    2    1    2    0    0  0.00000000000E+00  0.00000000000E+00 -0.80960033923E+03  0.19852588428E+04  0.18126775675E+04 0.  0.
        3    1    3    3  502    0  0.30134490327E+03  0.43388799650E+03  0.40178343106E+03  0.66369984173E+03  0.10100000352E+00 0. -1.
       -3    1    3    3    0  502 -0.30134490327E+03 -0.43388799650E+03 -0.12113837703E+04  0.13215590011E+04  0.10100000352E+00 0.  1.
</event>
<event>
 5   0  0.8132598E-05  0.1739826E+04  0.7818609E-02  0.8738970E-01
       -1   -1    0    0    0  501  0.00000000000E+00  0.00000000000E+00  0.13002021716E+04  0.13002021716E+04  0.50400001928E-02 0. -1.
        1   -1    0    0  501    0  0.00000000000E+00  0.00000000000E+00 -0.58202395504E+03  0.58202395506E+03  0.50400001928E-02 0.  1.
    10030    2    1    2    0    0  0.00000000000E+00  0.00000000000E+00  0.71817821655E+03  0.18822261267E+04  0.17398262101E+04 0.  0.
        3    1    3    3  502    0 -0.60055082758E+03 -0.55991973713E+03  0.48206441617E+02  0.82249333113E+03  0.10100000352E+00 0.  1.
       -3    1    3    3    0  502  0.60055082758E+03  0.55991973713E+03  0.66997177493E+03  0.10597327955E+04  0.10100000352E+00 0. -1.
</event>
<event>
 5   0  0.8254914E-05  0.1793250E+04  0.7818609E-02  0.8709897E-01
        1   -1    0    0  501    0  0.00000000000E+00  0.00000000000E+00  0.15032729206E+04  0.15032729206E+04  0.50400001928E-02 0.  1.
       -1   -1    0    0    0  501  0.00000000000E+00  0.00000000000E+00 -0.53479064377E+03  0.53479064379E+03  0.50400001928E-02 0. -1.
    10030    2    1    2    0    0  0.00000000000E+00  0.00000000000E+00  0.96848227687E+03  0.20380635644E+04  0.17932498911E+04 0.  0.
        4    1    3    3  502    0  0.77761469045E+03  0.34865252219E+03  0.80102543356E+03  0.11695668199E+04  0.12699999809E+01 0.  1.
       -4    1    3    3    0  502 -0.77761469045E+03 -0.34865252219E+03  0.16745684331E+03  0.86849674456E+03  0.12699999809E+01 0. -1.
</event>
<event>
 5   0  0.8132598E-05  0.1803726E+04  0.7818609E-02  0.8704321E-01
       -1   -1    0    0    0  501  0.00000000000E+00  0.00000000000E+00  0.11341876242E+04  0.11341876243E+04  0.50400001928E-02 0.  1.
        1   -1    0    0  501    0  0.00000000000E+00  0.00000000000E+00 -0.71712706349E+03  0.71712706351E+03  0.50400001928E-02 0. -1.
    10030    2    1    2    0    0  0.00000000000E+00  0.00000000000E+00  0.41706056076E+03  0.18513146878E+04  0.18037257446E+04 0.  0.
        3    1    3    3  502    0 -0.50734331252E+03  0.63604468171E+03  0.60790639134E+03  0.10156280149E+04  0.10100000352E+00 0.  1.
       -3    1    3    3    0  502  0.50734331252E+03 -0.63604468171E+03 -0.19084583058E+03  0.83568667283E+03  0.10100000352E+00 0. -1.
</event>
<event>
 5   0  0.8206783E-05  0.1801881E+04  0.7818609E-02  0.8705300E-01
       -1   -1    0    0    0  501  0.00000000000E+00  0.00000000000E+00  0.85156818002E+03  0.85156818004E+03  0.50400001928E-02 0.  1.
        1   -1    0    0  501    0  0.00000000000E+00  0.00000000000E+00 -0.95317539183E+03  0.95317539184E+03  0.50400001928E-02 0. -1.
    10030    2    1    2    0    0  0.00000000000E+00  0.00000000000E+00 -0.10160721181E+03  0.18047435719E+04  0.18018810545E+04 0.  0.
        1    1    3    3  502    0 -0.49316759923E+03  0.25614332044E+03  0.65945632376E+03  0.86238409337E+03  0.50400001928E-02 0.  1.
       -1    1    3    3    0  502  0.49316759923E+03 -0.25614332044E+03 -0.76106353557E+03  0.94235947850E+03  0.50400001928E-02 0. -1.
</event>
<event>
 5   0  0.8430513E-05  0.1689669E+04  0.7818609E-02  0.8767279E-01
       -1   -1    0    0    0  501  0.00000000000E+00  0.00000000000E+00  0.74666921209E+03  0.74666921211E+03  0.50400001928E-02 0.  1.
        1   -1    0    0  501    0  0.00000000000E+00  0.00000000000E+00 -0.95590534018E+03  0.95590534020E+03  0.50400001928E-02 0. -1.
    10030    2    1    2    0    0  0.00000000000E+00  0.00000000000E+00 -0.20923612809E+03  0.17025745523E+04  0.16896687098E+04 0.  0.
        5    1    3    3  502    0  0.13949890265E+02  0.82643823946E+03  0.71439795782E+02  0.82965082866E+03  0.46999998093E+01 0.  1.
       -5    1    3    3    0  502 -0.13949890265E+02 -0.82643823946E+03 -0.28067592387E+03  0.87292372365E+03  0.46999998093E+01 0. -1.
</event>
<event>
 5   0  0.1628397E-04  0.1801652E+04  0.7818609E-02  0.8705422E-01
       -2   -1    0    0    0  501  0.00000000000E+00  0.00000000000E+00  0.93066289338E+03  0.93066289338E+03  0.25500000920E-02 0.  1.
        2   -1    0    0  501    0  0.00000000000E+00  0.00000000000E+00 -0.87194522656E+03  0.87194522656E+03  0.25500000920E-02 0. -1.
    10030    2    1    2    0    0  0.00000000000E+00  0.00000000000E+00  0.58717666822E+02  0.18026081199E+04  0.18016515395E+04 0.  0.
        3    1    3    3  502    0  0.42000457237E+03  0.75400326431E+03  0.28749250927E+03  0.90971243615E+03  0.10100000352E+00 0.  1.
       -3    1    3    3    0  502 -0.42000457237E+03 -0.75400326431E+03 -0.22877484244E+03  0.89289568379E+03  0.10100000352E+00 0. -1.
</event>
<event>
 5   0  0.1608627E-04  0.1796640E+04  0.7818609E-02  0.8708088E-01
        2   -1    0    0  501    0  0.00000000000E+00  0.00000000000E+00  0.11594528848E+04  0.11594528848E+04  0.25500000920E-02 0. -1.
       -2   -1    0    0    0  501  0.00000000000E+00  0.00000000000E+00 -0.69599987544E+03  0.69599987544E+03  0.25500000920E-02 0.  1.
    10030    2    1    2    0    0  0.00000000000E+00  0.00000000000E+00  0.46345300936E+03  0.18554527602E+04  0.17966402683E+04 0.  0.
        2    1    3    3  502    0  0.66197500527E+03  0.46697421977E+03 -0.16918642084E+03  0.82758677765E+03  0.25500000920E-02 0.  1.
       -2    1    3    3    0  502 -0.66197500527E+03 -0.46697421977E+03  0.63263943020E+03  0.10278659826E+04  0.25500000920E-02 0. -1.
</event>
<event>
 5   0  0.8430513E-05  0.1803816E+04  0.7818609E-02  0.8704273E-01
        1   -1    0    0  501    0  0.00000000000E+00  0.00000000000E+00  0.18542567194E+04  0.18542567194E+04  0.50400001928E-02 0.  1.
       -1   -1    0    0    0  501  0.00000000000E+00  0.00000000000E+00 -0.43868667679E+03  0.43868667682E+03  0.50400001928E-02 0. -1.
    10030    2    1    2    0    0  0.00000000000E+00  0.00000000000E+00  0.14155700426E+04  0.22929433962E+04  0.18038156427E+04 0.  0.
        5    1    3    3  502    0 -0.70722758966E+03  0.34565030110E+03  0.12673430933E+04  0.14919201052E+04  0.46999998093E+01 0.  1.
       -5    1    3    3    0  502  0.70722758966E+03 -0.34565030110E+03  0.14822694930E+03  0.80102329100E+03  0.46999998093E+01 0. -1.
</event>
<event>
 5   0  0.1628397E-04  0.1785303E+04  0.7818609E-02  0.8714154E-01
        2   -1    0    0  501    0  0.00000000000E+00  0.00000000000E+00  0.17658073792E+04  0.17658073792E+04  0.25500000920E-02 0. -1.
       -2   -1    0    0    0  501  0.00000000000E+00  0.00000000000E+00 -0.45125352955E+03  0.45125352956E+03  0.25500000920E-02 0.  1.
    10030    2    1    2    0    0  0.00000000000E+00  0.00000000000E+00  0.13145538496E+04  0.22170609087E+04  0.17853031254E+04 0.  0.
        3    1    3    3  502    0 -0.58695970530E+02  0.87070991914E+03  0.42413548158E+03  0.97029474758E+03  0.10100000352E+00 0.  1.
       -3    1    3    3    0  502  0.58695970530E+02 -0.87070991914E+03  0.89041836803E+03  0.12467661611E+04  0.10100000352E+00 0. -1.
</event>
<event>
 5   0  0.1573981E-04  0.1791988E+04  0.7818609E-02  0.8710572E-01
        2   -1    0    0  501    0  0.00000000000E+00  0.00000000000E+00  0.19258271167E+04  0.19258271167E+04  0.25500000920E-02 0.  1.
       -2   -1    0    0    0  501  0.00000000000E+00  0.00000000000E+00 -0.41686249643E+03  0.41686249644E+03  0.25500000920E-02 0. -1.
    10030    2    1    2    0    0  0.00000000000E+00  0.00000000000E+00  0.15089646202E+04  0.23426896131E+04  0.17919878343E+04 0.  0.
        1    1    3    3  502    0  0.22793988876E+03  0.80448332951E+03  0.11753784948E+04  0.14424509095E+04  0.50400001928E-02 0. -1.
       -1    1    3    3    0  502 -0.22793988876E+03 -0.80448332951E+03  0.33358612548E+03  0.90023870362E+03  0.50400001928E-02 0.  1.
</event>
<event>
 5   0  0.1549012E-04  0.1796737E+04  0.7818609E-02  0.8708037E-01
        2   -1    0    0  501    0  0.00000000000E+00  0.00000000000E+00  0.15274182363E+04  0.15274182363E+04  0.25500000920E-02 0.  1.
       -2   -1    0    0    0  501  0.00000000000E+00  0.00000000000E+00 -0.52838572614E+03  0.52838572615E+03  0.25500000920E-02 0. -1.
    10030    2    1    2    0    0  0.00000000000E+00  0.00000000000E+00  0.99903251017E+03  0.20558039625E+04  0.17967370358E+04 0.  0.
        4    1    3    3  502    0  0.53013099190E+02  0.10590023700E+03  0.15184465803E+04  0.15230583965E+04  0.12699999809E+01 0.  1.
       -4    1    3    3    0  502 -0.53013099190E+02 -0.10590023700E+03 -0.51941407016E+03  0.53274556597E+03  0.12699999809E+01 0. -1.
</event>
<event>
 5   0  0.1608627E-04  0.1794295E+04  0.7818609E-02  0.8709339E-01
       -2   -1    0    0    0  501  0.00000000000E+00  0.00000000000E+00  0.88790460138E+03  0.88790460139E+03  0.25500000920E-02 0. -1.
        2   -1    0    0  501    0  0.00000000000E+00  0.00000000000E+00 -0.90648694171E+03  0.90648694171E+03  0.25500000920E-02 0.  1.
    10030    2    1    2    0    0  0.00000000000E+00  0.00000000000E+00 -0.18582340330E+02  0.17943915431E+04  0.17942953231E+04 0.  0.
        2    1    3    3  502    0  0.27904377985E+03 -0.71985380530E+03  0.44770050505E+03  0.89246326215E+03  0.25500000920E-02 0. -1.
       -2    1    3    3    0  502 -0.27904377985E+03  0.71985380530E+03 -0.46628284538E+03  0.90192828095E+03  0.25500000920E-02 0.  1.
</event>
<event>
 5   0  0.8430513E-05  0.1882182E+04  0.7818609E-02  0.8663777E-01
        1   -1    0    0  501    0  0.00000000000E+00  0.00000000000E+00  0.14227721624E+04  0.14227721624E+04  0.50400001928E-02 0.  1.
       -1   -1    0    0    0  501  0.00000000000E+00  0.00000000000E+00 -0.62248326572E+03  0.62248326574E+03  0.50400001928E-02 0. -1.
    10030    2    1    2    0    0  0.00000000000E+00  0.00000000000E+00  0.80028889666E+03  0.20452554281E+04  0.18821815662E+04 0.  0.
        5    1    3    3  502    0  0.62442668372E+03 -0.43697310961E+03  0.10000406729E+04  0.12573613718E+04  0.46999998093E+01 0.  1.
       -5    1    3    3    0  502 -0.62442668372E+03  0.43697310961E+03 -0.19975177624E+03  0.78789405631E+03  0.46999998093E+01 0. -1.
</event>
<event>
 5   0  0.1608627E-04  0.1795641E+04  0.7818609E-02  0.8708621E-01
        2   -1    0    0  501    0  0.00000000000E+00  0.00000000000E+00  0.15629967799E+04  0.15629967799E+04  0.25500000920E-02 0. -1.
       -2   -1    0    0    0  501  0.00000000000E+00  0.00000000000E+00 -0.51572828614E+03  0.51572828615E+03  0.25500000920E-02 0.  1.
    10030    2    1    2    0    0  0.00000000000E+00  0.00000000000E+00  0.10472684938E+04  0.20787250661E+04  0.17956410004E+04 0.  0.
        2    1    3    3  502    0 -0.25830506044E+03 -0.80086384888E+03  0.88599415808E+03  0.12219206426E+04  0.25500000920E-02 0. -1.
       -2    1    3    3    0  502  0.25830506044E+03  0.80086384888E+03  0.16127433568E+03  0.85680442345E+03  0.25500000920E-02 0.  1.
</event>
<event>
 5   0  0.8430513E-05  0.1801087E+04  0.7818609E-02  0.8705722E-01
       -1   -1    0    0    0  501  0.00000000000E+00  0.00000000000E+00  0.85716531389E+03  0.85716531390E+03  0.50400001928E-02 0. -1.
        1   -1    0    0  501    0  0.00000000000E+00  0.00000000000E+00 -0.94611672100E+03  0.94611672102E+03  0.50400001928E-02 0.  1.
    10030    2    1    2    0    0  0.00000000000E+00  0.00000000000E+00 -0.88951407119E+02  0.18032820349E+04  0.18010868232E+04 0.  0.
        5    1    3    3  502    0 -0.57261009776E+03  0.42084706512E+03 -0.59828799379E+03  0.92895919706E+03  0.46999998093E+01 0.  1.
       -5    1    3    3    0  502  0.57261009776E+03 -0.42084706512E+03  0.50933658667E+03  0.87432283786E+03  0.46999998093E+01 0. -1.
</event>
<event>
 5   0  0.8254914E-05  0.1794598E+04  0.7818609E-02  0.8709177E-01
        1   -1    0    0  501    0  0.00000000000E+00  0.00000000000E+00  0.67070512651E+03  0.67070512652E+03  0.50400001928E-02 0. -1.
       -1   -1    0    0    0  501  0.00000000000E+00  0.00000000000E+00 -0.12004466182E+04  0.12004466182E+04  0.50400001928E-02 0.  1.
    10030    2    1    2    0    0  0.00000000000E+00  0.00000000000E+00 -0.52974149166E+03  0.18711517447E+04  0.17945982290E+04 0.  0.
        4    1    3    3  502    0  0.17617069343E+03 -0.72626850288E+03  0.25294508405E+03  0.78897710990E+03  0.12699999809E+01 0. -1.
       -4    1    3    3    0  502 -0.17617069343E+03  0.72626850288E+03 -0.78268657571E+03  0.10821746348E+04  0.12699999809E+01 0.  1.
</event>
<event>
 5   0  0.8492114E-05  0.1801906E+04  0.7818609E-02  0.8705287E-01
       -1   -1    0    0    0  501  0.00000000000E+00  0.00000000000E+00  0.10574701899E+04  0.10574701899E+04  0.50400001928E-02 0.  1.
        1   -1    0    0  501    0  0.00000000000E+00  0.00000000000E+00 -0.76760201757E+03  0.76760201758E+03  0.50400001928E-02 0. -1.
    10030    2    1    2    0    0  0.00000000000E+00  0.00000000000E+00  0.28986817236E+03  0.18250722075E+04  0.18019059369E+04 0.  0.
        2    1    3    3  502    0 -0.59882378617E+03  0.64002194385E+03 -0.66309609694E+02  0.87898519887E+03  0.25500000920E-02 0. -1.
       -2    1    3    3    0  502  0.59882378617E+03 -0.64002194385E+03  0.35617778205E+03  0.94608700865E+03  0.25500000920E-02 0.  1.
</event>
<event>
 5   0  0.8254914E-05  0.1794060E+04  0.7818609E-02  0.8709465E-01
       -1   -1    0    0    0  501  0.00000000000E+00  0.00000000000E+00  0.42797186651E+03  0.42797186654E+03  0.50400001928E-02 0.  1.
        1   -1    0    0  501    0  0.00000000000E+00  0.00000000000E+00 -0.18801758711E+04  0.18801758712E+04  0.50400001928E-02 0. -1.
    10030    2    1    2    0    0  0.00000000000E+00  0.00000000000E+00 -0.14522040046E+04  0.23081477377E+04  0.17940595051E+04 0.  0.
        4    1    3    3  502    0 -0.52155720011E+03 -0.13616914864E+03  0.19636155062E+03  0.57369279365E+03  0.12699999809E+01 0.  1.
       -4    1    3    3    0  502  0.52155720011E+03  0.13616914864E+03 -0.16485655553E+04  0.17344549440E+04  0.12699999809E+01 0. -1.
</event>
<event>
 5   0  0.1573981E-04  0.1801664E+04  0.7818609E-02  0.8705415E-01
       -2   -1    0    0    0  501  0.00000000000E+00  0.00000000000E+00  0.48095253834E+03  0.48095253835E+03  0.25500000920E-02 0.  1.
        2   -1    0    0  501    0  0.00000000000E+00  0.00000000000E+00 -0.16872729421E+04  0.16872729421E+04  0.25500000920E-02 0. -1.
    10030    2    1    2    0    0  0.00000000000E+00  0.00000000000E+00 -0.12063204038E+04  0.21682254805E+04  0.18016639025E+04 0.  0.
        1    1    3    3  502    0 -0.40886963687E+03  0.32867372793E+03  0.27815957196E+03  0.59377903877E+03  0.50400001928E-02 0.  1.
       -1    1    3    3    0  502  0.40886963687E+03 -0.32867372793E+03 -0.14844799757E+04  0.15744464417E+04  0.50400001928E-02 0. -1.
</event>
<event>
 5   0  0.1549012E-04  0.1794929E+04  0.7818609E-02  0.8709001E-01
        2   -1    0    0  501    0  0.00000000000E+00  0.00000000000E+00  0.15839868839E+04  0.15839868839E+04  0.25500000920E-02 0. -1.
       -2   -1    0    0    0  501  0.00000000000E+00  0.00000000000E+00 -0.50849084815E+03  0.50849084816E+03  0.25500000920E-02 0.  1.
    10030    2    1    2    0    0  0.00000000000E+00  0.00000000000E+00  0.10754960357E+04  0.20924777320E+04  0.17949293402E+04 0.  0.
        4    1    3    3  502    0  0.25249963403E+03 -0.63694258687E+03 -0.13798666451E+03  0.69892335534E+03  0.12699999809E+01 0.  1.
       -4    1    3    3    0  502 -0.25249963403E+03  0.63694258687E+03  0.12134827002E+04  0.13935543767E+04  0.12699999809E+01 0. -1.
</event>
<event>
 5   0  0.8132598E-05  0.1789781E+04  0.7818609E-02  0.8711753E-01
       -1   -1    0    0    0  501  0.00000000000E+00  0.00000000000E+00  0.34617058850E+03  0.34617058854E+03  0.50400001928E-02 0.  1.
        1   -1    0    0  501    0  0.00000000000E+00  0.00000000000E+00 -0.23133951631E+04  0.23133951631E+04  0.50400001928E-02 0. -1.
    10030    2    1    2    0    0  0.00000000000E+00  0.00000000000E+00 -0.19672245746E+04  0.26595657516E+04  0.17897814002E+04 0.  0.
        3    1    3    3  502    0  0.57708422697E+03  0.64163939486E+03 -0.13355777550E+04  0.15901242933E+04  0.10100000352E+00 0. -1.
       -3    1    3    3    0  502 -0.57708422697E+03 -0.64163939486E+03 -0.63164681955E+03  0.10694414584E+04  0.10100000352E+00 0.  1.
</event>
<event>
 5   0  0.1628397E-04  0.1798279E+04  0.7818609E-02  0.8707215E-01
        2   -1    0    0  501    0  0.00000000000E+00  0.00000000000E+00  0.20116572913E+04  0.20116572913E+04  0.25500000920E-02 0.  1.
       -2   -1    0    0    0  501  0.00000000000E+00  0.00000000000E+00 -0.40188335798E+03  0.40188335799E+03  0.25500000920E-02 0. -1.
    10030    2    1    2    0    0  0.00000000000E+00  0.00000000000E+00  0.16097739333E+04  0.24135406493E+04  0.17982787185E+04 0.  0.
        3    1    3    3  502    0  0.21181693958E+03 -0.48900013380E+03 -0.16708886672E+03  0.55848567245E+03  0.10100000352E+00 0. -1.
       -3    1    3    3    0  502 -0.21181693958E+03  0.48900013380E+03  0.17768628000E+04  0.18550549769E+04  0.10100000352E+00 0.  1.
</event>
<event>
 5   0  0.8132598E-05  0.1817891E+04  0.7818609E-02  0.8696843E-01
        1   -1    0    0  501    0  0.00000000000E+00  0.00000000000E+00  0.31506080468E+04  0.31506080468E+04  0.50400001928E-02 0.  1.
       -1   -1    0    0    0  501  0.00000000000E+00  0.00000000000E+00 -0.26222946215E+03  0.26222946219E+03  0.50400001928E-02 0. -1.
    10030    2    1    2    0    0  0.00000000000E+00  0.00000000000E+00  0.28883785847E+04  0.34128375090E+04  0.18178913649E+04 0.  0.
        3    1    3    3  502    0 -0.69391692261E+03 -0.55857416130E+03  0.17834489339E+04  0.19935435534E+04  0.10100000352E+00 0.  1.
       -3    1    3    3    0  502  0.69391692261E+03  0.55857416130E+03  0.11049296507E+04  0.14192939556E+04  0.10100000352E+00 0. -1.
</event>
<event>
 5   0  0.8492114E-05  0.1797432E+04  0.7818609E-02  0.8707666E-01
       -1   -1    0    0    0  501  0.00000000000E+00  0.00000000000E+00  0.91381667191E+03  0.91381667193E+03  0.50400001928E-02 0. -1.
        1   -1    0    0  501    0  0.00000000000E+00  0.00000000000E+00 -0.88386499204E+03  0.88386499206E+03  0.50400001928E-02 0.  1.
    10030    2    1    2    0    0  0.00000000000E+00  0.00000000000E+00  0.29951679869E+02  0.17976816640E+04  0.17974321300E+04 0.  0.
        2    1    3    3  502    0  0.54143150524E+03 -0.85016817231E+01 -0.70238952563E+03  0.88688860585E+03  0.25500000920E-02 0.  1.
       -2    1    3    3    0  502 -0.54143150524E+03  0.85016817231E+01  0.73234120550E+03  0.91079305813E+03  0.25500000920E-02 0. -1.
</event>
<event>
 5   0  0.1608627E-04  0.1812454E+04  0.7818609E-02  0.8699704E-01
        2   -1    0    0  501    0  0.00000000000E+00  0.00000000000E+00  0.19879854273E+04  0.19879854273E+04  0.25500000920E-02 0. -1.
       -2   -1    0    0    0  501  0.00000000000E+00  0.00000000000E+00 -0.41310547578E+03  0.41310547579E+03  0.25500000920E-02 0.  1.
    10030    2    1    2    0    0  0.00000000000E+00  0.00000000000E+00  0.15748799515E+04  0.24010909031E+04  0.18124543203E+04 0.  0.
        2    1    3    3  502    0  0.68539946344E+03  0.91956492005E+02  0.11548865693E+02  0.69163704153E+03  0.25500000920E-02 0.  1.
       -2    1    3    3    0  502 -0.68539946344E+03 -0.91956492005E+02  0.15633310858E+04  0.17094538615E+04  0.25500000920E-02 0. -1.
</event>
<event>
 5   0  0.5820500E-05  0.1793546E+04  0.7818609E-02  0.8709739E-01
       -3   -1    0    0    0  501  0.00000000000E+00  0.00000000000E+00  0.55576882825E+03  0.55576883743E+03  0.10100000352E+00 0.  1.
        3   -1    0    0  501    0  0.00000000000E+00  0.00000000000E+00 -0.14470071550E+04  0.14470071585E+04  0.10100000352E+00 0. -1.
    10030    2    1    2    0    0  0.00000000000E+00  0.00000000000E+00 -0.89123832674E+03  0.20027759959E+04  0.17935456322E+04 0.  0.
        4    1    3    3  502    0  0.83729566731E+03 -0.10114620557E+03 -0.78598044355E+03  0.11528492789E+04  0.12699999809E+01 0. -1.
       -4    1    3    3    0  502 -0.83729566731E+03  0.10114620557E+03 -0.10525788319E+03  0.84992671700E+03  0.12699999809E+01 0.  1.
</event>
<event>
 5   0  0.8206783E-05  0.1796085E+04  0.7818609E-02  0.8708384E-01
       -1   -1    0    0    0  501  0.00000000000E+00  0.00000000000E+00  0.56387094241E+03  0.56387094244E+03  0.50400001928E-02 0. -1.
        1   -1    0    0  501    0  0.00000000000E+00  0.00000000000E+00 -0.14302565778E+04  0.14302565778E+04  0.50400001928E-02 0.  1.
    10030    2    1    2    0    0  0.00000000000E+00  0.00000000000E+00 -0.86638563538E+03  0.19941275202E+04  0.17960847691E+04 0.  0.
        1    1    3    3  502    0  0.45447791254E+03  0.69221875122E+03 -0.47365195216E+02  0.82943380343E+03  0.50400001928E-02 0. -1.
       -1    1    3    3    0  502 -0.45447791254E+03 -0.69221875122E+03 -0.81902044016E+03  0.11646937168E+04  0.50400001928E-02 0.  1.
</event>
<event>
 5   0  0.1549012E-04  0.1772215E+04  0.7818609E-02  0.8721217E-01
        2   -1    0    0  501    0  0.00000000000E+00  0.00000000000E+00  0.11609559950E+04  0.11609559950E+04  0.25500000920E-02 0. -1.
       -2   -1    0    0    0  501  0.00000000000E+00  0.00000000000E+00 -0.67632721516E+03  0.67632721517E+03  0.25500000920E-02 0.  1.
    10030    2    1    2    0    0  0.00000000000E+00  0.00000000000E+00  0.48462877983E+03  0.18372832102E+04  0.17722145864E+04 0.  0.
        4    1    3    3  502    0 -0.87318495845E+03  0.39248006517E+02  0.91394231487E+02  0.87883268949E+03  0.12699999809E+01 0. -1.
       -4    1    3    3    0  502  0.87318495845E+03 -0.39248006517E+02  0.39323454834E+03  0.95845052068E+03  0.12699999809E+01 0.  1.
</event>
<event>
 5   0  0.8206783E-05  0.1801889E+04  0.7818609E-02  0.8705295E-01
        1   -1    0    0  501    0  0.00000000000E+00  0.00000000000E+00  0.71282767334E+03  0.71282767336E+03  0.50400001928E-02 0.  1.
       -1   -1    0    0    0  501  0.00000000000E+00  0.00000000000E+00 -0.11387060071E+04  0.11387060072E+04  0.50400001928E-02 0. -1.
    10030    2    1    2    0    0  0.00000000000E+00  0.00000000000E+00 -0.42587833380E+03  0.18515336805E+04  0.18018891794E+04 0.  0.
        1    1    3    3  502    0  0.44831478444E+03  0.11644900363E+03 -0.10069875100E+04  0.11084089325E+04  0.50400001928E-02 0. -1.
       -1    1    3    3    0  502 -0.44831478444E+03 -0.11644900363E+03  0.58110917619E+03  0.74312474799E+03  0.50400001928E-02 0.  1.
</event>
<event>
 5   0  0.1549012E-04  0.1799132E+04  0.7818609E-02  0.8706761E-01
       -2   -1    0    0    0  501  0.00000000000E+00  0.00000000000E+00  0.77245264994E+03  0.77245264994E+03  0.25500000920E-02 0.  1.
        2   -1    0    0  501    0  0.00000000000E+00  0.00000000000E+00 -0.10475970483E+04  0.10475970483E+04  0.25500000920E-02 0. -1.
    10030    2    1    2    0    0  0.00000000000E+00  0.00000000000E+00 -0.27514439839E+03  0.18200496983E+04  0.17991321419E+04 0.  0.
        4    1    3    3  502    0  0.19892629127E+03  0.69917348952E+00  0.74992196925E+03  0.77585870560E+03  0.12699999809E+01 0.  1.
       -4    1    3    3    0  502 -0.19892629127E+03 -0.69917348952E+00 -0.10250663676E+04  0.10441909927E+04  0.12699999809E+01 0. -1.
</event>
<event>
 5   0  0.1603564E-04  0.1787601E+04  0.7818609E-02  0.8712921E-01
       -2   -1    0    0    0  501  0.00000000000E+00  0.00000000000E+00  0.88094383790E+03  0.88094383790E+03  0.25500000920E-02 0.  1.
        2   -1    0    0  501    0  0.00000000000E+00  0.00000000000E+00 -0.90684495723E+03  0.90684495723E+03  0.25500000920E-02 0. -1.
    10030    2    1    2    0    0  0.00000000000E+00  0.00000000000E+00 -0.25901119330E+02  0.17877887951E+04  0.17876011602E+04 0.  0.
        5    1    3    3  502    0  0.40401356320E+03 -0.75237147209E+03 -0.27673494279E+03  0.89771605190E+03  0.46999998093E+01 0.  1.
       -5    1    3    3    0  502 -0.40401356320E+03  0.75237147209E+03  0.25083382346E+03  0.89007274324E+03  0.46999998093E+01 0. -1.
</event>
<event>
 5   0  0.8254914E-05  0.1814906E+04  0.7818609E-02  0.8698413E-01
       -1   -1    0    0    0  501  0.00000000000E+00  0.00000000000E+00  0.45300706461E+03  0.45300706464E+03  0.50400001928E-02 0.  1.
        1   -1    0    0  501    0  0.00000000000E+00  0.00000000000E+00 -0.18177880488E+04  0.18177880488E+04  0.50400001928E-02 0. -1.
    10030    2    1    2    0    0  0.00000000000E+00  0.00000000000E+00 -0.13647809842E+04  0.22707951134E+04  0.18149058688E+04 0.  0.
        4    1    3    3  502    0 -0.39378423838E+03  0.22529984656E+03 -0.16657054983E+04  0.17263842177E+04  0.12699999809E+01 0. -1.
       -4    1    3    3    0  502  0.39378423838E+03 -0.22529984656E+03  0.30092451413E+03  0.54441089570E+03  0.12699999809E+01 0.  1.
</event>
<event>
 5   0  0.1603564E-04  0.1794017E+04  0.7818609E-02  0.8709488E-01
        2   -1    0    0  501    0  0.00000000000E+00  0.00000000000E+00  0.10827901934E+04  0.10827901934E+04  0.25500000920E-02 0.  1.
       -2   -1    0    0    0  501  0.00000000000E+00  0.00000000000E+00 -0.74310241585E+03  0.74310241586E+03  0.25500000920E-02 0. -1.
    10030    2    1    2    0    0  0.00000000000E+00  0.00000000000E+00  0.33968777751E+03  0.18258926092E+04  0.17940167319E+04 0.  0.
        5    1    3    3  502    0  0.89326679949E+03  0.69953685733E+02  0.12687015001E+03  0.90495150046E+03  0.46999998093E+01 0. -1.
       -5    1    3    3    0  502 -0.89326679949E+03 -0.69953685733E+02  0.21281762750E+03  0.92094110876E+03  0.46999998093E+01 0.  1.
</event>
<event>
 5   0  0.8492114E-05  0.1800971E+04  0.7818609E-02  0.8705783E-01
        1   -1    0    0  501    0  0.00000000000E+00  0.00000000000E+00  0.46835959822E+03  0.46835959824E+03  0.50400001928E-02 0.  1.
       -1   -1    0    0    0  501  0.00000000000E+00  0.00000000000E+00 -0.17313075510E+04  0.17313075510E+04  0.50400001928E-02 0. -1.
    10030    2    1    2    0    0  0.00000000000E+00  0.00000000000E+00 -0.12629479528E+04  0.21996671492E+04  0.18009714146E+04 0.  0.
        2    1    3    3  502    0 -0.80929599054E+02  0.53091563955E+03  0.25134969133E+03  0.59295673001E+03  0.25500000920E-02 0.  1.
       -2    1    3    3    0  502  0.80929599054E+02 -0.53091563955E+03 -0.15142976441E+04  0.16067104192E+04  0.25500000920E-02 0. -1.
</event>
<event>
 5   0  0.1608627E-04  0.1797361E+04  0.7818609E-02  0.8707704E-01
       -2   -1    0    0    0  501  0.00000000000E+00  0.00000000000E+00  0.93893772569E+03  0.93893772569E+03  0.25500000920E-02 0. -1.
        2   -1    0    0  501    0  0.00000000000E+00  0.00000000000E+00 -0.86014923867E+03  0.86014923868E+03  0.25500000920E-02 0.  1.
    10030    2    1    2    0    0  0.00000000000E+00  0.00000000000E+00  0.78788487017E+02  0.17990869644E+04  0.17973609208E+04 0.  0.
        2    1    3    3  502    0  0.35701666898E+03  0.20033010380E+03  0.84018346864E+03  0.93461292169E+03  0.25500000920E-02 0. -1.
       -2    1    3    3    0  502 -0.35701666898E+03 -0.20033010380E+03 -0.76139498162E+03  0.86447404268E+03  0.25500000920E-02 0.  1.
</event>
<event>
 5   0  0.8430513E-05  0.1801958E+04  0.7818609E-02  0.8705259E-01
        1   -1    0    0  501    0  0.00000000000E+00  0.00000000000E+00  0.17060796221E+04  0.17060796221E+04  0.50400001928E-02 0. -1.
       -1   -1    0    0    0  501  0.00000000000E+00  0.00000000000E+00 -0.47580593448E+03  0.47580593451E+03  0.50400001928E-02 0.  1.
    10030    2    1    2    0    0  0.00000000000E+00  0.00000000000E+00  0.12302736876E+04  0.21818855566E+04  0.18019576121E+04 0.  0.
        5    1    3    3  502    0  0.41083573868E+03  0.71016384931E+03  0.16431649450E+03  0.83674410509E+03  0.46999998093E+01 0.  1.
       -5    1    3    3    0  502 -0.41083573868E+03 -0.71016384931E+03  0.10659571931E+04  0.13451414515E+04  0.46999998093E+01 0. -1.
</event>
</LesHouchesEvents>
