<LesHouchesEvents version="3.0">
<header>
<!--
#*********************************************************************
#                                                                    *
#                        MadGraph5_aMC@NLO                           *
#                                                                    *
#                           Going Beyond                             *
#                                                                    *
#                   http://madgraph.hep.uiuc.edu                     *
#                   http://madgraph.phys.ucl.ac.be                   *
#                   http://amcatnlo.cern.ch                          *
#                                                                    *
#                     The MadGraph5_aMC@NLO team                     *
#                                                                    *
#....................................................................*
#                                                                    *
# This file contains all the information necessary to reproduce      *
# the events generated:                                              *
#                                                                    *
# 1. software version                                                *
# 2. proc_card          : code generation info including model       *
# 3. param_card         : model primary parameters in the LH format  *
# 4. run_card           : running parameters (collider and cuts)     *
# 5. pythia_card        : present only if pythia has been run        *
# 6. pgs_card           : present only if pgs has been run           *
# 7. delphes_cards      : present only if delphes has been run       *
#                                                                    *
#                                                                    *
#*********************************************************************
-->
<MGVersion>
#5.2.2.3
</MGVersion>
<MG5ProcCard>
#************************************************************
#*                     MadGraph5_aMC@NLO                    *
#*                                                          *
#*                *                       *                 *
#*                  *        * *        *                   *
#*                    * * * * 5 * * * *                     *
#*                  *        * *        *                   *
#*                *                       *                 *
#*                                                          *
#*                                                          *
#*         VERSION 2.2.3                 2015-02-10         *
#*                                                          *
#*    The MadGraph5_aMC@NLO Development Team - Find us at   *
#*    https://server06.fynu.ucl.ac.be/projects/madgraph     *
#*                                                          *
#************************************************************
#*                                                          *
#*               Command File for MadGraph5_aMC@NLO         *
#*                                                          *
#*     run as ./bin/mg5_aMC  filename                       *
#*                                                          *
#************************************************************
set group_subprocesses Auto
set ignore_six_quark_processes False
set loop_optimized_output True
set gauge unitary
set complex_mass_scheme False
import model sm
define p = g u c d s u~ c~ d~ s~
define j = g u c d s u~ c~ d~ s~
define l+ = e+ mu+
define l- = e- mu-
define vl = ve vm vt
define vl~ = ve~ vm~ vt~
import model Zprime_UFO
generate p p > zph, zph > j j
add process p p > zph, zph > b b~
output Dijet_signal
</MG5ProcCard>
<MGProcCard>
#*********************************************************************
#                        MadGraph/MadEvent                           *
#                   http://madgraph.hep.uiuc.edu                     *
#                                                                    *
#                          proc_card.dat                             *
#*********************************************************************
#                                                                    *
#            This Files is generated by MADGRAPH 5                   *
#                                                                    *
# WARNING: This Files is generated for MADEVENT (compatibility issue)*
#          This files is NOT a valid MG4 proc_card.dat               *
#          Running this in MG4 will NEVER reproduce the result of MG5*
#                                                                    *
#*********************************************************************
#*********************************************************************
# Process(es) requested : mg2 input                                  *
#*********************************************************************
# Begin PROCESS # This is TAG. Do not modify this line
p p > zph , zph > j j           #Process
# Be carefull the coupling are here in MG5 convention
          
end_coup           # End the couplings input

done               # this tells MG there are no more procs
# End PROCESS  # This is TAG. Do not modify this line
#*********************************************************************
# Model information                                                  *
#*********************************************************************
# Begin MODEL  # This is TAG. Do not modify this line
Zprime_UFO
# End   MODEL  # This is TAG. Do not modify this line
#*********************************************************************
# Start multiparticle definitions                                    *
#*********************************************************************
# Begin MULTIPARTICLES # This is TAG. Do not modify this line

# End  MULTIPARTICLES # This is TAG. Do not modify this line
</MGProcCard>
<MGRunCard>
#*********************************************************************
#                       MadGraph5_aMC@NLO                            *
#                                                                    *
#                     run_card.dat MadEvent                          *
#                                                                    *
#  This file is used to set the parameters of the run.               *
#                                                                    *
#  Some notation/conventions:                                        *
#                                                                    *
#   Lines starting with a '# ' are info or comments                  *
#                                                                    *
#   mind the format:   value    = variable     ! comment             *
#*********************************************************************
#
#*******************                                                 
# Running parameters
#*******************                                                 
#                                                                    
#*********************************************************************
# Tag name for the run (one word)                                    *
#*********************************************************************
  tag_1     = run_tag ! name of the run 
#*********************************************************************
# Run to generate the grid pack                                      *
#*********************************************************************
  .false.     = gridpack  !True = setting up the grid pack
#*********************************************************************
# Number of events and rnd seed                                      *
# Warning: Do not generate more than 1M events in a single run       *
# If you want to run Pythia, avoid more than 50k events in a run.    *
#*********************************************************************
  2000 = nevents ! Number of unweighted events requested 
 2073 = iseed   ! rnd seed (0=assigned automatically=default))
#*********************************************************************
# Collider type and energy                                           *
# lpp: 0=No PDF, 1=proton, -1=antiproton, 2=photon from proton,      *
#                                         3=photon from electron     *
#*********************************************************************
        1     = lpp1    ! beam 1 type 
        1     = lpp2    ! beam 2 type
     4000     = ebeam1  ! beam 1 total energy in GeV
     4000     = ebeam2  ! beam 2 total energy in GeV
#*********************************************************************
# Beam polarization from -100 (left-handed) to 100 (right-handed)    *
#*********************************************************************
        0     = polbeam1 ! beam polarization for beam 1
        0     = polbeam2 ! beam polarization for beam 2
#*********************************************************************
# PDF CHOICE: this automatically fixes also alpha_s and its evol.    *
#*********************************************************************
 'nn23lo1'    = pdlabel     ! PDF set                                     
 230000    = lhaid     ! if pdlabel=lhapdf, this is the lhapdf number
#*********************************************************************
# Renormalization and factorization scales                           *
#*********************************************************************
 F        = fixed_ren_scale  ! if .true. use fixed ren scale
 F        = fixed_fac_scale  ! if .true. use fixed fac scale
 91.1880  = scale            ! fixed ren scale
 91.1880  = dsqrt_q2fact1    ! fixed fact scale for pdf1
 91.1880  = dsqrt_q2fact2    ! fixed fact scale for pdf2
 1        = scalefact        ! scale factor for event-by-event scales
#*********************************************************************
# Matching - Warning! ickkw > 1 is still beta
#*********************************************************************
 0        = ickkw            ! 0 no matching, 1 MLM, 2 CKKW matching
 1        = highestmult      ! for ickkw=2, highest mult group
 1        = ktscheme         ! for ickkw=1, 1 Durham kT, 2 Pythia pTE
 1        = alpsfact         ! scale factor for QCD emission vx
 F        = chcluster        ! cluster only according to channel diag
 T        = pdfwgt           ! for ickkw=1, perform pdf reweighting
 5        = asrwgtflavor     ! highest quark flavor for a_s reweight
 T        = clusinfo         ! include clustering tag in output
 3.0      = lhe_version       ! Change the way clustering information pass to shower.        
#*********************************************************************
#**********************************************************
#
#**********************************************************
# Automatic ptj and mjj cuts if xqcut > 0
# (turn off for VBF and single top processes)
#**********************************************************
   T  = auto_ptj_mjj  ! Automatic setting of ptj and mjj
#**********************************************************
#                                                                    
#**********************************
# BW cutoff (M+/-bwcutoff*Gamma)
#**********************************
  15  = bwcutoff      ! (M+/-bwcutoff*Gamma)
#**********************************************************
# Apply pt/E/eta/dr/mij cuts on decay products or not
# (note that etmiss/ptll/ptheavy/ht/sorted cuts always apply)
#**********************************************************
   T  = cut_decays    ! Cut decay products 
#*************************************************************
# Number of helicities to sum per event (0 = all helicities)
# 0 gives more stable result, but longer run time (needed for
# long decay chains e.g.).
# Use >=2 if most helicities contribute, e.g. pure QCD.
#*************************************************************
   0  = nhel          ! Number of helicities used per event
#*******************                                                 
# Standard Cuts
#*******************                                                 
#                                                                    
#*********************************************************************
# Minimum and maximum pt's (for max, -1 means no cut)                *
#*********************************************************************
 20  = ptj       ! minimum pt for the jets 
  0  = ptb       ! minimum pt for the b 
 10  = pta       ! minimum pt for the photons 
 10  = ptl       ! minimum pt for the charged leptons 
  0  = misset    ! minimum missing Et (sum of neutrino's momenta)
  0  = ptheavy   ! minimum pt for one heavy final state
 1.0 = ptonium   ! minimum pt for the quarkonium states
 -1  = ptjmax    ! maximum pt for the jets
 -1  = ptbmax    ! maximum pt for the b
 -1  = ptamax    ! maximum pt for the photons
 -1  = ptlmax    ! maximum pt for the charged leptons
 -1  = missetmax ! maximum missing Et (sum of neutrino's momenta)
#*********************************************************************
# Minimum and maximum E's (in the center of mass frame)              *
#*********************************************************************
  0  = ej     ! minimum E for the jets 
  0  = eb     ! minimum E for the b 
  0  = ea     ! minimum E for the photons 
  0  = el     ! minimum E for the charged leptons 
 -1   = ejmax ! maximum E for the jets
 -1   = ebmax ! maximum E for the b
 -1   = eamax ! maximum E for the photons
 -1   = elmax ! maximum E for the charged leptons
#*********************************************************************
# Maximum and minimum absolute rapidity (for max, -1 means no cut)   *
#*********************************************************************
   5  = etaj    ! max rap for the jets 
  -1  = etab    ! max rap for the b
 2.5  = etaa    ! max rap for the photons 
 2.5  = etal    ! max rap for the charged leptons 
 0.6  = etaonium ! max rap for the quarkonium states
   0  = etajmin ! min rap for the jets
   0  = etabmin ! min rap for the b
   0  = etaamin ! min rap for the photons
   0  = etalmin ! main rap for the charged leptons
#*********************************************************************
# Minimum and maximum DeltaR distance                                *
#*********************************************************************
 0.4 = drjj    ! min distance between jets 
 0   = drbb    ! min distance between b's 
 0.4 = drll    ! min distance between leptons 
 0.4 = draa    ! min distance between gammas 
 0   = drbj    ! min distance between b and jet 
 0.4 = draj    ! min distance between gamma and jet 
 0.4 = drjl    ! min distance between jet and lepton 
 0   = drab    ! min distance between gamma and b 
 0   = drbl    ! min distance between b and lepton 
 0.4 = dral    ! min distance between gamma and lepton 
 -1  = drjjmax ! max distance between jets
 -1  = drbbmax ! max distance between b's
 -1  = drllmax ! max distance between leptons
 -1  = draamax ! max distance between gammas
 -1  = drbjmax ! max distance between b and jet
 -1  = drajmax ! max distance between gamma and jet
 -1  = drjlmax ! max distance between jet and lepton
 -1  = drabmax ! max distance between gamma and b
 -1  = drblmax ! max distance between b and lepton
 -1  = dralmax ! maxdistance between gamma and lepton
#*********************************************************************
# Minimum and maximum invariant mass for pairs                       *
# WARNING: for four lepton final state mmll cut require to have      *
#          different lepton masses for each flavor!                  *           
#*********************************************************************
 0   = mmjj    ! min invariant mass of a jet pair 
 0   = mmbb    ! min invariant mass of a b pair 
 0   = mmaa    ! min invariant mass of gamma gamma pair
 0   = mmll    ! min invariant mass of l+l- (same flavour) lepton pair
 -1  = mmjjmax ! max invariant mass of a jet pair
 -1  = mmbbmax ! max invariant mass of a b pair
 -1  = mmaamax ! max invariant mass of gamma gamma pair
 -1  = mmllmax ! max invariant mass of l+l- (same flavour) lepton pair
#*********************************************************************
# Minimum and maximum invariant mass for all letpons                 *
#*********************************************************************
 0   = mmnl    ! min invariant mass for all letpons (l+- and vl) 
 -1  = mmnlmax ! max invariant mass for all letpons (l+- and vl) 
#*********************************************************************
# Minimum and maximum pt for 4-momenta sum of leptons                *
#*********************************************************************
 0   = ptllmin  ! Minimum pt for 4-momenta sum of leptons(l and vl)
 -1  = ptllmax  ! Maximum pt for 4-momenta sum of leptons(l and vl)
#*********************************************************************
# Inclusive cuts                                                     *
#*********************************************************************
 0  = xptj ! minimum pt for at least one jet  
 0  = xptb ! minimum pt for at least one b 
 0  = xpta ! minimum pt for at least one photon 
 0  = xptl ! minimum pt for at least one charged lepton 
#*********************************************************************
# Control the pt's of the jets sorted by pt                          *
#*********************************************************************
 0   = ptj1min ! minimum pt for the leading jet in pt
 0   = ptj2min ! minimum pt for the second jet in pt
 0   = ptj3min ! minimum pt for the third jet in pt
 0   = ptj4min ! minimum pt for the fourth jet in pt
 -1  = ptj1max ! maximum pt for the leading jet in pt 
 -1  = ptj2max ! maximum pt for the second jet in pt
 -1  = ptj3max ! maximum pt for the third jet in pt
 -1  = ptj4max ! maximum pt for the fourth jet in pt
 0   = cutuse  ! reject event if fails any (0) / all (1) jet pt cuts
#*********************************************************************
# Control the pt's of leptons sorted by pt                           *
#*********************************************************************
 0   = ptl1min ! minimum pt for the leading lepton in pt
 0   = ptl2min ! minimum pt for the second lepton in pt
 0   = ptl3min ! minimum pt for the third lepton in pt
 0   = ptl4min ! minimum pt for the fourth lepton in pt
 -1  = ptl1max ! maximum pt for the leading lepton in pt 
 -1  = ptl2max ! maximum pt for the second lepton in pt
 -1  = ptl3max ! maximum pt for the third lepton in pt
 -1  = ptl4max ! maximum pt for the fourth lepton in pt
#*********************************************************************
# Control the Ht(k)=Sum of k leading jets                            *
#*********************************************************************
 0   = htjmin ! minimum jet HT=Sum(jet pt)
 -1  = htjmax ! maximum jet HT=Sum(jet pt)
 0   = ihtmin  !inclusive Ht for all partons (including b)
 -1  = ihtmax  !inclusive Ht for all partons (including b)
 0   = ht2min ! minimum Ht for the two leading jets
 0   = ht3min ! minimum Ht for the three leading jets
 0   = ht4min ! minimum Ht for the four leading jets
 -1  = ht2max ! maximum Ht for the two leading jets
 -1  = ht3max ! maximum Ht for the three leading jets
 -1  = ht4max ! maximum Ht for the four leading jets
#***********************************************************************
# Photon-isolation cuts, according to hep-ph/9801442                   *
# When ptgmin=0, all the other parameters are ignored                  *
# When ptgmin>0, pta and draj are not going to be used                 *
#***********************************************************************
   0 = ptgmin ! Min photon transverse momentum
 0.4 = R0gamma ! Radius of isolation code
 1.0 = xn ! n parameter of eq.(3.4) in hep-ph/9801442
 1.0 = epsgamma ! epsilon_gamma parameter of eq.(3.4) in hep-ph/9801442
 .true. = isoEM ! isolate photons from EM energy (photons and leptons)
#*********************************************************************
# WBF cuts                                                           *
#*********************************************************************
 0   = xetamin ! minimum rapidity for two jets in the WBF case  
 0   = deltaeta ! minimum rapidity for two jets in the WBF case 
#*********************************************************************
# KT DURHAM CUT                                                      *
#*********************************************************************
 -1    =  ktdurham        
 0.4  =  dparameter 
#*********************************************************************
# maximal pdg code for quark to be considered as a light jet         *
# (otherwise b cuts are applied)                                     *
#*********************************************************************
 4 = maxjetflavor    ! Maximum jet pdg code
#*********************************************************************
# Jet measure cuts                                                   *
#*********************************************************************
 0   = xqcut   ! minimum kt jet measure between partons
#*********************************************************************
#
#*********************************************************************
# Store info for systematics studies                                 *
# WARNING: If use_syst is T, matched Pythia output is                *
#          meaningful ONLY if plotted taking matchscale              *
#          reweighting into account!                                 *
#*********************************************************************
   F  = use_syst      ! Enable systematics studies
#
#**************************************
# Parameter of the systematics study
#  will be used by SysCalc (if installed)
#**************************************                                  
#
0.5 1 2 = sys_scalefact  # factorization/renormalization scale factor
0.5 1 2 = sys_alpsfact  # \alpha_s emission scale factors
30 50 = sys_matchscale # variation of merging scale
# PDF sets and number of members (0 or none for all members).
CT10nlo.LHgrid = sys_pdf # matching scales
# MSTW2008nlo68cl.LHgrid 1  = sys_pdf
</MGRunCard>
<slha>
######################################################################
## PARAM_CARD AUTOMATICALY GENERATED BY MG5 FOLLOWING UFO MODEL   ####
######################################################################
##                                                                  ##
##  Width set on Auto will be computed following the information    ##
##        present in the decay.py files of the model.               ##
##        See  arXiv:1402.1178 for more details.                    ##
##                                                                  ##
######################################################################

###################################
## INFORMATION FOR CKMBLOCK
###################################
Block ckmblock 
    1 2.277360e-01 # cabi 

###################################
## INFORMATION FOR FRBLOCK
###################################
Block frblock 
    1 1.000000e+00 # gz 

###################################
## INFORMATION FOR MASS
###################################
Block mass 
    1 5.040000e-03 # MD 
    2 2.550000e-03 # MU 
    3 1.010000e-01 # MS 
    4 1.270000e+00 # MC 
    5 4.700000e+00 # MB 
    6 1.720000e+02 # MT 
   11 5.110000e-04 # Me 
   13 1.056600e-01 # MM 
   15 1.777000e+00 # MTA 
   23 9.118760e+01 # MZ 
   25 1.200000e+02 # MH 
  10030 3.600000e+03 # MZph 
  10031 3.000000e+02 # MZpl 
## Dependent parameters, given by model restrictions.
## Those values should be edited following the 
## analytical expression. MG5 ignores those values 
## but they are important for interfacing the output of MG5
## to external program such as Pythia.
  12 0.000000 # ve : 0.0 
  14 0.000000 # vm : 0.0 
  16 0.000000 # vt : 0.0 
  21 0.000000 # g : 0.0 
  22 0.000000 # a : 0.0 
  24 79.824360 # w+ : cmath.sqrt(MZ__exp__2/2. + cmath.sqrt(MZ__exp__4/4. - (aEW*cmath.pi*MZ__exp__2)/(Gf*sqrt__2))) 

###################################
## INFORMATION FOR SMINPUTS
###################################
Block sminputs 
    1 1.279000e+02 # aEWM1 
    2 1.166370e-05 # Gf 
    3 1.184000e-01 # aS 

###################################
## INFORMATION FOR YUKAWA
###################################
Block yukawa 
    1 5.040000e-03 # ymdo 
    2 2.550000e-03 # ymup 
    3 1.010000e-01 # yms 
    4 1.270000e+00 # ymc 
    5 4.700000e+00 # ymb 
    6 1.720000e+02 # ymt 
   11 5.110000e-04 # yme 
   13 1.056600e-01 # ymm 
   15 1.777000e+00 # ymtau 

###################################
## INFORMATION FOR DECAY
###################################
DECAY   6 1.508336e+00 # WT 
DECAY  23 2.495200e+00 # WZ 
DECAY  24 2.085000e+00 # WW 
DECAY  25 5.753088e-03 # WH 
## Dependent parameters, given by model restrictions.
## Those values should be edited following the 
## analytical expression. MG5 ignores those values 
## but they are important for interfacing the output of MG5
## to external program such as Pythia.
DECAY  1 0.000000 # d : 0.0 
DECAY  2 0.000000 # u : 0.0 
DECAY  3 0.000000 # s : 0.0 
DECAY  4 0.000000 # c : 0.0 
DECAY  5 0.000000 # b : 0.0 
DECAY  11 0.000000 # e- : 0.0 
DECAY  12 0.000000 # ve : 0.0 
DECAY  13 0.000000 # mu- : 0.0 
DECAY  14 0.000000 # vm : 0.0 
DECAY  15 0.000000 # ta- : 0.0 
DECAY  16 0.000000 # vt : 0.0 
DECAY  21 0.000000 # g : 0.0 
DECAY  22 0.000000 # a : 0.0 
DECAY  10030 0.308725 # zph : (gz__exp__2*MZph*(5 + cmath.sqrt(1 - (4*MT__exp__2)/MZph__exp__2)))/(144.*cmath.pi) 
DECAY  10031 0.132629 # zpl : (5*gz__exp__2*MZpl)/(144.*cmath.pi) 
#===========================================================
# QUANTUM NUMBERS OF NEW STATE(S) (NON SM PDG CODE)
#===========================================================

Block QNUMBERS 10030  # zph 
        1 0  # 3 times electric charge
        2 3  # number of spin states (2S+1)
        3 1  # colour rep (1: singlet, 3: triplet, 8: octet)
        4 0  # Particle/Antiparticle distinction (0=own anti)
Block QNUMBERS 10031  # zpl 
        1 0  # 3 times electric charge
        2 3  # number of spin states (2S+1)
        3 1  # colour rep (1: singlet, 3: triplet, 8: octet)
        4 0  # Particle/Antiparticle distinction (0=own anti)
</slha>
## END BANNER##
<MGGenerationInfo>
#  Number of Events        :         3878
#  Integrated weight (pb)  :  0.16690E-03
#  Max wgt                 :  0.68487E-07
#  Average wgt             :  0.43038E-07
</MGGenerationInfo>
</header>
<init>
     2212     2212  0.40000000000E+04  0.40000000000E+04 0 0  247000  247000 2   1
  0.16711103911E-03  0.42403550068E-06  0.68486610000E-07   0
</init>
<event>
 5   0  0.6848661E-07  0.3560064E+04  0.7818609E-02  0.8099701E-01
       -2   -1    0    0    0  501  0.00000000000E+00  0.00000000000E+00  0.15075061299E+04  0.15075061299E+04  0.25500000920E-02 0.  1.
        2   -1    0    0  501    0  0.00000000000E+00  0.00000000000E+00 -0.21018247623E+04  0.21018247623E+04  0.25500000920E-02 0. -1.
    10030    2    1    2    0    0  0.00000000000E+00  0.00000000000E+00 -0.59431863236E+03  0.36093308922E+04  0.35600638832E+04 0.  0.
        1    1    3    3  502    0  0.10537309574E+04  0.64376884068E+03  0.10026620781E+04  0.15906346198E+04  0.50400001928E-02 0.  1.
       -1    1    3    3    0  502 -0.10537309574E+04 -0.64376884068E+03 -0.15969807104E+04  0.20186962724E+04  0.50400001928E-02 0. -1.
</event>
<event>
 5   0  0.6848661E-07  0.3608152E+04  0.7818609E-02  0.8088627E-01
       -2   -1    0    0    0  501  0.00000000000E+00  0.00000000000E+00  0.13764535281E+04  0.13764535281E+04  0.25500000920E-02 0. -1.
        2   -1    0    0  501    0  0.00000000000E+00  0.00000000000E+00 -0.23645474129E+04  0.23645474129E+04  0.25500000920E-02 0.  1.
    10030    2    1    2    0    0  0.00000000000E+00  0.00000000000E+00 -0.98809388478E+03  0.37410009411E+04  0.36081516758E+04 0.  0.
        1    1    3    3  502    0  0.91227422079E+03  0.15435732924E+04 -0.70096152434E+03  0.19251518957E+04  0.50400001928E-02 0. -1.
       -1    1    3    3    0  502 -0.91227422079E+03 -0.15435732924E+04 -0.28713236044E+03  0.18158490453E+04  0.50400001928E-02 0.  1.
</event>
<event>
 5   0  0.6729577E-07  0.3613460E+04  0.7818609E-02  0.8087415E-01
        2   -1    0    0  501    0  0.00000000000E+00  0.00000000000E+00  0.16161530157E+04  0.16161530157E+04  0.25500000920E-02 0.  1.
       -2   -1    0    0    0  501  0.00000000000E+00  0.00000000000E+00 -0.20197803919E+04  0.20197803920E+04  0.25500000920E-02 0. -1.
    10030    2    1    2    0    0  0.00000000000E+00  0.00000000000E+00 -0.40362737621E+03  0.36359334077E+04  0.36134604863E+04 0.  0.
        3    1    3    3  502    0  0.58733791401E+03  0.11175033290E+04  0.10987006795E+04  0.16735957424E+04  0.10100000352E+00 0.  1.
       -3    1    3    3    0  502 -0.58733791401E+03 -0.11175033290E+04 -0.15023280557E+04  0.19623376653E+04  0.10100000352E+00 0. -1.
</event>
<event>
 5   0  0.6848661E-07  0.3672055E+04  0.7818609E-02  0.8074183E-01
        2   -1    0    0  501    0  0.00000000000E+00  0.00000000000E+00  0.22791833484E+04  0.22791833484E+04  0.25500000920E-02 0. -1.
       -2   -1    0    0    0  501  0.00000000000E+00  0.00000000000E+00 -0.14790369421E+04  0.14790369421E+04  0.25500000920E-02 0.  1.
    10030    2    1    2    0    0  0.00000000000E+00  0.00000000000E+00  0.80014640630E+03  0.37582202905E+04  0.36720546674E+04 0.  0.
        1    1    3    3  502    0 -0.11861203338E+03 -0.11511317906E+04 -0.10587949629E+04  0.15685088420E+04  0.50400001928E-02 0.  1.
       -1    1    3    3    0  502  0.11861203338E+03  0.11511317906E+04  0.18589413692E+04  0.21897114486E+04  0.50400001928E-02 0. -1.
</event>
<event>
 5   0  0.6729577E-07  0.3545873E+04  0.7818609E-02  0.8103004E-01
       -2   -1    0    0    0  501  0.00000000000E+00  0.00000000000E+00  0.12964871470E+04  0.12964871470E+04  0.25500000920E-02 0. -1.
        2   -1    0    0  501    0  0.00000000000E+00  0.00000000000E+00 -0.24244775070E+04  0.24244775070E+04  0.25500000920E-02 0.  1.
    10030    2    1    2    0    0  0.00000000000E+00  0.00000000000E+00 -0.11279903600E+04  0.37209646540E+04  0.35458730524E+04 0.  0.
        3    1    3    3  502    0  0.15501971055E+04 -0.40551390818E+03 -0.13602458901E+04  0.21018614339E+04  0.10100000352E+00 0.  1.
       -3    1    3    3    0  502 -0.15501971055E+04  0.40551390818E+03  0.23225553007E+03  0.16191032201E+04  0.10100000352E+00 0. -1.
</event>
<event>
 5   0  0.2193129E-07  0.3266568E+04  0.7818609E-02  0.8171455E-01
        1   -1    0    0  501    0  0.00000000000E+00  0.00000000000E+00  0.18797081633E+04  0.18797081633E+04  0.50400001928E-02 0.  1.
       -1   -1    0    0    0  501  0.00000000000E+00  0.00000000000E+00 -0.14191648998E+04  0.14191648998E+04  0.50400001928E-02 0. -1.
    10030    2    1    2    0    0  0.00000000000E+00  0.00000000000E+00  0.46054326354E+03  0.32988730631E+04  0.32665675240E+04 0.  0.
        1    1    3    3  502    0 -0.69303048647E+03 -0.11056254298E+04  0.12222882417E+04  0.17879282402E+04  0.50400001928E-02 0. -1.
       -1    1    3    3    0  502  0.69303048647E+03  0.11056254298E+04 -0.76174497816E+03  0.15109448229E+04  0.50400001928E-02 0.  1.
</event>
<event>
 5   0  0.2086250E-07  0.3591421E+04  0.7818609E-02  0.8092460E-01
       -1   -1    0    0    0  501  0.00000000000E+00  0.00000000000E+00  0.12689691252E+04  0.12689691252E+04  0.50400001928E-02 0. -1.
        1   -1    0    0  501    0  0.00000000000E+00  0.00000000000E+00 -0.25410984806E+04  0.25410984806E+04  0.50400001928E-02 0.  1.
    10030    2    1    2    0    0  0.00000000000E+00  0.00000000000E+00 -0.12721293554E+04  0.38100676058E+04  0.35914206191E+04 0.  0.
        3    1    3    3  502    0  0.33078781042E+03  0.15936966441E+04  0.16858768140E+03  0.16363714082E+04  0.10100000352E+00 0. -1.
       -3    1    3    3    0  502 -0.33078781042E+03 -0.15936966441E+04 -0.14407170368E+04  0.21736961976E+04  0.10100000352E+00 0.  1.
</event>
<event>
 5   0  0.6848661E-07  0.3588548E+04  0.7818609E-02  0.8093120E-01
       -2   -1    0    0    0  501  0.00000000000E+00  0.00000000000E+00  0.22946156236E+04  0.22946156236E+04  0.25500000920E-02 0. -1.
        2   -1    0    0  501    0  0.00000000000E+00  0.00000000000E+00 -0.14030321053E+04  0.14030321053E+04  0.25500000920E-02 0.  1.
    10030    2    1    2    0    0  0.00000000000E+00  0.00000000000E+00  0.89158351833E+03  0.36976477289E+04  0.35885481126E+04 0.  0.
        1    1    3    3  502    0  0.75626783920E+03  0.15398043483E+04  0.98759218069E+03  0.19794637635E+04  0.50400001928E-02 0. -1.
       -1    1    3    3    0  502 -0.75626783920E+03 -0.15398043483E+04 -0.96008662354E+02  0.17181839654E+04  0.50400001928E-02 0.  1.
</event>
<event>
 5   0  0.2086250E-07  0.3528680E+04  0.7818609E-02  0.8107027E-01
        1   -1    0    0  501    0  0.00000000000E+00  0.00000000000E+00  0.22496436480E+04  0.22496436480E+04  0.50400001928E-02 0.  1.
       -1   -1    0    0    0  501  0.00000000000E+00  0.00000000000E+00 -0.13837280219E+04  0.13837280219E+04  0.50400001928E-02 0. -1.
    10030    2    1    2    0    0  0.00000000000E+00  0.00000000000E+00  0.86591562606E+03  0.36333716699E+04  0.35286796143E+04 0.  0.
        2    1    3    3  502    0 -0.46045025007E+03 -0.70218617920E+03 -0.11647934269E+04  0.14359051467E+04  0.25500000920E-02 0. -1.
       -2    1    3    3    0  502  0.46045025007E+03  0.70218617920E+03  0.20307090529E+04  0.21974665232E+04  0.25500000920E-02 0.  1.
</event>
<event>
 5   0  0.6848661E-07  0.3231250E+04  0.7818609E-02  0.8180613E-01
        2   -1    0    0  501    0  0.00000000000E+00  0.00000000000E+00  0.16642832741E+04  0.16642832741E+04  0.25500000920E-02 0. -1.
       -2   -1    0    0    0  501  0.00000000000E+00  0.00000000000E+00 -0.15683891143E+04  0.15683891143E+04  0.25500000920E-02 0.  1.
    10030    2    1    2    0    0  0.00000000000E+00  0.00000000000E+00  0.95894159806E+02  0.32326723885E+04  0.32312497708E+04 0.  0.
        1    1    3    3  502    0 -0.26621614892E+03  0.14359908020E+04 -0.64322838604E+03  0.15958331297E+04  0.50400001928E-02 0. -1.
       -1    1    3    3    0  502  0.26621614892E+03 -0.14359908020E+04  0.73912254584E+03  0.16368392588E+04  0.50400001928E-02 0.  1.
</event>
<event>
 5   0  0.2086250E-07  0.3568118E+04  0.7818609E-02  0.8097834E-01
       -1   -1    0    0    0  501  0.00000000000E+00  0.00000000000E+00  0.13380121304E+04  0.13380121304E+04  0.50400001928E-02 0. -1.
        1   -1    0    0  501    0  0.00000000000E+00  0.00000000000E+00 -0.23788019107E+04  0.23788019107E+04  0.50400001928E-02 0.  1.
    10030    2    1    2    0    0  0.00000000000E+00  0.00000000000E+00 -0.10407897803E+04  0.37168140411E+04  0.35681176058E+04 0.  0.
        2    1    3    3  502    0  0.11968471373E+04 -0.12827433462E+04 -0.18286651069E+03  0.17638916415E+04  0.25500000920E-02 0.  1.
       -2    1    3    3    0  502 -0.11968471373E+04  0.12827433462E+04 -0.85792326962E+03  0.19529223996E+04  0.25500000920E-02 0. -1.
</event>
<event>
 5   0  0.6669864E-07  0.3558831E+04  0.7818609E-02  0.8099988E-01
       -2   -1    0    0    0  501  0.00000000000E+00  0.00000000000E+00  0.20130534445E+04  0.20130534445E+04  0.25500000920E-02 0.  1.
        2   -1    0    0  501    0  0.00000000000E+00  0.00000000000E+00 -0.15728936327E+04  0.15728936327E+04  0.25500000920E-02 0. -1.
    10030    2    1    2    0    0  0.00000000000E+00  0.00000000000E+00  0.44015981173E+03  0.35859470772E+04  0.35588306760E+04 0.  0.
        5    1    3    3  502    0 -0.19023281012E+03  0.17669789635E+04  0.30960322894E+03  0.18039621472E+04  0.46999998093E+01 0.  1.
       -5    1    3    3    0  502  0.19023281012E+03 -0.17669789635E+04  0.13055658279E+03  0.17819849300E+04  0.46999998093E+01 0. -1.
</event>
<event>
 5   0  0.2108068E-07  0.2935785E+04  0.7818609E-02  0.8262309E-01
       -1   -1    0    0    0  501  0.00000000000E+00  0.00000000000E+00  0.16954240380E+04  0.16954240380E+04  0.50400001928E-02 0. -1.
        1   -1    0    0  501    0  0.00000000000E+00  0.00000000000E+00 -0.12708965033E+04  0.12708965034E+04  0.50400001928E-02 0.  1.
    10030    2    1    2    0    0  0.00000000000E+00  0.00000000000E+00  0.42452753464E+03  0.29663205413E+04  0.29357850613E+04 0.  0.
        5    1    3    3  502    0  0.95570906263E+03  0.83702802139E+03 -0.53070107138E+03  0.13768302140E+04  0.46999998093E+01 0.  1.
       -5    1    3    3    0  502 -0.95570906263E+03 -0.83702802139E+03  0.95522860603E+03  0.15894903274E+04  0.46999998093E+01 0. -1.
</event>
<event>
 5   0  0.2193129E-07  0.3566070E+04  0.7818609E-02  0.8098308E-01
       -1   -1    0    0    0  501  0.00000000000E+00  0.00000000000E+00  0.16669671682E+04  0.16669671682E+04  0.50400001928E-02 0.  1.
        1   -1    0    0  501    0  0.00000000000E+00  0.00000000000E+00 -0.19071840706E+04  0.19071840706E+04  0.50400001928E-02 0. -1.
    10030    2    1    2    0    0  0.00000000000E+00  0.00000000000E+00 -0.24021690236E+03  0.35741512388E+04  0.35660696737E+04 0.  0.
        1    1    3    3  502    0 -0.10234429099E+04 -0.14482914912E+04  0.65323252399E+02  0.17746128481E+04  0.50400001928E-02 0.  1.
       -1    1    3    3    0  502  0.10234429099E+04  0.14482914912E+04 -0.30554015476E+03  0.17995383907E+04  0.50400001928E-02 0. -1.
</event>
<event>
 5   0  0.2086250E-07  0.3601587E+04  0.7818609E-02  0.8090128E-01
        1   -1    0    0  501    0  0.00000000000E+00  0.00000000000E+00  0.16977110917E+04  0.16977110918E+04  0.50400001928E-02 0. -1.
       -1   -1    0    0    0  501  0.00000000000E+00  0.00000000000E+00 -0.19101352613E+04  0.19101352613E+04  0.50400001928E-02 0.  1.
    10030    2    1    2    0    0  0.00000000000E+00  0.00000000000E+00 -0.21242416955E+03  0.36078463531E+04  0.36015873278E+04 0.  0.
        3    1    3    3  502    0  0.72898450274E+03 -0.59249636178E+03  0.14328131268E+04  0.17133078563E+04  0.10100000352E+00 0. -1.
       -3    1    3    3    0  502 -0.72898450274E+03  0.59249636178E+03 -0.16452372964E+04  0.18945384967E+04  0.10100000352E+00 0.  1.
</event>
<event>
 5   0  0.2086250E-07  0.3549614E+04  0.7818609E-02  0.8102132E-01
       -1   -1    0    0    0  501  0.00000000000E+00  0.00000000000E+00  0.12899103227E+04  0.12899103227E+04  0.50400001928E-02 0.  1.
        1   -1    0    0  501    0  0.00000000000E+00  0.00000000000E+00 -0.24419830088E+04  0.24419830088E+04  0.50400001928E-02 0. -1.
    10030    2    1    2    0    0  0.00000000000E+00  0.00000000000E+00 -0.11520726861E+04  0.37318933315E+04  0.35496135513E+04 0.  0.
        3    1    3    3  502    0  0.15122658052E+04 -0.34648298918E+03 -0.14822388077E+04  0.21457004033E+04  0.10100000352E+00 0. -1.
       -3    1    3    3    0  502 -0.15122658052E+04  0.34648298918E+03  0.33016612161E+03  0.15861929282E+04  0.10100000352E+00 0.  1.
</event>
<event>
 5   0  0.6848661E-07  0.3524164E+04  0.7818609E-02  0.8108087E-01
        2   -1    0    0  501    0  0.00000000000E+00  0.00000000000E+00  0.17564732999E+04  0.17564732999E+04  0.25500000920E-02 0.  1.
       -2   -1    0    0    0  501  0.00000000000E+00  0.00000000000E+00 -0.17677090948E+04  0.17677090948E+04  0.25500000920E-02 0. -1.
    10030    2    1    2    0    0  0.00000000000E+00  0.00000000000E+00 -0.11235794881E+02  0.35241823947E+04  0.35241644837E+04 0.  0.
        1    1    3    3  502    0  0.44351699258E+03 -0.17017835761E+04 -0.11588705891E+03  0.17624427574E+04  0.50400001928E-02 0.  1.
       -1    1    3    3    0  502 -0.44351699258E+03  0.17017835761E+04  0.10465126403E+03  0.17617396373E+04  0.50400001928E-02 0. -1.
</event>
<event>
 5   0  0.2086250E-07  0.3620340E+04  0.7818609E-02  0.8085849E-01
       -1   -1    0    0    0  501  0.00000000000E+00  0.00000000000E+00  0.17268552246E+04  0.17268552246E+04  0.50400001928E-02 0. -1.
        1   -1    0    0  501    0  0.00000000000E+00  0.00000000000E+00 -0.18975039193E+04  0.18975039193E+04  0.50400001928E-02 0.  1.
    10030    2    1    2    0    0  0.00000000000E+00  0.00000000000E+00 -0.17064869468E+03  0.36243591439E+04  0.36203395182E+04 0.  0.
        4    1    3    3  502    0  0.11217665144E+03 -0.13543800031E+04 -0.12823877800E+04  0.18685418981E+04  0.12699999809E+01 0.  1.
       -4    1    3    3    0  502 -0.11217665144E+03  0.13543800031E+04  0.11117390853E+04  0.17558172458E+04  0.12699999809E+01 0. -1.
</event>
<event>
 5   0  0.2193129E-07  0.3559269E+04  0.7818609E-02  0.8099886E-01
        1   -1    0    0  501    0  0.00000000000E+00  0.00000000000E+00  0.23105922711E+04  0.23105922711E+04  0.50400001928E-02 0.  1.
       -1   -1    0    0    0  501  0.00000000000E+00  0.00000000000E+00 -0.13706873236E+04  0.13706873236E+04  0.50400001928E-02 0. -1.
    10030    2    1    2    0    0  0.00000000000E+00  0.00000000000E+00  0.93990494750E+03  0.36812795948E+04  0.35592693273E+04 0.  0.
        1    1    3    3  502    0 -0.60688448835E+03  0.12960255086E+04 -0.62419049785E+03  0.15612830232E+04  0.50400001928E-02 0. -1.
       -1    1    3    3    0  502  0.60688448835E+03 -0.12960255086E+04  0.15640954454E+04  0.21199965715E+04  0.50400001928E-02 0.  1.
</event>
<event>
 5   0  0.6324216E-07  0.3099071E+04  0.7818609E-02  0.8215993E-01
       -2   -1    0    0    0  501  0.00000000000E+00  0.00000000000E+00  0.87570847620E+03  0.87570847621E+03  0.25500000920E-02 0.  1.
        2   -1    0    0  501    0  0.00000000000E+00  0.00000000000E+00 -0.27418491121E+04  0.27418491121E+04  0.25500000920E-02 0. -1.
    10030    2    1    2    0    0  0.00000000000E+00  0.00000000000E+00 -0.18661406359E+04  0.36175575883E+04  0.30990711563E+04 0.  0.
        2    1    3    3  502    0  0.12974254606E+04 -0.84548003751E+03 -0.87008793865E+03  0.17762889237E+04  0.25500000920E-02 0.  1.
       -2    1    3    3    0  502 -0.12974254606E+04  0.84548003751E+03 -0.99605269727E+03  0.18412686646E+04  0.25500000920E-02 0. -1.
</event>
<event>
 5   0  0.2086250E-07  0.3607490E+04  0.7818609E-02  0.8088778E-01
        1   -1    0    0  501    0  0.00000000000E+00  0.00000000000E+00  0.20094023729E+04  0.20094023729E+04  0.50400001928E-02 0.  1.
       -1   -1    0    0    0  501  0.00000000000E+00  0.00000000000E+00 -0.16191362453E+04  0.16191362453E+04  0.50400001928E-02 0. -1.
    10030    2    1    2    0    0  0.00000000000E+00  0.00000000000E+00  0.39026612759E+03  0.36285386182E+04  0.36074901044E+04 0.  0.
        3    1    3    3  502    0  0.20543000371E+03 -0.97131329446E+03 -0.13195902317E+04  0.16513538059E+04  0.10100000352E+00 0. -1.
       -3    1    3    3    0  502 -0.20543000371E+03  0.97131329446E+03  0.17098563593E+04  0.19771848123E+04  0.10100000352E+00 0.  1.
</event>
<event>
 5   0  0.6729577E-07  0.3622356E+04  0.7818609E-02  0.8085390E-01
        2   -1    0    0  501    0  0.00000000000E+00  0.00000000000E+00  0.26185553339E+04  0.26185553339E+04  0.25500000920E-02 0.  1.
       -2   -1    0    0    0  501  0.00000000000E+00  0.00000000000E+00 -0.12527384134E+04  0.12527384134E+04  0.25500000920E-02 0. -1.
    10030    2    1    2    0    0  0.00000000000E+00  0.00000000000E+00  0.13658169205E+04  0.38712937472E+04  0.36223555067E+04 0.  0.
        3    1    3    3  502    0  0.41817136211E+03 -0.19797653493E+03  0.25543341137E+04  0.25958976812E+04  0.10100000352E+00 0.  1.
       -3    1    3    3    0  502 -0.41817136211E+03  0.19797653493E+03 -0.11885171932E+04  0.12753960660E+04  0.10100000352E+00 0. -1.
</event>
<event>
 5   0  0.2193129E-07  0.3599449E+04  0.7818609E-02  0.8090618E-01
       -1   -1    0    0    0  501  0.00000000000E+00  0.00000000000E+00  0.17039014442E+04  0.17039014442E+04  0.50400001928E-02 0.  1.
        1   -1    0    0  501    0  0.00000000000E+00  0.00000000000E+00 -0.19009365997E+04  0.19009365997E+04  0.50400001928E-02 0. -1.
    10030    2    1    2    0    0  0.00000000000E+00  0.00000000000E+00 -0.19703515551E+03  0.36048380439E+04  0.35994491898E+04 0.  0.
        1    1    3    3  502    0  0.46570246794E+03 -0.16536133162E+04 -0.63569064392E+03  0.18317801131E+04  0.50400001928E-02 0. -1.
       -1    1    3    3    0  502 -0.46570246794E+03  0.16536133162E+04  0.43865548841E+03  0.17730579307E+04  0.50400001928E-02 0.  1.
</event>
<event>
 5   0  0.6324216E-07  0.3610080E+04  0.7818609E-02  0.8088187E-01
       -2   -1    0    0    0  501  0.00000000000E+00  0.00000000000E+00  0.17914033847E+04  0.17914033847E+04  0.25500000920E-02 0. -1.
        2   -1    0    0  501    0  0.00000000000E+00  0.00000000000E+00 -0.18187800900E+04  0.18187800900E+04  0.25500000920E-02 0.  1.
    10030    2    1    2    0    0  0.00000000000E+00  0.00000000000E+00 -0.27376705272E+02  0.36101834748E+04  0.36100796719E+04 0.  0.
        2    1    3    3  502    0  0.72270888745E+02  0.12728268446E+04  0.12641815367E+04  0.17954014079E+04  0.25500000920E-02 0. -1.
       -2    1    3    3    0  502 -0.72270888745E+02 -0.12728268446E+04 -0.12915582420E+04  0.18147820669E+04  0.25500000920E-02 0.  1.
</event>
<event>
 5   0  0.2086250E-07  0.3610097E+04  0.7818609E-02  0.8088183E-01
       -1   -1    0    0    0  501  0.00000000000E+00  0.00000000000E+00  0.18487693025E+04  0.18487693025E+04  0.50400001928E-02 0. -1.
        1   -1    0    0  501    0  0.00000000000E+00  0.00000000000E+00 -0.17623616707E+04  0.17623616707E+04  0.50400001928E-02 0.  1.
    10030    2    1    2    0    0  0.00000000000E+00  0.00000000000E+00  0.86407631764E+02  0.36111309732E+04  0.36100970384E+04 0.  0.
        2    1    3    3  502    0 -0.36601839311E+03 -0.18596981705E+03 -0.17150384676E+04  0.17634940267E+04  0.25500000920E-02 0.  1.
       -2    1    3    3    0  502  0.36601839311E+03  0.18596981705E+03  0.18014460994E+04  0.18476369464E+04  0.25500000920E-02 0. -1.
</event>
<event>
 5   0  0.6729577E-07  0.3578700E+04  0.7818609E-02  0.8095388E-01
       -2   -1    0    0    0  501  0.00000000000E+00  0.00000000000E+00  0.26566521374E+04  0.26566521374E+04  0.25500000920E-02 0.  1.
        2   -1    0    0  501    0  0.00000000000E+00  0.00000000000E+00 -0.12051909547E+04  0.12051909547E+04  0.25500000920E-02 0. -1.
    10030    2    1    2    0    0  0.00000000000E+00  0.00000000000E+00  0.14514611827E+04  0.38618430921E+04  0.35786998341E+04 0.  0.
        3    1    3    3  502    0  0.14729157788E+04 -0.10156496450E+04  0.69621667973E+03  0.19198288382E+04  0.10100000352E+00 0. -1.
       -3    1    3    3    0  502 -0.14729157788E+04  0.10156496450E+04  0.75524450295E+03  0.19420142539E+04  0.10100000352E+00 0.  1.
</event>
<event>
 5   0  0.6669864E-07  0.3111219E+04  0.7818609E-02  0.8212666E-01
       -2   -1    0    0    0  501  0.00000000000E+00  0.00000000000E+00  0.13257476049E+04  0.13257476049E+04  0.25500000920E-02 0.  1.
        2   -1    0    0  501    0  0.00000000000E+00  0.00000000000E+00 -0.18253260635E+04  0.18253260635E+04  0.25500000920E-02 0. -1.
    10030    2    1    2    0    0  0.00000000000E+00  0.00000000000E+00 -0.49957845864E+03  0.31510736684E+04  0.31112194759E+04 0.  0.
        5    1    3    3  502    0  0.53926018355E+03  0.84392490027E+03  0.95579008892E+03  0.13844015194E+04  0.46999998093E+01 0.  1.
       -5    1    3    3    0  502 -0.53926018355E+03 -0.84392490027E+03 -0.14553685476E+04  0.17666721490E+04  0.46999998093E+01 0. -1.
</event>
<event>
 5   0  0.2086250E-07  0.3560608E+04  0.7818609E-02  0.8099575E-01
       -1   -1    0    0    0  501  0.00000000000E+00  0.00000000000E+00  0.10844703474E+04  0.10844703474E+04  0.50400001928E-02 0. -1.
        1   -1    0    0  501    0  0.00000000000E+00  0.00000000000E+00 -0.29226084505E+04  0.29226084505E+04  0.50400001928E-02 0.  1.
    10030    2    1    2    0    0  0.00000000000E+00  0.00000000000E+00 -0.18381381031E+04  0.40070787979E+04  0.35606079266E+04 0.  0.
        2    1    3    3  502    0 -0.56343117461E+03  0.11126157932E+04 -0.23488541886E+04  0.26594143323E+04  0.25500000920E-02 0.  1.
       -2    1    3    3    0  502  0.56343117461E+03 -0.11126157932E+04  0.51071608554E+03  0.13476644656E+04  0.25500000920E-02 0. -1.
</event>
<event>
 5   0  0.6729577E-07  0.3379183E+04  0.7818609E-02  0.8143035E-01
       -2   -1    0    0    0  501  0.00000000000E+00  0.00000000000E+00  0.16705175898E+04  0.16705175898E+04  0.25500000920E-02 0. -1.
        2   -1    0    0  501    0  0.00000000000E+00  0.00000000000E+00 -0.17088828775E+04  0.17088828775E+04  0.25500000920E-02 0.  1.
    10030    2    1    2    0    0  0.00000000000E+00  0.00000000000E+00 -0.38365287666E+02  0.33794004673E+04  0.33791826856E+04 0.  0.
        3    1    3    3  502    0  0.12880453887E+04 -0.93440626950E+03  0.54878255885E+03  0.16832523005E+04  0.10100000352E+00 0.  1.
       -3    1    3    3    0  502 -0.12880453887E+04  0.93440626950E+03 -0.58714784652E+03  0.16961481668E+04  0.10100000352E+00 0. -1.
</event>
<event>
 5   0  0.6848661E-07  0.3575125E+04  0.7818609E-02  0.8096214E-01
       -2   -1    0    0    0  501  0.00000000000E+00  0.00000000000E+00  0.14420822146E+04  0.14420822146E+04  0.25500000920E-02 0.  1.
        2   -1    0    0  501    0  0.00000000000E+00  0.00000000000E+00 -0.22158091866E+04  0.22158091866E+04  0.25500000920E-02 0. -1.
    10030    2    1    2    0    0  0.00000000000E+00  0.00000000000E+00 -0.77372697194E+03  0.36578914012E+04  0.35751246238E+04 0.  0.
        1    1    3    3  502    0 -0.17299274516E+04  0.39464977132E+03 -0.16509314039E+03  0.17820362440E+04  0.50400001928E-02 0. -1.
       -1    1    3    3    0  502  0.17299274516E+04 -0.39464977132E+03 -0.60863383155E+03  0.18758551572E+04  0.50400001928E-02 0.  1.
</event>
<event>
 5   0  0.2108068E-07  0.3213684E+04  0.7818609E-02  0.8185213E-01
       -1   -1    0    0    0  501  0.00000000000E+00  0.00000000000E+00  0.17026318069E+04  0.17026318069E+04  0.50400001928E-02 0. -1.
        1   -1    0    0  501    0  0.00000000000E+00  0.00000000000E+00 -0.15164413558E+04  0.15164413558E+04  0.50400001928E-02 0.  1.
    10030    2    1    2    0    0  0.00000000000E+00  0.00000000000E+00  0.18619045105E+03  0.32190731627E+04  0.32136840452E+04 0.  0.
        5    1    3    3  502    0 -0.44728998543E+03  0.34627410725E+03 -0.14134032667E+04  0.15224010552E+04  0.46999998093E+01 0.  1.
       -5    1    3    3    0  502  0.44728998543E+03 -0.34627410725E+03  0.15995937178E+04  0.16966721075E+04  0.46999998093E+01 0. -1.
</event>
<event>
 5   0  0.6729577E-07  0.3663605E+04  0.7818609E-02  0.8076076E-01
       -2   -1    0    0    0  501  0.00000000000E+00  0.00000000000E+00  0.26088661912E+04  0.26088661912E+04  0.25500000920E-02 0.  1.
        2   -1    0    0  501    0  0.00000000000E+00  0.00000000000E+00 -0.12861909787E+04  0.12861909787E+04  0.25500000920E-02 0. -1.
    10030    2    1    2    0    0  0.00000000000E+00  0.00000000000E+00  0.13226752125E+04  0.38950571700E+04  0.36636048695E+04 0.  0.
        3    1    3    3  502    0 -0.87187095524E+03  0.11368563540E+04  0.18748956517E+04  0.23596260397E+04  0.10100000352E+00 0. -1.
       -3    1    3    3    0  502  0.87187095524E+03 -0.11368563540E+04 -0.55222043918E+03  0.15354311303E+04  0.10100000352E+00 0.  1.
</event>
<event>
 5   0  0.2086250E-07  0.3592235E+04  0.7818609E-02  0.8092273E-01
       -1   -1    0    0    0  501  0.00000000000E+00  0.00000000000E+00  0.14812815831E+04  0.14812815831E+04  0.50400001928E-02 0.  1.
        1   -1    0    0  501    0  0.00000000000E+00  0.00000000000E+00 -0.21778697720E+04  0.21778697720E+04  0.50400001928E-02 0. -1.
    10030    2    1    2    0    0  0.00000000000E+00  0.00000000000E+00 -0.69658818887E+03  0.36591513551E+04  0.35922351725E+04 0.  0.
        4    1    3    3  502    0 -0.12249669231E+03 -0.10216596949E+04  0.11512850688E+04  0.15441026178E+04  0.12699999809E+01 0.  1.
       -4    1    3    3    0  502  0.12249669231E+03  0.10216596949E+04 -0.18478732577E+04  0.21150487373E+04  0.12699999809E+01 0. -1.
</event>
<event>
 5   0  0.2193129E-07  0.3666838E+04  0.7818609E-02  0.8075351E-01
       -1   -1    0    0    0  501  0.00000000000E+00  0.00000000000E+00  0.11210830441E+04  0.11210830441E+04  0.50400001928E-02 0.  1.
        1   -1    0    0  501    0  0.00000000000E+00  0.00000000000E+00 -0.29983723893E+04  0.29983723893E+04  0.50400001928E-02 0. -1.
    10030    2    1    2    0    0  0.00000000000E+00  0.00000000000E+00 -0.18772893452E+04  0.41194554335E+04  0.36668375724E+04 0.  0.
        1    1    3    3  502    0 -0.97618166507E+03 -0.33999085808E+03  0.76249782823E+03  0.12844949844E+04  0.50400001928E-02 0.  1.
       -1    1    3    3    0  502  0.97618166507E+03  0.33999085808E+03 -0.26397871735E+04  0.28349604491E+04  0.50400001928E-02 0. -1.
</event>
<event>
 5   0  0.2086250E-07  0.3597919E+04  0.7818609E-02  0.8090969E-01
       -1   -1    0    0    0  501  0.00000000000E+00  0.00000000000E+00  0.25145685298E+04  0.25145685298E+04  0.50400001928E-02 0. -1.
        1   -1    0    0  501    0  0.00000000000E+00  0.00000000000E+00 -0.12870022838E+04  0.12870022838E+04  0.50400001928E-02 0.  1.
    10030    2    1    2    0    0  0.00000000000E+00  0.00000000000E+00  0.12275662460E+04  0.38015708135E+04  0.35979190878E+04 0.  0.
        3    1    3    3  502    0 -0.26660067631E+03 -0.15251997497E+04  0.15815672563E+04  0.22132928395E+04  0.10100000352E+00 0. -1.
       -3    1    3    3    0  502  0.26660067631E+03  0.15251997497E+04 -0.35400101031E+03  0.15882779740E+04  0.10100000352E+00 0.  1.
</event>
<event>
 5   0  0.6541476E-07  0.3607219E+04  0.7818609E-02  0.8088840E-01
       -2   -1    0    0    0  501  0.00000000000E+00  0.00000000000E+00  0.33617869968E+04  0.33617869968E+04  0.25500000920E-02 0.  1.
        2   -1    0    0  501    0  0.00000000000E+00  0.00000000000E+00 -0.96764212048E+03  0.96764212048E+03  0.25500000920E-02 0. -1.
    10030    2    1    2    0    0  0.00000000000E+00  0.00000000000E+00  0.23941448763E+04  0.43294291173E+04  0.36072187060E+04 0.  0.
        4    1    3    3  502    0 -0.11521928624E+04  0.13823727450E+04  0.10525363134E+04  0.20847870640E+04  0.12699999809E+01 0. -1.
       -4    1    3    3    0  502  0.11521928624E+04 -0.13823727450E+04  0.13416085629E+04  0.22446420533E+04  0.12699999809E+01 0.  1.
</event>
<event>
 5   0  0.6541476E-07  0.3205006E+04  0.7818609E-02  0.8187496E-01
        2   -1    0    0  501    0  0.00000000000E+00  0.00000000000E+00  0.14686858030E+04  0.14686858030E+04  0.25500000920E-02 0.  1.
       -2   -1    0    0    0  501  0.00000000000E+00  0.00000000000E+00 -0.17485131433E+04  0.17485131433E+04  0.25500000920E-02 0. -1.
    10030    2    1    2    0    0  0.00000000000E+00  0.00000000000E+00 -0.27982734036E+03  0.32171989463E+04  0.32050063525E+04 0.  0.
        4    1    3    3  502    0 -0.39041932864E+03 -0.11281378142E+04  0.93321485849E+03  0.15152602961E+04  0.12699999809E+01 0.  1.
       -4    1    3    3    0  502  0.39041932864E+03  0.11281378142E+04 -0.12130421989E+04  0.17019386502E+04  0.12699999809E+01 0. -1.
</event>
<event>
 5   0  0.2086250E-07  0.3615966E+04  0.7818609E-02  0.8086844E-01
       -1   -1    0    0    0  501  0.00000000000E+00  0.00000000000E+00  0.15692774764E+04  0.15692774764E+04  0.50400001928E-02 0.  1.
        1   -1    0    0  501    0  0.00000000000E+00  0.00000000000E+00 -0.20829988739E+04  0.20829988739E+04  0.50400001928E-02 0. -1.
    10030    2    1    2    0    0  0.00000000000E+00  0.00000000000E+00 -0.51372139749E+03  0.36522763503E+04  0.36159663805E+04 0.  0.
        2    1    3    3  502    0  0.54653420227E+03 -0.22266678912E+03 -0.19829750711E+04  0.20689297393E+04  0.25500000920E-02 0. -1.
       -2    1    3    3    0  502 -0.54653420227E+03  0.22266678912E+03  0.14692536736E+04  0.15833466111E+04  0.25500000920E-02 0.  1.
</event>
<event>
 5   0  0.2108068E-07  0.3604073E+04  0.7818609E-02  0.8089559E-01
        1   -1    0    0  501    0  0.00000000000E+00  0.00000000000E+00  0.22803173696E+04  0.22803173696E+04  0.50400001928E-02 0. -1.
       -1   -1    0    0    0  501  0.00000000000E+00  0.00000000000E+00 -0.14240721417E+04  0.14240721417E+04  0.50400001928E-02 0.  1.
    10030    2    1    2    0    0  0.00000000000E+00  0.00000000000E+00  0.85624522785E+03  0.37043895113E+04  0.36040734956E+04 0.  0.
        5    1    3    3  502    0  0.17877541372E+04  0.22459372457E+03  0.45732385074E+03  0.18589444292E+04  0.46999998093E+01 0. -1.
       -5    1    3    3    0  502 -0.17877541372E+04 -0.22459372457E+03  0.39892137711E+03  0.18454450822E+04  0.46999998093E+01 0.  1.
</event>
<event>
 5   0  0.2108068E-07  0.3625423E+04  0.7818609E-02  0.8084693E-01
        1   -1    0    0  501    0  0.00000000000E+00  0.00000000000E+00  0.19432181836E+04  0.19432181836E+04  0.50400001928E-02 0. -1.
       -1   -1    0    0    0  501  0.00000000000E+00  0.00000000000E+00 -0.16909700721E+04  0.16909700721E+04  0.50400001928E-02 0.  1.
    10030    2    1    2    0    0  0.00000000000E+00  0.00000000000E+00  0.25224811156E+03  0.36341882557E+04  0.36254234467E+04 0.  0.
        5    1    3    3  502    0  0.65127662506E+03  0.61809869394E+03  0.17046356192E+04  0.19266582266E+04  0.46999998093E+01 0. -1.
       -5    1    3    3    0  502 -0.65127662506E+03 -0.61809869394E+03 -0.14523875077E+04  0.17075300291E+04  0.46999998093E+01 0.  1.
</event>
<event>
 5   0  0.6324216E-07  0.3423382E+04  0.7818609E-02  0.8132191E-01
        2   -1    0    0  501    0  0.00000000000E+00  0.00000000000E+00  0.19610004804E+04  0.19610004804E+04  0.25500000920E-02 0.  1.
       -2   -1    0    0    0  501  0.00000000000E+00  0.00000000000E+00 -0.14940771230E+04  0.14940771230E+04  0.25500000920E-02 0. -1.
    10030    2    1    2    0    0  0.00000000000E+00  0.00000000000E+00  0.46692335735E+03  0.34550776034E+04  0.34233819278E+04 0.  0.
        2    1    3    3  502    0 -0.15770776207E+04 -0.32404970109E+03 -0.35304168480E+03  0.16482780293E+04  0.25500000920E-02 0. -1.
       -2    1    3    3    0  502  0.15770776207E+04  0.32404970109E+03  0.81996504215E+03  0.18067995741E+04  0.25500000920E-02 0.  1.
</event>
<event>
 5   0  0.6729577E-07  0.3587104E+04  0.7818609E-02  0.8093452E-01
        2   -1    0    0  501    0  0.00000000000E+00  0.00000000000E+00  0.29854501520E+04  0.29854501520E+04  0.25500000920E-02 0.  1.
       -2   -1    0    0    0  501  0.00000000000E+00  0.00000000000E+00 -0.10775020388E+04  0.10775020388E+04  0.25500000920E-02 0. -1.
    10030    2    1    2    0    0  0.00000000000E+00  0.00000000000E+00  0.19079481132E+04  0.40629521908E+04  0.35871039157E+04 0.  0.
        3    1    3    3  502    0  0.32392286179E+02  0.18895352428E+03  0.29738118689E+04  0.29799848550E+04  0.10100000352E+00 0.  1.
       -3    1    3    3    0  502 -0.32392286179E+02 -0.18895352428E+03 -0.10658637557E+04  0.10829673358E+04  0.10100000352E+00 0. -1.
</event>
<event>
 5   0  0.6848661E-07  0.3615921E+04  0.7818609E-02  0.8086854E-01
       -2   -1    0    0    0  501  0.00000000000E+00  0.00000000000E+00  0.16529811287E+04  0.16529811287E+04  0.25500000920E-02 0. -1.
        2   -1    0    0  501    0  0.00000000000E+00  0.00000000000E+00 -0.19774705346E+04  0.19774705346E+04  0.25500000920E-02 0.  1.
    10030    2    1    2    0    0  0.00000000000E+00  0.00000000000E+00 -0.32448940592E+03  0.36304516633E+04  0.36159211696E+04 0.  0.
        1    1    3    3  502    0  0.16944223394E+04 -0.61160302490E+03 -0.31647237282E+03  0.18290106853E+04  0.50400001928E-02 0.  1.
       -1    1    3    3    0  502 -0.16944223394E+04  0.61160302490E+03 -0.80170331012E+01  0.18014409780E+04  0.50400001928E-02 0. -1.
</event>
<event>
 5   0  0.6324216E-07  0.3626754E+04  0.7818609E-02  0.8084391E-01
       -2   -1    0    0    0  501  0.00000000000E+00  0.00000000000E+00  0.33986501228E+04  0.33986501228E+04  0.25500000920E-02 0.  1.
        2   -1    0    0  501    0  0.00000000000E+00  0.00000000000E+00 -0.96754178264E+03  0.96754178264E+03  0.25500000920E-02 0. -1.
    10030    2    1    2    0    0  0.00000000000E+00  0.00000000000E+00  0.24311083402E+04  0.43661919054E+04  0.36267539196E+04 0.  0.
        2    1    3    3  502    0  0.37926840939E+03 -0.17048623860E+04  0.18027927108E+04  0.25100720786E+04  0.25500000920E-02 0.  1.
       -2    1    3    3    0  502 -0.37926840939E+03  0.17048623860E+04  0.62831562932E+03  0.18561198268E+04  0.25500000920E-02 0. -1.
</event>
<event>
 5   0  0.6729577E-07  0.3608550E+04  0.7818609E-02  0.8088536E-01
        2   -1    0    0  501    0  0.00000000000E+00  0.00000000000E+00  0.22686878200E+04  0.22686878200E+04  0.25500000920E-02 0. -1.
       -2   -1    0    0    0  501  0.00000000000E+00  0.00000000000E+00 -0.14349301137E+04  0.14349301137E+04  0.25500000920E-02 0.  1.
    10030    2    1    2    0    0  0.00000000000E+00  0.00000000000E+00  0.83375770629E+03  0.37036179338E+04  0.36085501086E+04 0.  0.
        3    1    3    3  502    0 -0.30521141017E+03  0.52078560150E+03 -0.13282208676E+04  0.14589524773E+04  0.10100000352E+00 0.  1.
       -3    1    3    3    0  502  0.30521141017E+03 -0.52078560150E+03  0.21619785739E+04  0.22446654565E+04  0.10100000352E+00 0. -1.
</event>
<event>
 5   0  0.2108068E-07  0.3572505E+04  0.7818609E-02  0.8096819E-01
        1   -1    0    0  501    0  0.00000000000E+00  0.00000000000E+00  0.14842489762E+04  0.14842489762E+04  0.50400001928E-02 0.  1.
       -1   -1    0    0    0  501  0.00000000000E+00  0.00000000000E+00 -0.21497050586E+04  0.21497050586E+04  0.50400001928E-02 0. -1.
    10030    2    1    2    0    0  0.00000000000E+00  0.00000000000E+00 -0.66545608246E+03  0.36339540348E+04  0.35725047417E+04 0.  0.
        5    1    3    3  502    0 -0.13349282624E+04  0.48827407566E+03  0.76765098626E+03  0.16154736660E+04  0.46999998093E+01 0.  1.
       -5    1    3    3    0  502  0.13349282624E+04 -0.48827407566E+03 -0.14331070687E+04  0.20184803688E+04  0.46999998093E+01 0. -1.
</event>
<event>
 5   0  0.6669864E-07  0.3576441E+04  0.7818609E-02  0.8095910E-01
       -2   -1    0    0    0  501  0.00000000000E+00  0.00000000000E+00  0.15877929293E+04  0.15877929293E+04  0.25500000920E-02 0.  1.
        2   -1    0    0  501    0  0.00000000000E+00  0.00000000000E+00 -0.20139479349E+04  0.20139479349E+04  0.25500000920E-02 0. -1.
    10030    2    1    2    0    0  0.00000000000E+00  0.00000000000E+00 -0.42615500566E+03  0.36017408642E+04  0.35764408514E+04 0.  0.
        5    1    3    3  502    0  0.10435539074E+04 -0.14274713943E+04 -0.48147901493E+03  0.18326274774E+04  0.46999998093E+01 0. -1.
       -5    1    3    3    0  502 -0.10435539074E+04  0.14274713943E+04  0.55324009271E+02  0.17691133868E+04  0.46999998093E+01 0.  1.
</event>
<event>
 5   0  0.2108068E-07  0.3610803E+04  0.7818609E-02  0.8088022E-01
       -1   -1    0    0    0  501  0.00000000000E+00  0.00000000000E+00  0.16355528032E+04  0.16355528032E+04  0.50400001928E-02 0. -1.
        1   -1    0    0  501    0  0.00000000000E+00  0.00000000000E+00 -0.19928881263E+04  0.19928881263E+04  0.50400001928E-02 0.  1.
    10030    2    1    2    0    0  0.00000000000E+00  0.00000000000E+00 -0.35733532313E+03  0.36284409295E+04  0.36108025487E+04 0.  0.
        5    1    3    3  502    0  0.86749088909E+03  0.13142190353E+04 -0.10660097881E+04  0.19016074973E+04  0.46999998093E+01 0.  1.
       -5    1    3    3    0  502 -0.86749088909E+03 -0.13142190353E+04  0.70867446495E+03  0.17268334322E+04  0.46999998093E+01 0. -1.
</event>
<event>
 5   0  0.2086250E-07  0.3602764E+04  0.7818609E-02  0.8089859E-01
       -1   -1    0    0    0  501  0.00000000000E+00  0.00000000000E+00  0.18037923603E+04  0.18037923604E+04  0.50400001928E-02 0. -1.
        1   -1    0    0  501    0  0.00000000000E+00  0.00000000000E+00 -0.17989752418E+04  0.17989752418E+04  0.50400001928E-02 0.  1.
    10030    2    1    2    0    0  0.00000000000E+00  0.00000000000E+00  0.48171185877E+01  0.36027676021E+04  0.36027643817E+04 0.  0.
        3    1    3    3  502    0 -0.16480494967E+04 -0.70860539206E+03  0.16608228921E+03  0.18016026428E+04  0.10100000352E+00 0. -1.
       -3    1    3    3    0  502  0.16480494967E+04  0.70860539206E+03 -0.16126517063E+03  0.18011649594E+04  0.10100000352E+00 0.  1.
</event>
<event>
 5   0  0.6729577E-07  0.2920268E+04  0.7818609E-02  0.8266873E-01
       -2   -1    0    0    0  501  0.00000000000E+00  0.00000000000E+00  0.24462953879E+04  0.24462953879E+04  0.25500000920E-02 0. -1.
        2   -1    0    0  501    0  0.00000000000E+00  0.00000000000E+00 -0.87151808622E+03  0.87151808623E+03  0.25500000920E-02 0.  1.
    10030    2    1    2    0    0  0.00000000000E+00  0.00000000000E+00  0.15747773017E+04  0.33178134741E+04  0.29202675732E+04 0.  0.
        3    1    3    3  502    0 -0.83777778663E+03 -0.40035354311E+03 -0.49288601786E+03  0.10512331882E+04  0.10100000352E+00 0.  1.
       -3    1    3    3    0  502  0.83777778663E+03  0.40035354311E+03  0.20676633195E+04  0.22665802859E+04  0.10100000352E+00 0. -1.
</event>
<event>
 5   0  0.2193129E-07  0.3636508E+04  0.7818609E-02  0.8082180E-01
        1   -1    0    0  501    0  0.00000000000E+00  0.00000000000E+00  0.18906272837E+04  0.18906272837E+04  0.50400001928E-02 0.  1.
       -1   -1    0    0    0  501  0.00000000000E+00  0.00000000000E+00 -0.17486509344E+04  0.17486509344E+04  0.50400001928E-02 0. -1.
    10030    2    1    2    0    0  0.00000000000E+00  0.00000000000E+00  0.14197634930E+03  0.36392782181E+04  0.36365077568E+04 0.  0.
        1    1    3    3  502    0  0.17770590423E+04  0.24483449335E+03  0.36813928765E+03  0.18312316358E+04  0.50400001928E-02 0.  1.
       -1    1    3    3    0  502 -0.17770590423E+04 -0.24483449335E+03 -0.22616293835E+03  0.18080465823E+04  0.50400001928E-02 0. -1.
</event>
<event>
 5   0  0.2086250E-07  0.3472279E+04  0.7818609E-02  0.8120391E-01
        1   -1    0    0  501    0  0.00000000000E+00  0.00000000000E+00  0.13466904479E+04  0.13466904479E+04  0.50400001928E-02 0. -1.
       -1   -1    0    0    0  501  0.00000000000E+00  0.00000000000E+00 -0.22382135536E+04  0.22382135536E+04  0.50400001928E-02 0.  1.
    10030    2    1    2    0    0  0.00000000000E+00  0.00000000000E+00 -0.89152310564E+03  0.35849040015E+04  0.34722792590E+04 0.  0.
        3    1    3    3  502    0 -0.11002651664E+04  0.12072007254E+04  0.16176660856E+03  0.16413669527E+04  0.10100000352E+00 0. -1.
       -3    1    3    3    0  502  0.11002651664E+04 -0.12072007254E+04 -0.10532897142E+04  0.19435370488E+04  0.10100000352E+00 0.  1.
</event>
<event>
 5   0  0.2086250E-07  0.3566907E+04  0.7818609E-02  0.8098114E-01
       -1   -1    0    0    0  501  0.00000000000E+00  0.00000000000E+00  0.13014061152E+04  0.13014061152E+04  0.50400001928E-02 0. -1.
        1   -1    0    0  501    0  0.00000000000E+00  0.00000000000E+00 -0.24440533292E+04  0.24440533292E+04  0.50400001928E-02 0.  1.
    10030    2    1    2    0    0  0.00000000000E+00  0.00000000000E+00 -0.11426472141E+04  0.37454594444E+04  0.35669067543E+04 0.  0.
        4    1    3    3  502    0  0.15563796061E+04  0.81833606923E+03 -0.25856676695E+03  0.17773153312E+04  0.12699999809E+01 0. -1.
       -4    1    3    3    0  502 -0.15563796061E+04 -0.81833606923E+03 -0.88408044710E+03  0.19681441132E+04  0.12699999809E+01 0.  1.
</event>
<event>
 5   0  0.2108068E-07  0.3210688E+04  0.7818609E-02  0.8186000E-01
       -1   -1    0    0    0  501  0.00000000000E+00  0.00000000000E+00  0.18746393127E+04  0.18746393128E+04  0.50400001928E-02 0.  1.
        1   -1    0    0  501    0  0.00000000000E+00  0.00000000000E+00 -0.13747338535E+04  0.13747338535E+04  0.50400001928E-02 0. -1.
    10030    2    1    2    0    0  0.00000000000E+00  0.00000000000E+00  0.49990545923E+03  0.32493731663E+04  0.32106884784E+04 0.  0.
        5    1    3    3  502    0 -0.56375459904E+03  0.11330623242E+04 -0.74960028136E+03  0.14709086138E+04  0.46999998093E+01 0. -1.
       -5    1    3    3    0  502  0.56375459904E+03 -0.11330623242E+04  0.12495057406E+04  0.17784645524E+04  0.46999998093E+01 0.  1.
</event>
<event>
 5   0  0.6541476E-07  0.3618394E+04  0.7818609E-02  0.8086291E-01
        2   -1    0    0  501    0  0.00000000000E+00  0.00000000000E+00  0.20992651190E+04  0.20992651190E+04  0.25500000920E-02 0. -1.
       -2   -1    0    0    0  501  0.00000000000E+00  0.00000000000E+00 -0.15592089962E+04  0.15592089962E+04  0.25500000920E-02 0.  1.
    10030    2    1    2    0    0  0.00000000000E+00  0.00000000000E+00  0.54005612279E+03  0.36584741152E+04  0.36183935988E+04 0.  0.
        4    1    3    3  502    0  0.35077065281E+03 -0.12347244737E+04  0.15591438962E+04  0.20195335795E+04  0.12699999809E+01 0. -1.
       -4    1    3    3    0  502 -0.35077065281E+03  0.12347244737E+04 -0.10190877734E+04  0.16389405357E+04  0.12699999809E+01 0.  1.
</event>
<event>
 5   0  0.6848661E-07  0.3569043E+04  0.7818609E-02  0.8097620E-01
        2   -1    0    0  501    0  0.00000000000E+00  0.00000000000E+00  0.23140926767E+04  0.23140926767E+04  0.25500000920E-02 0.  1.
       -2   -1    0    0    0  501  0.00000000000E+00  0.00000000000E+00 -0.13761407164E+04  0.13761407164E+04  0.25500000920E-02 0. -1.
    10030    2    1    2    0    0  0.00000000000E+00  0.00000000000E+00  0.93795196031E+03  0.36902333930E+04  0.35690430952E+04 0.  0.
        1    1    3    3  502    0  0.12167429073E+04  0.56890619886E+03  0.16837750565E+04  0.21538839353E+04  0.50400001928E-02 0.  1.
       -1    1    3    3    0  502 -0.12167429073E+04 -0.56890619886E+03 -0.74582309621E+03  0.15363494578E+04  0.50400001928E-02 0. -1.
</event>
<event>
 5   0  0.2086250E-07  0.3626684E+04  0.7818609E-02  0.8084407E-01
        1   -1    0    0  501    0  0.00000000000E+00  0.00000000000E+00  0.15045004728E+04  0.15045004728E+04  0.50400001928E-02 0. -1.
       -1   -1    0    0    0  501  0.00000000000E+00  0.00000000000E+00 -0.21855823905E+04  0.21855823905E+04  0.50400001928E-02 0.  1.
    10030    2    1    2    0    0  0.00000000000E+00  0.00000000000E+00 -0.68108191772E+03  0.36900828634E+04  0.36266842928E+04 0.  0.
        4    1    3    3  502    0 -0.16954130682E+04 -0.12585417148E+03  0.30131416284E+03  0.17265736538E+04  0.12699999809E+01 0. -1.
       -4    1    3    3    0  502  0.16954130682E+04  0.12585417148E+03 -0.98239608056E+03  0.19635092096E+04  0.12699999809E+01 0.  1.
</event>
<event>
 5   0  0.6324216E-07  0.3642796E+04  0.7818609E-02  0.8080759E-01
        2   -1    0    0  501    0  0.00000000000E+00  0.00000000000E+00  0.21171649820E+04  0.21171649820E+04  0.25500000920E-02 0.  1.
       -2   -1    0    0    0  501  0.00000000000E+00  0.00000000000E+00 -0.15669491289E+04  0.15669491289E+04  0.25500000920E-02 0. -1.
    10030    2    1    2    0    0  0.00000000000E+00  0.00000000000E+00  0.55021585312E+03  0.36841141109E+04  0.36427955333E+04 0.  0.
        2    1    3    3  502    0  0.17718436977E+04  0.24515898226E+03 -0.72236060525E+02  0.17901818523E+04  0.25500000920E-02 0.  1.
       -2    1    3    3    0  502 -0.17718436977E+04 -0.24515898226E+03  0.62245191365E+03  0.18939322587E+04  0.25500000920E-02 0. -1.
</event>
<event>
 5   0  0.2108068E-07  0.3612783E+04  0.7818609E-02  0.8087570E-01
       -1   -1    0    0    0  501  0.00000000000E+00  0.00000000000E+00  0.16276611459E+04  0.16276611459E+04  0.50400001928E-02 0. -1.
        1   -1    0    0  501    0  0.00000000000E+00  0.00000000000E+00 -0.20047475305E+04  0.20047475306E+04  0.50400001928E-02 0.  1.
    10030    2    1    2    0    0  0.00000000000E+00  0.00000000000E+00 -0.37708638462E+03  0.36324086765E+04  0.36127826743E+04 0.  0.
        5    1    3    3  502    0 -0.14821746045E+04  0.19662211251E+03 -0.12077192810E+04  0.19220067027E+04  0.46999998093E+01 0.  1.
       -5    1    3    3    0  502  0.14821746045E+04 -0.19662211251E+03  0.83063289640E+03  0.17104019738E+04  0.46999998093E+01 0. -1.
</event>
<event>
 5   0  0.6324216E-07  0.3664292E+04  0.7818609E-02  0.8075921E-01
       -2   -1    0    0    0  501  0.00000000000E+00  0.00000000000E+00  0.18359060029E+04  0.18359060029E+04  0.25500000920E-02 0. -1.
        2   -1    0    0  501    0  0.00000000000E+00  0.00000000000E+00 -0.18283939756E+04  0.18283939756E+04  0.25500000920E-02 0.  1.
    10030    2    1    2    0    0  0.00000000000E+00  0.00000000000E+00  0.75120272981E+01  0.36642999784E+04  0.36642922784E+04 0.  0.
        2    1    3    3  502    0  0.10019379619E+04 -0.78743284254E+03  0.13201285282E+04  0.18348486292E+04  0.25500000920E-02 0. -1.
       -2    1    3    3    0  502 -0.10019379619E+04  0.78743284254E+03 -0.13126165009E+04  0.18294513493E+04  0.25500000920E-02 0.  1.
</event>
<event>
 5   0  0.2086250E-07  0.3597780E+04  0.7818609E-02  0.8091000E-01
       -1   -1    0    0    0  501  0.00000000000E+00  0.00000000000E+00  0.14131426117E+04  0.14131426117E+04  0.50400001928E-02 0. -1.
        1   -1    0    0  501    0  0.00000000000E+00  0.00000000000E+00 -0.22899352831E+04  0.22899352831E+04  0.50400001928E-02 0.  1.
    10030    2    1    2    0    0  0.00000000000E+00  0.00000000000E+00 -0.87679267147E+03  0.37030778948E+04  0.35977799413E+04 0.  0.
        4    1    3    3  502    0 -0.12756471733E+04 -0.25658086258E+01 -0.17438715978E+04  0.21606415845E+04  0.12699999809E+01 0.  1.
       -4    1    3    3    0  502  0.12756471733E+04  0.25658086258E+01  0.86707892629E+03  0.15424363103E+04  0.12699999809E+01 0. -1.
</event>
<event>
 5   0  0.2086250E-07  0.3540665E+04  0.7818609E-02  0.8104220E-01
        1   -1    0    0  501    0  0.00000000000E+00  0.00000000000E+00  0.21167508441E+04  0.21167508441E+04  0.50400001928E-02 0. -1.
       -1   -1    0    0    0  501  0.00000000000E+00  0.00000000000E+00 -0.14806076129E+04  0.14806076129E+04  0.50400001928E-02 0.  1.
    10030    2    1    2    0    0  0.00000000000E+00  0.00000000000E+00  0.63614323116E+03  0.35973584570E+04  0.35406651434E+04 0.  0.
        4    1    3    3  502    0 -0.96863020838E+03 -0.13455156668E+04 -0.31269016396E+03  0.16871377068E+04  0.12699999809E+01 0.  1.
       -4    1    3    3    0  502  0.96863020838E+03  0.13455156668E+04  0.94883339512E+03  0.19102207502E+04  0.12699999809E+01 0. -1.
</event>
<event>
 5   0  0.2086250E-07  0.3584593E+04  0.7818609E-02  0.8094030E-01
       -1   -1    0    0    0  501  0.00000000000E+00  0.00000000000E+00  0.16261129346E+04  0.16261129346E+04  0.50400001928E-02 0.  1.
        1   -1    0    0  501    0  0.00000000000E+00  0.00000000000E+00 -0.19754634571E+04  0.19754634571E+04  0.50400001928E-02 0. -1.
    10030    2    1    2    0    0  0.00000000000E+00  0.00000000000E+00 -0.34935052248E+03  0.36015763917E+04  0.35845929641E+04 0.  0.
        4    1    3    3  502    0  0.11885346292E+03  0.87561808645E+03  0.13920368307E+04  0.16488181615E+04  0.12699999809E+01 0.  1.
       -4    1    3    3    0  502 -0.11885346292E+03 -0.87561808645E+03 -0.17413873532E+04  0.19527582302E+04  0.12699999809E+01 0. -1.
</event>
<event>
 5   0  0.6324216E-07  0.3626953E+04  0.7818609E-02  0.8084346E-01
        2   -1    0    0  501    0  0.00000000000E+00  0.00000000000E+00  0.25558573102E+04  0.25558573102E+04  0.25500000920E-02 0. -1.
       -2   -1    0    0    0  501  0.00000000000E+00  0.00000000000E+00 -0.12867295507E+04  0.12867295507E+04  0.25500000920E-02 0.  1.
    10030    2    1    2    0    0  0.00000000000E+00  0.00000000000E+00  0.12691277595E+04  0.38425868609E+04  0.36269530620E+04 0.  0.
        2    1    3    3  502    0 -0.46214348752E+02  0.10364721946E+04  0.22103688558E+04  0.24417495479E+04  0.25500000920E-02 0. -1.
       -2    1    3    3    0  502  0.46214348752E+02 -0.10364721946E+04 -0.94124109628E+03  0.14008373130E+04  0.25500000920E-02 0.  1.
</event>
<event>
 5   0  0.2086250E-07  0.3548021E+04  0.7818609E-02  0.8102503E-01
       -3   -1    0    0    0  501  0.00000000000E+00  0.00000000000E+00  0.17353859938E+04  0.17353859968E+04  0.10100000352E+00 0. -1.
        3   -1    0    0  501    0  0.00000000000E+00  0.00000000000E+00 -0.18134947563E+04  0.18134947592E+04  0.10100000352E+00 0.  1.
    10030    2    1    2    0    0  0.00000000000E+00  0.00000000000E+00 -0.78108762504E+02  0.35488807559E+04  0.35480210880E+04 0.  0.
        3    1    3    3  502    0 -0.12085043026E+04 -0.11416919954E+03  0.12549345100E+04  0.17459604492E+04  0.10100000352E+00 0. -1.
       -3    1    3    3    0  502  0.12085043026E+04  0.11416919954E+03 -0.13330432725E+04  0.18029203067E+04  0.10100000352E+00 0.  1.
</event>
<event>
 5   0  0.6669864E-07  0.3536390E+04  0.7818609E-02  0.8105220E-01
        2   -1    0    0  501    0  0.00000000000E+00  0.00000000000E+00  0.19471674656E+04  0.19471674656E+04  0.25500000920E-02 0.  1.
       -2   -1    0    0    0  501  0.00000000000E+00  0.00000000000E+00 -0.16056722797E+04  0.16056722797E+04  0.25500000920E-02 0. -1.
    10030    2    1    2    0    0  0.00000000000E+00  0.00000000000E+00  0.34149518594E+03  0.35528397453E+04  0.35363895846E+04 0.  0.
        5    1    3    3  502    0 -0.16313572814E+04 -0.68020514349E+03  0.12066475828E+03  0.17716059637E+04  0.46999998093E+01 0.  1.
       -5    1    3    3    0  502  0.16313572814E+04  0.68020514349E+03  0.22083042766E+03  0.17812337816E+04  0.46999998093E+01 0. -1.
</event>
<event>
 5   0  0.6669864E-07  0.3631848E+04  0.7818609E-02  0.8083235E-01
        2   -1    0    0  501    0  0.00000000000E+00  0.00000000000E+00  0.28018390131E+04  0.28018390131E+04  0.25500000920E-02 0.  1.
       -2   -1    0    0    0  501  0.00000000000E+00  0.00000000000E+00 -0.11769341220E+04  0.11769341220E+04  0.25500000920E-02 0. -1.
    10030    2    1    2    0    0  0.00000000000E+00  0.00000000000E+00  0.16249048912E+04  0.39787731351E+04  0.36318479808E+04 0.  0.
        5    1    3    3  502    0  0.14305995747E+04  0.50635142318E+03 -0.28008173146E+03  0.15432027647E+04  0.46999998093E+01 0. -1.
       -5    1    3    3    0  502 -0.14305995747E+04 -0.50635142318E+03  0.19049866226E+04  0.24355703704E+04  0.46999998093E+01 0.  1.
</event>
<event>
 5   0  0.6541476E-07  0.3615623E+04  0.7818609E-02  0.8086922E-01
        2   -1    0    0  501    0  0.00000000000E+00  0.00000000000E+00  0.19667104772E+04  0.19667104772E+04  0.25500000920E-02 0.  1.
       -2   -1    0    0    0  501  0.00000000000E+00  0.00000000000E+00 -0.16617506358E+04  0.16617506358E+04  0.25500000920E-02 0. -1.
    10030    2    1    2    0    0  0.00000000000E+00  0.00000000000E+00  0.30495984135E+03  0.36284611130E+04  0.36156229814E+04 0.  0.
        4    1    3    3  502    0  0.27851704267E+02 -0.12643651161E+04  0.14488817847E+04  0.19231887331E+04  0.12699999809E+01 0.  1.
       -4    1    3    3    0  502 -0.27851704267E+02  0.12643651161E+04 -0.11439219433E+04  0.17052723799E+04  0.12699999809E+01 0. -1.
</event>
<event>
 5   0  0.2086250E-07  0.3670114E+04  0.7818609E-02  0.8074617E-01
       -1   -1    0    0    0  501  0.00000000000E+00  0.00000000000E+00  0.18796197412E+04  0.18796197412E+04  0.50400001928E-02 0.  1.
        1   -1    0    0  501    0  0.00000000000E+00  0.00000000000E+00 -0.17915502957E+04  0.17915502957E+04  0.50400001928E-02 0. -1.
    10030    2    1    2    0    0  0.00000000000E+00  0.00000000000E+00  0.88069445498E+02  0.36711700368E+04  0.36701135149E+04 0.  0.
        4    1    3    3  502    0  0.14931000476E+04  0.86941104020E+03 -0.57437328736E+03  0.18207497343E+04  0.12699999809E+01 0.  1.
       -4    1    3    3    0  502 -0.14931000476E+04 -0.86941104020E+03  0.66244273286E+03  0.18504203025E+04  0.12699999809E+01 0. -1.
</event>
<event>
 5   0  0.2086250E-07  0.3160648E+04  0.7818609E-02  0.8199288E-01
        1   -1    0    0  501    0  0.00000000000E+00  0.00000000000E+00  0.96831030663E+03  0.96831030664E+03  0.50400001928E-02 0.  1.
       -1   -1    0    0    0  501  0.00000000000E+00  0.00000000000E+00 -0.25791565629E+04  0.25791565629E+04  0.50400001928E-02 0. -1.
    10030    2    1    2    0    0  0.00000000000E+00  0.00000000000E+00 -0.16108462563E+04  0.35474668696E+04  0.31606479603E+04 0.  0.
        2    1    3    3  502    0  0.46714333212E+03  0.14244835014E+04 -0.24417656790E+03  0.15188806190E+04  0.25500000920E-02 0. -1.
       -2    1    3    3    0  502 -0.46714333212E+03 -0.14244835014E+04 -0.13666696884E+04  0.20285862505E+04  0.25500000920E-02 0.  1.
</event>
<event>
 5   0  0.6324216E-07  0.3524972E+04  0.7818609E-02  0.8107897E-01
       -2   -1    0    0    0  501  0.00000000000E+00  0.00000000000E+00  0.12977694628E+04  0.12977694628E+04  0.25500000920E-02 0. -1.
        2   -1    0    0  501    0  0.00000000000E+00  0.00000000000E+00 -0.23936118871E+04  0.23936118871E+04  0.25500000920E-02 0.  1.
    10030    2    1    2    0    0  0.00000000000E+00  0.00000000000E+00 -0.10958424243E+04  0.36913813499E+04  0.35249717235E+04 0.  0.
        2    1    3    3  502    0 -0.14933159524E+04 -0.25825885560E+02  0.43204292606E+03  0.15547734883E+04  0.25500000920E-02 0. -1.
       -2    1    3    3    0  502  0.14933159524E+04  0.25825885560E+02 -0.15278853504E+04  0.21366078615E+04  0.25500000920E-02 0.  1.
</event>
<event>
 5   0  0.2086250E-07  0.3607688E+04  0.7818609E-02  0.8088733E-01
        1   -1    0    0  501    0  0.00000000000E+00  0.00000000000E+00  0.14587668944E+04  0.14587668944E+04  0.50400001928E-02 0. -1.
       -1   -1    0    0    0  501  0.00000000000E+00  0.00000000000E+00 -0.22305509089E+04  0.22305509089E+04  0.50400001928E-02 0.  1.
    10030    2    1    2    0    0  0.00000000000E+00  0.00000000000E+00 -0.77178401453E+03  0.36893178033E+04  0.36076883581E+04 0.  0.
        2    1    3    3  502    0  0.36852637489E+03 -0.17632812214E+04 -0.48226590316E+03  0.18648197651E+04  0.25500000920E-02 0.  1.
       -2    1    3    3    0  502 -0.36852637489E+03  0.17632812214E+04 -0.28951811137E+03  0.18244980383E+04  0.25500000920E-02 0. -1.
</event>
<event>
 5   0  0.6729577E-07  0.3429351E+04  0.7818609E-02  0.8130740E-01
        2   -1    0    0  501    0  0.00000000000E+00  0.00000000000E+00  0.21294291161E+04  0.21294291161E+04  0.25500000920E-02 0. -1.
       -2   -1    0    0    0  501  0.00000000000E+00  0.00000000000E+00 -0.13807044774E+04  0.13807044774E+04  0.25500000920E-02 0.  1.
    10030    2    1    2    0    0  0.00000000000E+00  0.00000000000E+00  0.74872463862E+03  0.35101335935E+04  0.34293511427E+04 0.  0.
        3    1    3    3  502    0 -0.87707330552E+03 -0.12969767531E+04 -0.34118034784E+03  0.16024388666E+04  0.10100000352E+00 0.  1.
       -3    1    3    3    0  502  0.87707330552E+03  0.12969767531E+04  0.10899049865E+04  0.19076947269E+04  0.10100000352E+00 0. -1.
</event>
<event>
 5   0  0.6669864E-07  0.3344715E+04  0.7818609E-02  0.8151610E-01
        2   -1    0    0  501    0  0.00000000000E+00  0.00000000000E+00  0.24875978857E+04  0.24875978857E+04  0.25500000920E-02 0.  1.
       -2   -1    0    0    0  501  0.00000000000E+00  0.00000000000E+00 -0.11242895738E+04  0.11242895739E+04  0.25500000920E-02 0. -1.
    10030    2    1    2    0    0  0.00000000000E+00  0.00000000000E+00  0.13633083118E+04  0.36118874595E+04  0.33447154539E+04 0.  0.
        5    1    3    3  502    0 -0.15265537034E+04  0.67998330989E+03  0.75007763205E+03  0.18317701972E+04  0.46999998093E+01 0. -1.
       -5    1    3    3    0  502  0.15265537034E+04 -0.67998330989E+03  0.61323067979E+03  0.17801172624E+04  0.46999998093E+01 0.  1.
</event>
<event>
 5   0  0.2108068E-07  0.3616483E+04  0.7818609E-02  0.8086726E-01
       -1   -1    0    0    0  501  0.00000000000E+00  0.00000000000E+00  0.19355481712E+04  0.19355481712E+04  0.50400001928E-02 0. -1.
        1   -1    0    0  501    0  0.00000000000E+00  0.00000000000E+00 -0.16893082421E+04  0.16893082421E+04  0.50400001928E-02 0.  1.
    10030    2    1    2    0    0  0.00000000000E+00  0.00000000000E+00  0.24623992912E+03  0.36248564134E+04  0.36164830865E+04 0.  0.
        5    1    3    3  502    0 -0.16200379683E+04  0.76635876918E+03  0.36427337935E+03  0.18288099865E+04  0.46999998093E+01 0. -1.
       -5    1    3    3    0  502  0.16200379683E+04 -0.76635876918E+03 -0.11803345023E+03  0.17960464268E+04  0.46999998093E+01 0.  1.
</event>
<event>
 5   0  0.2086250E-07  0.3596672E+04  0.7818609E-02  0.8091254E-01
       -1   -1    0    0    0  501  0.00000000000E+00  0.00000000000E+00  0.23444628260E+04  0.23444628260E+04  0.50400001928E-02 0. -1.
        1   -1    0    0  501    0  0.00000000000E+00  0.00000000000E+00 -0.13794257580E+04  0.13794257580E+04  0.50400001928E-02 0.  1.
    10030    2    1    2    0    0  0.00000000000E+00  0.00000000000E+00  0.96503706800E+03  0.37238885840E+04  0.35966720233E+04 0.  0.
        3    1    3    3  502    0  0.65568618856E+02  0.28179841199E+03  0.23202074351E+04  0.23381770978E+04  0.10100000352E+00 0. -1.
       -3    1    3    3    0  502 -0.65568618856E+02 -0.28179841199E+03 -0.13551703671E+04  0.13857114861E+04  0.10100000352E+00 0.  1.
</event>
<event>
 5   0  0.6729577E-07  0.3659868E+04  0.7818609E-02  0.8076914E-01
        2   -1    0    0  501    0  0.00000000000E+00  0.00000000000E+00  0.14643704492E+04  0.14643704492E+04  0.25500000920E-02 0.  1.
       -2   -1    0    0    0  501  0.00000000000E+00  0.00000000000E+00 -0.22867562729E+04  0.22867562729E+04  0.25500000920E-02 0. -1.
    10030    2    1    2    0    0  0.00000000000E+00  0.00000000000E+00 -0.82238582365E+03  0.37511267221E+04  0.36598679269E+04 0.  0.
        3    1    3    3  502    0  0.43360806982E+03  0.30344823179E+03  0.13842175000E+04  0.14819429425E+04  0.10100000352E+00 0.  1.
       -3    1    3    3    0  502 -0.43360806982E+03 -0.30344823179E+03 -0.22066033236E+04  0.22691837796E+04  0.10100000352E+00 0. -1.
</event>
<event>
 5   0  0.6848661E-07  0.3610152E+04  0.7818609E-02  0.8088170E-01
        2   -1    0    0  501    0  0.00000000000E+00  0.00000000000E+00  0.16916628131E+04  0.16916628131E+04  0.25500000920E-02 0. -1.
       -2   -1    0    0    0  501  0.00000000000E+00  0.00000000000E+00 -0.19260922922E+04  0.19260922922E+04  0.25500000920E-02 0.  1.
    10030    2    1    2    0    0  0.00000000000E+00  0.00000000000E+00 -0.23442947908E+03  0.36177551053E+04  0.36101516342E+04 0.  0.
        1    1    3    3  502    0  0.86131622638E+03 -0.14079772618E+04  0.61510005305E+03  0.17614237670E+04  0.50400001928E-02 0.  1.
       -1    1    3    3    0  502 -0.86131622638E+03  0.14079772618E+04 -0.84952953213E+03  0.18563313383E+04  0.50400001928E-02 0. -1.
</event>
<event>
 5   0  0.6848661E-07  0.3600609E+04  0.7818609E-02  0.8090352E-01
        2   -1    0    0  501    0  0.00000000000E+00  0.00000000000E+00  0.10425196697E+04  0.10425196697E+04  0.25500000920E-02 0.  1.
       -2   -1    0    0    0  501  0.00000000000E+00  0.00000000000E+00 -0.31089061589E+04  0.31089061589E+04  0.25500000920E-02 0. -1.
    10030    2    1    2    0    0  0.00000000000E+00  0.00000000000E+00 -0.20663864892E+04  0.41514258286E+04  0.36006087384E+04 0.  0.
        1    1    3    3  502    0  0.11437047574E+04 -0.80212341603E+03  0.27615287958E+03  0.14239813762E+04  0.50400001928E-02 0.  1.
       -1    1    3    3    0  502 -0.11437047574E+04  0.80212341603E+03 -0.23425393688E+04  0.27274444524E+04  0.50400001928E-02 0. -1.
</event>
<event>
 5   0  0.6324216E-07  0.3594186E+04  0.7818609E-02  0.8091825E-01
       -2   -1    0    0    0  501  0.00000000000E+00  0.00000000000E+00  0.16362897494E+04  0.16362897494E+04  0.25500000920E-02 0.  1.
        2   -1    0    0  501    0  0.00000000000E+00  0.00000000000E+00 -0.19736984722E+04  0.19736984722E+04  0.25500000920E-02 0. -1.
    10030    2    1    2    0    0  0.00000000000E+00  0.00000000000E+00 -0.33740872278E+03  0.36099882216E+04  0.35941856259E+04 0.  0.
        2    1    3    3  502    0  0.13663268681E+04 -0.88813952647E+03 -0.92959811420E+03  0.18761112928E+04  0.25500000920E-02 0. -1.
       -2    1    3    3    0  502 -0.13663268681E+04  0.88813952647E+03  0.59218939142E+03  0.17338769288E+04  0.25500000920E-02 0.  1.
</event>
<event>
 5   0  0.2193129E-07  0.3600824E+04  0.7818609E-02  0.8090303E-01
        1   -1    0    0  501    0  0.00000000000E+00  0.00000000000E+00  0.33980636116E+04  0.33980636116E+04  0.50400001928E-02 0.  1.
       -1   -1    0    0    0  501  0.00000000000E+00  0.00000000000E+00 -0.95392063950E+03  0.95392063951E+03  0.50400001928E-02 0. -1.
    10030    2    1    2    0    0  0.00000000000E+00  0.00000000000E+00  0.24441429721E+04  0.43519842512E+04  0.36008238021E+04 0.  0.
        1    1    3    3  502    0 -0.15124944704E+03  0.28659400987E+02  0.33900949250E+04  0.33935882716E+04  0.50400001928E-02 0.  1.
       -1    1    3    3    0  502  0.15124944704E+03 -0.28659400987E+02 -0.94595195286E+03  0.95839597956E+03  0.50400001928E-02 0. -1.
</event>
<event>
 5   0  0.6848661E-07  0.3603291E+04  0.7818609E-02  0.8089738E-01
        2   -1    0    0  501    0  0.00000000000E+00  0.00000000000E+00  0.20983875218E+04  0.20983875218E+04  0.25500000920E-02 0.  1.
       -2   -1    0    0    0  501  0.00000000000E+00  0.00000000000E+00 -0.15468674322E+04  0.15468674322E+04  0.25500000920E-02 0. -1.
    10030    2    1    2    0    0  0.00000000000E+00  0.00000000000E+00  0.55152008962E+03  0.36452549540E+04  0.36032914496E+04 0.  0.
        1    1    3    3  502    0 -0.14180323718E+04 -0.10169055301E+04  0.72932801253E+03  0.18912514414E+04  0.50400001928E-02 0.  1.
       -1    1    3    3    0  502  0.14180323718E+04  0.10169055301E+04 -0.17780792291E+03  0.17540035126E+04  0.50400001928E-02 0. -1.
</event>
<event>
 5   0  0.6541476E-07  0.3596543E+04  0.7818609E-02  0.8091284E-01
       -2   -1    0    0    0  501  0.00000000000E+00  0.00000000000E+00  0.97453478071E+03  0.97453478071E+03  0.25500000920E-02 0. -1.
        2   -1    0    0  501    0  0.00000000000E+00  0.00000000000E+00 -0.33182808850E+04  0.33182808850E+04  0.25500000920E-02 0.  1.
    10030    2    1    2    0    0  0.00000000000E+00  0.00000000000E+00 -0.23437461043E+04  0.42928156657E+04  0.35965428592E+04 0.  0.
        4    1    3    3  502    0 -0.15300496809E+04 -0.31014876063E+03 -0.22371418958E+04  0.27280120518E+04  0.12699999809E+01 0. -1.
       -4    1    3    3    0  502  0.15300496809E+04  0.31014876063E+03 -0.10660420845E+03  0.15648036139E+04  0.12699999809E+01 0.  1.
</event>
<event>
 5   0  0.6729577E-07  0.3622165E+04  0.7818609E-02  0.8085433E-01
       -2   -1    0    0    0  501  0.00000000000E+00  0.00000000000E+00  0.17523065183E+04  0.17523065183E+04  0.25500000920E-02 0.  1.
        2   -1    0    0  501    0  0.00000000000E+00  0.00000000000E+00 -0.18718299496E+04  0.18718299496E+04  0.25500000920E-02 0. -1.
    10030    2    1    2    0    0  0.00000000000E+00  0.00000000000E+00 -0.11952343129E+03  0.36241364678E+04  0.36221649999E+04 0.  0.
        3    1    3    3  502    0 -0.44506099295E+03  0.28925561002E+03 -0.17922559858E+04  0.18692056132E+04  0.10100000352E+00 0. -1.
       -3    1    3    3    0  502  0.44506099295E+03 -0.28925561002E+03  0.16727325545E+04  0.17549308546E+04  0.10100000352E+00 0.  1.
</event>
<event>
 5   0  0.2108068E-07  0.3723685E+04  0.7818609E-02  0.8062733E-01
       -1   -1    0    0    0  501  0.00000000000E+00  0.00000000000E+00  0.17677183156E+04  0.17677183156E+04  0.50400001928E-02 0. -1.
        1   -1    0    0  501    0  0.00000000000E+00  0.00000000000E+00 -0.19609782966E+04  0.19609782966E+04  0.50400001928E-02 0.  1.
    10030    2    1    2    0    0  0.00000000000E+00  0.00000000000E+00 -0.19325998105E+03  0.37286966122E+04  0.37236848692E+04 0.  0.
        5    1    3    3  502    0  0.55878224474E+03 -0.14034902474E+04 -0.11864020126E+04  0.19208316680E+04  0.46999998093E+01 0.  1.
       -5    1    3    3    0  502 -0.55878224474E+03  0.14034902474E+04  0.99314203154E+03  0.18078649441E+04  0.46999998093E+01 0. -1.
</event>
<event>
 5   0  0.2086250E-07  0.3599375E+04  0.7818609E-02  0.8090635E-01
        1   -1    0    0  501    0  0.00000000000E+00  0.00000000000E+00  0.19518468987E+04  0.19518468987E+04  0.50400001928E-02 0.  1.
       -1   -1    0    0    0  501  0.00000000000E+00  0.00000000000E+00 -0.16593903786E+04  0.16593903786E+04  0.50400001928E-02 0. -1.
    10030    2    1    2    0    0  0.00000000000E+00  0.00000000000E+00  0.29245652003E+03  0.36112372773E+04  0.35993754815E+04 0.  0.
        2    1    3    3  502    0 -0.12195980028E+04  0.20924800253E+03  0.14573139979E+04  0.19117970875E+04  0.25500000920E-02 0.  1.
       -2    1    3    3    0  502  0.12195980028E+04 -0.20924800253E+03 -0.11648574779E+04  0.16994401898E+04  0.25500000920E-02 0. -1.
</event>
<event>
 5   0  0.6848661E-07  0.3609997E+04  0.7818609E-02  0.8088206E-01
        2   -1    0    0  501    0  0.00000000000E+00  0.00000000000E+00  0.14669957811E+04  0.14669957811E+04  0.25500000920E-02 0. -1.
       -2   -1    0    0    0  501  0.00000000000E+00  0.00000000000E+00 -0.22208784456E+04  0.22208784456E+04  0.25500000920E-02 0.  1.
    10030    2    1    2    0    0  0.00000000000E+00  0.00000000000E+00 -0.75388266455E+03  0.36878742267E+04  0.36099968476E+04 0.  0.
        1    1    3    3  502    0 -0.86801013898E+03  0.14538605808E+04  0.26173944926E+03  0.17133767038E+04  0.50400001928E-02 0.  1.
       -1    1    3    3    0  502  0.86801013898E+03 -0.14538605808E+04 -0.10156221138E+04  0.19744975229E+04  0.50400001928E-02 0. -1.
</event>
<event>
 5   0  0.6541476E-07  0.3607132E+04  0.7818609E-02  0.8088860E-01
       -2   -1    0    0    0  501  0.00000000000E+00  0.00000000000E+00  0.12475866593E+04  0.12475866593E+04  0.25500000920E-02 0.  1.
        2   -1    0    0  501    0  0.00000000000E+00  0.00000000000E+00 -0.26073136926E+04  0.26073136926E+04  0.25500000920E-02 0. -1.
    10030    2    1    2    0    0  0.00000000000E+00  0.00000000000E+00 -0.13597270333E+04  0.38549003519E+04  0.36071317024E+04 0.  0.
        4    1    3    3  502    0  0.52720569466E+02  0.16697868079E+04  0.46436536353E+02  0.16712646131E+04  0.12699999809E+01 0.  1.
       -4    1    3    3    0  502 -0.52720569466E+02 -0.16697868079E+04 -0.14061635696E+04  0.21836357388E+04  0.12699999809E+01 0. -1.
</event>
<event>
 5   0  0.6729577E-07  0.3703538E+04  0.7818609E-02  0.8067178E-01
        2   -1    0    0  501    0  0.00000000000E+00  0.00000000000E+00  0.22003721247E+04  0.22003721247E+04  0.25500000920E-02 0.  1.
       -2   -1    0    0    0  501  0.00000000000E+00  0.00000000000E+00 -0.15583946268E+04  0.15583946268E+04  0.25500000920E-02 0. -1.
    10030    2    1    2    0    0  0.00000000000E+00  0.00000000000E+00  0.64197749784E+03  0.37587667515E+04  0.37035378200E+04 0.  0.
        3    1    3    3  502    0  0.59340430449E+03 -0.33930565373E+03  0.20676384096E+04  0.21777019076E+04  0.10100000352E+00 0.  1.
       -3    1    3    3    0  502 -0.59340430449E+03  0.33930565373E+03 -0.14256609117E+04  0.15810648439E+04  0.10100000352E+00 0. -1.
</event>
<event>
 5   0  0.2086250E-07  0.3489085E+04  0.7818609E-02  0.8116382E-01
       -1   -1    0    0    0  501  0.00000000000E+00  0.00000000000E+00  0.24234624301E+04  0.24234624301E+04  0.50400001928E-02 0.  1.
        1   -1    0    0  501    0  0.00000000000E+00  0.00000000000E+00 -0.12558182825E+04  0.12558182825E+04  0.50400001928E-02 0. -1.
    10030    2    1    2    0    0  0.00000000000E+00  0.00000000000E+00  0.11676441476E+04  0.36792807126E+04  0.34890849383E+04 0.  0.
        3    1    3    3  502    0  0.57157202979E+03 -0.77852072714E+03  0.21158207600E+04  0.23258303048E+04  0.10100000352E+00 0.  1.
       -3    1    3    3    0  502 -0.57157202979E+03  0.77852072714E+03 -0.94817661248E+03  0.13534504078E+04  0.10100000352E+00 0. -1.
</event>
<event>
 5   0  0.6324216E-07  0.3591242E+04  0.7818609E-02  0.8092501E-01
       -2   -1    0    0    0  501  0.00000000000E+00  0.00000000000E+00  0.23728764999E+04  0.23728764999E+04  0.25500000920E-02 0. -1.
        2   -1    0    0  501    0  0.00000000000E+00  0.00000000000E+00 -0.13587958097E+04  0.13587958097E+04  0.25500000920E-02 0.  1.
    10030    2    1    2    0    0  0.00000000000E+00  0.00000000000E+00  0.10140806902E+04  0.37316723097E+04  0.35912419273E+04 0.  0.
        2    1    3    3  502    0  0.66115175751E+03 -0.98281319082E+03  0.19093340907E+04  0.22469090067E+04  0.25500000920E-02 0. -1.
       -2    1    3    3    0  502 -0.66115175751E+03  0.98281319082E+03 -0.89525340055E+03  0.14847633029E+04  0.25500000920E-02 0.  1.
</event>
<event>
 5   0  0.2193129E-07  0.3594603E+04  0.7818609E-02  0.8091729E-01
        1   -1    0    0  501    0  0.00000000000E+00  0.00000000000E+00  0.14035795013E+04  0.14035795014E+04  0.50400001928E-02 0.  1.
       -1   -1    0    0    0  501  0.00000000000E+00  0.00000000000E+00 -0.23014681193E+04  0.23014681193E+04  0.50400001928E-02 0. -1.
    10030    2    1    2    0    0  0.00000000000E+00  0.00000000000E+00 -0.89788861796E+03  0.37050476207E+04  0.35946034414E+04 0.  0.
        1    1    3    3  502    0 -0.16456534923E+03 -0.86567499522E+03  0.11656522733E+04  0.14612392596E+04  0.50400001928E-02 0.  1.
       -1    1    3    3    0  502  0.16456534923E+03  0.86567499522E+03 -0.20635408912E+04  0.22438083611E+04  0.50400001928E-02 0. -1.
</event>
<event>
 5   0  0.2086250E-07  0.3582755E+04  0.7818609E-02  0.8094453E-01
       -1   -1    0    0    0  501  0.00000000000E+00  0.00000000000E+00  0.20641218242E+04  0.20641218242E+04  0.50400001928E-02 0. -1.
        1   -1    0    0  501    0  0.00000000000E+00  0.00000000000E+00 -0.15546725413E+04  0.15546725413E+04  0.50400001928E-02 0.  1.
    10030    2    1    2    0    0  0.00000000000E+00  0.00000000000E+00  0.50944928298E+03  0.36187943655E+04  0.35827550974E+04 0.  0.
        2    1    3    3  502    0 -0.14964798834E+04 -0.68391162959E+03  0.97026176969E+03  0.19101295925E+04  0.25500000920E-02 0. -1.
       -2    1    3    3    0  502  0.14964798834E+04  0.68391162959E+03 -0.46081248671E+03  0.17086647730E+04  0.25500000920E-02 0.  1.
</event>
<event>
 5   0  0.6669864E-07  0.3574317E+04  0.7818609E-02  0.8096400E-01
        2   -1    0    0  501    0  0.00000000000E+00  0.00000000000E+00  0.27425791914E+04  0.27425791914E+04  0.25500000920E-02 0. -1.
       -2   -1    0    0    0  501  0.00000000000E+00  0.00000000000E+00 -0.11645737530E+04  0.11645737530E+04  0.25500000920E-02 0.  1.
    10030    2    1    2    0    0  0.00000000000E+00  0.00000000000E+00  0.15780054383E+04  0.39071529444E+04  0.35743171330E+04 0.  0.
        5    1    3    3  502    0  0.30864675985E+03  0.15679315295E+04 -0.85657261184E+02  0.16003222676E+04  0.46999998093E+01 0.  1.
       -5    1    3    3    0  502 -0.30864675985E+03 -0.15679315295E+04  0.16636626995E+04  0.23068306768E+04  0.46999998093E+01 0. -1.
</event>
<event>
 5   0  0.2193129E-07  0.3598249E+04  0.7818609E-02  0.8090893E-01
        1   -1    0    0  501    0  0.00000000000E+00  0.00000000000E+00  0.98383265094E+03  0.98383265095E+03  0.50400001928E-02 0.  1.
       -1   -1    0    0    0  501  0.00000000000E+00  0.00000000000E+00 -0.32900399097E+04  0.32900399097E+04  0.50400001928E-02 0. -1.
    10030    2    1    2    0    0  0.00000000000E+00  0.00000000000E+00 -0.23062072588E+04  0.42738725607E+04  0.35982488441E+04 0.  0.
        1    1    3    3  502    0 -0.76683238010E+03  0.13865839066E+04 -0.21652866578E+04  0.26831163113E+04  0.50400001928E-02 0. -1.
       -1    1    3    3    0  502  0.76683238010E+03 -0.13865839066E+04 -0.14092060094E+03  0.15907562494E+04  0.50400001928E-02 0.  1.
</event>
<event>
 5   0  0.6541476E-07  0.3619214E+04  0.7818609E-02  0.8086105E-01
       -2   -1    0    0    0  501  0.00000000000E+00  0.00000000000E+00  0.20448892751E+04  0.20448892751E+04  0.25500000920E-02 0. -1.
        2   -1    0    0  501    0  0.00000000000E+00  0.00000000000E+00 -0.16013963690E+04  0.16013963690E+04  0.25500000920E-02 0.  1.
    10030    2    1    2    0    0  0.00000000000E+00  0.00000000000E+00  0.44349290612E+03  0.36462856441E+04  0.36192144231E+04 0.  0.
        4    1    3    3  502    0  0.12772039004E+04 -0.35153045859E+02 -0.10693188853E+04  0.16661122504E+04  0.12699999809E+01 0.  1.
       -4    1    3    3    0  502 -0.12772039004E+04  0.35153045859E+02  0.15128117914E+04  0.19801733936E+04  0.12699999809E+01 0. -1.
</event>
<event>
 5   0  0.2086250E-07  0.3553521E+04  0.7818609E-02  0.8101222E-01
       -3   -1    0    0    0  501  0.00000000000E+00  0.00000000000E+00  0.20780553309E+04  0.20780553334E+04  0.10100000352E+00 0.  1.
        3   -1    0    0  501    0  0.00000000000E+00  0.00000000000E+00 -0.15191499961E+04  0.15191499994E+04  0.10100000352E+00 0. -1.
    10030    2    1    2    0    0  0.00000000000E+00  0.00000000000E+00  0.55890533486E+03  0.35972053328E+04  0.35535209346E+04 0.  0.
        5    1    3    3  502    0 -0.10967590318E+04 -0.11497534713E+04  0.10842368004E+04  0.19236436645E+04  0.46999998093E+01 0.  1.
       -5    1    3    3    0  502  0.10967590318E+04  0.11497534713E+04 -0.52533146554E+03  0.16735616683E+04  0.46999998093E+01 0. -1.
</event>
<event>
 5   0  0.6729577E-07  0.3592316E+04  0.7818609E-02  0.8092254E-01
       -2   -1    0    0    0  501  0.00000000000E+00  0.00000000000E+00  0.11392571516E+04  0.11392571516E+04  0.25500000920E-02 0. -1.
        2   -1    0    0  501    0  0.00000000000E+00  0.00000000000E+00 -0.28318302700E+04  0.28318302700E+04  0.25500000920E-02 0.  1.
    10030    2    1    2    0    0  0.00000000000E+00  0.00000000000E+00 -0.16925731184E+04  0.39710874216E+04  0.35923156249E+04 0.  0.
        3    1    3    3  502    0  0.85334188965E+03  0.26652097700E+03  0.87584373835E+03  0.12515302937E+04  0.10100000352E+00 0. -1.
       -3    1    3    3    0  502 -0.85334188965E+03 -0.26652097700E+03 -0.25684168568E+04  0.27195571280E+04  0.10100000352E+00 0.  1.
</event>
<event>
 5   0  0.6729577E-07  0.3616290E+04  0.7818609E-02  0.8086770E-01
        2   -1    0    0  501    0  0.00000000000E+00  0.00000000000E+00  0.23475014076E+04  0.23475014076E+04  0.25500000920E-02 0.  1.
       -2   -1    0    0    0  501  0.00000000000E+00  0.00000000000E+00 -0.13927097331E+04  0.13927097331E+04  0.25500000920E-02 0. -1.
    10030    2    1    2    0    0  0.00000000000E+00  0.00000000000E+00  0.95479167449E+03  0.37402111407E+04  0.36162898440E+04 0.  0.
        3    1    3    3  502    0  0.11042256381E+02  0.16143897310E+04 -0.36476211510E+03  0.16551216106E+04  0.10100000352E+00 0. -1.
       -3    1    3    3    0  502 -0.11042256381E+02 -0.16143897310E+04  0.13195537896E+04  0.20850895302E+04  0.10100000352E+00 0.  1.
</event>
<event>
 5   0  0.2086250E-07  0.3612331E+04  0.7818609E-02  0.8087673E-01
       -1   -1    0    0    0  501  0.00000000000E+00  0.00000000000E+00  0.31362631441E+04  0.31362631441E+04  0.50400001928E-02 0.  1.
        1   -1    0    0  501    0  0.00000000000E+00  0.00000000000E+00 -0.10401660408E+04  0.10401660408E+04  0.50400001928E-02 0. -1.
    10030    2    1    2    0    0  0.00000000000E+00  0.00000000000E+00  0.20960971033E+04  0.41764291849E+04  0.36123313345E+04 0.  0.
        3    1    3    3  502    0  0.85356081580E+03 -0.79275757518E+03 -0.54778745400E+03  0.12872846399E+04  0.10100000352E+00 0. -1.
       -3    1    3    3    0  502 -0.85356081580E+03  0.79275757518E+03  0.26438845573E+04  0.28891445450E+04  0.10100000352E+00 0.  1.
</event>
<event>
 5   0  0.6324216E-07  0.3578649E+04  0.7818609E-02  0.8095400E-01
       -2   -1    0    0    0  501  0.00000000000E+00  0.00000000000E+00  0.17877884639E+04  0.17877884639E+04  0.25500000920E-02 0. -1.
        2   -1    0    0  501    0  0.00000000000E+00  0.00000000000E+00 -0.17908613592E+04  0.17908613592E+04  0.25500000920E-02 0.  1.
    10030    2    1    2    0    0  0.00000000000E+00  0.00000000000E+00 -0.30728953480E+01  0.35786498231E+04  0.35786485038E+04 0.  0.
        2    1    3    3  502    0  0.12079158206E+04 -0.39832444445E+02 -0.13210194180E+04  0.17904579179E+04  0.25500000920E-02 0.  1.
       -2    1    3    3    0  502 -0.12079158206E+04  0.39832444445E+02  0.13179465226E+04  0.17881919052E+04  0.25500000920E-02 0. -1.
</event>
<event>
 5   0  0.6541476E-07  0.3260255E+04  0.7818609E-02  0.8173083E-01
        2   -1    0    0  501    0  0.00000000000E+00  0.00000000000E+00  0.26769343474E+04  0.26769343474E+04  0.25500000920E-02 0. -1.
       -2   -1    0    0    0  501  0.00000000000E+00  0.00000000000E+00 -0.99267119875E+03  0.99267119875E+03  0.25500000920E-02 0.  1.
    10030    2    1    2    0    0  0.00000000000E+00  0.00000000000E+00  0.16842631486E+04  0.36696055461E+04  0.32602549763E+04 0.  0.
        4    1    3    3  502    0  0.46680528101E+03  0.24920019174E+03 -0.89331149044E+03  0.10382749818E+04  0.12699999809E+01 0.  1.
       -4    1    3    3    0  502 -0.46680528101E+03 -0.24920019174E+03  0.25775746391E+04  0.26313305643E+04  0.12699999809E+01 0. -1.
</event>
<event>
 5   0  0.6541476E-07  0.3616950E+04  0.7818609E-02  0.8086620E-01
        2   -1    0    0  501    0  0.00000000000E+00  0.00000000000E+00  0.23979597609E+04  0.23979597609E+04  0.25500000920E-02 0.  1.
       -2   -1    0    0    0  501  0.00000000000E+00  0.00000000000E+00 -0.13639021007E+04  0.13639021007E+04  0.25500000920E-02 0. -1.
    10030    2    1    2    0    0  0.00000000000E+00  0.00000000000E+00  0.10340576602E+04  0.37618618615E+04  0.36169502928E+04 0.  0.
        4    1    3    3  502    0  0.63785826846E+03  0.25869348527E+03 -0.12223358237E+04  0.14028157287E+04  0.12699999809E+01 0. -1.
       -4    1    3    3    0  502 -0.63785826846E+03 -0.25869348527E+03  0.22563934839E+04  0.23590461328E+04  0.12699999809E+01 0.  1.
</event>
<event>
 5   0  0.2086250E-07  0.3570804E+04  0.7818609E-02  0.8097212E-01
       -1   -1    0    0    0  501  0.00000000000E+00  0.00000000000E+00  0.18976444739E+04  0.18976444740E+04  0.50400001928E-02 0.  1.
        1   -1    0    0  501    0  0.00000000000E+00  0.00000000000E+00 -0.16797983291E+04  0.16797983291E+04  0.50400001928E-02 0. -1.
    10030    2    1    2    0    0  0.00000000000E+00  0.00000000000E+00  0.21784614481E+03  0.35774428031E+04  0.35708038404E+04 0.  0.
        4    1    3    3  502    0  0.21926861976E+03 -0.94862043433E+03  0.16082679100E+04  0.18800230689E+04  0.12699999809E+01 0.  1.
       -4    1    3    3    0  502 -0.21926861976E+03  0.94862043433E+03 -0.13904217652E+04  0.16974197342E+04  0.12699999809E+01 0. -1.
</event>
<event>
 5   0  0.2108068E-07  0.3554389E+04  0.7818609E-02  0.8101020E-01
        1   -1    0    0  501    0  0.00000000000E+00  0.00000000000E+00  0.22753689253E+04  0.22753689253E+04  0.50400001928E-02 0.  1.
       -1   -1    0    0    0  501  0.00000000000E+00  0.00000000000E+00 -0.13880916014E+04  0.13880916014E+04  0.50400001928E-02 0. -1.
    10030    2    1    2    0    0  0.00000000000E+00  0.00000000000E+00  0.88727732389E+03  0.36634605266E+04  0.35543891150E+04 0.  0.
        5    1    3    3  502    0  0.60094638306E+03  0.69662488220E+03 -0.11235387792E+04  0.14521653694E+04  0.46999998093E+01 0. -1.
       -5    1    3    3    0  502 -0.60094638306E+03 -0.69662488220E+03  0.20108161031E+04  0.22112951572E+04  0.46999998093E+01 0.  1.
</event>
<event>
 5   0  0.2193129E-07  0.3631946E+04  0.7818609E-02  0.8083213E-01
        1   -1    0    0  501    0  0.00000000000E+00  0.00000000000E+00  0.29427184355E+04  0.29427184355E+04  0.50400001928E-02 0. -1.
       -1   -1    0    0    0  501  0.00000000000E+00  0.00000000000E+00 -0.11206503313E+04  0.11206503313E+04  0.50400001928E-02 0.  1.
    10030    2    1    2    0    0  0.00000000000E+00  0.00000000000E+00  0.18220681042E+04  0.40633687668E+04  0.36319462494E+04 0.  0.
        1    1    3    3  502    0  0.47312509030E+03 -0.13761040793E+04  0.21264741860E+04  0.25767037572E+04  0.50400001928E-02 0. -1.
       -1    1    3    3    0  502 -0.47312509030E+03  0.13761040793E+04 -0.30440608184E+03  0.14866650097E+04  0.50400001928E-02 0.  1.
</event>
<event>
 5   0  0.2086250E-07  0.3617364E+04  0.7818609E-02  0.8086526E-01
       -1   -1    0    0    0  501  0.00000000000E+00  0.00000000000E+00  0.13154491613E+04  0.13154491613E+04  0.50400001928E-02 0. -1.
        1   -1    0    0  501    0  0.00000000000E+00  0.00000000000E+00 -0.24868546773E+04  0.24868546773E+04  0.50400001928E-02 0.  1.
    10030    2    1    2    0    0  0.00000000000E+00  0.00000000000E+00 -0.11714055160E+04  0.38023038387E+04  0.36173641783E+04 0.  0.
        4    1    3    3  502    0  0.56470916762E+03 -0.11969778377E+04 -0.18814796037E+04  0.23003520382E+04  0.12699999809E+01 0.  1.
       -4    1    3    3    0  502 -0.56470916762E+03  0.11969778377E+04  0.71007408765E+03  0.15019518004E+04  0.12699999809E+01 0. -1.
</event>
<event>
 5   0  0.2193129E-07  0.3612677E+04  0.7818609E-02  0.8087594E-01
       -1   -1    0    0    0  501  0.00000000000E+00  0.00000000000E+00  0.26589906477E+04  0.26589906477E+04  0.50400001928E-02 0. -1.
        1   -1    0    0  501    0  0.00000000000E+00  0.00000000000E+00 -0.12271042793E+04  0.12271042793E+04  0.50400001928E-02 0.  1.
    10030    2    1    2    0    0  0.00000000000E+00  0.00000000000E+00  0.14318863684E+04  0.38860949270E+04  0.36126770143E+04 0.  0.
        1    1    3    3  502    0  0.10335346390E+04  0.48114271411E+03  0.22231153048E+04  0.24983862431E+04  0.50400001928E-02 0. -1.
       -1    1    3    3    0  502 -0.10335346390E+04 -0.48114271411E+03 -0.79122893642E+03  0.13877086838E+04  0.50400001928E-02 0.  1.
</event>
<event>
 5   0  0.6324216E-07  0.3521473E+04  0.7818609E-02  0.8108720E-01
        2   -1    0    0  501    0  0.00000000000E+00  0.00000000000E+00  0.13831362672E+04  0.13831362672E+04  0.25500000920E-02 0. -1.
       -2   -1    0    0    0  501  0.00000000000E+00  0.00000000000E+00 -0.22414233019E+04  0.22414233019E+04  0.25500000920E-02 0.  1.
    10030    2    1    2    0    0  0.00000000000E+00  0.00000000000E+00 -0.85828703476E+03  0.36245595691E+04  0.35214734752E+04 0.  0.
        2    1    3    3  502    0 -0.86869762311E+03  0.89284885902E+03  0.85162158736E+03  0.15089976718E+04  0.25500000920E-02 0. -1.
       -2    1    3    3    0  502  0.86869762311E+03 -0.89284885902E+03 -0.17099086221E+04  0.21155618973E+04  0.25500000920E-02 0.  1.
</event>
<event>
 5   0  0.2086250E-07  0.3551582E+04  0.7818609E-02  0.8101673E-01
        1   -1    0    0  501    0  0.00000000000E+00  0.00000000000E+00  0.20547722211E+04  0.20547722211E+04  0.50400001928E-02 0.  1.
       -1   -1    0    0    0  501  0.00000000000E+00  0.00000000000E+00 -0.15346873939E+04  0.15346873939E+04  0.50400001928E-02 0. -1.
    10030    2    1    2    0    0  0.00000000000E+00  0.00000000000E+00  0.52008482715E+03  0.35894596150E+04  0.35515816336E+04 0.  0.
        4    1    3    3  502    0 -0.40414324762E+03 -0.79209264721E+03  0.18135398438E+04  0.20198195227E+04  0.12699999809E+01 0.  1.
       -4    1    3    3    0  502  0.40414324762E+03  0.79209264721E+03 -0.12934550166E+04  0.15696400923E+04  0.12699999809E+01 0. -1.
</event>
<event>
 5   0  0.6324216E-07  0.3572821E+04  0.7818609E-02  0.8096746E-01
        2   -1    0    0  501    0  0.00000000000E+00  0.00000000000E+00  0.17327236023E+04  0.17327236023E+04  0.25500000920E-02 0.  1.
       -2   -1    0    0    0  501  0.00000000000E+00  0.00000000000E+00 -0.18417609817E+04  0.18417609817E+04  0.25500000920E-02 0. -1.
    10030    2    1    2    0    0  0.00000000000E+00  0.00000000000E+00 -0.10903737934E+03  0.35744845840E+04  0.35728211390E+04 0.  0.
        2    1    3    3  502    0 -0.76753505251E+03 -0.16006278822E+04  0.14593189589E+03  0.17811276744E+04  0.25500000920E-02 0.  1.
       -2    1    3    3    0  502  0.76753505251E+03  0.16006278822E+04 -0.25496927523E+03  0.17933569097E+04  0.25500000920E-02 0. -1.
</event>
<event>
 5   0  0.2193129E-07  0.3603283E+04  0.7818609E-02  0.8089740E-01
        1   -1    0    0  501    0  0.00000000000E+00  0.00000000000E+00  0.19863147610E+04  0.19863147610E+04  0.50400001928E-02 0.  1.
       -1   -1    0    0    0  501  0.00000000000E+00  0.00000000000E+00 -0.16341376126E+04  0.16341376126E+04  0.50400001928E-02 0. -1.
    10030    2    1    2    0    0  0.00000000000E+00  0.00000000000E+00  0.35217714844E+03  0.36204523736E+04  0.36032827596E+04 0.  0.
        1    1    3    3  502    0 -0.16505385159E+04 -0.36888667410E+03 -0.44780243856E+03  0.17495375946E+04  0.50400001928E-02 0. -1.
       -1    1    3    3    0  502  0.16505385159E+04  0.36888667410E+03  0.79997958700E+03  0.18709147790E+04  0.50400001928E-02 0.  1.
</event>
<event>
 5   0  0.2086250E-07  0.3555429E+04  0.7818609E-02  0.8100778E-01
        1   -1    0    0  501    0  0.00000000000E+00  0.00000000000E+00  0.21505495324E+04  0.21505495324E+04  0.50400001928E-02 0.  1.
       -1   -1    0    0    0  501  0.00000000000E+00  0.00000000000E+00 -0.14695169069E+04  0.14695169069E+04  0.50400001928E-02 0. -1.
    10030    2    1    2    0    0  0.00000000000E+00  0.00000000000E+00  0.68103262554E+03  0.36200664394E+04  0.35554290301E+04 0.  0.
        3    1    3    3  502    0  0.17655550030E+04 -0.16071116198E+03  0.20676474482E+03  0.17848709242E+04  0.10100000352E+00 0. -1.
       -3    1    3    3    0  502 -0.17655550030E+04  0.16071116198E+03  0.47426788072E+03  0.18351955152E+04  0.10100000352E+00 0.  1.
</event>
<event>
 5   0  0.6324216E-07  0.3394735E+04  0.7818609E-02  0.8139200E-01
       -2   -1    0    0    0  501  0.00000000000E+00  0.00000000000E+00  0.13789609604E+04  0.13789609604E+04  0.25500000920E-02 0. -1.
        2   -1    0    0  501    0  0.00000000000E+00  0.00000000000E+00 -0.20892948179E+04  0.20892948179E+04  0.25500000920E-02 0.  1.
    10030    2    1    2    0    0  0.00000000000E+00  0.00000000000E+00 -0.71033385744E+03  0.34682557783E+04  0.33947347400E+04 0.  0.
        2    1    3    3  502    0 -0.74785630011E+03 -0.12029494578E+04 -0.13106648772E+04  0.19298235318E+04  0.25500000920E-02 0.  1.
       -2    1    3    3    0  502  0.74785630011E+03  0.12029494578E+04  0.60033101974E+03  0.15384322465E+04  0.25500000920E-02 0. -1.
</event>
<event>
 5   0  0.6848661E-07  0.3493415E+04  0.7818609E-02  0.8115352E-01
       -2   -1    0    0    0  501  0.00000000000E+00  0.00000000000E+00  0.21448137213E+04  0.21448137213E+04  0.25500000920E-02 0.  1.
        2   -1    0    0  501    0  0.00000000000E+00  0.00000000000E+00 -0.14224953454E+04  0.14224953454E+04  0.25500000920E-02 0. -1.
    10030    2    1    2    0    0  0.00000000000E+00  0.00000000000E+00  0.72231837591E+03  0.35673090668E+04  0.34934152547E+04 0.  0.
        1    1    3    3  502    0  0.36210716619E+03 -0.11451266480E+04 -0.93395460525E+03  0.15214163942E+04  0.50400001928E-02 0. -1.
       -1    1    3    3    0  502 -0.36210716619E+03  0.11451266480E+04  0.16562729812E+04  0.20458926726E+04  0.50400001928E-02 0.  1.
</event>
<event>
 5   0  0.6669864E-07  0.3481416E+04  0.7818609E-02  0.8118208E-01
        2   -1    0    0  501    0  0.00000000000E+00  0.00000000000E+00  0.14934871399E+04  0.14934871399E+04  0.25500000920E-02 0.  1.
       -2   -1    0    0    0  501  0.00000000000E+00  0.00000000000E+00 -0.20288520661E+04  0.20288520661E+04  0.25500000920E-02 0. -1.
    10030    2    1    2    0    0  0.00000000000E+00  0.00000000000E+00 -0.53536492620E+03  0.35223392060E+04  0.34814160736E+04 0.  0.
        5    1    3    3  502    0 -0.14149995745E+04  0.47057724138E+03  0.64085731689E+03  0.16230794578E+04  0.46999998093E+01 0.  1.
       -5    1    3    3    0  502  0.14149995745E+04 -0.47057724138E+03 -0.11762222431E+04  0.18992597482E+04  0.46999998093E+01 0. -1.
</event>
<event>
 5   0  0.2086250E-07  0.3597026E+04  0.7818609E-02  0.8091173E-01
       -1   -1    0    0    0  501  0.00000000000E+00  0.00000000000E+00  0.11827075730E+04  0.11827075731E+04  0.50400001928E-02 0.  1.
        1   -1    0    0  501    0  0.00000000000E+00  0.00000000000E+00 -0.27349523948E+04  0.27349523948E+04  0.50400001928E-02 0. -1.
    10030    2    1    2    0    0  0.00000000000E+00  0.00000000000E+00 -0.15522448218E+04  0.39176599679E+04  0.35970259434E+04 0.  0.
        4    1    3    3  502    0 -0.13638526804E+04 -0.11111095706E+04 -0.11836243082E+04  0.21202893028E+04  0.12699999809E+01 0. -1.
       -4    1    3    3    0  502  0.13638526804E+04  0.11111095706E+04 -0.36862051351E+03  0.17973706650E+04  0.12699999809E+01 0.  1.
</event>
<event>
 5   0  0.2193129E-07  0.3592950E+04  0.7818609E-02  0.8092108E-01
       -1   -1    0    0    0  501  0.00000000000E+00  0.00000000000E+00  0.18259949789E+04  0.18259949789E+04  0.50400001928E-02 0.  1.
        1   -1    0    0  501    0  0.00000000000E+00  0.00000000000E+00 -0.17674324945E+04  0.17674324946E+04  0.50400001928E-02 0. -1.
    10030    2    1    2    0    0  0.00000000000E+00  0.00000000000E+00  0.58562484394E+02  0.35934274735E+04  0.35929502422E+04 0.  0.
        1    1    3    3  502    0  0.82863324449E+03  0.53445665609E+03 -0.14725992389E+04  0.17722374247E+04  0.50400001928E-02 0. -1.
       -1    1    3    3    0  502 -0.82863324449E+03 -0.53445665609E+03  0.15311617233E+04  0.18211900488E+04  0.50400001928E-02 0.  1.
</event>
<event>
 5   0  0.2108068E-07  0.3597696E+04  0.7818609E-02  0.8091020E-01
       -1   -1    0    0    0  501  0.00000000000E+00  0.00000000000E+00  0.30932629866E+04  0.30932629866E+04  0.50400001928E-02 0. -1.
        1   -1    0    0  501    0  0.00000000000E+00  0.00000000000E+00 -0.10460972276E+04  0.10460972276E+04  0.50400001928E-02 0.  1.
    10030    2    1    2    0    0  0.00000000000E+00  0.00000000000E+00  0.20471657591E+04  0.41393602142E+04  0.35976958374E+04 0.  0.
        5    1    3    3  502    0  0.16864489889E+04 -0.58720552429E+03  0.12727823776E+04  0.21929244379E+04  0.46999998093E+01 0.  1.
       -5    1    3    3    0  502 -0.16864489889E+04  0.58720552429E+03  0.77438338145E+03  0.19464357763E+04  0.46999998093E+01 0. -1.
</event>
<event>
 5   0  0.6729577E-07  0.3502098E+04  0.7818609E-02  0.8113293E-01
       -2   -1    0    0    0  501  0.00000000000E+00  0.00000000000E+00  0.13148831240E+04  0.13148831241E+04  0.25500000920E-02 0. -1.
        2   -1    0    0  501    0  0.00000000000E+00  0.00000000000E+00 -0.23318969428E+04  0.23318969428E+04  0.25500000920E-02 0.  1.
    10030    2    1    2    0    0  0.00000000000E+00  0.00000000000E+00 -0.10170138188E+04  0.36467800669E+04  0.35020976212E+04 0.  0.
        3    1    3    3  502    0  0.61645936846E+03  0.64439659980E+03 -0.20777152107E+04  0.22610107557E+04  0.10100000352E+00 0.  1.
       -3    1    3    3    0  502 -0.61645936846E+03 -0.64439659980E+03  0.10607013919E+04  0.13857693111E+04  0.10100000352E+00 0. -1.
</event>
<event>
 5   0  0.6324216E-07  0.3586895E+04  0.7818609E-02  0.8093500E-01
       -2   -1    0    0    0  501  0.00000000000E+00  0.00000000000E+00  0.95743974740E+03  0.95743974740E+03  0.25500000920E-02 0.  1.
        2   -1    0    0  501    0  0.00000000000E+00  0.00000000000E+00 -0.33594330801E+04  0.33594330801E+04  0.25500000920E-02 0. -1.
    10030    2    1    2    0    0  0.00000000000E+00  0.00000000000E+00 -0.24019933327E+04  0.43168728275E+04  0.35868954597E+04 0.  0.
        2    1    3    3  502    0 -0.65022192065E+03  0.78944371373E+02  0.80834056762E+03  0.10404014769E+04  0.25500000920E-02 0.  1.
       -2    1    3    3    0  502  0.65022192065E+03 -0.78944371373E+02 -0.32103339003E+04  0.32764713506E+04  0.25500000920E-02 0. -1.
</event>
<event>
 5   0  0.2086250E-07  0.3617936E+04  0.7818609E-02  0.8086396E-01
       -1   -1    0    0    0  501  0.00000000000E+00  0.00000000000E+00  0.22542721762E+04  0.22542721762E+04  0.50400001928E-02 0. -1.
        1   -1    0    0  501    0  0.00000000000E+00  0.00000000000E+00 -0.14516279299E+04  0.14516279299E+04  0.50400001928E-02 0.  1.
    10030    2    1    2    0    0  0.00000000000E+00  0.00000000000E+00  0.80264424627E+03  0.37059001061E+04  0.36179355730E+04 0.  0.
        2    1    3    3  502    0  0.16154505543E+04 -0.31286797852E+03  0.11711245858E+04  0.20196781082E+04  0.25500000920E-02 0. -1.
       -2    1    3    3    0  502 -0.16154505543E+04  0.31286797852E+03 -0.36848033955E+03  0.16862219978E+04  0.25500000920E-02 0.  1.
</event>
<event>
 5   0  0.2086250E-07  0.3608417E+04  0.7818609E-02  0.8088567E-01
       -1   -1    0    0    0  501  0.00000000000E+00  0.00000000000E+00  0.19929937125E+04  0.19929937125E+04  0.50400001928E-02 0. -1.
        1   -1    0    0  501    0  0.00000000000E+00  0.00000000000E+00 -0.16333054329E+04  0.16333054329E+04  0.50400001928E-02 0.  1.
    10030    2    1    2    0    0  0.00000000000E+00  0.00000000000E+00  0.35968827958E+03  0.36262991454E+04  0.36084165272E+04 0.  0.
        2    1    3    3  502    0 -0.40298557225E+03  0.24525261210E+03 -0.15702284015E+04  0.16395619683E+04  0.25500000920E-02 0.  1.
       -2    1    3    3    0  502  0.40298557225E+03 -0.24525261210E+03  0.19299166810E+04  0.19867371771E+04  0.25500000920E-02 0. -1.
</event>
<event>
 5   0  0.6541476E-07  0.3452015E+04  0.7818609E-02  0.8125257E-01
       -2   -1    0    0    0  501  0.00000000000E+00  0.00000000000E+00  0.28391486100E+04  0.28391486100E+04  0.25500000920E-02 0.  1.
        2   -1    0    0  501    0  0.00000000000E+00  0.00000000000E+00 -0.10492943217E+04  0.10492943217E+04  0.25500000920E-02 0. -1.
    10030    2    1    2    0    0  0.00000000000E+00  0.00000000000E+00  0.17898542883E+04  0.38884429317E+04  0.34520153620E+04 0.  0.
        4    1    3    3  502    0  0.43019012509E+03  0.79834765899E+02  0.27756430823E+04  0.28099169501E+04  0.12699999809E+01 0.  1.
       -4    1    3    3    0  502 -0.43019012509E+03 -0.79834765899E+02 -0.98578879401E+03  0.10785259815E+04  0.12699999809E+01 0. -1.
</event>
<event>
 5   0  0.2086250E-07  0.3616490E+04  0.7818609E-02  0.8086725E-01
        1   -1    0    0  501    0  0.00000000000E+00  0.00000000000E+00  0.19931916158E+04  0.19931916158E+04  0.50400001928E-02 0. -1.
       -1   -1    0    0    0  501  0.00000000000E+00  0.00000000000E+00 -0.16404596197E+04  0.16404596197E+04  0.50400001928E-02 0.  1.
    10030    2    1    2    0    0  0.00000000000E+00  0.00000000000E+00  0.35273199610E+03  0.36336512356E+04  0.36164902102E+04 0.  0.
        3    1    3    3  502    0  0.74915777666E+03 -0.16182543515E+04  0.47739717131E+03  0.18460478298E+04  0.10100000352E+00 0. -1.
       -3    1    3    3    0  502 -0.74915777666E+03  0.16182543515E+04 -0.12466517521E+03  0.17876034058E+04  0.10100000352E+00 0.  1.
</event>
<event>
 5   0  0.6848661E-07  0.3536820E+04  0.7818609E-02  0.8105119E-01
        2   -1    0    0  501    0  0.00000000000E+00  0.00000000000E+00  0.22169149656E+04  0.22169149656E+04  0.25500000920E-02 0.  1.
       -2   -1    0    0    0  501  0.00000000000E+00  0.00000000000E+00 -0.14106424263E+04  0.14106424263E+04  0.25500000920E-02 0. -1.
    10030    2    1    2    0    0  0.00000000000E+00  0.00000000000E+00  0.80627253936E+03  0.36275573919E+04  0.35368202137E+04 0.  0.
        1    1    3    3  502    0  0.17509620712E+04 -0.16085871679E+03  0.59646776334E+03  0.18567491737E+04  0.50400001928E-02 0.  1.
       -1    1    3    3    0  502 -0.17509620712E+04  0.16085871679E+03  0.20980477602E+03  0.17708082182E+04  0.50400001928E-02 0. -1.
</event>
<event>
 5   0  0.2086250E-07  0.3630674E+04  0.7818609E-02  0.8083501E-01
        1   -1    0    0  501    0  0.00000000000E+00  0.00000000000E+00  0.15802405760E+04  0.15802405761E+04  0.50400001928E-02 0. -1.
       -1   -1    0    0    0  501  0.00000000000E+00  0.00000000000E+00 -0.20854087655E+04  0.20854087655E+04  0.50400001928E-02 0.  1.
    10030    2    1    2    0    0  0.00000000000E+00  0.00000000000E+00 -0.50516818944E+03  0.36656493415E+04  0.36306735182E+04 0.  0.
        2    1    3    3  502    0  0.87754900862E+03  0.20015865509E+03  0.13390836435E+04  0.16134747454E+04  0.25500000920E-02 0. -1.
       -2    1    3    3    0  502 -0.87754900862E+03 -0.20015865509E+03 -0.18442518329E+04  0.20521745961E+04  0.25500000920E-02 0.  1.
</event>
<event>
 5   0  0.2086250E-07  0.3628305E+04  0.7818609E-02  0.8084039E-01
       -1   -1    0    0    0  501  0.00000000000E+00  0.00000000000E+00  0.22840725178E+04  0.22840725178E+04  0.50400001928E-02 0. -1.
        1   -1    0    0  501    0  0.00000000000E+00  0.00000000000E+00 -0.14409130204E+04  0.14409130204E+04  0.50400001928E-02 0.  1.
    10030    2    1    2    0    0  0.00000000000E+00  0.00000000000E+00  0.84315949744E+03  0.37249855382E+04  0.36283052961E+04 0.  0.
        4    1    3    3  502    0 -0.45226917942E+03  0.98967288468E+03 -0.10687018136E+04  0.15251639284E+04  0.12699999809E+01 0.  1.
       -4    1    3    3    0  502  0.45226917942E+03 -0.98967288468E+03  0.19118613110E+04  0.21998216098E+04  0.12699999809E+01 0. -1.
</event>
<event>
 5   0  0.6541476E-07  0.3605709E+04  0.7818609E-02  0.8089185E-01
       -2   -1    0    0    0  501  0.00000000000E+00  0.00000000000E+00  0.18113749068E+04  0.18113749068E+04  0.25500000920E-02 0.  1.
        2   -1    0    0  501    0  0.00000000000E+00  0.00000000000E+00 -0.17943741937E+04  0.17943741937E+04  0.25500000920E-02 0. -1.
    10030    2    1    2    0    0  0.00000000000E+00  0.00000000000E+00  0.17000713104E+02  0.36057491005E+04  0.36057090220E+04 0.  0.
        4    1    3    3  502    0  0.78934666665E+03 -0.14173265655E+04 -0.77789252813E+03  0.17991667937E+04  0.12699999809E+01 0. -1.
       -4    1    3    3    0  502 -0.78934666665E+03  0.14173265655E+04  0.79489324123E+03  0.18065823068E+04  0.12699999809E+01 0.  1.
</event>
<event>
 5   0  0.6324216E-07  0.3603077E+04  0.7818609E-02  0.8089787E-01
        2   -1    0    0  501    0  0.00000000000E+00  0.00000000000E+00  0.28751653308E+04  0.28751653308E+04  0.25500000920E-02 0.  1.
       -2   -1    0    0    0  501  0.00000000000E+00  0.00000000000E+00 -0.11288188963E+04  0.11288188963E+04  0.25500000920E-02 0. -1.
    10030    2    1    2    0    0  0.00000000000E+00  0.00000000000E+00  0.17463464345E+04  0.40039842271E+04  0.36030769936E+04 0.  0.
        2    1    3    3  502    0 -0.13526908729E+04 -0.29260240318E+03  0.21548233373E+04  0.25609866027E+04  0.25500000920E-02 0.  1.
       -2    1    3    3    0  502  0.13526908729E+04  0.29260240318E+03 -0.40847690278E+03  0.14429976244E+04  0.25500000920E-02 0. -1.
</event>
<event>
 5   0  0.2108068E-07  0.3735566E+04  0.7818609E-02  0.8060125E-01
        1   -1    0    0  501    0  0.00000000000E+00  0.00000000000E+00  0.24831509730E+04  0.24831509730E+04  0.50400001928E-02 0.  1.
       -1   -1    0    0    0  501  0.00000000000E+00  0.00000000000E+00 -0.14049138196E+04  0.14049138196E+04  0.50400001928E-02 0. -1.
    10030    2    1    2    0    0  0.00000000000E+00  0.00000000000E+00  0.10782371534E+04  0.38880647926E+04  0.37355658839E+04 0.  0.
        5    1    3    3  502    0  0.12213069799E+04 -0.13874800665E+04  0.26003158936E+03  0.18666360630E+04  0.46999998093E+01 0. -1.
       -5    1    3    3    0  502 -0.12213069799E+04  0.13874800665E+04  0.81820556399E+03  0.20214287297E+04  0.46999998093E+01 0.  1.
</event>
<event>
 5   0  0.6669864E-07  0.3594241E+04  0.7818609E-02  0.8091812E-01
        2   -1    0    0  501    0  0.00000000000E+00  0.00000000000E+00  0.20740924843E+04  0.20740924843E+04  0.25500000920E-02 0. -1.
       -2   -1    0    0    0  501  0.00000000000E+00  0.00000000000E+00 -0.15571346447E+04  0.15571346447E+04  0.25500000920E-02 0.  1.
    10030    2    1    2    0    0  0.00000000000E+00  0.00000000000E+00  0.51695783956E+03  0.36312271289E+04  0.35942405393E+04 0.  0.
        5    1    3    3  502    0  0.95373230300E+03  0.15184026728E+04  0.13696154321E+03  0.17983138038E+04  0.46999998093E+01 0.  1.
       -5    1    3    3    0  502 -0.95373230300E+03 -0.15184026728E+04  0.37999629635E+03  0.18329133252E+04  0.46999998093E+01 0. -1.
</event>
<event>
 5   0  0.6324216E-07  0.3474527E+04  0.7818609E-02  0.8119853E-01
       -2   -1    0    0    0  501  0.00000000000E+00  0.00000000000E+00  0.17774807375E+04  0.17774807375E+04  0.25500000920E-02 0.  1.
        2   -1    0    0  501    0  0.00000000000E+00  0.00000000000E+00 -0.16979563649E+04  0.16979563649E+04  0.25500000920E-02 0. -1.
    10030    2    1    2    0    0  0.00000000000E+00  0.00000000000E+00  0.79524372568E+02  0.34754371024E+04  0.34745271516E+04 0.  0.
        2    1    3    3  502    0  0.75899839026E+02 -0.13094551527E+04  0.11792054394E+04  0.17637911018E+04  0.25500000920E-02 0.  1.
       -2    1    3    3    0  502 -0.75899839026E+02  0.13094551527E+04 -0.10996810669E+04  0.17116460006E+04  0.25500000920E-02 0. -1.
</event>
<event>
 5   0  0.2086250E-07  0.3607249E+04  0.7818609E-02  0.8088833E-01
        1   -1    0    0  501    0  0.00000000000E+00  0.00000000000E+00  0.30300590208E+04  0.30300590208E+04  0.50400001928E-02 0.  1.
       -1   -1    0    0    0  501  0.00000000000E+00  0.00000000000E+00 -0.10735967325E+04  0.10735967326E+04  0.50400001928E-02 0. -1.
    10030    2    1    2    0    0  0.00000000000E+00  0.00000000000E+00  0.19564622883E+04  0.41036557534E+04  0.36072490705E+04 0.  0.
        2    1    3    3  502    0  0.30311899684E+03 -0.74623406194E+03 -0.85763728236E+03  0.11765577374E+04  0.25500000920E-02 0. -1.
       -2    1    3    3    0  502 -0.30311899684E+03  0.74623406194E+03  0.28140995706E+04  0.29270980159E+04  0.25500000920E-02 0.  1.
</event>
<event>
 5   0  0.2086250E-07  0.3611399E+04  0.7818609E-02  0.8087886E-01
        1   -1    0    0  501    0  0.00000000000E+00  0.00000000000E+00  0.25130907308E+04  0.25130907308E+04  0.50400001928E-02 0. -1.
       -1   -1    0    0    0  501  0.00000000000E+00  0.00000000000E+00 -0.12974267500E+04  0.12974267501E+04  0.50400001928E-02 0.  1.
    10030    2    1    2    0    0  0.00000000000E+00  0.00000000000E+00  0.12156639808E+04  0.38105174809E+04  0.36113992521E+04 0.  0.
        3    1    3    3  502    0  0.27253840122E+03 -0.10156093861E+04 -0.94103134502E+03  0.14111270700E+04  0.10100000352E+00 0.  1.
       -3    1    3    3    0  502 -0.27253840122E+03  0.10156093861E+04  0.21566953258E+04  0.23993904109E+04  0.10100000352E+00 0. -1.
</event>
<event>
 5   0  0.6848661E-07  0.3608942E+04  0.7818609E-02  0.8088446E-01
        2   -1    0    0  501    0  0.00000000000E+00  0.00000000000E+00  0.32090333739E+04  0.32090333739E+04  0.25500000920E-02 0.  1.
       -2   -1    0    0    0  501  0.00000000000E+00  0.00000000000E+00 -0.10146718251E+04  0.10146718251E+04  0.25500000920E-02 0. -1.
    10030    2    1    2    0    0  0.00000000000E+00  0.00000000000E+00  0.21943615488E+04  0.42237051990E+04  0.36089420889E+04 0.  0.
        1    1    3    3  502    0 -0.41740902438E+03 -0.78364014880E+03 -0.74133812878E+03  0.11566781738E+04  0.50400001928E-02 0. -1.
       -1    1    3    3    0  502  0.41740902438E+03  0.78364014880E+03  0.29356996776E+04  0.30670270252E+04  0.50400001928E-02 0.  1.
</event>
<event>
 5   0  0.2086250E-07  0.3624186E+04  0.7818609E-02  0.8084974E-01
        1   -1    0    0  501    0  0.00000000000E+00  0.00000000000E+00  0.21642700303E+04  0.21642700303E+04  0.50400001928E-02 0. -1.
       -1   -1    0    0    0  501  0.00000000000E+00  0.00000000000E+00 -0.15172233446E+04  0.15172233446E+04  0.50400001928E-02 0.  1.
    10030    2    1    2    0    0  0.00000000000E+00  0.00000000000E+00  0.64704668569E+03  0.36814933748E+04  0.36241859852E+04 0.  0.
        3    1    3    3  502    0  0.23366246721E+03  0.14970844348E+03 -0.14955101564E+04  0.15210395803E+04  0.10100000352E+00 0.  1.
       -3    1    3    3    0  502 -0.23366246721E+03 -0.14970844348E+03  0.21425568421E+04  0.21604537946E+04  0.10100000352E+00 0. -1.
</event>
<event>
 5   0  0.6324216E-07  0.3517531E+04  0.7818609E-02  0.8109648E-01
       -2   -1    0    0    0  501  0.00000000000E+00  0.00000000000E+00  0.29467493455E+04  0.29467493455E+04  0.25500000920E-02 0.  1.
        2   -1    0    0  501    0  0.00000000000E+00  0.00000000000E+00 -0.10497181873E+04  0.10497181873E+04  0.25500000920E-02 0. -1.
    10030    2    1    2    0    0  0.00000000000E+00  0.00000000000E+00  0.18970311582E+04  0.39964675328E+04  0.35175311691E+04 0.  0.
        2    1    3    3  502    0 -0.38926312483E+03 -0.47797694090E+03  0.28199936073E+04  0.28865813139E+04  0.25500000920E-02 0.  1.
       -2    1    3    3    0  502  0.38926312483E+03  0.47797694090E+03 -0.92296244917E+03  0.11098862189E+04  0.25500000920E-02 0. -1.
</event>
<event>
 5   0  0.6729577E-07  0.3570814E+04  0.7818609E-02  0.8097210E-01
        2   -1    0    0  501    0  0.00000000000E+00  0.00000000000E+00  0.18045878840E+04  0.18045878840E+04  0.25500000920E-02 0. -1.
       -2   -1    0    0    0  501  0.00000000000E+00  0.00000000000E+00 -0.17664297913E+04  0.17664297913E+04  0.25500000920E-02 0.  1.
    10030    2    1    2    0    0  0.00000000000E+00  0.00000000000E+00  0.38158092772E+02  0.35710176753E+04  0.35708138004E+04 0.  0.
        3    1    3    3  502    0 -0.83901292686E+03  0.11886400177E+04  0.10539666208E+04  0.17965671240E+04  0.10100000352E+00 0. -1.
       -3    1    3    3    0  502  0.83901292686E+03 -0.11886400177E+04 -0.10158085280E+04  0.17744505513E+04  0.10100000352E+00 0.  1.
</event>
<event>
 5   0  0.6848661E-07  0.3594866E+04  0.7818609E-02  0.8091669E-01
        2   -1    0    0  501    0  0.00000000000E+00  0.00000000000E+00  0.18573627213E+04  0.18573627213E+04  0.25500000920E-02 0.  1.
       -2   -1    0    0    0  501  0.00000000000E+00  0.00000000000E+00 -0.17394366368E+04  0.17394366368E+04  0.25500000920E-02 0. -1.
    10030    2    1    2    0    0  0.00000000000E+00  0.00000000000E+00  0.11792608444E+03  0.35967993581E+04  0.35948656527E+04 0.  0.
        1    1    3    3  502    0 -0.34839790922E+02  0.13611444648E+04  0.12329810660E+04  0.18368914977E+04  0.50400001928E-02 0.  1.
       -1    1    3    3    0  502  0.34839790922E+02 -0.13611444648E+04 -0.11150549816E+04  0.17599078604E+04  0.50400001928E-02 0. -1.
</event>
<event>
 5   0  0.6669864E-07  0.3492015E+04  0.7818609E-02  0.8115685E-01
       -2   -1    0    0    0  501  0.00000000000E+00  0.00000000000E+00  0.10313556582E+04  0.10313556582E+04  0.25500000920E-02 0.  1.
        2   -1    0    0  501    0  0.00000000000E+00  0.00000000000E+00 -0.29558595269E+04  0.29558595269E+04  0.25500000920E-02 0. -1.
    10030    2    1    2    0    0  0.00000000000E+00  0.00000000000E+00 -0.19245038687E+04  0.39872151851E+04  0.34920151477E+04 0.  0.
        5    1    3    3  502    0  0.10431534745E+04  0.10831173175E+04 -0.19753192933E+04  0.24825834720E+04  0.46999998093E+01 0. -1.
       -5    1    3    3    0  502 -0.10431534745E+04 -0.10831173175E+04  0.50815424621E+02  0.15046317131E+04  0.46999998093E+01 0.  1.
</event>
<event>
 5   0  0.2086250E-07  0.3647384E+04  0.7818609E-02  0.8079723E-01
        1   -1    0    0  501    0  0.00000000000E+00  0.00000000000E+00  0.23873758003E+04  0.23873758003E+04  0.50400001928E-02 0.  1.
       -1   -1    0    0    0  501  0.00000000000E+00  0.00000000000E+00 -0.13930996816E+04  0.13930996816E+04  0.50400001928E-02 0. -1.
    10030    2    1    2    0    0  0.00000000000E+00  0.00000000000E+00  0.99427611876E+03  0.37804754819E+04  0.36473839761E+04 0.  0.
        4    1    3    3  502    0  0.54779285275E+03  0.25206818406E+03  0.22810554093E+04  0.23594132263E+04  0.12699999809E+01 0.  1.
       -4    1    3    3    0  502 -0.54779285275E+03 -0.25206818406E+03 -0.12867792906E+04  0.14210622557E+04  0.12699999809E+01 0. -1.
</event>
<event>
 5   0  0.2108068E-07  0.3578981E+04  0.7818609E-02  0.8095323E-01
        1   -1    0    0  501    0  0.00000000000E+00  0.00000000000E+00  0.15136330844E+04  0.15136330844E+04  0.50400001928E-02 0.  1.
       -1   -1    0    0    0  501  0.00000000000E+00  0.00000000000E+00 -0.21156227703E+04  0.21156227703E+04  0.50400001928E-02 0. -1.
    10030    2    1    2    0    0  0.00000000000E+00  0.00000000000E+00 -0.60198968595E+03  0.36292558547E+04  0.35789812066E+04 0.  0.
        5    1    3    3  502    0  0.99645014069E+03 -0.53028698747E+03  0.11070845826E+04  0.15810678464E+04  0.46999998093E+01 0.  1.
       -5    1    3    3    0  502 -0.99645014069E+03  0.53028698747E+03 -0.17090742685E+04  0.20481880083E+04  0.46999998093E+01 0. -1.
</event>
<event>
 5   0  0.6541476E-07  0.3590501E+04  0.7818609E-02  0.8092671E-01
       -2   -1    0    0    0  501  0.00000000000E+00  0.00000000000E+00  0.10282315875E+04  0.10282315875E+04  0.25500000920E-02 0.  1.
        2   -1    0    0  501    0  0.00000000000E+00  0.00000000000E+00 -0.31344337503E+04  0.31344337503E+04  0.25500000920E-02 0. -1.
    10030    2    1    2    0    0  0.00000000000E+00  0.00000000000E+00 -0.21062021628E+04  0.41626653378E+04  0.35905006843E+04 0.  0.
        4    1    3    3  502    0 -0.39179121035E+03  0.99146686372E+03 -0.27277233444E+04  0.29286486903E+04  0.12699999809E+01 0. -1.
       -4    1    3    3    0  502  0.39179121035E+03 -0.99146686372E+03  0.62152118159E+03  0.12340166476E+04  0.12699999809E+01 0.  1.
</event>
<event>
 5   0  0.2086250E-07  0.2976323E+04  0.7818609E-02  0.8250524E-01
        1   -1    0    0  501    0  0.00000000000E+00  0.00000000000E+00  0.16041445332E+04  0.16041445332E+04  0.50400001928E-02 0. -1.
       -1   -1    0    0    0  501  0.00000000000E+00  0.00000000000E+00 -0.13805644025E+04  0.13805644025E+04  0.50400001928E-02 0.  1.
    10030    2    1    2    0    0  0.00000000000E+00  0.00000000000E+00  0.22358013062E+03  0.29847089357E+04  0.29763231270E+04 0.  0.
        4    1    3    3  502    0 -0.74057299176E+03 -0.49579710770E+03 -0.10833564194E+04  0.14028278128E+04  0.12699999809E+01 0.  1.
       -4    1    3    3    0  502  0.74057299176E+03  0.49579710770E+03  0.13069365500E+04  0.15818811229E+04  0.12699999809E+01 0. -1.
</event>
<event>
 5   0  0.2086250E-07  0.3618531E+04  0.7818609E-02  0.8086260E-01
        1   -1    0    0  501    0  0.00000000000E+00  0.00000000000E+00  0.25206816783E+04  0.25206816783E+04  0.50400001928E-02 0. -1.
       -1   -1    0    0    0  501  0.00000000000E+00  0.00000000000E+00 -0.12986331944E+04  0.12986331944E+04  0.50400001928E-02 0.  1.
    10030    2    1    2    0    0  0.00000000000E+00  0.00000000000E+00  0.12220484839E+04  0.38193148726E+04  0.36185305857E+04 0.  0.
        3    1    3    3  502    0 -0.13785896689E+04  0.46865035269E+02  0.18467724244E+04  0.23050540567E+04  0.10100000352E+00 0. -1.
       -3    1    3    3    0  502  0.13785896689E+04 -0.46865035269E+02 -0.62472394050E+03  0.15142608159E+04  0.10100000352E+00 0.  1.
</event>
<event>
 5   0  0.6848661E-07  0.3595412E+04  0.7818609E-02  0.8091544E-01
        2   -1    0    0  501    0  0.00000000000E+00  0.00000000000E+00  0.24944151533E+04  0.24944151533E+04  0.25500000920E-02 0. -1.
       -2   -1    0    0    0  501  0.00000000000E+00  0.00000000000E+00 -0.12955928020E+04  0.12955928020E+04  0.25500000920E-02 0.  1.
    10030    2    1    2    0    0  0.00000000000E+00  0.00000000000E+00  0.11988223513E+04  0.37900079553E+04  0.35954116970E+04 0.  0.
        1    1    3    3  502    0  0.17044635735E+04 -0.56729789920E+03  0.52696490891E+03  0.18720884047E+04  0.50400001928E-02 0.  1.
       -1    1    3    3    0  502 -0.17044635735E+04  0.56729789920E+03  0.67185744241E+03  0.19179195506E+04  0.50400001928E-02 0. -1.
</event>
<event>
 5   0  0.2108068E-07  0.3501313E+04  0.7818609E-02  0.8113479E-01
       -1   -1    0    0    0  501  0.00000000000E+00  0.00000000000E+00  0.11169793276E+04  0.11169793276E+04  0.50400001928E-02 0. -1.
        1   -1    0    0  501    0  0.00000000000E+00  0.00000000000E+00 -0.27438271317E+04  0.27438271317E+04  0.50400001928E-02 0.  1.
    10030    2    1    2    0    0  0.00000000000E+00  0.00000000000E+00 -0.16268478041E+04  0.38608064593E+04  0.35013130020E+04 0.  0.
        5    1    3    3  502    0 -0.97257530974E+03  0.11270707115E+04 -0.18291924540E+04  0.23584228301E+04  0.46999998093E+01 0.  1.
       -5    1    3    3    0  502  0.97257530974E+03 -0.11270707115E+04  0.20234464985E+03  0.15023836292E+04  0.46999998093E+01 0. -1.
</event>
<event>
 5   0  0.6541476E-07  0.3597056E+04  0.7818609E-02  0.8091166E-01
       -2   -1    0    0    0  501  0.00000000000E+00  0.00000000000E+00  0.15302691423E+04  0.15302691423E+04  0.25500000920E-02 0. -1.
        2   -1    0    0  501    0  0.00000000000E+00  0.00000000000E+00 -0.21138131834E+04  0.21138131834E+04  0.25500000920E-02 0.  1.
    10030    2    1    2    0    0  0.00000000000E+00  0.00000000000E+00 -0.58354404105E+03  0.36440823257E+04  0.35970560669E+04 0.  0.
        4    1    3    3  502    0 -0.93300161222E+02 -0.91950743616E+03  0.12712867418E+04  0.15717412121E+04  0.12699999809E+01 0. -1.
       -4    1    3    3    0  502  0.93300161222E+02  0.91950743616E+03 -0.18548307828E+04  0.20723411136E+04  0.12699999809E+01 0.  1.
</event>
<event>
 5   0  0.6848661E-07  0.3577226E+04  0.7818609E-02  0.8095728E-01
        2   -1    0    0  501    0  0.00000000000E+00  0.00000000000E+00  0.20609857004E+04  0.20609857004E+04  0.25500000920E-02 0.  1.
       -2   -1    0    0    0  501  0.00000000000E+00  0.00000000000E+00 -0.15522364124E+04  0.15522364124E+04  0.25500000920E-02 0. -1.
    10030    2    1    2    0    0  0.00000000000E+00  0.00000000000E+00  0.50874928797E+03  0.36132221128E+04  0.35772263275E+04 0.  0.
        1    1    3    3  502    0  0.11039757759E+04 -0.11897624842E+04 -0.50474612512E+03  0.16997252523E+04  0.50400001928E-02 0. -1.
       -1    1    3    3    0  502 -0.11039757759E+04  0.11897624842E+04  0.10134954131E+04  0.19134968604E+04  0.50400001928E-02 0.  1.
</event>
<event>
 5   0  0.6729577E-07  0.3675500E+04  0.7818609E-02  0.8073413E-01
       -2   -1    0    0    0  501  0.00000000000E+00  0.00000000000E+00  0.14767322472E+04  0.14767322472E+04  0.25500000920E-02 0.  1.
        2   -1    0    0  501    0  0.00000000000E+00  0.00000000000E+00 -0.22870261078E+04  0.22870261078E+04  0.25500000920E-02 0. -1.
    10030    2    1    2    0    0  0.00000000000E+00  0.00000000000E+00 -0.81029386061E+03  0.37637583550E+04  0.36755000767E+04 0.  0.
        3    1    3    3  502    0 -0.88910603602E+03  0.10074237841E+04 -0.16890124787E+04  0.21582806554E+04  0.10100000352E+00 0.  1.
       -3    1    3    3    0  502  0.88910603602E+03 -0.10074237841E+04  0.87871861806E+03  0.16054776996E+04  0.10100000352E+00 0. -1.
</event>
<event>
 5   0  0.6324216E-07  0.3590824E+04  0.7818609E-02  0.8092597E-01
        2   -1    0    0  501    0  0.00000000000E+00  0.00000000000E+00  0.24971810380E+04  0.24971810380E+04  0.25500000920E-02 0. -1.
       -2   -1    0    0    0  501  0.00000000000E+00  0.00000000000E+00 -0.12908569647E+04  0.12908569647E+04  0.25500000920E-02 0.  1.
    10030    2    1    2    0    0  0.00000000000E+00  0.00000000000E+00  0.12063240732E+04  0.37880380027E+04  0.35908236019E+04 0.  0.
        2    1    3    3  502    0  0.13484270546E+02  0.12241237917E+04 -0.78230117279E+03  0.14528096943E+04  0.25500000920E-02 0.  1.
       -2    1    3    3    0  502 -0.13484270546E+02 -0.12241237917E+04  0.19886252460E+04  0.23352283084E+04  0.25500000920E-02 0. -1.
</event>
<event>
 5   0  0.6848661E-07  0.3613938E+04  0.7818609E-02  0.8087306E-01
       -2   -1    0    0    0  501  0.00000000000E+00  0.00000000000E+00  0.15212489235E+04  0.15212489235E+04  0.25500000920E-02 0. -1.
        2   -1    0    0  501    0  0.00000000000E+00  0.00000000000E+00 -0.21463527897E+04  0.21463527897E+04  0.25500000920E-02 0.  1.
    10030    2    1    2    0    0  0.00000000000E+00  0.00000000000E+00 -0.62510386621E+03  0.36676017132E+04  0.36139379468E+04 0.  0.
        1    1    3    3  502    0 -0.53106905737E+03 -0.68146321271E+02  0.14388961165E+04  0.15352850872E+04  0.50400001928E-02 0. -1.
       -1    1    3    3    0  502  0.53106905737E+03  0.68146321271E+02 -0.20639999827E+04  0.21323166260E+04  0.50400001928E-02 0.  1.
</event>
<event>
 5   0  0.6669864E-07  0.3616345E+04  0.7818609E-02  0.8086758E-01
        2   -1    0    0  501    0  0.00000000000E+00  0.00000000000E+00  0.21054035459E+04  0.21054035459E+04  0.25500000920E-02 0.  1.
       -2   -1    0    0    0  501  0.00000000000E+00  0.00000000000E+00 -0.15529029269E+04  0.15529029269E+04  0.25500000920E-02 0. -1.
    10030    2    1    2    0    0  0.00000000000E+00  0.00000000000E+00  0.55250061904E+03  0.36583064728E+04  0.36163447450E+04 0.  0.
        5    1    3    3  502    0  0.40379482696E+02  0.17373452153E+04  0.78151184489E+03  0.19054610343E+04  0.46999998093E+01 0.  1.
       -5    1    3    3    0  502 -0.40379482696E+02 -0.17373452153E+04 -0.22901122585E+03  0.17528454385E+04  0.46999998093E+01 0. -1.
</event>
<event>
 5   0  0.6324216E-07  0.3426635E+04  0.7818609E-02  0.8131400E-01
        2   -1    0    0  501    0  0.00000000000E+00  0.00000000000E+00  0.20907212701E+04  0.20907212701E+04  0.25500000920E-02 0. -1.
       -2   -1    0    0    0  501  0.00000000000E+00  0.00000000000E+00 -0.14040400061E+04  0.14040400061E+04  0.25500000920E-02 0.  1.
    10030    2    1    2    0    0  0.00000000000E+00  0.00000000000E+00  0.68668126404E+03  0.34947612762E+04  0.34266346785E+04 0.  0.
        2    1    3    3  502    0  0.88641149269E+03 -0.11258751209E+04  0.13012347955E+04  0.19355960620E+04  0.25500000920E-02 0. -1.
       -2    1    3    3    0  502 -0.88641149269E+03  0.11258751209E+04 -0.61455353144E+03  0.15591652142E+04  0.25500000920E-02 0.  1.
</event>
<event>
 5   0  0.2086250E-07  0.3568328E+04  0.7818609E-02  0.8097785E-01
        1   -1    0    0  501    0  0.00000000000E+00  0.00000000000E+00  0.19754095772E+04  0.19754095772E+04  0.50400001928E-02 0.  1.
       -1   -1    0    0    0  501  0.00000000000E+00  0.00000000000E+00 -0.16114332587E+04  0.16114332587E+04  0.50400001928E-02 0. -1.
    10030    2    1    2    0    0  0.00000000000E+00  0.00000000000E+00  0.36397631850E+03  0.35868428359E+04  0.35683277272E+04 0.  0.
        3    1    3    3  502    0  0.12893432472E+04 -0.59166179848E+03 -0.90564787899E+03  0.16830531138E+04  0.10100000352E+00 0. -1.
       -3    1    3    3    0  502 -0.12893432472E+04  0.59166179848E+03  0.12696241975E+04  0.19037897221E+04  0.10100000352E+00 0.  1.
</event>
<event>
 5   0  0.2193129E-07  0.3428770E+04  0.7818609E-02  0.8130881E-01
       -1   -1    0    0    0  501  0.00000000000E+00  0.00000000000E+00  0.15825649431E+04  0.15825649431E+04  0.50400001928E-02 0.  1.
        1   -1    0    0  501    0  0.00000000000E+00  0.00000000000E+00 -0.18571845498E+04  0.18571845498E+04  0.50400001928E-02 0. -1.
    10030    2    1    2    0    0  0.00000000000E+00  0.00000000000E+00 -0.27461960670E+03  0.34397494929E+04  0.34287695527E+04 0.  0.
        1    1    3    3  502    0  0.10096222797E+04  0.10250135670E+04  0.79794444473E+03  0.16452067643E+04  0.50400001928E-02 0.  1.
       -1    1    3    3    0  502 -0.10096222797E+04 -0.10250135670E+04 -0.10725640514E+04  0.17945427286E+04  0.50400001928E-02 0. -1.
</event>
<event>
 5   0  0.6324216E-07  0.3468073E+04  0.7818609E-02  0.8121398E-01
       -2   -1    0    0    0  501  0.00000000000E+00  0.00000000000E+00  0.17220737337E+04  0.17220737337E+04  0.25500000920E-02 0.  1.
        2   -1    0    0  501    0  0.00000000000E+00  0.00000000000E+00 -0.17460823439E+04  0.17460823439E+04  0.25500000920E-02 0. -1.
    10030    2    1    2    0    0  0.00000000000E+00  0.00000000000E+00 -0.24008610201E+02  0.34681560776E+04  0.34680729758E+04 0.  0.
        2    1    3    3  502    0 -0.11169127873E+04 -0.41259313451E+02  0.13138049844E+04  0.17249000094E+04  0.25500000920E-02 0.  1.
       -2    1    3    3    0  502  0.11169127873E+04  0.41259313451E+02 -0.13378135946E+04  0.17432560682E+04  0.25500000920E-02 0. -1.
</event>
<event>
 5   0  0.6669864E-07  0.3576082E+04  0.7818609E-02  0.8095992E-01
        2   -1    0    0  501    0  0.00000000000E+00  0.00000000000E+00  0.15688819955E+04  0.15688819955E+04  0.25500000920E-02 0. -1.
       -2   -1    0    0    0  501  0.00000000000E+00  0.00000000000E+00 -0.20378144143E+04  0.20378144143E+04  0.25500000920E-02 0.  1.
    10030    2    1    2    0    0  0.00000000000E+00  0.00000000000E+00 -0.46893241882E+03  0.36066964099E+04  0.35760818474E+04 0.  0.
        5    1    3    3  502    0 -0.58957702335E+03 -0.87898990769E+03  0.12189970837E+04  0.16143730376E+04  0.46999998093E+01 0. -1.
       -5    1    3    3    0  502  0.58957702335E+03  0.87898990769E+03 -0.16879295025E+04  0.19923233723E+04  0.46999998093E+01 0.  1.
</event>
<event>
 5   0  0.6669864E-07  0.3673160E+04  0.7818609E-02  0.8073936E-01
        2   -1    0    0  501    0  0.00000000000E+00  0.00000000000E+00  0.24397636794E+04  0.24397636794E+04  0.25500000920E-02 0.  1.
       -2   -1    0    0    0  501  0.00000000000E+00  0.00000000000E+00 -0.13825218311E+04  0.13825218311E+04  0.25500000920E-02 0. -1.
    10030    2    1    2    0    0  0.00000000000E+00  0.00000000000E+00  0.10572418483E+04  0.38222855104E+04  0.36731602466E+04 0.  0.
        5    1    3    3  502    0  0.10126636975E+04  0.97365982317E+03 -0.70241351654E+03  0.15706393774E+04  0.46999998093E+01 0. -1.
       -5    1    3    3    0  502 -0.10126636975E+04 -0.97365982317E+03  0.17596553648E+04  0.22516461331E+04  0.46999998093E+01 0.  1.
</event>
<event>
 5   0  0.2086250E-07  0.3152925E+04  0.7818609E-02  0.8201361E-01
       -1   -1    0    0    0  501  0.00000000000E+00  0.00000000000E+00  0.13718082410E+04  0.13718082410E+04  0.50400001928E-02 0.  1.
        1   -1    0    0  501    0  0.00000000000E+00  0.00000000000E+00 -0.18116478880E+04  0.18116478880E+04  0.50400001928E-02 0. -1.
    10030    2    1    2    0    0  0.00000000000E+00  0.00000000000E+00 -0.43983964705E+03  0.31834561290E+04  0.31529246756E+04 0.  0.
        4    1    3    3  502    0 -0.28146215609E+02  0.62401805776E+03 -0.16813617149E+04  0.17936470040E+04  0.12699999809E+01 0. -1.
       -4    1    3    3    0  502  0.28146215609E+02 -0.62401805776E+03  0.12415220679E+04  0.13898091249E+04  0.12699999809E+01 0.  1.
</event>
<event>
 5   0  0.2086250E-07  0.3643858E+04  0.7818609E-02  0.8080519E-01
        3   -1    0    0  501    0  0.00000000000E+00  0.00000000000E+00  0.21975766947E+04  0.21975766970E+04  0.10100000352E+00 0. -1.
       -3   -1    0    0    0  501  0.00000000000E+00  0.00000000000E+00 -0.15104938535E+04  0.15104938568E+04  0.10100000352E+00 0.  1.
    10030    2    1    2    0    0  0.00000000000E+00  0.00000000000E+00  0.68708284123E+03  0.37080705538E+04  0.36438584497E+04 0.  0.
        2    1    3    3  502    0  0.12656063020E+04 -0.10176028083E+03  0.16732084218E+04  0.21004144566E+04  0.25500000920E-02 0. -1.
       -2    1    3    3    0  502 -0.12656063020E+04  0.10176028083E+03 -0.98612558060E+03  0.16076560973E+04  0.25500000920E-02 0.  1.
</event>
<event>
 5   0  0.6848661E-07  0.3611224E+04  0.7818609E-02  0.8087925E-01
       -2   -1    0    0    0  501  0.00000000000E+00  0.00000000000E+00  0.14712354079E+04  0.14712354079E+04  0.25500000920E-02 0. -1.
        2   -1    0    0  501    0  0.00000000000E+00  0.00000000000E+00 -0.22159849903E+04  0.22159849903E+04  0.25500000920E-02 0.  1.
    10030    2    1    2    0    0  0.00000000000E+00  0.00000000000E+00 -0.74474958239E+03  0.36872203981E+04  0.36112244909E+04 0.  0.
        1    1    3    3  502    0 -0.68592004658E+03 -0.11184117258E+04  0.89425717121E+03  0.15877742242E+04  0.50400001928E-02 0. -1.
       -1    1    3    3    0  502  0.68592004658E+03  0.11184117258E+04 -0.16390067536E+04  0.20994461739E+04  0.50400001928E-02 0.  1.
</event>
<event>
 5   0  0.6541476E-07  0.3609228E+04  0.7818609E-02  0.8088381E-01
       -2   -1    0    0    0  501  0.00000000000E+00  0.00000000000E+00  0.14189942532E+04  0.14189942532E+04  0.25500000920E-02 0.  1.
        2   -1    0    0  501    0  0.00000000000E+00  0.00000000000E+00 -0.22950275483E+04  0.22950275483E+04  0.25500000920E-02 0. -1.
    10030    2    1    2    0    0  0.00000000000E+00  0.00000000000E+00 -0.87603329502E+03  0.37140218015E+04  0.36092275639E+04 0.  0.
        4    1    3    3  502    0 -0.28886613509E+03 -0.96970752914E+03 -0.19756763921E+04  0.22197015915E+04  0.12699999809E+01 0. -1.
       -4    1    3    3    0  502  0.28886613509E+03  0.96970752914E+03  0.10996430971E+04  0.14943202100E+04  0.12699999809E+01 0.  1.
</event>
<event>
 5   0  0.6324216E-07  0.3565886E+04  0.7818609E-02  0.8098351E-01
       -2   -1    0    0    0  501  0.00000000000E+00  0.00000000000E+00  0.14670879022E+04  0.14670879022E+04  0.25500000920E-02 0. -1.
        2   -1    0    0  501    0  0.00000000000E+00  0.00000000000E+00 -0.21668003816E+04  0.21668003816E+04  0.25500000920E-02 0.  1.
    10030    2    1    2    0    0  0.00000000000E+00  0.00000000000E+00 -0.69971247942E+03  0.36338882838E+04  0.35658864964E+04 0.  0.
        2    1    3    3  502    0 -0.15739512768E+03 -0.81735914971E+03  0.12569291983E+04  0.15075543823E+04  0.25500000920E-02 0. -1.
       -2    1    3    3    0  502  0.15739512768E+03  0.81735914971E+03 -0.19566416778E+04  0.21263339016E+04  0.25500000920E-02 0.  1.
</event>
<event>
 5   0  0.6324216E-07  0.3558809E+04  0.7818609E-02  0.8099993E-01
        2   -1    0    0  501    0  0.00000000000E+00  0.00000000000E+00  0.16134331702E+04  0.16134331702E+04  0.25500000920E-02 0.  1.
       -2   -1    0    0    0  501  0.00000000000E+00  0.00000000000E+00 -0.19624490539E+04  0.19624490539E+04  0.25500000920E-02 0. -1.
    10030    2    1    2    0    0  0.00000000000E+00  0.00000000000E+00 -0.34901588368E+03  0.35758822241E+04  0.35588090133E+04 0.  0.
        2    1    3    3  502    0  0.10995241283E+04 -0.13616076191E+04  0.14851807888E+03  0.17564128891E+04  0.25500000920E-02 0. -1.
       -2    1    3    3    0  502 -0.10995241283E+04  0.13616076191E+04 -0.49753396256E+03  0.18194693350E+04  0.25500000920E-02 0.  1.
</event>
<event>
 5   0  0.2086250E-07  0.3588774E+04  0.7818609E-02  0.8093068E-01
       -1   -1    0    0    0  501  0.00000000000E+00  0.00000000000E+00  0.12296861008E+04  0.12296861008E+04  0.50400001928E-02 0.  1.
        1   -1    0    0  501    0  0.00000000000E+00  0.00000000000E+00 -0.26184123890E+04  0.26184123890E+04  0.50400001928E-02 0. -1.
    10030    2    1    2    0    0  0.00000000000E+00  0.00000000000E+00 -0.13887262882E+04  0.38480984898E+04  0.35887743428E+04 0.  0.
        2    1    3    3  502    0 -0.11632096138E+03  0.56064875835E+02 -0.26134240868E+04  0.26166121787E+04  0.25500000920E-02 0. -1.
       -2    1    3    3    0  502  0.11632096138E+03 -0.56064875835E+02  0.12246977986E+04  0.12314863110E+04  0.25500000920E-02 0.  1.
</event>
<event>
 5   0  0.2086250E-07  0.3602377E+04  0.7818609E-02  0.8089947E-01
        1   -1    0    0  501    0  0.00000000000E+00  0.00000000000E+00  0.17832690811E+04  0.17832690811E+04  0.50400001928E-02 0. -1.
       -1   -1    0    0    0  501  0.00000000000E+00  0.00000000000E+00 -0.18192879416E+04  0.18192879416E+04  0.50400001928E-02 0.  1.
    10030    2    1    2    0    0  0.00000000000E+00  0.00000000000E+00 -0.36018860542E+02  0.36025570227E+04  0.36023769574E+04 0.  0.
        3    1    3    3  502    0  0.76764790653E+03 -0.13198723803E+04  0.93751387420E+03  0.17917250579E+04  0.10100000352E+00 0. -1.
       -3    1    3    3    0  502 -0.76764790653E+03  0.13198723803E+04 -0.97353273474E+03  0.18108319647E+04  0.10100000352E+00 0.  1.
</event>
<event>
 5   0  0.6669864E-07  0.2913657E+04  0.7818609E-02  0.8268826E-01
       -2   -1    0    0    0  501  0.00000000000E+00  0.00000000000E+00  0.14837755007E+04  0.14837755008E+04  0.25500000920E-02 0. -1.
        2   -1    0    0  501    0  0.00000000000E+00  0.00000000000E+00 -0.14303713085E+04  0.14303713085E+04  0.25500000920E-02 0.  1.
    10030    2    1    2    0    0  0.00000000000E+00  0.00000000000E+00  0.53404192231E+02  0.29141468093E+04  0.29136574298E+04 0.  0.
        5    1    3    3  502    0  0.13644353571E+04 -0.36628265204E+02 -0.48260081329E+03  0.14477400003E+04  0.46999998093E+01 0.  1.
       -5    1    3    3    0  502 -0.13644353571E+04  0.36628265204E+02  0.53600500553E+03  0.14664068090E+04  0.46999998093E+01 0. -1.
</event>
<event>
 5   0  0.6848661E-07  0.3384272E+04  0.7818609E-02  0.8141777E-01
       -2   -1    0    0    0  501  0.00000000000E+00  0.00000000000E+00  0.15736582463E+04  0.15736582463E+04  0.25500000920E-02 0.  1.
        2   -1    0    0  501    0  0.00000000000E+00  0.00000000000E+00 -0.18195336994E+04  0.18195336994E+04  0.25500000920E-02 0. -1.
    10030    2    1    2    0    0  0.00000000000E+00  0.00000000000E+00 -0.24587545307E+03  0.33931919456E+04  0.33842719810E+04 0.  0.
        1    1    3    3  502    0  0.89591762328E+03 -0.14245577337E+04 -0.30029683136E+03  0.17094476626E+04  0.50400001928E-02 0.  1.
       -1    1    3    3    0  502 -0.89591762328E+03  0.14245577337E+04  0.54421378288E+02  0.16837442830E+04  0.50400001928E-02 0. -1.
</event>
<event>
 5   0  0.2086250E-07  0.3647426E+04  0.7818609E-02  0.8079714E-01
        1   -1    0    0  501    0  0.00000000000E+00  0.00000000000E+00  0.17498331020E+04  0.17498331020E+04  0.50400001928E-02 0.  1.
       -1   -1    0    0    0  501  0.00000000000E+00  0.00000000000E+00 -0.19007116980E+04  0.19007116980E+04  0.50400001928E-02 0. -1.
    10030    2    1    2    0    0  0.00000000000E+00  0.00000000000E+00 -0.15087859604E+03  0.36505448000E+04  0.36474255285E+04 0.  0.
        4    1    3    3  502    0 -0.59386337736E+03  0.12213779842E+04  0.11427658401E+04  0.17749234546E+04  0.12699999809E+01 0.  1.
       -4    1    3    3    0  502  0.59386337736E+03 -0.12213779842E+04 -0.12936444362E+04  0.18756213454E+04  0.12699999809E+01 0. -1.
</event>
<event>
 5   0  0.2086250E-07  0.2956639E+04  0.7818609E-02  0.8256222E-01
       -1   -1    0    0    0  501  0.00000000000E+00  0.00000000000E+00  0.17841028115E+04  0.17841028115E+04  0.50400001928E-02 0.  1.
        1   -1    0    0  501    0  0.00000000000E+00  0.00000000000E+00 -0.12249456171E+04  0.12249456171E+04  0.50400001928E-02 0. -1.
    10030    2    1    2    0    0  0.00000000000E+00  0.00000000000E+00  0.55915719443E+03  0.30090484286E+04  0.29566392539E+04 0.  0.
        3    1    3    3  502    0  0.47495303504E+03 -0.45405694851E+03 -0.10681613898E+04  0.12540800863E+04  0.10100000352E+00 0. -1.
       -3    1    3    3    0  502 -0.47495303504E+03  0.45405694851E+03  0.16273185842E+04  0.17549683424E+04  0.10100000352E+00 0.  1.
</event>
<event>
 5   0  0.6669864E-07  0.3620611E+04  0.7818609E-02  0.8085787E-01
       -2   -1    0    0    0  501  0.00000000000E+00  0.00000000000E+00  0.14206045611E+04  0.14206045611E+04  0.25500000920E-02 0. -1.
        2   -1    0    0  501    0  0.00000000000E+00  0.00000000000E+00 -0.23069098101E+04  0.23069098101E+04  0.25500000920E-02 0.  1.
    10030    2    1    2    0    0  0.00000000000E+00  0.00000000000E+00 -0.88630524906E+03  0.37275143712E+04  0.36206113287E+04 0.  0.
        5    1    3    3  502    0 -0.14390799682E+04  0.10887322636E+04 -0.29433208094E+03  0.18283715598E+04  0.46999998093E+01 0.  1.
       -5    1    3    3    0  502  0.14390799682E+04 -0.10887322636E+04 -0.59197316812E+03  0.18991428115E+04  0.46999998093E+01 0. -1.
</event>
<event>
 5   0  0.2086250E-07  0.3618858E+04  0.7818609E-02  0.8086186E-01
        4   -1    0    0  501    0  0.00000000000E+00  0.00000000000E+00  0.22525650554E+04  0.22525654135E+04  0.12699999809E+01 0. -1.
       -4   -1    0    0    0  501  0.00000000000E+00  0.00000000000E+00 -0.14534679959E+04  0.14534685507E+04  0.12699999809E+01 0.  1.
    10030    2    1    2    0    0  0.00000000000E+00  0.00000000000E+00  0.79909705959E+03  0.37060339642E+04  0.36188577801E+04 0.  0.
        2    1    3    3  502    0  0.99233585465E+03  0.14863748929E+04  0.68919052489E+03  0.19154697466E+04  0.25500000920E-02 0. -1.
       -2    1    3    3    0  502 -0.99233585465E+03 -0.14863748929E+04  0.10990653470E+03  0.17905642175E+04  0.25500000920E-02 0.  1.
</event>
<event>
 5   0  0.6324216E-07  0.3568208E+04  0.7818609E-02  0.8097813E-01
        2   -1    0    0  501    0  0.00000000000E+00  0.00000000000E+00  0.23901477804E+04  0.23901477804E+04  0.25500000920E-02 0.  1.
       -2   -1    0    0    0  501  0.00000000000E+00  0.00000000000E+00 -0.13317282258E+04  0.13317282258E+04  0.25500000920E-02 0. -1.
    10030    2    1    2    0    0  0.00000000000E+00  0.00000000000E+00  0.10584195546E+04  0.37218760062E+04  0.35682081010E+04 0.  0.
        2    1    3    3  502    0  0.50281918149E+03 -0.46506912936E+03  0.22475514138E+04  0.23495965147E+04  0.25500000920E-02 0.  1.
       -2    1    3    3    0  502 -0.50281918149E+03  0.46506912936E+03 -0.11891318592E+04  0.13722794915E+04  0.25500000920E-02 0. -1.
</event>
<event>
 5   0  0.6541476E-07  0.3406974E+04  0.7818609E-02  0.8136197E-01
        2   -1    0    0  501    0  0.00000000000E+00  0.00000000000E+00  0.14108039747E+04  0.14108039747E+04  0.25500000920E-02 0.  1.
       -2   -1    0    0    0  501  0.00000000000E+00  0.00000000000E+00 -0.20568898996E+04  0.20568898996E+04  0.25500000920E-02 0. -1.
    10030    2    1    2    0    0  0.00000000000E+00  0.00000000000E+00 -0.64608592493E+03  0.34676938743E+04  0.34069742857E+04 0.  0.
        4    1    3    3  502    0 -0.21533893033E+03  0.29990104843E+03 -0.20156770086E+04  0.20492112896E+04  0.12699999809E+01 0. -1.
       -4    1    3    3    0  502  0.21533893033E+03 -0.29990104843E+03  0.13695910836E+04  0.14184825847E+04  0.12699999809E+01 0.  1.
</event>
<event>
 5   0  0.2193129E-07  0.3369703E+04  0.7818609E-02  0.8145382E-01
       -1   -1    0    0    0  501  0.00000000000E+00  0.00000000000E+00  0.14940178604E+04  0.14940178604E+04  0.50400001928E-02 0.  1.
        1   -1    0    0  501    0  0.00000000000E+00  0.00000000000E+00 -0.19000606793E+04  0.19000606793E+04  0.50400001928E-02 0. -1.
    10030    2    1    2    0    0  0.00000000000E+00  0.00000000000E+00 -0.40604281887E+03  0.33940785397E+04  0.33697030081E+04 0.  0.
        1    1    3    3  502    0  0.13937830937E+04 -0.37701363576E+02 -0.11557345541E+04  0.18110149266E+04  0.50400001928E-02 0. -1.
       -1    1    3    3    0  502 -0.13937830937E+04  0.37701363576E+02  0.74969173521E+03  0.15830636130E+04  0.50400001928E-02 0.  1.
</event>
<event>
 5   0  0.2193129E-07  0.3574928E+04  0.7818609E-02  0.8096259E-01
       -1   -1    0    0    0  501  0.00000000000E+00  0.00000000000E+00  0.29481637680E+04  0.29481637681E+04  0.50400001928E-02 0.  1.
        1   -1    0    0  501    0  0.00000000000E+00  0.00000000000E+00 -0.10837346698E+04  0.10837346698E+04  0.50400001928E-02 0. -1.
    10030    2    1    2    0    0  0.00000000000E+00  0.00000000000E+00  0.18644290982E+04  0.40318984379E+04  0.35749278526E+04 0.  0.
        1    1    3    3  502    0 -0.13152624164E+04  0.72449770664E+03  0.20258080528E+04  0.25216483533E+04  0.50400001928E-02 0.  1.
       -1    1    3    3    0  502  0.13152624164E+04 -0.72449770664E+03 -0.16137895455E+03  0.15102500846E+04  0.50400001928E-02 0. -1.
</event>
<event>
 5   0  0.2108068E-07  0.3195447E+04  0.7818609E-02  0.8190021E-01
       -1   -1    0    0    0  501  0.00000000000E+00  0.00000000000E+00  0.18934507923E+04  0.18934507923E+04  0.50400001928E-02 0. -1.
        1   -1    0    0  501    0  0.00000000000E+00  0.00000000000E+00 -0.13481844933E+04  0.13481844934E+04  0.50400001928E-02 0.  1.
    10030    2    1    2    0    0  0.00000000000E+00  0.00000000000E+00  0.54526629894E+03  0.32416352857E+04  0.31954473847E+04 0.  0.
        5    1    3    3  502    0 -0.10046187986E+03  0.84278082985E+03 -0.11005673283E+04  0.13898354760E+04  0.46999998093E+01 0.  1.
       -5    1    3    3    0  502  0.10046187986E+03 -0.84278082985E+03  0.16458336272E+04  0.18517998096E+04  0.46999998093E+01 0. -1.
</event>
<event>
 5   0  0.6848661E-07  0.3594714E+04  0.7818609E-02  0.8091704E-01
       -2   -1    0    0    0  501  0.00000000000E+00  0.00000000000E+00  0.15687220567E+04  0.15687220567E+04  0.25500000920E-02 0. -1.
        2   -1    0    0  501    0  0.00000000000E+00  0.00000000000E+00 -0.20593140072E+04  0.20593140072E+04  0.25500000920E-02 0.  1.
    10030    2    1    2    0    0  0.00000000000E+00  0.00000000000E+00 -0.49059195048E+03  0.36280360638E+04  0.35947135099E+04 0.  0.
        1    1    3    3  502    0 -0.66773510596E+03  0.14906636545E+04 -0.10022773166E+04  0.19163789088E+04  0.50400001928E-02 0.  1.
       -1    1    3    3    0  502  0.66773510596E+03 -0.14906636545E+04  0.51168536617E+03  0.17116571551E+04  0.50400001928E-02 0. -1.
</event>
<event>
 5   0  0.6324216E-07  0.2890937E+04  0.7818609E-02  0.8275579E-01
       -2   -1    0    0    0  501  0.00000000000E+00  0.00000000000E+00  0.16296167255E+04  0.16296167255E+04  0.25500000920E-02 0.  1.
        2   -1    0    0  501    0  0.00000000000E+00  0.00000000000E+00 -0.12821292130E+04  0.12821292130E+04  0.25500000920E-02 0. -1.
    10030    2    1    2    0    0  0.00000000000E+00  0.00000000000E+00  0.34748751245E+03  0.29117459385E+04  0.28909370174E+04 0.  0.
        2    1    3    3  502    0 -0.14202158462E+04 -0.18511596120E+03 -0.22848908677E+02  0.14324116173E+04  0.25500000920E-02 0. -1.
       -2    1    3    3    0  502  0.14202158462E+04  0.18511596120E+03  0.37033642113E+03  0.14793343211E+04  0.25500000920E-02 0.  1.
</event>
<event>
 5   0  0.2086250E-07  0.3599667E+04  0.7818609E-02  0.8090568E-01
        1   -1    0    0  501    0  0.00000000000E+00  0.00000000000E+00  0.16628455861E+04  0.16628455861E+04  0.50400001928E-02 0.  1.
       -1   -1    0    0    0  501  0.00000000000E+00  0.00000000000E+00 -0.19481067215E+04  0.19481067215E+04  0.50400001928E-02 0. -1.
    10030    2    1    2    0    0  0.00000000000E+00  0.00000000000E+00 -0.28526113543E+03  0.36109523076E+04  0.35996670196E+04 0.  0.
        4    1    3    3  502    0  0.15885050125E+04 -0.13315457444E+03  0.69564516146E+03  0.17392533223E+04  0.12699999809E+01 0.  1.
       -4    1    3    3    0  502 -0.15885050125E+04  0.13315457444E+03 -0.98090629689E+03  0.18716989853E+04  0.12699999809E+01 0. -1.
</event>
<event>
 5   0  0.2108068E-07  0.3616005E+04  0.7818609E-02  0.8086835E-01
       -1   -1    0    0    0  501  0.00000000000E+00  0.00000000000E+00  0.11728594835E+04  0.11728594835E+04  0.50400001928E-02 0. -1.
        1   -1    0    0  501    0  0.00000000000E+00  0.00000000000E+00 -0.27870962643E+04  0.27870962643E+04  0.50400001928E-02 0.  1.
    10030    2    1    2    0    0  0.00000000000E+00  0.00000000000E+00 -0.16142367808E+04  0.39599557477E+04  0.36160045823E+04 0.  0.
        5    1    3    3  502    0 -0.17505132592E+04 -0.30735652871E+03 -0.11704694223E+04  0.21280943270E+04  0.46999998093E+01 0.  1.
       -5    1    3    3    0  502  0.17505132592E+04  0.30735652871E+03 -0.44376735856E+03  0.18318614207E+04  0.46999998093E+01 0. -1.
</event>
<event>
 5   0  0.6848661E-07  0.3588274E+04  0.7818609E-02  0.8093183E-01
       -2   -1    0    0    0  501  0.00000000000E+00  0.00000000000E+00  0.14927903067E+04  0.14927903067E+04  0.25500000920E-02 0.  1.
        2   -1    0    0  501    0  0.00000000000E+00  0.00000000000E+00 -0.21563163265E+04  0.21563163265E+04  0.25500000920E-02 0. -1.
    10030    2    1    2    0    0  0.00000000000E+00  0.00000000000E+00 -0.66352601984E+03  0.36491066332E+04  0.35882742985E+04 0.  0.
        1    1    3    3  502    0  0.12761659628E+04  0.11468208298E+04 -0.86518425959E+03  0.19215466123E+04  0.50400001928E-02 0. -1.
       -1    1    3    3    0  502 -0.12761659628E+04 -0.11468208298E+04  0.20165823975E+03  0.17275600209E+04  0.50400001928E-02 0.  1.
</event>
<event>
 5   0  0.2086250E-07  0.3623068E+04  0.7818609E-02  0.8085228E-01
        1   -1    0    0  501    0  0.00000000000E+00  0.00000000000E+00  0.23117524092E+04  0.23117524092E+04  0.50400001928E-02 0.  1.
       -1   -1    0    0    0  501  0.00000000000E+00  0.00000000000E+00 -0.14195530359E+04  0.14195530359E+04  0.50400001928E-02 0. -1.
    10030    2    1    2    0    0  0.00000000000E+00  0.00000000000E+00  0.89219937330E+03  0.37313054450E+04  0.36230678440E+04 0.  0.
        3    1    3    3  502    0  0.44568929546E+03 -0.90393509767E+03  0.19963662679E+04  0.22363398433E+04  0.10100000352E+00 0.  1.
       -3    1    3    3    0  502 -0.44568929546E+03  0.90393509767E+03 -0.11041668946E+04  0.14949656017E+04  0.10100000352E+00 0. -1.
</event>
<event>
 5   0  0.6324216E-07  0.3591673E+04  0.7818609E-02  0.8092402E-01
       -2   -1    0    0    0  501  0.00000000000E+00  0.00000000000E+00  0.30691067916E+04  0.30691067916E+04  0.25500000920E-02 0.  1.
        2   -1    0    0  501    0  0.00000000000E+00  0.00000000000E+00 -0.10508034294E+04  0.10508034294E+04  0.25500000920E-02 0. -1.
    10030    2    1    2    0    0  0.00000000000E+00  0.00000000000E+00  0.20183033622E+04  0.41199102209E+04  0.35916725584E+04 0.  0.
        2    1    3    3  502    0 -0.21222368893E+03 -0.15771160986E+04  0.54463195854E+02  0.15922626424E+04  0.25500000920E-02 0. -1.
       -2    1    3    3    0  502  0.21222368893E+03  0.15771160986E+04  0.19638401663E+04  0.25276475786E+04  0.25500000920E-02 0.  1.
</event>
<event>
 5   0  0.6324216E-07  0.3577320E+04  0.7818609E-02  0.8095707E-01
        2   -1    0    0  501    0  0.00000000000E+00  0.00000000000E+00  0.18552185256E+04  0.18552185256E+04  0.25500000920E-02 0. -1.
       -2   -1    0    0    0  501  0.00000000000E+00  0.00000000000E+00 -0.17244888818E+04  0.17244888818E+04  0.25500000920E-02 0.  1.
    10030    2    1    2    0    0  0.00000000000E+00  0.00000000000E+00  0.13072964384E+03  0.35797074074E+04  0.35773195109E+04 0.  0.
        2    1    3    3  502    0  0.10882759764E+04  0.54734531217E+03  0.13759612700E+04  0.18377162208E+04  0.25500000920E-02 0. -1.
       -2    1    3    3    0  502 -0.10882759764E+04 -0.54734531217E+03 -0.12452316261E+04  0.17419911866E+04  0.25500000920E-02 0.  1.
</event>
<event>
 5   0  0.6324216E-07  0.3623269E+04  0.7818609E-02  0.8085182E-01
       -2   -1    0    0    0  501  0.00000000000E+00  0.00000000000E+00  0.17380418858E+04  0.17380418858E+04  0.25500000920E-02 0.  1.
        2   -1    0    0  501    0  0.00000000000E+00  0.00000000000E+00 -0.18883434293E+04  0.18883434293E+04  0.25500000920E-02 0. -1.
    10030    2    1    2    0    0  0.00000000000E+00  0.00000000000E+00 -0.15030154348E+03  0.36263853151E+04  0.36232692281E+04 0.  0.
        2    1    3    3  502    0 -0.96260212408E+03 -0.14547513121E+04 -0.56456594458E+03  0.18334772797E+04  0.25500000920E-02 0.  1.
       -2    1    3    3    0  502  0.96260212408E+03  0.14547513121E+04  0.41426440110E+03  0.17929080354E+04  0.25500000920E-02 0. -1.
</event>
<event>
 5   0  0.6669864E-07  0.3556641E+04  0.7818609E-02  0.8100496E-01
       -2   -1    0    0    0  501  0.00000000000E+00  0.00000000000E+00  0.16466826775E+04  0.16466826775E+04  0.25500000920E-02 0.  1.
        2   -1    0    0  501    0  0.00000000000E+00  0.00000000000E+00 -0.19204815447E+04  0.19204815447E+04  0.25500000920E-02 0. -1.
    10030    2    1    2    0    0  0.00000000000E+00  0.00000000000E+00 -0.27379886715E+03  0.35671642222E+04  0.35566409390E+04 0.  0.
        5    1    3    3  502    0 -0.57970565931E+03  0.13120882212E+04 -0.11910885191E+04  0.18644967423E+04  0.46999998093E+01 0. -1.
       -5    1    3    3    0  502  0.57970565931E+03 -0.13120882212E+04  0.91728965191E+03  0.17026674799E+04  0.46999998093E+01 0.  1.
</event>
<event>
 5   0  0.6848661E-07  0.3625514E+04  0.7818609E-02  0.8084672E-01
       -2   -1    0    0    0  501  0.00000000000E+00  0.00000000000E+00  0.15675973655E+04  0.15675973655E+04  0.25500000920E-02 0.  1.
        2   -1    0    0  501    0  0.00000000000E+00  0.00000000000E+00 -0.20962574315E+04  0.20962574315E+04  0.25500000920E-02 0. -1.
    10030    2    1    2    0    0  0.00000000000E+00  0.00000000000E+00 -0.52866006597E+03  0.36638547970E+04  0.36255138268E+04 0.  0.
        1    1    3    3  502    0  0.12386712875E+02 -0.16609575041E+04  0.46940218935E+03  0.17260566841E+04  0.50400001928E-02 0. -1.
       -1    1    3    3    0  502 -0.12386712875E+02  0.16609575041E+04 -0.99806225531E+03  0.19377981130E+04  0.50400001928E-02 0.  1.
</event>
<event>
 5   0  0.6669864E-07  0.3689368E+04  0.7818609E-02  0.8070322E-01
        2   -1    0    0  501    0  0.00000000000E+00  0.00000000000E+00  0.24309849845E+04  0.24309849845E+04  0.25500000920E-02 0.  1.
       -2   -1    0    0    0  501  0.00000000000E+00  0.00000000000E+00 -0.13997862967E+04  0.13997862967E+04  0.25500000920E-02 0. -1.
    10030    2    1    2    0    0  0.00000000000E+00  0.00000000000E+00  0.10311986878E+04  0.38307712812E+04  0.36893682217E+04 0.  0.
        5    1    3    3  502    0 -0.10240617646E+04  0.62454509283E+03  0.19707689659E+04  0.23071002314E+04  0.46999998093E+01 0.  1.
       -5    1    3    3    0  502  0.10240617646E+04 -0.62454509283E+03 -0.93957027809E+03  0.15236710498E+04  0.46999998093E+01 0. -1.
</event>
<event>
 5   0  0.2086250E-07  0.3546216E+04  0.7818609E-02  0.8102924E-01
        1   -1    0    0  501    0  0.00000000000E+00  0.00000000000E+00  0.18681081608E+04  0.18681081608E+04  0.50400001928E-02 0. -1.
       -1   -1    0    0    0  501  0.00000000000E+00  0.00000000000E+00 -0.16829388197E+04  0.16829388197E+04  0.50400001928E-02 0.  1.
    10030    2    1    2    0    0  0.00000000000E+00  0.00000000000E+00  0.18516934115E+03  0.35510469805E+04  0.35462158666E+04 0.  0.
        4    1    3    3  502    0 -0.27110550390E+03  0.17510970784E+04  0.28693688442E+02  0.17721918951E+04  0.12699999809E+01 0.  1.
       -4    1    3    3    0  502  0.27110550390E+03 -0.17510970784E+04  0.15647565271E+03  0.17788550855E+04  0.12699999809E+01 0. -1.
</event>
<event>
 5   0  0.2108068E-07  0.3002874E+04  0.7818609E-02  0.8242911E-01
        1   -1    0    0  501    0  0.00000000000E+00  0.00000000000E+00  0.22082198773E+04  0.22082198773E+04  0.50400001928E-02 0. -1.
       -1   -1    0    0    0  501  0.00000000000E+00  0.00000000000E+00 -0.10208734104E+04  0.10208734104E+04  0.50400001928E-02 0.  1.
    10030    2    1    2    0    0  0.00000000000E+00  0.00000000000E+00  0.11873464669E+04  0.32290932878E+04  0.30028739282E+04 0.  0.
        5    1    3    3  502    0  0.16093544061E+03 -0.10321451767E+04 -0.56602729910E+03  0.11881215743E+04  0.46999998093E+01 0.  1.
       -5    1    3    3    0  502 -0.16093544061E+03  0.10321451767E+04  0.17533737660E+04  0.20409717135E+04  0.46999998093E+01 0. -1.
</event>
<event>
 5   0  0.6541476E-07  0.3498369E+04  0.7818609E-02  0.8114177E-01
       -2   -1    0    0    0  501  0.00000000000E+00  0.00000000000E+00  0.15322728455E+04  0.15322728455E+04  0.25500000920E-02 0.  1.
        2   -1    0    0  501    0  0.00000000000E+00  0.00000000000E+00 -0.19968029523E+04  0.19968029523E+04  0.25500000920E-02 0. -1.
    10030    2    1    2    0    0  0.00000000000E+00  0.00000000000E+00 -0.46453010680E+03  0.35290757979E+04  0.34983693011E+04 0.  0.
        4    1    3    3  502    0 -0.70870186957E+03  0.96711676831E+03  0.10525198244E+04  0.15954224447E+04  0.12699999809E+01 0.  1.
       -4    1    3    3    0  502  0.70870186957E+03 -0.96711676831E+03 -0.15170499312E+04  0.19336533532E+04  0.12699999809E+01 0. -1.
</event>
<event>
 5   0  0.6324216E-07  0.3553872E+04  0.7818609E-02  0.8101140E-01
        2   -1    0    0  501    0  0.00000000000E+00  0.00000000000E+00  0.14004817368E+04  0.14004817368E+04  0.25500000920E-02 0.  1.
       -2   -1    0    0    0  501  0.00000000000E+00  0.00000000000E+00 -0.22545824249E+04  0.22545824249E+04  0.25500000920E-02 0. -1.
    10030    2    1    2    0    0  0.00000000000E+00  0.00000000000E+00 -0.85410068807E+03  0.36550641618E+04  0.35538719787E+04 0.  0.
        2    1    3    3  502    0  0.14769278074E+04 -0.35503819948E+03  0.52123017005E+03  0.16059417055E+04  0.25500000920E-02 0.  1.
       -2    1    3    3    0  502 -0.14769278074E+04  0.35503819948E+03 -0.13753308581E+04  0.20491224562E+04  0.25500000920E-02 0. -1.
</event>
<event>
 5   0  0.2108068E-07  0.3615242E+04  0.7818609E-02  0.8087009E-01
       -1   -1    0    0    0  501  0.00000000000E+00  0.00000000000E+00  0.17168938297E+04  0.17168938297E+04  0.50400001928E-02 0. -1.
        1   -1    0    0  501    0  0.00000000000E+00  0.00000000000E+00 -0.19031428155E+04  0.19031428155E+04  0.50400001928E-02 0.  1.
    10030    2    1    2    0    0  0.00000000000E+00  0.00000000000E+00 -0.18624898578E+03  0.36200366452E+04  0.36152422641E+04 0.  0.
        5    1    3    3  502    0 -0.20595911948E+03 -0.14505040755E+04  0.96709543377E+03  0.17554705637E+04  0.46999998093E+01 0. -1.
       -5    1    3    3    0  502  0.20595911948E+03  0.14505040755E+04 -0.11533444196E+04  0.18645660815E+04  0.46999998093E+01 0.  1.
</event>
<event>
 5   0  0.2086250E-07  0.3628862E+04  0.7818609E-02  0.8083912E-01
        1   -1    0    0  501    0  0.00000000000E+00  0.00000000000E+00  0.17757212001E+04  0.17757212001E+04  0.50400001928E-02 0. -1.
       -1   -1    0    0    0  501  0.00000000000E+00  0.00000000000E+00 -0.18539847241E+04  0.18539847241E+04  0.50400001928E-02 0.  1.
    10030    2    1    2    0    0  0.00000000000E+00  0.00000000000E+00 -0.78263524004E+02  0.36297059242E+04  0.36288620692E+04 0.  0.
        4    1    3    3  502    0  0.71015796538E+03 -0.16694451135E+04 -0.67192584251E+02  0.18154580080E+04  0.12699999809E+01 0. -1.
       -4    1    3    3    0  502 -0.71015796538E+03  0.16694451135E+04 -0.11070939753E+02  0.18142479162E+04  0.12699999809E+01 0.  1.
</event>
<event>
 5   0  0.6669864E-07  0.3651679E+04  0.7818609E-02  0.8078755E-01
        2   -1    0    0  501    0  0.00000000000E+00  0.00000000000E+00  0.15143618673E+04  0.15143618673E+04  0.25500000920E-02 0. -1.
       -2   -1    0    0    0  501  0.00000000000E+00  0.00000000000E+00 -0.22013829551E+04  0.22013829551E+04  0.25500000920E-02 0.  1.
    10030    2    1    2    0    0  0.00000000000E+00  0.00000000000E+00 -0.68702108779E+03  0.37157448223E+04  0.36516792863E+04 0.  0.
        5    1    3    3  502    0 -0.76900208723E+03  0.15639912984E+04 -0.89733441746E+03  0.19602714451E+04  0.46999998093E+01 0.  1.
       -5    1    3    3    0  502  0.76900208723E+03 -0.15639912984E+04  0.21031332967E+03  0.17554733773E+04  0.46999998093E+01 0. -1.
</event>
<event>
 5   0  0.2086250E-07  0.3578478E+04  0.7818609E-02  0.8095439E-01
       -1   -1    0    0    0  501  0.00000000000E+00  0.00000000000E+00  0.13468126154E+04  0.13468126154E+04  0.50400001928E-02 0. -1.
        1   -1    0    0  501    0  0.00000000000E+00  0.00000000000E+00 -0.23770017316E+04  0.23770017316E+04  0.50400001928E-02 0.  1.
    10030    2    1    2    0    0  0.00000000000E+00  0.00000000000E+00 -0.10301891162E+04  0.37238143470E+04  0.35784778434E+04 0.  0.
        2    1    3    3  502    0 -0.10598160099E+04 -0.10942615939E+04  0.46150801750E+03  0.15917311522E+04  0.25500000920E-02 0. -1.
       -2    1    3    3    0  502  0.10598160099E+04  0.10942615939E+04 -0.14916971337E+04  0.21320831948E+04  0.25500000920E-02 0.  1.
</event>
<event>
 5   0  0.2086250E-07  0.3599103E+04  0.7818609E-02  0.8090697E-01
        1   -1    0    0  501    0  0.00000000000E+00  0.00000000000E+00  0.19785804110E+04  0.19785804110E+04  0.50400001928E-02 0. -1.
       -1   -1    0    0    0  501  0.00000000000E+00  0.00000000000E+00 -0.16367220113E+04  0.16367220113E+04  0.50400001928E-02 0.  1.
    10030    2    1    2    0    0  0.00000000000E+00  0.00000000000E+00  0.34185839970E+03  0.36153024222E+04  0.35991032826E+04 0.  0.
        3    1    3    3  502    0  0.16861644876E+04  0.49190951996E+03 -0.22231774997E+03  0.17704662796E+04  0.10100000352E+00 0.  1.
       -3    1    3    3    0  502 -0.16861644876E+04 -0.49190951996E+03  0.56417614967E+03  0.18448361426E+04  0.10100000352E+00 0. -1.
</event>
<event>
 5   0  0.2193129E-07  0.3645748E+04  0.7818609E-02  0.8080092E-01
       -1   -1    0    0    0  501  0.00000000000E+00  0.00000000000E+00  0.18190369874E+04  0.18190369874E+04  0.50400001928E-02 0.  1.
        1   -1    0    0  501    0  0.00000000000E+00  0.00000000000E+00 -0.18267190087E+04  0.18267190087E+04  0.50400001928E-02 0. -1.
    10030    2    1    2    0    0  0.00000000000E+00  0.00000000000E+00 -0.76820213325E+01  0.36457559961E+04  0.36457479026E+04 0.  0.
        1    1    3    3  502    0 -0.80640780227E+03 -0.89504026924E+03 -0.13718640823E+04  0.18257605778E+04  0.50400001928E-02 0. -1.
       -1    1    3    3    0  502  0.80640780227E+03  0.89504026924E+03  0.13641820609E+04  0.18199954183E+04  0.50400001928E-02 0.  1.
</event>
<event>
 5   0  0.6848661E-07  0.3587380E+04  0.7818609E-02  0.8093389E-01
        2   -1    0    0  501    0  0.00000000000E+00  0.00000000000E+00  0.21597760707E+04  0.21597760707E+04  0.25500000920E-02 0.  1.
       -2   -1    0    0    0  501  0.00000000000E+00  0.00000000000E+00 -0.14896561585E+04  0.14896561585E+04  0.25500000920E-02 0. -1.
    10030    2    1    2    0    0  0.00000000000E+00  0.00000000000E+00  0.67011991217E+03  0.36494322292E+04  0.35873799491E+04 0.  0.
        1    1    3    3  502    0  0.10429831211E+04 -0.12869001173E+04  0.10350004928E+04  0.19532413376E+04  0.50400001928E-02 0.  1.
       -1    1    3    3    0  502 -0.10429831211E+04  0.12869001173E+04 -0.36488058059E+03  0.16961908917E+04  0.50400001928E-02 0. -1.
</event>
<event>
 5   0  0.6729577E-07  0.3548321E+04  0.7818609E-02  0.8102433E-01
        2   -1    0    0  501    0  0.00000000000E+00  0.00000000000E+00  0.24984701839E+04  0.24984701839E+04  0.25500000920E-02 0.  1.
       -2   -1    0    0    0  501  0.00000000000E+00  0.00000000000E+00 -0.12598293834E+04  0.12598293834E+04  0.25500000920E-02 0. -1.
    10030    2    1    2    0    0  0.00000000000E+00  0.00000000000E+00  0.12386408005E+04  0.37582995673E+04  0.35483213784E+04 0.  0.
        3    1    3    3  502    0  0.10924450397E+04  0.11656417667E+04  0.14366653966E+04  0.21485260913E+04  0.10100000352E+00 0.  1.
       -3    1    3    3    0  502 -0.10924450397E+04 -0.11656417667E+04 -0.19802459605E+03  0.16097734760E+04  0.10100000352E+00 0. -1.
</event>
<event>
 5   0  0.6669864E-07  0.3615899E+04  0.7818609E-02  0.8086860E-01
        2   -1    0    0  501    0  0.00000000000E+00  0.00000000000E+00  0.21950069941E+04  0.21950069941E+04  0.25500000920E-02 0.  1.
       -2   -1    0    0    0  501  0.00000000000E+00  0.00000000000E+00 -0.14891437825E+04  0.14891437825E+04  0.25500000920E-02 0. -1.
    10030    2    1    2    0    0  0.00000000000E+00  0.00000000000E+00  0.70586321159E+03  0.36841507767E+04  0.36158987917E+04 0.  0.
        5    1    3    3  502    0  0.12837195941E+04 -0.85505025961E+03 -0.60806408931E+03  0.16579538502E+04  0.46999998093E+01 0. -1.
       -5    1    3    3    0  502 -0.12837195941E+04  0.85505025961E+03  0.13139273009E+04  0.20261969265E+04  0.46999998093E+01 0.  1.
</event>
<event>
 5   0  0.6541476E-07  0.3621173E+04  0.7818609E-02  0.8085659E-01
        2   -1    0    0  501    0  0.00000000000E+00  0.00000000000E+00  0.31795248186E+04  0.31795248186E+04  0.25500000920E-02 0. -1.
       -2   -1    0    0    0  501  0.00000000000E+00  0.00000000000E+00 -0.10310419104E+04  0.10310419104E+04  0.25500000920E-02 0.  1.
    10030    2    1    2    0    0  0.00000000000E+00  0.00000000000E+00  0.21484829082E+04  0.42105667290E+04  0.36211729278E+04 0.  0.
        4    1    3    3  502    0  0.10767514120E+03 -0.12957924452E+04 -0.39081702145E+03  0.13577229298E+04  0.12699999809E+01 0.  1.
       -4    1    3    3    0  502 -0.10767514120E+03  0.12957924452E+04  0.25392999296E+04  0.28528437992E+04  0.12699999809E+01 0. -1.
</event>
<event>
 5   0  0.6848661E-07  0.3586033E+04  0.7818609E-02  0.8093699E-01
       -2   -1    0    0    0  501  0.00000000000E+00  0.00000000000E+00  0.16661347052E+04  0.16661347053E+04  0.25500000920E-02 0.  1.
        2   -1    0    0  501    0  0.00000000000E+00  0.00000000000E+00 -0.19295603689E+04  0.19295603689E+04  0.25500000920E-02 0. -1.
    10030    2    1    2    0    0  0.00000000000E+00  0.00000000000E+00 -0.26342566362E+03  0.35956950741E+04  0.35860326248E+04 0.  0.
        1    1    3    3  502    0 -0.14761025745E+04 -0.99508581291E+03 -0.34637590372E+03  0.18135740547E+04  0.50400001928E-02 0. -1.
       -1    1    3    3    0  502  0.14761025745E+04  0.99508581291E+03  0.82950240096E+02  0.17821210194E+04  0.50400001928E-02 0.  1.
</event>
<event>
 5   0  0.2086250E-07  0.3471982E+04  0.7818609E-02  0.8120462E-01
        1   -1    0    0  501    0  0.00000000000E+00  0.00000000000E+00  0.98841140394E+03  0.98841140395E+03  0.50400001928E-02 0.  1.
       -1   -1    0    0    0  501  0.00000000000E+00  0.00000000000E+00 -0.30489985304E+04  0.30489985304E+04  0.50400001928E-02 0. -1.
    10030    2    1    2    0    0  0.00000000000E+00  0.00000000000E+00 -0.20605871265E+04  0.40374099343E+04  0.34719820956E+04 0.  0.
        2    1    3    3  502    0  0.12274502331E+04 -0.15043893021E+03 -0.24470679367E+04  0.27417890935E+04  0.25500000920E-02 0. -1.
       -2    1    3    3    0  502 -0.12274502331E+04  0.15043893021E+03  0.38648081025E+03  0.12956208408E+04  0.25500000920E-02 0.  1.
</event>
<event>
 5   0  0.2086250E-07  0.3590995E+04  0.7818609E-02  0.8092557E-01
        1   -1    0    0  501    0  0.00000000000E+00  0.00000000000E+00  0.20188393414E+04  0.20188393414E+04  0.50400001928E-02 0.  1.
       -1   -1    0    0    0  501  0.00000000000E+00  0.00000000000E+00 -0.15968640244E+04  0.15968640244E+04  0.50400001928E-02 0. -1.
    10030    2    1    2    0    0  0.00000000000E+00  0.00000000000E+00  0.42197531697E+03  0.36157033658E+04  0.35909953580E+04 0.  0.
        3    1    3    3  502    0 -0.12662010606E+04 -0.52871019163E+03 -0.95500101710E+03  0.16717734732E+04  0.10100000352E+00 0.  1.
       -3    1    3    3    0  502  0.12662010606E+04  0.52871019163E+03  0.13769763341E+04  0.19439298926E+04  0.10100000352E+00 0. -1.
</event>
<event>
 5   0  0.6729577E-07  0.3601438E+04  0.7818609E-02  0.8090162E-01
        2   -1    0    0  501    0  0.00000000000E+00  0.00000000000E+00  0.19651668218E+04  0.19651668218E+04  0.25500000920E-02 0.  1.
       -2   -1    0    0    0  501  0.00000000000E+00  0.00000000000E+00 -0.16500319899E+04  0.16500319899E+04  0.25500000920E-02 0. -1.
    10030    2    1    2    0    0  0.00000000000E+00  0.00000000000E+00  0.31513483191E+03  0.36151988117E+04  0.36014375582E+04 0.  0.
        3    1    3    3  502    0 -0.11103458437E+04  0.47243649430E+03 -0.11841489613E+04  0.16906427495E+04  0.10100000352E+00 0. -1.
       -3    1    3    3    0  502  0.11103458437E+04 -0.47243649430E+03  0.14992837932E+04  0.19245560622E+04  0.10100000352E+00 0.  1.
</event>
<event>
 5   0  0.6729577E-07  0.3608299E+04  0.7818609E-02  0.8088593E-01
        2   -1    0    0  501    0  0.00000000000E+00  0.00000000000E+00  0.11361038628E+04  0.11361038628E+04  0.25500000920E-02 0.  1.
       -2   -1    0    0    0  501  0.00000000000E+00  0.00000000000E+00 -0.28650157448E+04  0.28650157448E+04  0.25500000920E-02 0. -1.
    10030    2    1    2    0    0  0.00000000000E+00  0.00000000000E+00 -0.17289118820E+04  0.40011196076E+04  0.36082990202E+04 0.  0.
        3    1    3    3  502    0 -0.15428789631E+04 -0.78115233014E+03 -0.29440722252E+03  0.17542377492E+04  0.10100000352E+00 0.  1.
       -3    1    3    3    0  502  0.15428789631E+04  0.78115233014E+03 -0.14345046595E+04  0.22468818585E+04  0.10100000352E+00 0. -1.
</event>
<event>
 5   0  0.2086250E-07  0.3490561E+04  0.7818609E-02  0.8116031E-01
       -1   -1    0    0    0  501  0.00000000000E+00  0.00000000000E+00  0.20322431518E+04  0.20322431518E+04  0.50400001928E-02 0. -1.
        1   -1    0    0  501    0  0.00000000000E+00  0.00000000000E+00 -0.14988379967E+04  0.14988379967E+04  0.50400001928E-02 0.  1.
    10030    2    1    2    0    0  0.00000000000E+00  0.00000000000E+00  0.53340515513E+03  0.35310811485E+04  0.34905605592E+04 0.  0.
        4    1    3    3  502    0 -0.83884092011E+03  0.14532863753E+04 -0.21877077418E+03  0.16922049647E+04  0.12699999809E+01 0.  1.
       -4    1    3    3    0  502  0.83884092011E+03 -0.14532863753E+04  0.75217592931E+03  0.18388761838E+04  0.12699999809E+01 0. -1.
</event>
<event>
 5   0  0.2193129E-07  0.3610220E+04  0.7818609E-02  0.8088155E-01
       -1   -1    0    0    0  501  0.00000000000E+00  0.00000000000E+00  0.19714470158E+04  0.19714470158E+04  0.50400001928E-02 0. -1.
        1   -1    0    0  501    0  0.00000000000E+00  0.00000000000E+00 -0.16528072748E+04  0.16528072748E+04  0.50400001928E-02 0.  1.
    10030    2    1    2    0    0  0.00000000000E+00  0.00000000000E+00  0.31863974106E+03  0.36242542906E+04  0.36102199211E+04 0.  0.
        1    1    3    3  502    0  0.43301114500E+03  0.14255292614E+04 -0.86385251125E+03  0.17221711553E+04  0.50400001928E-02 0.  1.
       -1    1    3    3    0  502 -0.43301114500E+03 -0.14255292614E+04  0.11824922523E+04  0.19020831353E+04  0.50400001928E-02 0. -1.
</event>
<event>
 5   0  0.6669864E-07  0.3634706E+04  0.7818609E-02  0.8082588E-01
        2   -1    0    0  501    0  0.00000000000E+00  0.00000000000E+00  0.22993374814E+04  0.22993374814E+04  0.25500000920E-02 0. -1.
       -2   -1    0    0    0  501  0.00000000000E+00  0.00000000000E+00 -0.14364017882E+04  0.14364017882E+04  0.25500000920E-02 0.  1.
    10030    2    1    2    0    0  0.00000000000E+00  0.00000000000E+00  0.86293569314E+03  0.37357392696E+04  0.36347062990E+04 0.  0.
        5    1    3    3  502    0 -0.82454648634E+03 -0.52539828268E+03  0.20059874076E+04  0.22315751909E+04  0.46999998093E+01 0. -1.
       -5    1    3    3    0  502  0.82454648634E+03  0.52539828268E+03 -0.11430517144E+04  0.15041640786E+04  0.46999998093E+01 0.  1.
</event>
<event>
 5   0  0.2193129E-07  0.3597271E+04  0.7818609E-02  0.8091117E-01
       -1   -1    0    0    0  501  0.00000000000E+00  0.00000000000E+00  0.19686759511E+04  0.19686759512E+04  0.50400001928E-02 0.  1.
        1   -1    0    0  501    0  0.00000000000E+00  0.00000000000E+00 -0.16432815096E+04  0.16432815096E+04  0.50400001928E-02 0. -1.
    10030    2    1    2    0    0  0.00000000000E+00  0.00000000000E+00  0.32539444154E+03  0.36119574608E+04  0.35972705147E+04 0.  0.
        1    1    3    3  502    0  0.79673248266E+03 -0.16095614495E+04  0.64225000651E+02  0.17971075536E+04  0.50400001928E-02 0. -1.
       -1    1    3    3    0  502 -0.79673248266E+03  0.16095614495E+04  0.26116944089E+03  0.18148499071E+04  0.50400001928E-02 0.  1.
</event>
<event>
 5   0  0.2193129E-07  0.3608231E+04  0.7818609E-02  0.8088609E-01
        1   -1    0    0  501    0  0.00000000000E+00  0.00000000000E+00  0.20943735875E+04  0.20943735875E+04  0.50400001928E-02 0. -1.
       -1   -1    0    0    0  501  0.00000000000E+00  0.00000000000E+00 -0.15540844482E+04  0.15540844482E+04  0.50400001928E-02 0.  1.
    10030    2    1    2    0    0  0.00000000000E+00  0.00000000000E+00  0.54028913927E+03  0.36484580357E+04  0.36082313790E+04 0.  0.
        1    1    3    3  502    0 -0.16528940487E+04  0.54699421492E+03 -0.20796088177E+03  0.17534278245E+04  0.50400001928E-02 0.  1.
       -1    1    3    3    0  502  0.16528940487E+04 -0.54699421492E+03  0.74825002104E+03  0.18950302112E+04  0.50400001928E-02 0. -1.
</event>
<event>
 5   0  0.6541476E-07  0.3594822E+04  0.7818609E-02  0.8091679E-01
       -2   -1    0    0    0  501  0.00000000000E+00  0.00000000000E+00  0.28206537205E+04  0.28206537205E+04  0.25500000920E-02 0. -1.
        2   -1    0    0  501    0  0.00000000000E+00  0.00000000000E+00 -0.11453680087E+04  0.11453680087E+04  0.25500000920E-02 0.  1.
    10030    2    1    2    0    0  0.00000000000E+00  0.00000000000E+00  0.16752857118E+04  0.39660217291E+04  0.35948221291E+04 0.  0.
        4    1    3    3  502    0  0.11384162339E+04 -0.51567299324E+03 -0.58755954294E+03  0.13809916679E+04  0.12699999809E+01 0.  1.
       -4    1    3    3    0  502 -0.11384162339E+04  0.51567299324E+03  0.22628452547E+04  0.25850300612E+04  0.12699999809E+01 0. -1.
</event>
<event>
 5   0  0.2086250E-07  0.3582685E+04  0.7818609E-02  0.8094469E-01
       -1   -1    0    0    0  501  0.00000000000E+00  0.00000000000E+00  0.12256693765E+04  0.12256693765E+04  0.50400001928E-02 0.  1.
        1   -1    0    0  501    0  0.00000000000E+00  0.00000000000E+00 -0.26180859687E+04  0.26180859687E+04  0.50400001928E-02 0. -1.
    10030    2    1    2    0    0  0.00000000000E+00  0.00000000000E+00 -0.13924165922E+04  0.38437553452E+04  0.35826849132E+04 0.  0.
        3    1    3    3  502    0  0.88334330758E+03 -0.37719596905E+03 -0.23184557844E+04  0.25095436701E+04  0.10100000352E+00 0. -1.
       -3    1    3    3    0  502 -0.88334330758E+03  0.37719596905E+03  0.92603919219E+03  0.13342116750E+04  0.10100000352E+00 0.  1.
</event>
<event>
 5   0  0.2086250E-07  0.3561359E+04  0.7818609E-02  0.8099401E-01
        1   -1    0    0  501    0  0.00000000000E+00  0.00000000000E+00  0.12997862511E+04  0.12997862511E+04  0.50400001928E-02 0.  1.
       -1   -1    0    0    0  501  0.00000000000E+00  0.00000000000E+00 -0.24394927830E+04  0.24394927830E+04  0.50400001928E-02 0. -1.
    10030    2    1    2    0    0  0.00000000000E+00  0.00000000000E+00 -0.11397065319E+04  0.37392790341E+04  0.35613588300E+04 0.  0.
        3    1    3    3  502    0  0.41087509397E+02 -0.17649607699E+04 -0.32576452006E+03  0.17952429461E+04  0.10100000352E+00 0.  1.
       -3    1    3    3    0  502 -0.41087509397E+02  0.17649607699E+04 -0.81394201180E+03  0.19440360880E+04  0.10100000352E+00 0. -1.
</event>
<event>
 5   0  0.2193129E-07  0.3611195E+04  0.7818609E-02  0.8087932E-01
       -1   -1    0    0    0  501  0.00000000000E+00  0.00000000000E+00  0.20351023020E+04  0.20351023020E+04  0.50400001928E-02 0. -1.
        1   -1    0    0  501    0  0.00000000000E+00  0.00000000000E+00 -0.16019747314E+04  0.16019747314E+04  0.50400001928E-02 0.  1.
    10030    2    1    2    0    0  0.00000000000E+00  0.00000000000E+00  0.43312757058E+03  0.36370770335E+04  0.36111950730E+04 0.  0.
        1    1    3    3  502    0 -0.11980326464E+04  0.95201916739E+03  0.11818481134E+04  0.19334910602E+04  0.50400001928E-02 0. -1.
       -1    1    3    3    0  502  0.11980326464E+04 -0.95201916739E+03 -0.74872054279E+03  0.17035859732E+04  0.50400001928E-02 0.  1.
</event>
<event>
 5   0  0.2108068E-07  0.3011416E+04  0.7818609E-02  0.8240479E-01
        1   -1    0    0  501    0  0.00000000000E+00  0.00000000000E+00  0.15129964826E+04  0.15129964826E+04  0.50400001928E-02 0. -1.
       -1   -1    0    0    0  501  0.00000000000E+00  0.00000000000E+00 -0.14984543476E+04  0.14984543476E+04  0.50400001928E-02 0.  1.
    10030    2    1    2    0    0  0.00000000000E+00  0.00000000000E+00  0.14542135006E+02  0.30114508303E+04  0.30114157185E+04 0.  0.
        5    1    3    3  502    0  0.85302804220E+03 -0.82101160796E+03  0.93755991893E+03  0.15102177303E+04  0.46999998093E+01 0. -1.
       -5    1    3    3    0  502 -0.85302804220E+03  0.82101160796E+03 -0.92301778392E+03  0.15012331000E+04  0.46999998093E+01 0.  1.
</event>
<event>
 5   0  0.2108068E-07  0.3692228E+04  0.7818609E-02  0.8069686E-01
        1   -1    0    0  501    0  0.00000000000E+00  0.00000000000E+00  0.18218255738E+04  0.18218255738E+04  0.50400001928E-02 0.  1.
       -1   -1    0    0    0  501  0.00000000000E+00  0.00000000000E+00 -0.18707261659E+04  0.18707261659E+04  0.50400001928E-02 0. -1.
    10030    2    1    2    0    0  0.00000000000E+00  0.00000000000E+00 -0.48900592057E+02  0.36925517397E+04  0.36922279294E+04 0.  0.
        5    1    3    3  502    0 -0.18842352960E+03 -0.16574639482E+04 -0.81535750892E+03  0.18567498818E+04  0.46999998093E+01 0. -1.
       -5    1    3    3    0  502  0.18842352960E+03  0.16574639482E+04  0.76645691686E+03  0.18358018579E+04  0.46999998093E+01 0.  1.
</event>
<event>
 5   0  0.2086250E-07  0.3204047E+04  0.7818609E-02  0.8187749E-01
       -1   -1    0    0    0  501  0.00000000000E+00  0.00000000000E+00  0.13464374798E+04  0.13464374798E+04  0.50400001928E-02 0.  1.
        1   -1    0    0  501    0  0.00000000000E+00  0.00000000000E+00 -0.19061262802E+04  0.19061262802E+04  0.50400001928E-02 0. -1.
    10030    2    1    2    0    0  0.00000000000E+00  0.00000000000E+00 -0.55968880037E+03  0.32525637600E+04  0.32040473561E+04 0.  0.
        2    1    3    3  502    0  0.48339420670E+02  0.12752742505E+04 -0.12629187132E+04  0.17954455686E+04  0.25500000920E-02 0.  1.
       -2    1    3    3    0  502 -0.48339420670E+02 -0.12752742505E+04  0.70322991285E+03  0.14571181915E+04  0.25500000920E-02 0. -1.
</event>
<event>
 5   0  0.2086250E-07  0.3612648E+04  0.7818609E-02  0.8087601E-01
        1   -1    0    0  501    0  0.00000000000E+00  0.00000000000E+00  0.25123683483E+04  0.25123683483E+04  0.50400001928E-02 0. -1.
       -1   -1    0    0    0  501  0.00000000000E+00  0.00000000000E+00 -0.12986976278E+04  0.12986976278E+04  0.50400001928E-02 0.  1.
    10030    2    1    2    0    0  0.00000000000E+00  0.00000000000E+00  0.12136707205E+04  0.38110659761E+04  0.36126482331E+04 0.  0.
        2    1    3    3  502    0  0.36205449622E+02  0.43230130521E+03  0.24565976404E+04  0.24946076284E+04  0.25500000920E-02 0. -1.
       -2    1    3    3    0  502 -0.36205449622E+02 -0.43230130521E+03 -0.12429269199E+04  0.13164583477E+04  0.25500000920E-02 0.  1.
</event>
<event>
 5   0  0.2086250E-07  0.3569402E+04  0.7818609E-02  0.8097537E-01
        1   -1    0    0  501    0  0.00000000000E+00  0.00000000000E+00  0.18713062762E+04  0.18713062762E+04  0.50400001928E-02 0. -1.
       -1   -1    0    0    0  501  0.00000000000E+00  0.00000000000E+00 -0.17021040792E+04  0.17021040792E+04  0.50400001928E-02 0.  1.
    10030    2    1    2    0    0  0.00000000000E+00  0.00000000000E+00  0.16920219702E+03  0.35734103554E+04  0.35694022167E+04 0.  0.
        2    1    3    3  502    0 -0.15543689480E+04  0.15630134588E+03 -0.77930771654E+03  0.17457988012E+04  0.25500000920E-02 0.  1.
       -2    1    3    3    0  502  0.15543689480E+04 -0.15630134588E+03  0.94850991355E+03  0.18276115543E+04  0.25500000920E-02 0. -1.
</event>
<event>
 5   0  0.6669864E-07  0.3654335E+04  0.7818609E-02  0.8078158E-01
       -2   -1    0    0    0  501  0.00000000000E+00  0.00000000000E+00  0.16499102279E+04  0.16499102279E+04  0.25500000920E-02 0. -1.
        2   -1    0    0  501    0  0.00000000000E+00  0.00000000000E+00 -0.20234684574E+04  0.20234684574E+04  0.25500000920E-02 0.  1.
    10030    2    1    2    0    0  0.00000000000E+00  0.00000000000E+00 -0.37355822948E+03  0.36733786854E+04  0.36543351263E+04 0.  0.
        5    1    3    3  502    0 -0.14290941033E+03  0.12090717027E+04  0.11827604885E+04  0.16974162556E+04  0.46999998093E+01 0. -1.
       -5    1    3    3    0  502  0.14290941033E+03 -0.12090717027E+04 -0.15563187180E+04  0.19759624297E+04  0.46999998093E+01 0.  1.
</event>
<event>
 5   0  0.2193129E-07  0.3610368E+04  0.7818609E-02  0.8088121E-01
       -1   -1    0    0    0  501  0.00000000000E+00  0.00000000000E+00  0.17667485199E+04  0.17667485199E+04  0.50400001928E-02 0.  1.
        1   -1    0    0  501    0  0.00000000000E+00  0.00000000000E+00 -0.18444556621E+04  0.18444556621E+04  0.50400001928E-02 0. -1.
    10030    2    1    2    0    0  0.00000000000E+00  0.00000000000E+00 -0.77707142187E+02  0.36112041820E+04  0.36103680205E+04 0.  0.
        1    1    3    3  502    0 -0.24546908395E+02  0.12150319197E+04  0.12962904708E+04  0.17768719991E+04  0.50400001928E-02 0.  1.
       -1    1    3    3    0  502  0.24546908395E+02 -0.12150319197E+04 -0.13739976130E+04  0.18343321828E+04  0.50400001928E-02 0. -1.
</event>
<event>
 5   0  0.6729577E-07  0.3506576E+04  0.7818609E-02  0.8112233E-01
       -2   -1    0    0    0  501  0.00000000000E+00  0.00000000000E+00  0.15199172062E+04  0.15199172062E+04  0.25500000920E-02 0. -1.
        2   -1    0    0  501    0  0.00000000000E+00  0.00000000000E+00 -0.20224910233E+04  0.20224910233E+04  0.25500000920E-02 0.  1.
    10030    2    1    2    0    0  0.00000000000E+00  0.00000000000E+00 -0.50257381713E+03  0.35424082295E+04  0.35065760541E+04 0.  0.
        3    1    3    3  502    0  0.14701887441E+04  0.57580030655E+03  0.51874748557E+03  0.16619566482E+04  0.10100000352E+00 0. -1.
       -3    1    3    3    0  502 -0.14701887441E+04 -0.57580030655E+03 -0.10213213027E+04  0.18804515814E+04  0.10100000352E+00 0.  1.
</event>
<event>
 5   0  0.2086250E-07  0.3568910E+04  0.7818609E-02  0.8097650E-01
       -1   -1    0    0    0  501  0.00000000000E+00  0.00000000000E+00  0.26781964994E+04  0.26781964994E+04  0.50400001928E-02 0.  1.
        1   -1    0    0  501    0  0.00000000000E+00  0.00000000000E+00 -0.11889644122E+04  0.11889644123E+04  0.50400001928E-02 0. -1.
    10030    2    1    2    0    0  0.00000000000E+00  0.00000000000E+00  0.14892320871E+04  0.38671609116E+04  0.35689103809E+04 0.  0.
        4    1    3    3  502    0  0.71383705632E+03 -0.95452088667E+03  0.21836044404E+04  0.24877305785E+04  0.12699999809E+01 0.  1.
       -4    1    3    3    0  502 -0.71383705632E+03  0.95452088667E+03 -0.69437235329E+03  0.13794303331E+04  0.12699999809E+01 0. -1.
</event>
<event>
 5   0  0.6541476E-07  0.3567512E+04  0.7818609E-02  0.8097974E-01
       -2   -1    0    0    0  501  0.00000000000E+00  0.00000000000E+00  0.18553441574E+04  0.18553441574E+04  0.25500000920E-02 0. -1.
        2   -1    0    0  501    0  0.00000000000E+00  0.00000000000E+00 -0.17149305282E+04  0.17149305282E+04  0.25500000920E-02 0.  1.
    10030    2    1    2    0    0  0.00000000000E+00  0.00000000000E+00  0.14041362922E+03  0.35702746856E+04  0.35675124868E+04 0.  0.
        4    1    3    3  502    0 -0.10684594455E+04 -0.52200920904E+03  0.14007795840E+04  0.18374668043E+04  0.12699999809E+01 0. -1.
       -4    1    3    3    0  502  0.10684594455E+04  0.52200920904E+03 -0.12603659547E+04  0.17328078814E+04  0.12699999809E+01 0.  1.
</event>
<event>
 5   0  0.6848661E-07  0.3583826E+04  0.7818609E-02  0.8094207E-01
        2   -1    0    0  501    0  0.00000000000E+00  0.00000000000E+00  0.29458924346E+04  0.29458924346E+04  0.25500000920E-02 0. -1.
       -2   -1    0    0    0  501  0.00000000000E+00  0.00000000000E+00 -0.10899761748E+04  0.10899761748E+04  0.25500000920E-02 0.  1.
    10030    2    1    2    0    0  0.00000000000E+00  0.00000000000E+00  0.18559162598E+04  0.40358686094E+04  0.35838262052E+04 0.  0.
        1    1    3    3  502    0 -0.27977511577E+03  0.10700364023E+04  0.25156475734E+04  0.27480419814E+04  0.50400001928E-02 0. -1.
       -1    1    3    3    0  502  0.27977511577E+03 -0.10700364023E+04 -0.65973131363E+03  0.12878266280E+04  0.50400001928E-02 0.  1.
</event>
<event>
 5   0  0.2086250E-07  0.3056725E+04  0.7818609E-02  0.8227716E-01
        1   -1    0    0  501    0  0.00000000000E+00  0.00000000000E+00  0.19246353308E+04  0.19246353308E+04  0.50400001928E-02 0.  1.
       -1   -1    0    0    0  501  0.00000000000E+00  0.00000000000E+00 -0.12136799608E+04  0.12136799609E+04  0.50400001928E-02 0. -1.
    10030    2    1    2    0    0  0.00000000000E+00  0.00000000000E+00  0.71095536996E+03  0.31383152917E+04  0.30567246084E+04 0.  0.
        3    1    3    3  502    0  0.14210830995E+04 -0.52523681800E+03  0.56219861300E+03  0.16159882987E+04  0.10100000352E+00 0. -1.
       -3    1    3    3    0  502 -0.14210830995E+04  0.52523681800E+03  0.14875675696E+03  0.15223269930E+04  0.10100000352E+00 0.  1.
</event>
<event>
 5   0  0.6729577E-07  0.3534799E+04  0.7818609E-02  0.8105592E-01
        2   -1    0    0  501    0  0.00000000000E+00  0.00000000000E+00  0.12726415846E+04  0.12726415846E+04  0.25500000920E-02 0. -1.
       -2   -1    0    0    0  501  0.00000000000E+00  0.00000000000E+00 -0.24545013861E+04  0.24545013861E+04  0.25500000920E-02 0.  1.
    10030    2    1    2    0    0  0.00000000000E+00  0.00000000000E+00 -0.11818598015E+04  0.37271429707E+04  0.35347987402E+04 0.  0.
        3    1    3    3  502    0 -0.12143420601E+04 -0.13999719459E+02  0.76302939510E+03  0.14342372534E+04  0.10100000352E+00 0. -1.
       -3    1    3    3    0  502  0.12143420601E+04  0.13999719459E+02 -0.19448891966E+04  0.22929057173E+04  0.10100000352E+00 0.  1.
</event>
<event>
 5   0  0.2086250E-07  0.3556508E+04  0.7818609E-02  0.8100527E-01
        1   -1    0    0  501    0  0.00000000000E+00  0.00000000000E+00  0.29337021216E+04  0.29337021216E+04  0.50400001928E-02 0.  1.
       -1   -1    0    0    0  501  0.00000000000E+00  0.00000000000E+00 -0.10778830611E+04  0.10778830611E+04  0.50400001928E-02 0. -1.
    10030    2    1    2    0    0  0.00000000000E+00  0.00000000000E+00  0.18558190605E+04  0.40115851827E+04  0.35565083007E+04 0.  0.
        4    1    3    3  502    0 -0.69208938060E+03  0.83442613882E+03  0.25178601684E+04  0.27413274398E+04  0.12699999809E+01 0.  1.
       -4    1    3    3    0  502  0.69208938060E+03 -0.83442613882E+03 -0.66204110792E+03  0.12702577429E+04  0.12699999809E+01 0. -1.
</event>
<event>
 5   0  0.6324216E-07  0.3601624E+04  0.7818609E-02  0.8090120E-01
        2   -1    0    0  501    0  0.00000000000E+00  0.00000000000E+00  0.12276881916E+04  0.12276881916E+04  0.25500000920E-02 0. -1.
       -2   -1    0    0    0  501  0.00000000000E+00  0.00000000000E+00 -0.26414879835E+04  0.26414879835E+04  0.25500000920E-02 0.  1.
    10030    2    1    2    0    0  0.00000000000E+00  0.00000000000E+00 -0.14137997919E+04  0.38691761751E+04  0.36016238591E+04 0.  0.
        2    1    3    3  502    0  0.15534314122E+04 -0.90732150089E+03 -0.62000779305E+03  0.19028376499E+04  0.25500000920E-02 0.  1.
       -2    1    3    3    0  502 -0.15534314122E+04  0.90732150089E+03 -0.79379199886E+03  0.19663385252E+04  0.25500000920E-02 0. -1.
</event>
<event>
 5   0  0.2086250E-07  0.3518227E+04  0.7818609E-02  0.8109484E-01
        1   -1    0    0  501    0  0.00000000000E+00  0.00000000000E+00  0.18507955687E+04  0.18507955687E+04  0.50400001928E-02 0.  1.
       -1   -1    0    0    0  501  0.00000000000E+00  0.00000000000E+00 -0.16719728677E+04  0.16719728677E+04  0.50400001928E-02 0. -1.
    10030    2    1    2    0    0  0.00000000000E+00  0.00000000000E+00  0.17882270099E+03  0.35227684365E+04  0.35182268117E+04 0.  0.
        4    1    3    3  502    0 -0.13831607250E+04  0.72050122776E+03 -0.72540983308E+03  0.17200222816E+04  0.12699999809E+01 0. -1.
       -4    1    3    3    0  502  0.13831607250E+04 -0.72050122776E+03  0.90423253408E+03  0.18027461549E+04  0.12699999809E+01 0.  1.
</event>
<event>
 5   0  0.2086250E-07  0.3549149E+04  0.7818609E-02  0.8102240E-01
       -1   -1    0    0    0  501  0.00000000000E+00  0.00000000000E+00  0.12231247029E+04  0.12231247029E+04  0.50400001928E-02 0.  1.
        1   -1    0    0  501    0  0.00000000000E+00  0.00000000000E+00 -0.25746477532E+04  0.25746477532E+04  0.50400001928E-02 0. -1.
    10030    2    1    2    0    0  0.00000000000E+00  0.00000000000E+00 -0.13515230502E+04  0.37977724561E+04  0.35491493450E+04 0.  0.
        4    1    3    3  502    0 -0.34383754858E+03  0.16588297020E+04 -0.12411431579E+04  0.21000900436E+04  0.12699999809E+01 0. -1.
       -4    1    3    3    0  502  0.34383754858E+03 -0.16588297020E+04 -0.11037989230E+03  0.16976824124E+04  0.12699999809E+01 0.  1.
</event>
<event>
 5   0  0.2086250E-07  0.3613433E+04  0.7818609E-02  0.8087422E-01
        1   -1    0    0  501    0  0.00000000000E+00  0.00000000000E+00  0.23128078273E+04  0.23128078273E+04  0.50400001928E-02 0. -1.
       -1   -1    0    0    0  501  0.00000000000E+00  0.00000000000E+00 -0.14113685779E+04  0.14113685779E+04  0.50400001928E-02 0.  1.
    10030    2    1    2    0    0  0.00000000000E+00  0.00000000000E+00  0.90143924937E+03  0.37241764052E+04  0.36134328798E+04 0.  0.
        2    1    3    3  502    0  0.27143004568E+02  0.13596571472E+04  0.16766360007E+04  0.21588220351E+04  0.25500000920E-02 0. -1.
       -2    1    3    3    0  502 -0.27143004568E+02 -0.13596571472E+04 -0.77519675130E+03  0.15653543700E+04  0.25500000920E-02 0.  1.
</event>
<event>
 5   0  0.6324216E-07  0.3513270E+04  0.7818609E-02  0.8110652E-01
        2   -1    0    0  501    0  0.00000000000E+00  0.00000000000E+00  0.28359934199E+04  0.28359934199E+04  0.25500000920E-02 0. -1.
       -2   -1    0    0    0  501  0.00000000000E+00  0.00000000000E+00 -0.10880727275E+04  0.10880727275E+04  0.25500000920E-02 0.  1.
    10030    2    1    2    0    0  0.00000000000E+00  0.00000000000E+00  0.17479206924E+04  0.39240661474E+04  0.35132703258E+04 0.  0.
        2    1    3    3  502    0 -0.53612859047E+03  0.16540300305E+04  0.11532320289E+04  0.20864307609E+04  0.25500000920E-02 0.  1.
       -2    1    3    3    0  502  0.53612859047E+03 -0.16540300305E+04  0.59468866346E+03  0.18376353865E+04  0.25500000920E-02 0. -1.
</event>
<event>
 5   0  0.6848661E-07  0.3570192E+04  0.7818609E-02  0.8097354E-01
       -2   -1    0    0    0  501  0.00000000000E+00  0.00000000000E+00  0.17163084383E+04  0.17163084383E+04  0.25500000920E-02 0. -1.
        2   -1    0    0  501    0  0.00000000000E+00  0.00000000000E+00 -0.18566404500E+04  0.18566404500E+04  0.25500000920E-02 0.  1.
    10030    2    1    2    0    0  0.00000000000E+00  0.00000000000E+00 -0.14033201172E+03  0.35729488883E+04  0.35701919675E+04 0.  0.
        1    1    3    3  502    0 -0.16099471005E+04 -0.22057914954E+03  0.66931110045E+03  0.17574305610E+04  0.50400001928E-02 0. -1.
       -1    1    3    3    0  502  0.16099471005E+04  0.22057914954E+03 -0.80964311217E+03  0.18155183273E+04  0.50400001928E-02 0.  1.
</event>
<event>
 5   0  0.2086250E-07  0.3690735E+04  0.7818609E-02  0.8070018E-01
       -1   -1    0    0    0  501  0.00000000000E+00  0.00000000000E+00  0.19244483090E+04  0.19244483090E+04  0.50400001928E-02 0.  1.
        1   -1    0    0  501    0  0.00000000000E+00  0.00000000000E+00 -0.17695362706E+04  0.17695362706E+04  0.50400001928E-02 0. -1.
    10030    2    1    2    0    0  0.00000000000E+00  0.00000000000E+00  0.15491203846E+03  0.36939845796E+04  0.36907349315E+04 0.  0.
        2    1    3    3  502    0  0.97173133609E+03  0.13267149429E+04  0.91541881580E+03  0.18821333474E+04  0.25500000920E-02 0.  1.
       -2    1    3    3    0  502 -0.97173133609E+03 -0.13267149429E+04 -0.76050677734E+03  0.18118512322E+04  0.25500000920E-02 0. -1.
</event>
<event>
 5   0  0.6848661E-07  0.3608245E+04  0.7818609E-02  0.8088606E-01
        2   -1    0    0  501    0  0.00000000000E+00  0.00000000000E+00  0.17672343547E+04  0.17672343547E+04  0.25500000920E-02 0.  1.
       -2   -1    0    0    0  501  0.00000000000E+00  0.00000000000E+00 -0.18417807934E+04  0.18417807934E+04  0.25500000920E-02 0. -1.
    10030    2    1    2    0    0  0.00000000000E+00  0.00000000000E+00 -0.74546438747E+02  0.36090151481E+04  0.36082451645E+04 0.  0.
        1    1    3    3  502    0  0.10067876054E+04  0.13773947919E+04 -0.62393107292E+03  0.18166253546E+04  0.50400001928E-02 0. -1.
       -1    1    3    3    0  502 -0.10067876054E+04 -0.13773947919E+04  0.54938463417E+03  0.17923897934E+04  0.50400001928E-02 0.  1.
</event>
<event>
 5   0  0.2193129E-07  0.3617865E+04  0.7818609E-02  0.8086412E-01
        1   -1    0    0  501    0  0.00000000000E+00  0.00000000000E+00  0.27450681171E+04  0.27450681171E+04  0.50400001928E-02 0.  1.
       -1   -1    0    0    0  501  0.00000000000E+00  0.00000000000E+00 -0.11920417921E+04  0.11920417922E+04  0.50400001928E-02 0. -1.
    10030    2    1    2    0    0  0.00000000000E+00  0.00000000000E+00  0.15530263250E+04  0.39371099093E+04  0.36178645182E+04 0.  0.
        1    1    3    3  502    0  0.15304594071E+04  0.85134246799E+03  0.12694107413E+04  0.21629825762E+04  0.50400001928E-02 0.  1.
       -1    1    3    3    0  502 -0.15304594071E+04 -0.85134246799E+03  0.28361558370E+03  0.17741273331E+04  0.50400001928E-02 0. -1.
</event>
<event>
 5   0  0.6669864E-07  0.3423046E+04  0.7818609E-02  0.8132273E-01
       -2   -1    0    0    0  501  0.00000000000E+00  0.00000000000E+00  0.14516857446E+04  0.14516857446E+04  0.25500000920E-02 0.  1.
        2   -1    0    0  501    0  0.00000000000E+00  0.00000000000E+00 -0.20178680726E+04  0.20178680726E+04  0.25500000920E-02 0. -1.
    10030    2    1    2    0    0  0.00000000000E+00  0.00000000000E+00 -0.56618232798E+03  0.34695538172E+04  0.34230456120E+04 0.  0.
        5    1    3    3  502    0 -0.12432012196E+04 -0.11751872722E+04 -0.23067952969E+03  0.17262240679E+04  0.46999998093E+01 0.  1.
       -5    1    3    3    0  502  0.12432012196E+04  0.11751872722E+04 -0.33550279829E+03  0.17433297493E+04  0.46999998093E+01 0. -1.
</event>
<event>
 5   0  0.6541476E-07  0.3545635E+04  0.7818609E-02  0.8103059E-01
        2   -1    0    0  501    0  0.00000000000E+00  0.00000000000E+00  0.26707950143E+04  0.26707950143E+04  0.25500000920E-02 0. -1.
       -2   -1    0    0    0  501  0.00000000000E+00  0.00000000000E+00 -0.11767588199E+04  0.11767588199E+04  0.25500000920E-02 0.  1.
    10030    2    1    2    0    0  0.00000000000E+00  0.00000000000E+00  0.14940361944E+04  0.38475538341E+04  0.35456348312E+04 0.  0.
        4    1    3    3  502    0 -0.47502348077E+03  0.97324040135E+02 -0.11034006990E+04  0.12052443700E+04  0.12699999809E+01 0.  1.
       -4    1    3    3    0  502  0.47502348077E+03 -0.97324040135E+02  0.25974368934E+04  0.26423094641E+04  0.12699999809E+01 0. -1.
</event>
<event>
 5   0  0.6541476E-07  0.3569994E+04  0.7818609E-02  0.8097400E-01
       -2   -1    0    0    0  501  0.00000000000E+00  0.00000000000E+00  0.24090243972E+04  0.24090243972E+04  0.25500000920E-02 0.  1.
        2   -1    0    0  501    0  0.00000000000E+00  0.00000000000E+00 -0.13226158732E+04  0.13226158732E+04  0.25500000920E-02 0. -1.
    10030    2    1    2    0    0  0.00000000000E+00  0.00000000000E+00  0.10864085240E+04  0.37316402703E+04  0.35699937851E+04 0.  0.
        4    1    3    3  502    0 -0.53249892456E+03 -0.16967112117E+04  0.38185075381E+03  0.18188445925E+04  0.12699999809E+01 0. -1.
       -4    1    3    3    0  502  0.53249892456E+03  0.16967112117E+04  0.70455777021E+03  0.19127956778E+04  0.12699999809E+01 0.  1.
</event>
<event>
 5   0  0.2086250E-07  0.3615346E+04  0.7818609E-02  0.8086986E-01
        1   -1    0    0  501    0  0.00000000000E+00  0.00000000000E+00  0.16374268727E+04  0.16374268727E+04  0.50400001928E-02 0. -1.
       -1   -1    0    0    0  501  0.00000000000E+00  0.00000000000E+00 -0.19956200316E+04  0.19956200316E+04  0.50400001928E-02 0.  1.
    10030    2    1    2    0    0  0.00000000000E+00  0.00000000000E+00 -0.35819315890E+03  0.36330469044E+04  0.36153461066E+04 0.  0.
        2    1    3    3  502    0 -0.14027544466E+04 -0.79984836817E+03 -0.99560438013E+03  0.18970254430E+04  0.25500000920E-02 0.  1.
       -2    1    3    3    0  502  0.14027544466E+04  0.79984836817E+03  0.63741122124E+03  0.17360214614E+04  0.25500000920E-02 0. -1.
</event>
<event>
 5   0  0.2086250E-07  0.3590400E+04  0.7818609E-02  0.8092694E-01
        1   -1    0    0  501    0  0.00000000000E+00  0.00000000000E+00  0.19577590155E+04  0.19577590155E+04  0.50400001928E-02 0.  1.
       -1   -1    0    0    0  501  0.00000000000E+00  0.00000000000E+00 -0.16461390387E+04  0.16461390387E+04  0.50400001928E-02 0. -1.
    10030    2    1    2    0    0  0.00000000000E+00  0.00000000000E+00  0.31161997677E+03  0.36038980542E+04  0.35904002807E+04 0.  0.
        3    1    3    3  502    0  0.69202820613E+03  0.44602553300E+03 -0.14454621079E+04  0.16634910669E+04  0.10100000352E+00 0. -1.
       -3    1    3    3    0  502 -0.69202820613E+03 -0.44602553300E+03  0.17570820846E+04  0.19404069873E+04  0.10100000352E+00 0.  1.
</event>
<event>
 5   0  0.2108068E-07  0.3548936E+04  0.7818609E-02  0.8102290E-01
        1   -1    0    0  501    0  0.00000000000E+00  0.00000000000E+00  0.18698974975E+04  0.18698974975E+04  0.50400001928E-02 0. -1.
       -1   -1    0    0    0  501  0.00000000000E+00  0.00000000000E+00 -0.16839090761E+04  0.16839090761E+04  0.50400001928E-02 0.  1.
    10030    2    1    2    0    0  0.00000000000E+00  0.00000000000E+00  0.18598842143E+03  0.35538065736E+04  0.35489363857E+04 0.  0.
        5    1    3    3  502    0 -0.24602758287E+03  0.17201090289E+04 -0.26723635084E+03  0.17580506250E+04  0.46999998093E+01 0.  1.
       -5    1    3    3    0  502  0.24602758287E+03 -0.17201090289E+04  0.45322477227E+03  0.17957559486E+04  0.46999998093E+01 0. -1.
</event>
<event>
 5   0  0.6541476E-07  0.3554277E+04  0.7818609E-02  0.8101046E-01
       -2   -1    0    0    0  501  0.00000000000E+00  0.00000000000E+00  0.14155159811E+04  0.14155159811E+04  0.25500000920E-02 0. -1.
        2   -1    0    0  501    0  0.00000000000E+00  0.00000000000E+00 -0.22311448483E+04  0.22311448483E+04  0.25500000920E-02 0.  1.
    10030    2    1    2    0    0  0.00000000000E+00  0.00000000000E+00 -0.81562886719E+03  0.36466608294E+04  0.35542769667E+04 0.  0.
        4    1    3    3  502    0  0.85268924406E+02 -0.12466220752E+04 -0.17043383826E+04  0.21133169008E+04  0.12699999809E+01 0.  1.
       -4    1    3    3    0  502 -0.85268924406E+02  0.12466220752E+04  0.88870951546E+03  0.15333439286E+04  0.12699999809E+01 0. -1.
</event>
<event>
 5   0  0.6669864E-07  0.3574782E+04  0.7818609E-02  0.8096293E-01
       -2   -1    0    0    0  501  0.00000000000E+00  0.00000000000E+00  0.17317266532E+04  0.17317266532E+04  0.25500000920E-02 0.  1.
        2   -1    0    0  501    0  0.00000000000E+00  0.00000000000E+00 -0.18448441621E+04  0.18448441621E+04  0.25500000920E-02 0. -1.
    10030    2    1    2    0    0  0.00000000000E+00  0.00000000000E+00 -0.11311750888E+03  0.35765708153E+04  0.35747815634E+04 0.  0.
        5    1    3    3  502    0  0.37617200802E+03  0.74940306350E+03 -0.16358396786E+04  0.18382339011E+04  0.46999998093E+01 0. -1.
       -5    1    3    3    0  502 -0.37617200802E+03 -0.74940306350E+03  0.15227221697E+04  0.17383369142E+04  0.46999998093E+01 0.  1.
</event>
<event>
 5   0  0.6848661E-07  0.3821496E+04  0.7818609E-02  0.8041558E-01
       -2   -1    0    0    0  501  0.00000000000E+00  0.00000000000E+00  0.20473807199E+04  0.20473807199E+04  0.25500000920E-02 0.  1.
        2   -1    0    0  501    0  0.00000000000E+00  0.00000000000E+00 -0.17832336194E+04  0.17832336194E+04  0.25500000920E-02 0. -1.
    10030    2    1    2    0    0  0.00000000000E+00  0.00000000000E+00  0.26414710045E+03  0.38306143393E+04  0.38214961109E+04 0.  0.
        1    1    3    3  502    0 -0.10485142961E+04 -0.78551848878E+03 -0.12621213316E+04  0.18191678815E+04  0.50400001928E-02 0. -1.
       -1    1    3    3    0  502  0.10485142961E+04  0.78551848878E+03  0.15262684321E+04  0.20114464577E+04  0.50400001928E-02 0.  1.
</event>
<event>
 5   0  0.6848661E-07  0.3566386E+04  0.7818609E-02  0.8098235E-01
        2   -1    0    0  501    0  0.00000000000E+00  0.00000000000E+00  0.14328324057E+04  0.14328324057E+04  0.25500000920E-02 0. -1.
       -2   -1    0    0    0  501  0.00000000000E+00  0.00000000000E+00 -0.22192250462E+04  0.22192250462E+04  0.25500000920E-02 0.  1.
    10030    2    1    2    0    0  0.00000000000E+00  0.00000000000E+00 -0.78639264054E+03  0.36520574519E+04  0.35663861607E+04 0.  0.
        1    1    3    3  502    0  0.63322270457E+03 -0.44096565523E+03 -0.20394069151E+04  0.21805050488E+04  0.50400001928E-02 0.  1.
       -1    1    3    3    0  502 -0.63322270457E+03  0.44096565523E+03  0.12530142746E+04  0.14715524031E+04  0.50400001928E-02 0. -1.
</event>
<event>
 5   0  0.2086250E-07  0.3157917E+04  0.7818609E-02  0.8200021E-01
       -3   -1    0    0    0  501  0.00000000000E+00  0.00000000000E+00  0.21272600523E+04  0.21272600547E+04  0.10100000352E+00 0.  1.
        3   -1    0    0  501    0  0.00000000000E+00  0.00000000000E+00 -0.11719814924E+04  0.11719814968E+04  0.10100000352E+00 0. -1.
    10030    2    1    2    0    0  0.00000000000E+00  0.00000000000E+00  0.95527855990E+03  0.32992415514E+04  0.31579166689E+04 0.  0.
        1    1    3    3  502    0  0.73627485666E+03 -0.12241581790E+04 -0.22510381819E+03  0.14461450968E+04  0.50400001928E-02 0. -1.
       -1    1    3    3    0  502 -0.73627485666E+03  0.12241581790E+04  0.11803823781E+04  0.18530964547E+04  0.50400001928E-02 0.  1.
</event>
<event>
 5   0  0.2086250E-07  0.3585104E+04  0.7818609E-02  0.8093912E-01
        3   -1    0    0  501    0  0.00000000000E+00  0.00000000000E+00  0.24622689899E+04  0.24622689920E+04  0.10100000352E+00 0. -1.
       -3   -1    0    0    0  501  0.00000000000E+00  0.00000000000E+00 -0.13049927521E+04  0.13049927560E+04  0.10100000352E+00 0.  1.
    10030    2    1    2    0    0  0.00000000000E+00  0.00000000000E+00  0.11572762378E+04  0.37672617480E+04  0.35851042924E+04 0.  0.
        3    1    3    3  502    0 -0.45943576626E+03 -0.13587010420E+04  0.17084872882E+04  0.22307125698E+04  0.10100000352E+00 0. -1.
       -3    1    3    3    0  502  0.45943576626E+03  0.13587010420E+04 -0.55121105038E+03  0.15365491782E+04  0.10100000352E+00 0.  1.
</event>
<event>
 5   0  0.6541476E-07  0.3598595E+04  0.7818609E-02  0.8090814E-01
        2   -1    0    0  501    0  0.00000000000E+00  0.00000000000E+00  0.18644154744E+04  0.18644154744E+04  0.25500000920E-02 0.  1.
       -2   -1    0    0    0  501  0.00000000000E+00  0.00000000000E+00 -0.17364534215E+04  0.17364534215E+04  0.25500000920E-02 0. -1.
    10030    2    1    2    0    0  0.00000000000E+00  0.00000000000E+00  0.12796205290E+03  0.36008688959E+04  0.35985945199E+04 0.  0.
        4    1    3    3  502    0 -0.63992817128E+03  0.61121457315E+03  0.16316165387E+04  0.18561426295E+04  0.12699999809E+01 0.  1.
       -4    1    3    3    0  502  0.63992817128E+03 -0.61121457315E+03 -0.15036544858E+04  0.17447262664E+04  0.12699999809E+01 0. -1.
</event>
<event>
 5   0  0.2086250E-07  0.3642376E+04  0.7818609E-02  0.8080853E-01
        1   -1    0    0  501    0  0.00000000000E+00  0.00000000000E+00  0.18429551980E+04  0.18429551980E+04  0.50400001928E-02 0.  1.
       -1   -1    0    0    0  501  0.00000000000E+00  0.00000000000E+00 -0.17996777462E+04  0.17996777462E+04  0.50400001928E-02 0. -1.
    10030    2    1    2    0    0  0.00000000000E+00  0.00000000000E+00  0.43277451831E+02  0.36426329442E+04  0.36423758494E+04 0.  0.
        4    1    3    3  502    0  0.20989936557E+03  0.13310203009E+04  0.12468990933E+04  0.18358735651E+04  0.12699999809E+01 0.  1.
       -4    1    3    3    0  502 -0.20989936557E+03 -0.13310203009E+04 -0.12036216415E+04  0.18067593791E+04  0.12699999809E+01 0. -1.
</event>
<event>
 5   0  0.6541476E-07  0.3530078E+04  0.7818609E-02  0.8106699E-01
       -2   -1    0    0    0  501  0.00000000000E+00  0.00000000000E+00  0.12723423234E+04  0.12723423234E+04  0.25500000920E-02 0. -1.
        2   -1    0    0  501    0  0.00000000000E+00  0.00000000000E+00 -0.24485252780E+04  0.24485252780E+04  0.25500000920E-02 0.  1.
    10030    2    1    2    0    0  0.00000000000E+00  0.00000000000E+00 -0.11761829546E+04  0.37208676014E+04  0.35300778128E+04 0.  0.
        4    1    3    3  502    0  0.13577637907E+04  0.63170988816E+03 -0.15728109786E+04  0.21717080562E+04  0.12699999809E+01 0.  1.
       -4    1    3    3    0  502 -0.13577637907E+04 -0.63170988816E+03  0.39662802396E+03  0.15491595452E+04  0.12699999809E+01 0. -1.
</event>
<event>
 5   0  0.2086250E-07  0.3608937E+04  0.7818609E-02  0.8088448E-01
       -1   -1    0    0    0  501  0.00000000000E+00  0.00000000000E+00  0.18164259342E+04  0.18164259342E+04  0.50400001928E-02 0.  1.
        1   -1    0    0  501    0  0.00000000000E+00  0.00000000000E+00 -0.17925898026E+04  0.17925898026E+04  0.50400001928E-02 0. -1.
    10030    2    1    2    0    0  0.00000000000E+00  0.00000000000E+00  0.23836131645E+02  0.36090157369E+04  0.36089370219E+04 0.  0.
        3    1    3    3  502    0 -0.26484438647E+03 -0.38170383573E+03 -0.17317558871E+04  0.17929915867E+04  0.10100000352E+00 0. -1.
       -3    1    3    3    0  502  0.26484438647E+03  0.38170383573E+03  0.17555920188E+04  0.18160241501E+04  0.10100000352E+00 0.  1.
</event>
<event>
 5   0  0.2086250E-07  0.3566475E+04  0.7818609E-02  0.8098214E-01
        1   -1    0    0  501    0  0.00000000000E+00  0.00000000000E+00  0.21761671828E+04  0.21761671828E+04  0.50400001928E-02 0.  1.
       -1   -1    0    0    0  501  0.00000000000E+00  0.00000000000E+00 -0.14612556866E+04  0.14612556866E+04  0.50400001928E-02 0. -1.
    10030    2    1    2    0    0  0.00000000000E+00  0.00000000000E+00  0.71491149614E+03  0.36374228694E+04  0.35664753866E+04 0.  0.
        4    1    3    3  502    0  0.86285846356E+03  0.80087127492E+03  0.17235090993E+04  0.20872002193E+04  0.12699999809E+01 0.  1.
       -4    1    3    3    0  502 -0.86285846356E+03 -0.80087127492E+03 -0.10085976031E+04  0.15502226502E+04  0.12699999809E+01 0. -1.
</event>
<event>
 5   0  0.2086250E-07  0.3555934E+04  0.7818609E-02  0.8100661E-01
       -1   -1    0    0    0  501  0.00000000000E+00  0.00000000000E+00  0.16993066487E+04  0.16993066487E+04  0.50400001928E-02 0.  1.
        1   -1    0    0  501    0  0.00000000000E+00  0.00000000000E+00 -0.18602685073E+04  0.18602685073E+04  0.50400001928E-02 0. -1.
    10030    2    1    2    0    0  0.00000000000E+00  0.00000000000E+00 -0.16096185860E+03  0.35595751561E+04  0.35559339943E+04 0.  0.
        2    1    3    3  502    0 -0.14400053888E+04 -0.10271241337E+04  0.10016753264E+03  0.17716187627E+04  0.25500000920E-02 0. -1.
       -2    1    3    3    0  502  0.14400053888E+04  0.10271241337E+04 -0.26112939125E+03  0.17879563934E+04  0.25500000920E-02 0.  1.
</event>
<event>
 5   0  0.6848661E-07  0.3560425E+04  0.7818609E-02  0.8099617E-01
       -2   -1    0    0    0  501  0.00000000000E+00  0.00000000000E+00  0.18117120450E+04  0.18117120450E+04  0.25500000920E-02 0. -1.
        2   -1    0    0  501    0  0.00000000000E+00  0.00000000000E+00 -0.17492609025E+04  0.17492609025E+04  0.25500000920E-02 0.  1.
    10030    2    1    2    0    0  0.00000000000E+00  0.00000000000E+00  0.62451142459E+02  0.35609729475E+04  0.35604252819E+04 0.  0.
        1    1    3    3  502    0  0.52931400741E+03  0.14135898661E+04 -0.91271376474E+03  0.17639319841E+04  0.50400001928E-02 0.  1.
       -1    1    3    3    0  502 -0.52931400741E+03 -0.14135898661E+04  0.97516490720E+03  0.17970409634E+04  0.50400001928E-02 0. -1.
</event>
<event>
 5   0  0.2086250E-07  0.3595033E+04  0.7818609E-02  0.8091630E-01
        1   -1    0    0  501    0  0.00000000000E+00  0.00000000000E+00  0.22155622380E+04  0.22155622380E+04  0.50400001928E-02 0. -1.
       -1   -1    0    0    0  501  0.00000000000E+00  0.00000000000E+00 -0.14583505144E+04  0.14583505144E+04  0.50400001928E-02 0.  1.
    10030    2    1    2    0    0  0.00000000000E+00  0.00000000000E+00  0.75721172362E+03  0.36739127523E+04  0.35950334237E+04 0.  0.
        3    1    3    3  502    0  0.79570355532E+03 -0.16086654258E+04  0.27581199240E+03  0.18157700475E+04  0.10100000352E+00 0. -1.
       -3    1    3    3    0  502 -0.79570355532E+03  0.16086654258E+04  0.48139973122E+03  0.18581427048E+04  0.10100000352E+00 0.  1.
</event>
<event>
 5   0  0.6848661E-07  0.3598256E+04  0.7818609E-02  0.8090891E-01
        2   -1    0    0  501    0  0.00000000000E+00  0.00000000000E+00  0.24790547224E+04  0.24790547224E+04  0.25500000920E-02 0. -1.
       -2   -1    0    0    0  501  0.00000000000E+00  0.00000000000E+00 -0.13056837712E+04  0.13056837712E+04  0.25500000920E-02 0.  1.
    10030    2    1    2    0    0  0.00000000000E+00  0.00000000000E+00  0.11733709511E+04  0.37847384936E+04  0.35982559770E+04 0.  0.
        1    1    3    3  502    0  0.10723317316E+04  0.12230273046E+03  0.21007331786E+04  0.23617648461E+04  0.50400001928E-02 0. -1.
       -1    1    3    3    0  502 -0.10723317316E+04 -0.12230273046E+03 -0.92736222749E+03  0.14229736475E+04  0.50400001928E-02 0.  1.
</event>
<event>
 5   0  0.6324216E-07  0.3638045E+04  0.7818609E-02  0.8081832E-01
       -2   -1    0    0    0  501  0.00000000000E+00  0.00000000000E+00  0.16614285887E+04  0.16614285887E+04  0.25500000920E-02 0. -1.
        2   -1    0    0  501    0  0.00000000000E+00  0.00000000000E+00 -0.19915654110E+04  0.19915654110E+04  0.25500000920E-02 0.  1.
    10030    2    1    2    0    0  0.00000000000E+00  0.00000000000E+00 -0.33013682233E+03  0.36529939997E+04  0.36380454698E+04 0.  0.
        2    1    3    3  502    0  0.15026343924E+04  0.47477614056E+03 -0.10773837020E+04  0.19089468673E+04  0.25500000920E-02 0.  1.
       -2    1    3    3    0  502 -0.15026343924E+04 -0.47477614056E+03  0.74724687969E+03  0.17440471324E+04  0.25500000920E-02 0. -1.
</event>
<event>
 5   0  0.6541476E-07  0.3600617E+04  0.7818609E-02  0.8090350E-01
       -2   -1    0    0    0  501  0.00000000000E+00  0.00000000000E+00  0.12282468055E+04  0.12282468055E+04  0.25500000920E-02 0.  1.
        2   -1    0    0  501    0  0.00000000000E+00  0.00000000000E+00 -0.26388111082E+04  0.26388111083E+04  0.25500000920E-02 0. -1.
    10030    2    1    2    0    0  0.00000000000E+00  0.00000000000E+00 -0.14105643027E+04  0.38670579138E+04  0.36006173438E+04 0.  0.
        4    1    3    3  502    0 -0.15850748247E+04 -0.77143092019E+03 -0.31280680675E+03  0.17903680001E+04  0.12699999809E+01 0.  1.
       -4    1    3    3    0  502  0.15850748247E+04  0.77143092019E+03 -0.10977574960E+04  0.20766899137E+04  0.12699999809E+01 0. -1.
</event>
<event>
 5   0  0.2086250E-07  0.3593648E+04  0.7818609E-02  0.8091948E-01
        1   -1    0    0  501    0  0.00000000000E+00  0.00000000000E+00  0.19426161462E+04  0.19426161462E+04  0.50400001928E-02 0.  1.
       -1   -1    0    0    0  501  0.00000000000E+00  0.00000000000E+00 -0.16619737312E+04  0.16619737312E+04  0.50400001928E-02 0. -1.
    10030    2    1    2    0    0  0.00000000000E+00  0.00000000000E+00  0.28064241501E+03  0.36045898774E+04  0.35936482882E+04 0.  0.
        4    1    3    3  502    0  0.16486021772E+04 -0.36360983583E+03 -0.47675442093E+03  0.17542513053E+04  0.12699999809E+01 0. -1.
       -4    1    3    3    0  502 -0.16486021772E+04  0.36360983583E+03  0.75739683594E+03  0.18503385721E+04  0.12699999809E+01 0.  1.
</event>
<event>
 5   0  0.2193129E-07  0.3604298E+04  0.7818609E-02  0.8089508E-01
       -1   -1    0    0    0  501  0.00000000000E+00  0.00000000000E+00  0.20881181199E+04  0.20881181199E+04  0.50400001928E-02 0. -1.
        1   -1    0    0  501    0  0.00000000000E+00  0.00000000000E+00 -0.15553432579E+04  0.15553432579E+04  0.50400001928E-02 0.  1.
    10030    2    1    2    0    0  0.00000000000E+00  0.00000000000E+00  0.53277486203E+03  0.36434613779E+04  0.36042976789E+04 0.  0.
        1    1    3    3  502    0 -0.13016319166E+04  0.10076916837E+04 -0.47510333930E+03  0.17133042225E+04  0.50400001928E-02 0.  1.
       -1    1    3    3    0  502  0.13016319166E+04 -0.10076916837E+04  0.10078782013E+04  0.19301571554E+04  0.50400001928E-02 0. -1.
</event>
<event>
 5   0  0.6541476E-07  0.3616310E+04  0.7818609E-02  0.8086766E-01
        2   -1    0    0  501    0  0.00000000000E+00  0.00000000000E+00  0.17159825982E+04  0.17159825983E+04  0.25500000920E-02 0. -1.
       -2   -1    0    0    0  501  0.00000000000E+00  0.00000000000E+00 -0.19052785165E+04  0.19052785165E+04  0.25500000920E-02 0.  1.
    10030    2    1    2    0    0  0.00000000000E+00  0.00000000000E+00 -0.18929591820E+03  0.36212611147E+04  0.36163101521E+04 0.  0.
        4    1    3    3  502    0 -0.32028959368E+03  0.89436563867E+03  0.14459471508E+04  0.17300982906E+04  0.12699999809E+01 0. -1.
       -4    1    3    3    0  502  0.32028959368E+03 -0.89436563867E+03 -0.16352430690E+04  0.18911628241E+04  0.12699999809E+01 0.  1.
</event>
<event>
 5   0  0.6669864E-07  0.3587373E+04  0.7818609E-02  0.8093390E-01
       -2   -1    0    0    0  501  0.00000000000E+00  0.00000000000E+00  0.21734868051E+04  0.21734868051E+04  0.25500000920E-02 0.  1.
        2   -1    0    0  501    0  0.00000000000E+00  0.00000000000E+00 -0.14802534068E+04  0.14802534068E+04  0.25500000920E-02 0. -1.
    10030    2    1    2    0    0  0.00000000000E+00  0.00000000000E+00  0.69323339825E+03  0.36537402119E+04  0.35873729931E+04 0.  0.
        5    1    3    3  502    0 -0.10018590707E+04 -0.80357213290E+03  0.16219153962E+04  0.20688357626E+04  0.46999998093E+01 0.  1.
       -5    1    3    3    0  502  0.10018590707E+04  0.80357213290E+03 -0.92868199790E+03  0.15849044493E+04  0.46999998093E+01 0. -1.
</event>
<event>
 5   0  0.2086250E-07  0.3609403E+04  0.7818609E-02  0.8088341E-01
       -1   -1    0    0    0  501  0.00000000000E+00  0.00000000000E+00  0.19336717516E+04  0.19336717516E+04  0.50400001928E-02 0.  1.
        1   -1    0    0  501    0  0.00000000000E+00  0.00000000000E+00 -0.16843330508E+04  0.16843330508E+04  0.50400001928E-02 0. -1.
    10030    2    1    2    0    0  0.00000000000E+00  0.00000000000E+00  0.24933870085E+03  0.36180048024E+04  0.36094028540E+04 0.  0.
        2    1    3    3  502    0 -0.16553004148E+04  0.16745918776E+03  0.82553895465E+03  0.18573035855E+04  0.25500000920E-02 0.  1.
       -2    1    3    3    0  502  0.16553004148E+04 -0.16745918776E+03 -0.57620025380E+03  0.17607012170E+04  0.25500000920E-02 0. -1.
</event>
<event>
 5   0  0.2086250E-07  0.3359781E+04  0.7818609E-02  0.8147849E-01
        1   -1    0    0  501    0  0.00000000000E+00  0.00000000000E+00  0.95111480581E+03  0.95111480583E+03  0.50400001928E-02 0.  1.
       -1   -1    0    0    0  501  0.00000000000E+00  0.00000000000E+00 -0.29670781900E+04  0.29670781900E+04  0.50400001928E-02 0. -1.
    10030    2    1    2    0    0  0.00000000000E+00  0.00000000000E+00 -0.20159633842E+04  0.39181929958E+04  0.33597809432E+04 0.  0.
        3    1    3    3  502    0  0.93765811347E+03 -0.13062545117E+04 -0.15751559453E+04  0.22509153359E+04  0.10100000352E+00 0. -1.
       -3    1    3    3    0  502 -0.93765811347E+03  0.13062545117E+04 -0.44080743890E+03  0.16672776600E+04  0.10100000352E+00 0.  1.
</event>
<event>
 5   0  0.6324216E-07  0.3532427E+04  0.7818609E-02  0.8106148E-01
        2   -1    0    0  501    0  0.00000000000E+00  0.00000000000E+00  0.15878741332E+04  0.15878741332E+04  0.25500000920E-02 0. -1.
       -2   -1    0    0    0  501  0.00000000000E+00  0.00000000000E+00 -0.19645832492E+04  0.19645832492E+04  0.25500000920E-02 0.  1.
    10030    2    1    2    0    0  0.00000000000E+00  0.00000000000E+00 -0.37670911602E+03  0.35524573824E+04  0.35324274508E+04 0.  0.
        2    1    3    3  502    0  0.62083171616E+03  0.58859482852E+03 -0.17423137032E+04  0.19410133776E+04  0.25500000920E-02 0.  1.
       -2    1    3    3    0  502 -0.62083171616E+03 -0.58859482852E+03  0.13656045871E+04  0.16114440047E+04  0.25500000920E-02 0. -1.
</event>
<event>
 5   0  0.6541476E-07  0.2964494E+04  0.7818609E-02  0.8253943E-01
        2   -1    0    0  501    0  0.00000000000E+00  0.00000000000E+00  0.24193192665E+04  0.24193192665E+04  0.25500000920E-02 0. -1.
       -2   -1    0    0    0  501  0.00000000000E+00  0.00000000000E+00 -0.90812979572E+03  0.90812979572E+03  0.25500000920E-02 0.  1.
    10030    2    1    2    0    0  0.00000000000E+00  0.00000000000E+00  0.15111894708E+04  0.33274490622E+04  0.29644938261E+04 0.  0.
        4    1    3    3  502    0 -0.97359738165E+03 -0.29130357354E+03 -0.45554480920E+03  0.11136751410E+04  0.12699999809E+01 0.  1.
       -4    1    3    3    0  502  0.97359738165E+03  0.29130357354E+03  0.19667342800E+04  0.22137739213E+04  0.12699999809E+01 0. -1.
</event>
<event>
 5   0  0.2193129E-07  0.3592750E+04  0.7818609E-02  0.8092154E-01
       -1   -1    0    0    0  501  0.00000000000E+00  0.00000000000E+00  0.12865298596E+04  0.12865298596E+04  0.50400001928E-02 0.  1.
        1   -1    0    0  501    0  0.00000000000E+00  0.00000000000E+00 -0.25082695845E+04  0.25082695845E+04  0.50400001928E-02 0. -1.
    10030    2    1    2    0    0  0.00000000000E+00  0.00000000000E+00 -0.12217397249E+04  0.37947994442E+04  0.35927503206E+04 0.  0.
        1    1    3    3  502    0 -0.14158986294E+04  0.89219706914E+03  0.78667661401E+02  0.16754023815E+04  0.50400001928E-02 0.  1.
       -1    1    3    3    0  502  0.14158986294E+04 -0.89219706914E+03 -0.13004073863E+04  0.21193970627E+04  0.50400001928E-02 0. -1.
</event>
<event>
 5   0  0.2193129E-07  0.3565957E+04  0.7818609E-02  0.8098334E-01
       -1   -1    0    0    0  501  0.00000000000E+00  0.00000000000E+00  0.13748974926E+04  0.13748974927E+04  0.50400001928E-02 0. -1.
        1   -1    0    0  501    0  0.00000000000E+00  0.00000000000E+00 -0.23121818944E+04  0.23121818944E+04  0.50400001928E-02 0.  1.
    10030    2    1    2    0    0  0.00000000000E+00  0.00000000000E+00 -0.93728440172E+03  0.36870793870E+04  0.35659574249E+04 0.  0.
        1    1    3    3  502    0 -0.81017495474E+03  0.43426209866E+03 -0.20482928347E+04  0.22450992326E+04  0.50400001928E-02 0.  1.
       -1    1    3    3    0  502  0.81017495474E+03 -0.43426209866E+03  0.11110084330E+04  0.14419801544E+04  0.50400001928E-02 0. -1.
</event>
<event>
 5   0  0.6729577E-07  0.3604523E+04  0.7818609E-02  0.8089456E-01
        2   -1    0    0  501    0  0.00000000000E+00  0.00000000000E+00  0.16957351513E+04  0.16957351513E+04  0.25500000920E-02 0.  1.
       -2   -1    0    0    0  501  0.00000000000E+00  0.00000000000E+00 -0.19154797253E+04  0.19154797253E+04  0.25500000920E-02 0. -1.
    10030    2    1    2    0    0  0.00000000000E+00  0.00000000000E+00 -0.21974457396E+03  0.36112148766E+04  0.36045228821E+04 0.  0.
        3    1    3    3  502    0 -0.16039563460E+03 -0.13354444871E+04 -0.13116857945E+04  0.18787385053E+04  0.10100000352E+00 0. -1.
       -3    1    3    3    0  502  0.16039563460E+03  0.13354444871E+04  0.10919412205E+04  0.17324763713E+04  0.10100000352E+00 0.  1.
</event>
<event>
 5   0  0.2086250E-07  0.3778787E+04  0.7818609E-02  0.8050723E-01
       -1   -1    0    0    0  501  0.00000000000E+00  0.00000000000E+00  0.16208513547E+04  0.16208513547E+04  0.50400001928E-02 0.  1.
        1   -1    0    0  501    0  0.00000000000E+00  0.00000000000E+00 -0.22024275548E+04  0.22024275548E+04  0.50400001928E-02 0. -1.
    10030    2    1    2    0    0  0.00000000000E+00  0.00000000000E+00 -0.58157620017E+03  0.38232789095E+04  0.37787869407E+04 0.  0.
        4    1    3    3  502    0 -0.46404419580E+03 -0.16215924910E+04  0.57065119249E+03  0.17806020384E+04  0.12699999809E+01 0.  1.
       -4    1    3    3    0  502  0.46404419580E+03  0.16215924910E+04 -0.11522273927E+04  0.20426768711E+04  0.12699999809E+01 0. -1.
</event>
<event>
 5   0  0.2086250E-07  0.3606224E+04  0.7818609E-02  0.8089067E-01
        1   -1    0    0  501    0  0.00000000000E+00  0.00000000000E+00  0.18376880338E+04  0.18376880338E+04  0.50400001928E-02 0. -1.
       -1   -1    0    0    0  501  0.00000000000E+00  0.00000000000E+00 -0.17691865591E+04  0.17691865591E+04  0.50400001928E-02 0.  1.
    10030    2    1    2    0    0  0.00000000000E+00  0.00000000000E+00  0.68501474652E+02  0.36068745929E+04  0.36062240470E+04 0.  0.
        3    1    3    3  502    0  0.14799974827E+04  0.10289439428E+04 -0.11526208692E+02  0.18025679044E+04  0.10100000352E+00 0. -1.
       -3    1    3    3    0  502 -0.14799974827E+04 -0.10289439428E+04  0.80027683344E+02  0.18043066886E+04  0.10100000352E+00 0.  1.
</event>
<event>
 5   0  0.2193129E-07  0.3641561E+04  0.7818609E-02  0.8081037E-01
        1   -1    0    0  501    0  0.00000000000E+00  0.00000000000E+00  0.20244006499E+04  0.20244006499E+04  0.50400001928E-02 0.  1.
       -1   -1    0    0    0  501  0.00000000000E+00  0.00000000000E+00 -0.16376414012E+04  0.16376414012E+04  0.50400001928E-02 0. -1.
    10030    2    1    2    0    0  0.00000000000E+00  0.00000000000E+00  0.38675924872E+03  0.36620420511E+04  0.36415613777E+04 0.  0.
        1    1    3    3  502    0  0.48175003049E+03  0.16066070955E+04 -0.51910551997E+03  0.17557733317E+04  0.50400001928E-02 0. -1.
       -1    1    3    3    0  502 -0.48175003049E+03 -0.16066070955E+04  0.90586476869E+03  0.19062687194E+04  0.50400001928E-02 0.  1.
</event>
<event>
 5   0  0.2086250E-07  0.3683548E+04  0.7818609E-02  0.8071618E-01
        1   -1    0    0  501    0  0.00000000000E+00  0.00000000000E+00  0.26200162773E+04  0.26200162773E+04  0.50400001928E-02 0.  1.
       -1   -1    0    0    0  501  0.00000000000E+00  0.00000000000E+00 -0.12946982751E+04  0.12946982752E+04  0.50400001928E-02 0. -1.
    10030    2    1    2    0    0  0.00000000000E+00  0.00000000000E+00  0.13253180022E+04  0.39147145525E+04  0.36835475048E+04 0.  0.
        3    1    3    3  502    0 -0.11172837779E+04  0.16480513617E+03  0.22088317672E+04  0.24808106657E+04  0.10100000352E+00 0.  1.
       -3    1    3    3    0  502  0.11172837779E+04 -0.16480513617E+03 -0.88351376500E+03  0.14339038868E+04  0.10100000352E+00 0. -1.
</event>
<event>
 5   0  0.6669864E-07  0.3525874E+04  0.7818609E-02  0.8107685E-01
       -2   -1    0    0    0  501  0.00000000000E+00  0.00000000000E+00  0.16194062568E+04  0.16194062568E+04  0.25500000920E-02 0. -1.
        2   -1    0    0  501    0  0.00000000000E+00  0.00000000000E+00 -0.19191890521E+04  0.19191890521E+04  0.25500000920E-02 0.  1.
    10030    2    1    2    0    0  0.00000000000E+00  0.00000000000E+00 -0.29978279533E+03  0.35385953088E+04  0.35258739392E+04 0.  0.
        5    1    3    3  502    0 -0.12062432483E+04 -0.40347931596E+03 -0.13749948036E+04  0.18730859918E+04  0.46999998093E+01 0.  1.
       -5    1    3    3    0  502  0.12062432483E+04  0.40347931596E+03  0.10752120083E+04  0.16655093171E+04  0.46999998093E+01 0. -1.
</event>
<event>
 5   0  0.2086250E-07  0.3607173E+04  0.7818609E-02  0.8088851E-01
       -1   -1    0    0    0  501  0.00000000000E+00  0.00000000000E+00  0.18206222113E+04  0.18206222113E+04  0.50400001928E-02 0.  1.
        1   -1    0    0  501    0  0.00000000000E+00  0.00000000000E+00 -0.17867105278E+04  0.17867105278E+04  0.50400001928E-02 0. -1.
    10030    2    1    2    0    0  0.00000000000E+00  0.00000000000E+00  0.33911683441E+02  0.36073327391E+04  0.36071733377E+04 0.  0.
        4    1    3    3  502    0  0.11220572404E+02 -0.15754116009E+04 -0.86107819946E+03  0.17954121788E+04  0.12699999809E+01 0. -1.
       -4    1    3    3    0  502 -0.11220572404E+02  0.15754116009E+04  0.89498988291E+03  0.18119205603E+04  0.12699999809E+01 0.  1.
</event>
<event>
 5   0  0.2193129E-07  0.3575553E+04  0.7818609E-02  0.8096115E-01
        1   -1    0    0  501    0  0.00000000000E+00  0.00000000000E+00  0.17433106085E+04  0.17433106085E+04  0.50400001928E-02 0. -1.
       -1   -1    0    0    0  501  0.00000000000E+00  0.00000000000E+00 -0.18333764371E+04  0.18333764371E+04  0.50400001928E-02 0.  1.
    10030    2    1    2    0    0  0.00000000000E+00  0.00000000000E+00 -0.90065828561E+02  0.35766870456E+04  0.35755528759E+04 0.  0.
        1    1    3    3  502    0 -0.57460045464E+03  0.61419400712E+03  0.15330430494E+04  0.17486054307E+04  0.50400001928E-02 0. -1.
       -1    1    3    3    0  502  0.57460045464E+03 -0.61419400712E+03 -0.16231088780E+04  0.18280816149E+04  0.50400001928E-02 0.  1.
</event>
<event>
 5   0  0.2086250E-07  0.3592593E+04  0.7818609E-02  0.8092190E-01
       -1   -1    0    0    0  501  0.00000000000E+00  0.00000000000E+00  0.18510454741E+04  0.18510454741E+04  0.50400001928E-02 0. -1.
        1   -1    0    0  501    0  0.00000000000E+00  0.00000000000E+00 -0.17431671058E+04  0.17431671058E+04  0.50400001928E-02 0.  1.
    10030    2    1    2    0    0  0.00000000000E+00  0.00000000000E+00  0.10787836827E+03  0.35942125799E+04  0.35925932594E+04 0.  0.
        3    1    3    3  502    0 -0.11099308202E+04  0.91161562735E+03 -0.10252926595E+04  0.17647137234E+04  0.10100000352E+00 0.  1.
       -3    1    3    3    0  502  0.11099308202E+04 -0.91161562735E+03  0.11331710278E+04  0.18294988565E+04  0.10100000352E+00 0. -1.
</event>
<event>
 5   0  0.6669864E-07  0.3583414E+04  0.7818609E-02  0.8094301E-01
       -2   -1    0    0    0  501  0.00000000000E+00  0.00000000000E+00  0.17287338368E+04  0.17287338368E+04  0.25500000920E-02 0. -1.
        2   -1    0    0  501    0  0.00000000000E+00  0.00000000000E+00 -0.18569742443E+04  0.18569742443E+04  0.25500000920E-02 0.  1.
    10030    2    1    2    0    0  0.00000000000E+00  0.00000000000E+00 -0.12824040752E+03  0.35857080811E+04  0.35834141319E+04 0.  0.
        5    1    3    3  502    0 -0.15036265302E+04 -0.96978217390E+03  0.29864962440E+02  0.17894927251E+04  0.46999998093E+01 0. -1.
       -5    1    3    3    0  502  0.15036265302E+04  0.96978217390E+03 -0.15810536996E+03  0.17962153560E+04  0.46999998093E+01 0.  1.
</event>
<event>
 5   0  0.6541476E-07  0.3651881E+04  0.7818609E-02  0.8078710E-01
       -2   -1    0    0    0  501  0.00000000000E+00  0.00000000000E+00  0.13710027598E+04  0.13710027598E+04  0.25500000920E-02 0. -1.
        2   -1    0    0  501    0  0.00000000000E+00  0.00000000000E+00 -0.24318399661E+04  0.24318399661E+04  0.25500000920E-02 0.  1.
    10030    2    1    2    0    0  0.00000000000E+00  0.00000000000E+00 -0.10608372063E+04  0.38028427259E+04  0.36518813261E+04 0.  0.
        4    1    3    3  502    0 -0.11541158061E+04 -0.14099311239E+04 -0.40646602937E+03  0.18668436768E+04  0.12699999809E+01 0. -1.
       -4    1    3    3    0  502  0.11541158061E+04  0.14099311239E+04 -0.65437117693E+03  0.19359990491E+04  0.12699999809E+01 0.  1.
</event>
<event>
 5   0  0.2108068E-07  0.3459396E+04  0.7818609E-02  0.8123480E-01
        1   -1    0    0  501    0  0.00000000000E+00  0.00000000000E+00  0.17158583954E+04  0.17158583954E+04  0.50400001928E-02 0. -1.
       -1   -1    0    0    0  501  0.00000000000E+00  0.00000000000E+00 -0.17436494538E+04  0.17436494538E+04  0.50400001928E-02 0.  1.
    10030    2    1    2    0    0  0.00000000000E+00  0.00000000000E+00 -0.27791058414E+02  0.34595078493E+04  0.34593962213E+04 0.  0.
        5    1    3    3  502    0 -0.10428007373E+03  0.76200618234E+03 -0.15632375241E+04  0.17422001614E+04  0.46999998093E+01 0.  1.
       -5    1    3    3    0  502  0.10428007373E+03 -0.76200618234E+03  0.15354464657E+04  0.17173076878E+04  0.46999998093E+01 0. -1.
</event>
<event>
 5   0  0.6541476E-07  0.3596071E+04  0.7818609E-02  0.8091392E-01
        2   -1    0    0  501    0  0.00000000000E+00  0.00000000000E+00  0.20157330039E+04  0.20157330039E+04  0.25500000920E-02 0.  1.
       -2   -1    0    0    0  501  0.00000000000E+00  0.00000000000E+00 -0.16038495530E+04  0.16038495530E+04  0.25500000920E-02 0. -1.
    10030    2    1    2    0    0  0.00000000000E+00  0.00000000000E+00  0.41188345089E+03  0.36195825568E+04  0.35960714549E+04 0.  0.
        4    1    3    3  502    0 -0.14111417066E+04 -0.95892591913E+03  0.77716514528E+03  0.18747925513E+04  0.12699999809E+01 0.  1.
       -4    1    3    3    0  502  0.14111417066E+04  0.95892591913E+03 -0.36528169439E+03  0.17447900056E+04  0.12699999809E+01 0. -1.
</event>
<event>
 5   0  0.2108068E-07  0.3597642E+04  0.7818609E-02  0.8091032E-01
       -1   -1    0    0    0  501  0.00000000000E+00  0.00000000000E+00  0.22339578472E+04  0.22339578472E+04  0.50400001928E-02 0.  1.
        1   -1    0    0  501    0  0.00000000000E+00  0.00000000000E+00 -0.14484413850E+04  0.14484413850E+04  0.50400001928E-02 0. -1.
    10030    2    1    2    0    0  0.00000000000E+00  0.00000000000E+00  0.78551646221E+03  0.36823992322E+04  0.35976420045E+04 0.  0.
        5    1    3    3  502    0  0.87497046126E+03 -0.14307210699E+04  0.10586216407E+04  0.19832392584E+04  0.46999998093E+01 0. -1.
       -5    1    3    3    0  502 -0.87497046126E+03  0.14307210699E+04 -0.27310517844E+03  0.16991599738E+04  0.46999998093E+01 0.  1.
</event>
<event>
 5   0  0.6324216E-07  0.3595759E+04  0.7818609E-02  0.8091464E-01
        2   -1    0    0  501    0  0.00000000000E+00  0.00000000000E+00  0.13586054513E+04  0.13586054513E+04  0.25500000920E-02 0. -1.
       -2   -1    0    0    0  501  0.00000000000E+00  0.00000000000E+00 -0.23791826521E+04  0.23791826521E+04  0.25500000920E-02 0.  1.
    10030    2    1    2    0    0  0.00000000000E+00  0.00000000000E+00 -0.10205772008E+04  0.37377881034E+04  0.35957589023E+04 0.  0.
        2    1    3    3  502    0 -0.11256960922E+04  0.10921155799E+04  0.40332548079E+03  0.16194380430E+04  0.25500000920E-02 0. -1.
       -2    1    3    3    0  502  0.11256960922E+04 -0.10921155799E+04 -0.14239026816E+04  0.21183500604E+04  0.25500000920E-02 0.  1.
</event>
<event>
 5   0  0.6848661E-07  0.3618201E+04  0.7818609E-02  0.8086335E-01
       -2   -1    0    0    0  501  0.00000000000E+00  0.00000000000E+00  0.15216380715E+04  0.15216380715E+04  0.25500000920E-02 0. -1.
        2   -1    0    0  501    0  0.00000000000E+00  0.00000000000E+00 -0.21508698056E+04  0.21508698056E+04  0.25500000920E-02 0.  1.
    10030    2    1    2    0    0  0.00000000000E+00  0.00000000000E+00 -0.62923173404E+03  0.36725078771E+04  0.36182014223E+04 0.  0.
        1    1    3    3  502    0  0.97547927041E+02  0.17910272109E+04 -0.75385026158E+02  0.17952651533E+04  0.50400001928E-02 0. -1.
       -1    1    3    3    0  502 -0.97547927041E+02 -0.17910272109E+04 -0.55384670788E+03  0.18772427238E+04  0.50400001928E-02 0.  1.
</event>
<event>
 5   0  0.2086250E-07  0.3367165E+04  0.7818609E-02  0.8146012E-01
       -1   -1    0    0    0  501  0.00000000000E+00  0.00000000000E+00  0.18622690273E+04  0.18622690273E+04  0.50400001928E-02 0.  1.
        1   -1    0    0  501    0  0.00000000000E+00  0.00000000000E+00 -0.15220415309E+04  0.15220415309E+04  0.50400001928E-02 0. -1.
    10030    2    1    2    0    0  0.00000000000E+00  0.00000000000E+00  0.34022749642E+03  0.33843105582E+04  0.33671654555E+04 0.  0.
        4    1    3    3  502    0  0.32151067414E+03 -0.66335514800E+03 -0.13512115582E+04  0.15392152071E+04  0.12699999809E+01 0. -1.
       -4    1    3    3    0  502 -0.32151067414E+03  0.66335514800E+03  0.16914390546E+04  0.18450953510E+04  0.12699999809E+01 0.  1.
</event>
<event>
 5   0  0.6848661E-07  0.3674279E+04  0.7818609E-02  0.8073686E-01
       -2   -1    0    0    0  501  0.00000000000E+00  0.00000000000E+00  0.17999104603E+04  0.17999104603E+04  0.25500000920E-02 0.  1.
        2   -1    0    0  501    0  0.00000000000E+00  0.00000000000E+00 -0.18751386538E+04  0.18751386538E+04  0.25500000920E-02 0. -1.
    10030    2    1    2    0    0  0.00000000000E+00  0.00000000000E+00 -0.75228193527E+02  0.36750491141E+04  0.36742790735E+04 0.  0.
        1    1    3    3  502    0  0.10282175396E+04  0.13973514151E+04 -0.64210769200E+03  0.18498985308E+04  0.50400001928E-02 0. -1.
       -1    1    3    3    0  502 -0.10282175396E+04 -0.13973514151E+04  0.56687949847E+03  0.18251505833E+04  0.50400001928E-02 0.  1.
</event>
<event>
 5   0  0.2086250E-07  0.3583626E+04  0.7818609E-02  0.8094253E-01
       -1   -1    0    0    0  501  0.00000000000E+00  0.00000000000E+00  0.30669214415E+04  0.30669214415E+04  0.50400001928E-02 0.  1.
        1   -1    0    0  501    0  0.00000000000E+00  0.00000000000E+00 -0.10468459692E+04  0.10468459692E+04  0.50400001928E-02 0. -1.
    10030    2    1    2    0    0  0.00000000000E+00  0.00000000000E+00  0.20200754723E+04  0.41137674108E+04  0.35836262913E+04 0.  0.
        2    1    3    3  502    0 -0.17508361414E+04  0.30177974497E+03  0.12770309109E+04  0.21879913519E+04  0.25500000920E-02 0. -1.
       -2    1    3    3    0  502  0.17508361414E+04 -0.30177974497E+03  0.74304456144E+03  0.19257760589E+04  0.25500000920E-02 0.  1.
</event>
<event>
 5   0  0.6541476E-07  0.3702197E+04  0.7818609E-02  0.8067475E-01
        2   -1    0    0  501    0  0.00000000000E+00  0.00000000000E+00  0.19304024044E+04  0.19304024045E+04  0.25500000920E-02 0. -1.
       -2   -1    0    0    0  501  0.00000000000E+00  0.00000000000E+00 -0.17750528553E+04  0.17750528553E+04  0.25500000920E-02 0.  1.
    10030    2    1    2    0    0  0.00000000000E+00  0.00000000000E+00  0.15534954918E+03  0.37054552597E+04  0.37021973474E+04 0.  0.
        4    1    3    3  502    0 -0.38292621458E+03  0.66432931542E+03 -0.16086220145E+04  0.17820303936E+04  0.12699999809E+01 0.  1.
       -4    1    3    3    0  502  0.38292621458E+03 -0.66432931542E+03  0.17639715637E+04  0.19234248661E+04  0.12699999809E+01 0. -1.
</event>
<event>
 5   0  0.6729577E-07  0.3697677E+04  0.7818609E-02  0.8068477E-01
        2   -1    0    0  501    0  0.00000000000E+00  0.00000000000E+00  0.22223509481E+04  0.22223509481E+04  0.25500000920E-02 0. -1.
       -2   -1    0    0    0  501  0.00000000000E+00  0.00000000000E+00 -0.15381023557E+04  0.15381023557E+04  0.25500000920E-02 0.  1.
    10030    2    1    2    0    0  0.00000000000E+00  0.00000000000E+00  0.68424859243E+03  0.37604533038E+04  0.36976766914E+04 0.  0.
        3    1    3    3  502    0  0.18136575215E+03  0.17769728368E+04 -0.14313186004E+03  0.17919298922E+04  0.10100000352E+00 0.  1.
       -3    1    3    3    0  502 -0.18136575215E+03 -0.17769728368E+04  0.82738045247E+03  0.19685234117E+04  0.10100000352E+00 0. -1.
</event>
<event>
 5   0  0.2086250E-07  0.3663655E+04  0.7818609E-02  0.8076064E-01
        1   -1    0    0  501    0  0.00000000000E+00  0.00000000000E+00  0.12875244843E+04  0.12875244843E+04  0.50400001928E-02 0.  1.
       -1   -1    0    0    0  501  0.00000000000E+00  0.00000000000E+00 -0.26062350211E+04  0.26062350211E+04  0.50400001928E-02 0. -1.
    10030    2    1    2    0    0  0.00000000000E+00  0.00000000000E+00 -0.13187105368E+04  0.38937595054E+04  0.36636546789E+04 0.  0.
        2    1    3    3  502    0  0.13401222223E+04  0.12474939407E+04 -0.59717695590E+03  0.19258216479E+04  0.25500000920E-02 0.  1.
       -2    1    3    3    0  502 -0.13401222223E+04 -0.12474939407E+04 -0.72153358086E+03  0.19679378575E+04  0.25500000920E-02 0. -1.
</event>
<event>
 5   0  0.2086250E-07  0.3616716E+04  0.7818609E-02  0.8086674E-01
       -1   -1    0    0    0  501  0.00000000000E+00  0.00000000000E+00  0.12761872936E+04  0.12761872936E+04  0.50400001928E-02 0.  1.
        1   -1    0    0  501    0  0.00000000000E+00  0.00000000000E+00 -0.25624434627E+04  0.25624434627E+04  0.50400001928E-02 0. -1.
    10030    2    1    2    0    0  0.00000000000E+00  0.00000000000E+00 -0.12862561691E+04  0.38386307563E+04  0.36167155197E+04 0.  0.
        4    1    3    3  502    0 -0.10279168831E+04  0.86848409146E+03  0.63899899167E+03  0.14896976404E+04  0.12699999809E+01 0.  1.
       -4    1    3    3    0  502  0.10279168831E+04 -0.86848409146E+03 -0.19252551608E+04  0.23489331158E+04  0.12699999809E+01 0. -1.
</event>
<event>
 5   0  0.2086250E-07  0.3619961E+04  0.7818609E-02  0.8085935E-01
        1   -1    0    0  501    0  0.00000000000E+00  0.00000000000E+00  0.13207591352E+04  0.13207591352E+04  0.50400001928E-02 0.  1.
       -1   -1    0    0    0  501  0.00000000000E+00  0.00000000000E+00 -0.24804132954E+04  0.24804132954E+04  0.50400001928E-02 0. -1.
    10030    2    1    2    0    0  0.00000000000E+00  0.00000000000E+00 -0.11596541602E+04  0.38011724306E+04  0.36199605075E+04 0.  0.
        3    1    3    3  502    0  0.13071830129E+03  0.16742012302E+04 -0.12889019598E+04  0.21169093759E+04  0.10100000352E+00 0. -1.
       -3    1    3    3    0  502 -0.13071830129E+03 -0.16742012302E+04  0.12924779960E+03  0.16842630547E+04  0.10100000352E+00 0.  1.
</event>
<event>
 5   0  0.2086250E-07  0.3661703E+04  0.7818609E-02  0.8076502E-01
       -1   -1    0    0    0  501  0.00000000000E+00  0.00000000000E+00  0.12832958748E+04  0.12832958748E+04  0.50400001928E-02 0. -1.
        1   -1    0    0  501    0  0.00000000000E+00  0.00000000000E+00 -0.26120375726E+04  0.26120375726E+04  0.50400001928E-02 0.  1.
    10030    2    1    2    0    0  0.00000000000E+00  0.00000000000E+00 -0.13287416977E+04  0.38953334474E+04  0.36617029054E+04 0.  0.
        3    1    3    3  502    0 -0.10004211746E+04  0.94256671681E+03 -0.19509765567E+04  0.23865422848E+04  0.10100000352E+00 0.  1.
       -3    1    3    3    0  502  0.10004211746E+04 -0.94256671681E+03  0.62223485897E+03  0.15087911626E+04  0.10100000352E+00 0. -1.
</event>
<event>
 5   0  0.6848661E-07  0.3204677E+04  0.7818609E-02  0.8187583E-01
        2   -1    0    0  501    0  0.00000000000E+00  0.00000000000E+00  0.25592871339E+04  0.25592871339E+04  0.25500000920E-02 0. -1.
       -2   -1    0    0    0  501  0.00000000000E+00  0.00000000000E+00 -0.10032044378E+04  0.10032044378E+04  0.25500000920E-02 0.  1.
    10030    2    1    2    0    0  0.00000000000E+00  0.00000000000E+00  0.15560826962E+04  0.35624915717E+04  0.32046767140E+04 0.  0.
        1    1    3    3  502    0 -0.64361965922E+03  0.12465882508E+03  0.24033775736E+04  0.24911864342E+04  0.50400001928E-02 0. -1.
       -1    1    3    3    0  502  0.64361965922E+03 -0.12465882508E+03 -0.84729487744E+03  0.10713051376E+04  0.50400001928E-02 0.  1.
</event>
<event>
 5   0  0.6669864E-07  0.3586597E+04  0.7818609E-02  0.8093569E-01
        2   -1    0    0  501    0  0.00000000000E+00  0.00000000000E+00  0.18338250568E+04  0.18338250568E+04  0.25500000920E-02 0. -1.
       -2   -1    0    0    0  501  0.00000000000E+00  0.00000000000E+00 -0.17536679407E+04  0.17536679407E+04  0.25500000920E-02 0.  1.
    10030    2    1    2    0    0  0.00000000000E+00  0.00000000000E+00  0.80157116112E+02  0.35874929975E+04  0.35865973909E+04 0.  0.
        5    1    3    3  502    0  0.21595437762E+03  0.15671252724E+04 -0.80475073137E+03  0.17748700635E+04  0.46999998093E+01 0.  1.
       -5    1    3    3    0  502 -0.21595437762E+03 -0.15671252724E+04  0.88490784748E+03  0.18126229341E+04  0.46999998093E+01 0. -1.
</event>
<event>
 5   0  0.6324216E-07  0.3198517E+04  0.7818609E-02  0.8189209E-01
        2   -1    0    0  501    0  0.00000000000E+00  0.00000000000E+00  0.15979516202E+04  0.15979516202E+04  0.25500000920E-02 0. -1.
       -2   -1    0    0    0  501  0.00000000000E+00  0.00000000000E+00 -0.16005667486E+04  0.16005667486E+04  0.25500000920E-02 0.  1.
    10030    2    1    2    0    0  0.00000000000E+00  0.00000000000E+00 -0.26151284642E+01  0.31985183688E+04  0.31985172997E+04 0.  0.
        2    1    3    3  502    0 -0.91375653009E+03  0.10605529655E+04  0.77193563162E+03  0.15986269760E+04  0.25500000920E-02 0. -1.
       -2    1    3    3    0  502  0.91375653009E+03 -0.10605529655E+04 -0.77455076008E+03  0.15998913928E+04  0.25500000920E-02 0.  1.
</event>
<event>
 5   0  0.2086250E-07  0.3595849E+04  0.7818609E-02  0.8091443E-01
       -1   -1    0    0    0  501  0.00000000000E+00  0.00000000000E+00  0.22017503781E+04  0.22017503781E+04  0.50400001928E-02 0.  1.
        1   -1    0    0  501    0  0.00000000000E+00  0.00000000000E+00 -0.14681645125E+04  0.14681645125E+04  0.50400001928E-02 0. -1.
    10030    2    1    2    0    0  0.00000000000E+00  0.00000000000E+00  0.73358586552E+03  0.36699148906E+04  0.35958485900E+04 0.  0.
        3    1    3    3  502    0  0.26077729574E+03  0.13169842802E+04  0.15872841723E+04  0.20789236268E+04  0.10100000352E+00 0.  1.
       -3    1    3    3    0  502 -0.26077729574E+03 -0.13169842802E+04 -0.85369830675E+03  0.15909912638E+04  0.10100000352E+00 0. -1.
</event>
<event>
 5   0  0.6324216E-07  0.3654043E+04  0.7818609E-02  0.8078223E-01
       -2   -1    0    0    0  501  0.00000000000E+00  0.00000000000E+00  0.16860061076E+04  0.16860061076E+04  0.25500000920E-02 0.  1.
        2   -1    0    0  501    0  0.00000000000E+00  0.00000000000E+00 -0.19798316909E+04  0.19798316909E+04  0.25500000920E-02 0. -1.
    10030    2    1    2    0    0  0.00000000000E+00  0.00000000000E+00 -0.29382558334E+03  0.36658377985E+04  0.36540434167E+04 0.  0.
        2    1    3    3  502    0  0.18167630311E+04  0.13256433857E+03 -0.57207965937E+01  0.18216020264E+04  0.25500000920E-02 0.  1.
       -2    1    3    3    0  502 -0.18167630311E+04 -0.13256433857E+03 -0.28810478674E+03  0.18442357721E+04  0.25500000920E-02 0. -1.
</event>
<event>
 5   0  0.2193129E-07  0.3602814E+04  0.7818609E-02  0.8089847E-01
       -1   -1    0    0    0  501  0.00000000000E+00  0.00000000000E+00  0.19423392045E+04  0.19423392045E+04  0.50400001928E-02 0. -1.
        1   -1    0    0  501    0  0.00000000000E+00  0.00000000000E+00 -0.16707008412E+04  0.16707008412E+04  0.50400001928E-02 0.  1.
    10030    2    1    2    0    0  0.00000000000E+00  0.00000000000E+00  0.27163836324E+03  0.36130400457E+04  0.36028143126E+04 0.  0.
        1    1    3    3  502    0 -0.13587727274E+04 -0.11212524512E+04 -0.24154308530E+03  0.17781488819E+04  0.50400001928E-02 0.  1.
       -1    1    3    3    0  502  0.13587727274E+04  0.11212524512E+04  0.51318144854E+03  0.18348911638E+04  0.50400001928E-02 0. -1.
</event>
<event>
 5   0  0.2108068E-07  0.3613919E+04  0.7818609E-02  0.8087311E-01
       -1   -1    0    0    0  501  0.00000000000E+00  0.00000000000E+00  0.11442095924E+04  0.11442095924E+04  0.50400001928E-02 0.  1.
        1   -1    0    0  501    0  0.00000000000E+00  0.00000000000E+00 -0.28535880537E+04  0.28535880537E+04  0.50400001928E-02 0. -1.
    10030    2    1    2    0    0  0.00000000000E+00  0.00000000000E+00 -0.17093784613E+04  0.39977976460E+04  0.36139191046E+04 0.  0.
        5    1    3    3  502    0  0.17648564318E+03 -0.16085690561E+04 -0.17441078236E+04  0.23791964570E+04  0.46999998093E+01 0. -1.
       -5    1    3    3    0  502 -0.17648564318E+03  0.16085690561E+04  0.34729362335E+02  0.16186011890E+04  0.46999998093E+01 0.  1.
</event>
<event>
 5   0  0.6541476E-07  0.3458147E+04  0.7818609E-02  0.8123781E-01
       -2   -1    0    0    0  501  0.00000000000E+00  0.00000000000E+00  0.10767253275E+04  0.10767253275E+04  0.25500000920E-02 0.  1.
        2   -1    0    0  501    0  0.00000000000E+00  0.00000000000E+00 -0.27766550083E+04  0.27766550083E+04  0.25500000920E-02 0. -1.
    10030    2    1    2    0    0  0.00000000000E+00  0.00000000000E+00 -0.16999296808E+04  0.38533803359E+04  0.34581467715E+04 0.  0.
        4    1    3    3  502    0  0.17137577064E+04 -0.19408741191E+03 -0.98669951177E+03  0.19870110566E+04  0.12699999809E+01 0. -1.
       -4    1    3    3    0  502 -0.17137577064E+04  0.19408741191E+03 -0.71323016904E+03  0.18663692793E+04  0.12699999809E+01 0.  1.
</event>
<event>
 5   0  0.2086250E-07  0.3550779E+04  0.7818609E-02  0.8101860E-01
        1   -1    0    0  501    0  0.00000000000E+00  0.00000000000E+00  0.13682229041E+04  0.13682229041E+04  0.50400001928E-02 0.  1.
       -1   -1    0    0    0  501  0.00000000000E+00  0.00000000000E+00 -0.23037239534E+04  0.23037239534E+04  0.50400001928E-02 0. -1.
    10030    2    1    2    0    0  0.00000000000E+00  0.00000000000E+00 -0.93550104931E+03  0.36719468575E+04  0.35507790006E+04 0.  0.
        3    1    3    3  502    0  0.64816882204E+03  0.14159430402E+04 -0.13494834701E+04  0.20606123268E+04  0.10100000352E+00 0. -1.
       -3    1    3    3    0  502 -0.64816882204E+03 -0.14159430402E+04  0.41398242082E+03  0.16113345307E+04  0.10100000352E+00 0.  1.
</event>
<event>
 5   0  0.2193129E-07  0.3633331E+04  0.7818609E-02  0.8082899E-01
        1   -1    0    0  501    0  0.00000000000E+00  0.00000000000E+00  0.22300835342E+04  0.22300835342E+04  0.50400001928E-02 0. -1.
       -1   -1    0    0    0  501  0.00000000000E+00  0.00000000000E+00 -0.14798878668E+04  0.14798878668E+04  0.50400001928E-02 0.  1.
    10030    2    1    2    0    0  0.00000000000E+00  0.00000000000E+00  0.75019566737E+03  0.37099714010E+04  0.36333310139E+04 0.  0.
        1    1    3    3  502    0 -0.15163786490E+04 -0.59734341705E+02  0.13948127193E+04  0.20611828935E+04  0.50400001928E-02 0. -1.
       -1    1    3    3    0  502  0.15163786490E+04  0.59734341705E+02 -0.64461705193E+03  0.16487885074E+04  0.50400001928E-02 0.  1.
</event>
<event>
 5   0  0.2086250E-07  0.3565573E+04  0.7818609E-02  0.8098423E-01
        1   -1    0    0  501    0  0.00000000000E+00  0.00000000000E+00  0.29782742949E+04  0.29782742949E+04  0.50400001928E-02 0. -1.
       -1   -1    0    0    0  501  0.00000000000E+00  0.00000000000E+00 -0.10671711370E+04  0.10671711370E+04  0.50400001928E-02 0.  1.
    10030    2    1    2    0    0  0.00000000000E+00  0.00000000000E+00  0.19111031579E+04  0.40454454320E+04  0.35655733709E+04 0.  0.
        2    1    3    3  502    0  0.16907515042E+04  0.11356154647E+02  0.31417613288E+03  0.17197314482E+04  0.25500000920E-02 0. -1.
       -2    1    3    3    0  502 -0.16907515042E+04 -0.11356154647E+02  0.15969270250E+04  0.23257139838E+04  0.25500000920E-02 0.  1.
</event>
<event>
 5   0  0.2086250E-07  0.3022887E+04  0.7818609E-02  0.8237225E-01
       -1   -1    0    0    0  501  0.00000000000E+00  0.00000000000E+00  0.11195989553E+04  0.11195989553E+04  0.50400001928E-02 0. -1.
        1   -1    0    0  501    0  0.00000000000E+00  0.00000000000E+00 -0.20404281469E+04  0.20404281469E+04  0.50400001928E-02 0.  1.
    10030    2    1    2    0    0  0.00000000000E+00  0.00000000000E+00 -0.92082919161E+03  0.31600271023E+04  0.30228868465E+04 0.  0.
        4    1    3    3  502    0 -0.11259271253E+04 -0.21166716445E+02  0.59343786158E+03  0.12729218475E+04  0.12699999809E+01 0. -1.
       -4    1    3    3    0  502  0.11259271253E+04  0.21166716445E+02 -0.15142670532E+04  0.18871052548E+04  0.12699999809E+01 0.  1.
</event>
<event>
 5   0  0.2086250E-07  0.3603939E+04  0.7818609E-02  0.8089590E-01
        3   -1    0    0  501    0  0.00000000000E+00  0.00000000000E+00  0.15466770379E+04  0.15466770412E+04  0.10100000352E+00 0.  1.
       -3   -1    0    0    0  501  0.00000000000E+00  0.00000000000E+00 -0.20993999955E+04  0.20993999980E+04  0.10100000352E+00 0. -1.
    10030    2    1    2    0    0  0.00000000000E+00  0.00000000000E+00 -0.55272295759E+03  0.36460770392E+04  0.36039388324E+04 0.  0.
        1    1    3    3  502    0 -0.41925646193E+03 -0.29261544951E+03 -0.20244808154E+04  0.20880427089E+04  0.50400001928E-02 0. -1.
       -1    1    3    3    0  502  0.41925646193E+03  0.29261544951E+03  0.14717578579E+04  0.15580343303E+04  0.50400001928E-02 0.  1.
</event>
<event>
 5   0  0.6848661E-07  0.3596535E+04  0.7818609E-02  0.8091286E-01
       -2   -1    0    0    0  501  0.00000000000E+00  0.00000000000E+00  0.12316894893E+04  0.12316894893E+04  0.25500000920E-02 0.  1.
        2   -1    0    0  501    0  0.00000000000E+00  0.00000000000E+00 -0.26254717309E+04  0.26254717309E+04  0.25500000920E-02 0. -1.
    10030    2    1    2    0    0  0.00000000000E+00  0.00000000000E+00 -0.13937822415E+04  0.38571612202E+04  0.35965349632E+04 0.  0.
        1    1    3    3  502    0 -0.91018257983E+03 -0.27204683615E+03  0.94062217200E+03  0.13368664407E+04  0.50400001928E-02 0.  1.
       -1    1    3    3    0  502  0.91018257983E+03  0.27204683615E+03 -0.23344044135E+04  0.25202947795E+04  0.50400001928E-02 0. -1.
</event>
<event>
 5   0  0.2086250E-07  0.3582506E+04  0.7818609E-02  0.8094511E-01
        1   -1    0    0  501    0  0.00000000000E+00  0.00000000000E+00  0.22481426471E+04  0.22481426471E+04  0.50400001928E-02 0.  1.
       -1   -1    0    0    0  501  0.00000000000E+00  0.00000000000E+00 -0.14272169327E+04  0.14272169327E+04  0.50400001928E-02 0. -1.
    10030    2    1    2    0    0  0.00000000000E+00  0.00000000000E+00  0.82092571444E+03  0.36753595798E+04  0.35825059682E+04 0.  0.
        2    1    3    3  502    0  0.10709503279E+04 -0.14011449578E+04  0.73235527627E+03  0.19095774528E+04  0.25500000920E-02 0. -1.
       -2    1    3    3    0  502 -0.10709503279E+04  0.14011449578E+04  0.88570438163E+02  0.17657821270E+04  0.25500000920E-02 0.  1.
</event>
<event>
 5   0  0.6729577E-07  0.3562457E+04  0.7818609E-02  0.8099146E-01
       -2   -1    0    0    0  501  0.00000000000E+00  0.00000000000E+00  0.12620996890E+04  0.12620996890E+04  0.25500000920E-02 0. -1.
        2   -1    0    0  501    0  0.00000000000E+00  0.00000000000E+00 -0.25138861972E+04  0.25138861972E+04  0.25500000920E-02 0.  1.
    10030    2    1    2    0    0  0.00000000000E+00  0.00000000000E+00 -0.12517865083E+04  0.37759858862E+04  0.35624570103E+04 0.  0.
        3    1    3    3  502    0  0.10348262577E+04 -0.23560366793E+03  0.89037501744E+03  0.13853310629E+04  0.10100000352E+00 0. -1.
       -3    1    3    3    0  502 -0.10348262577E+04  0.23560366793E+03 -0.21421615257E+04  0.23906548233E+04  0.10100000352E+00 0.  1.
</event>
<event>
 5   0  0.2086250E-07  0.3702703E+04  0.7818609E-02  0.8067363E-01
       -1   -1    0    0    0  501  0.00000000000E+00  0.00000000000E+00  0.14956839316E+04  0.14956839316E+04  0.50400001928E-02 0. -1.
        1   -1    0    0  501    0  0.00000000000E+00  0.00000000000E+00 -0.22915948177E+04  0.22915948177E+04  0.50400001928E-02 0.  1.
    10030    2    1    2    0    0  0.00000000000E+00  0.00000000000E+00 -0.79591088611E+03  0.37872787492E+04  0.37027025516E+04 0.  0.
        4    1    3    3  502    0  0.12058806020E+04  0.12942958123E+04 -0.95645912450E+03  0.20110110257E+04  0.12699999809E+01 0.  1.
       -4    1    3    3    0  502 -0.12058806020E+04 -0.12942958123E+04  0.16054823839E+03  0.17762677235E+04  0.12699999809E+01 0. -1.
</event>
<event>
 5   0  0.6848661E-07  0.3560760E+04  0.7818609E-02  0.8099540E-01
       -2   -1    0    0    0  501  0.00000000000E+00  0.00000000000E+00  0.13386842088E+04  0.13386842088E+04  0.25500000920E-02 0.  1.
        2   -1    0    0  501    0  0.00000000000E+00  0.00000000000E+00 -0.23678120926E+04  0.23678120926E+04  0.25500000920E-02 0. -1.
    10030    2    1    2    0    0  0.00000000000E+00  0.00000000000E+00 -0.10291278838E+04  0.37064963014E+04  0.35607598390E+04 0.  0.
        1    1    3    3  502    0 -0.12697378109E+04 -0.86959820428E+03 -0.14463650127E+04  0.21119675412E+04  0.50400001928E-02 0. -1.
       -1    1    3    3    0  502  0.12697378109E+04  0.86959820428E+03  0.41723712888E+03  0.15945287602E+04  0.50400001928E-02 0.  1.
</event>
<event>
 5   0  0.2086250E-07  0.3596026E+04  0.7818609E-02  0.8091402E-01
        1   -1    0    0  501    0  0.00000000000E+00  0.00000000000E+00  0.22349983825E+04  0.22349983825E+04  0.50400001928E-02 0. -1.
       -1   -1    0    0    0  501  0.00000000000E+00  0.00000000000E+00 -0.14464670325E+04  0.14464670325E+04  0.50400001928E-02 0.  1.
    10030    2    1    2    0    0  0.00000000000E+00  0.00000000000E+00  0.78853134999E+03  0.36814654149E+04  0.35960264058E+04 0.  0.
        3    1    3    3  502    0  0.30157992193E+03 -0.16771300555E+04 -0.19306868847E+03  0.17149318357E+04  0.10100000352E+00 0. -1.
       -3    1    3    3    0  502 -0.30157992193E+03  0.16771300555E+04  0.98160003846E+03  0.19665335792E+04  0.10100000352E+00 0.  1.
</event>
<event>
 5   0  0.6541476E-07  0.3601332E+04  0.7818609E-02  0.8090187E-01
       -2   -1    0    0    0  501  0.00000000000E+00  0.00000000000E+00  0.13203342501E+04  0.13203342501E+04  0.25500000920E-02 0.  1.
        2   -1    0    0  501    0  0.00000000000E+00  0.00000000000E+00 -0.24557403094E+04  0.24557403094E+04  0.25500000920E-02 0. -1.
    10030    2    1    2    0    0  0.00000000000E+00  0.00000000000E+00 -0.11354060593E+04  0.37760745596E+04  0.36013319980E+04 0.  0.
        4    1    3    3  502    0  0.95073608097E+02  0.15731652605E+04  0.34547956869E+03  0.16134576763E+04  0.12699999809E+01 0.  1.
       -4    1    3    3    0  502 -0.95073608097E+02 -0.15731652605E+04 -0.14808856280E+04  0.21626168833E+04  0.12699999809E+01 0. -1.
</event>
<event>
 5   0  0.6324216E-07  0.3602264E+04  0.7818609E-02  0.8089973E-01
       -2   -1    0    0    0  501  0.00000000000E+00  0.00000000000E+00  0.12320851122E+04  0.12320851122E+04  0.25500000920E-02 0. -1.
        2   -1    0    0  501    0  0.00000000000E+00  0.00000000000E+00 -0.26329970571E+04  0.26329970571E+04  0.25500000920E-02 0.  1.
    10030    2    1    2    0    0  0.00000000000E+00  0.00000000000E+00 -0.14009119449E+04  0.38650821693E+04  0.36022639962E+04 0.  0.
        2    1    3    3  502    0 -0.11436892659E+04 -0.10203051667E+04  0.31462731068E+03  0.15646207575E+04  0.25500000920E-02 0. -1.
       -2    1    3    3    0  502  0.11436892659E+04  0.10203051667E+04 -0.17155392556E+04  0.23004614119E+04  0.25500000920E-02 0.  1.
</event>
<event>
 5   0  0.6669864E-07  0.3574641E+04  0.7818609E-02  0.8096325E-01
        2   -1    0    0  501    0  0.00000000000E+00  0.00000000000E+00  0.17483110659E+04  0.17483110659E+04  0.25500000920E-02 0. -1.
       -2   -1    0    0    0  501  0.00000000000E+00  0.00000000000E+00 -0.18272000563E+04  0.18272000563E+04  0.25500000920E-02 0.  1.
    10030    2    1    2    0    0  0.00000000000E+00  0.00000000000E+00 -0.78888990401E+02  0.35755111222E+04  0.35746407249E+04 0.  0.
        5    1    3    3  502    0  0.42107673703E+03  0.10638606977E+04  0.13339837160E+04  0.17574526586E+04  0.46999998093E+01 0. -1.
       -5    1    3    3    0  502 -0.42107673703E+03 -0.10638606977E+04 -0.14128727064E+04  0.18180584636E+04  0.46999998093E+01 0.  1.
</event>
<event>
 5   0  0.6324216E-07  0.3603920E+04  0.7818609E-02  0.8089594E-01
        2   -1    0    0  501    0  0.00000000000E+00  0.00000000000E+00  0.29202914867E+04  0.29202914867E+04  0.25500000920E-02 0.  1.
       -2   -1    0    0    0  501  0.00000000000E+00  0.00000000000E+00 -0.11118957330E+04  0.11118957330E+04  0.25500000920E-02 0. -1.
    10030    2    1    2    0    0  0.00000000000E+00  0.00000000000E+00  0.18083957537E+04  0.40321872197E+04  0.36039198899E+04 0.  0.
        2    1    3    3  502    0  0.90486365752E+03 -0.15463873932E+04  0.68908063721E+03  0.19196156733E+04  0.25500000920E-02 0. -1.
       -2    1    3    3    0  502 -0.90486365752E+03  0.15463873932E+04  0.11193151165E+04  0.21125715464E+04  0.25500000920E-02 0.  1.
</event>
<event>
 5   0  0.6729577E-07  0.3455706E+04  0.7818609E-02  0.8124368E-01
        2   -1    0    0  501    0  0.00000000000E+00  0.00000000000E+00  0.25932944396E+04  0.25932944396E+04  0.25500000920E-02 0.  1.
       -2   -1    0    0    0  501  0.00000000000E+00  0.00000000000E+00 -0.11512292281E+04  0.11512292281E+04  0.25500000920E-02 0. -1.
    10030    2    1    2    0    0  0.00000000000E+00  0.00000000000E+00  0.14420652116E+04  0.37445236677E+04  0.34557062120E+04 0.  0.
        3    1    3    3  502    0  0.15906876028E+04  0.32111379350E+03  0.13639830500E+04  0.21198704887E+04  0.10100000352E+00 0.  1.
       -3    1    3    3    0  502 -0.15906876028E+04 -0.32111379350E+03  0.78082161575E+02  0.16246531790E+04  0.10100000352E+00 0. -1.
</event>
<event>
 5   0  0.6729577E-07  0.3593019E+04  0.7818609E-02  0.8092093E-01
       -2   -1    0    0    0  501  0.00000000000E+00  0.00000000000E+00  0.14449491078E+04  0.14449491078E+04  0.25500000920E-02 0. -1.
        2   -1    0    0  501    0  0.00000000000E+00  0.00000000000E+00 -0.22336061888E+04  0.22336061888E+04  0.25500000920E-02 0.  1.
    10030    2    1    2    0    0  0.00000000000E+00  0.00000000000E+00 -0.78865708095E+03  0.36785552966E+04  0.35930194933E+04 0.  0.
        3    1    3    3  502    0  0.11357204064E+04  0.52618464647E+03 -0.17136949353E+04  0.21221407741E+04  0.10100000352E+00 0.  1.
       -3    1    3    3    0  502 -0.11357204064E+04 -0.52618464647E+03  0.92503785433E+03  0.15564145225E+04  0.10100000352E+00 0. -1.
</event>
<event>
 5   0  0.6324216E-07  0.3504604E+04  0.7818609E-02  0.8112700E-01
       -2   -1    0    0    0  501  0.00000000000E+00  0.00000000000E+00  0.13216467281E+04  0.13216467281E+04  0.25500000920E-02 0. -1.
        2   -1    0    0  501    0  0.00000000000E+00  0.00000000000E+00 -0.23232852271E+04  0.23232852271E+04  0.25500000920E-02 0.  1.
    10030    2    1    2    0    0  0.00000000000E+00  0.00000000000E+00 -0.10016384990E+04  0.36449319553E+04  0.35046040113E+04 0.  0.
        2    1    3    3  502    0  0.13059468845E+04 -0.11647445853E+04 -0.59633955740E+03  0.18487152517E+04  0.25500000920E-02 0. -1.
       -2    1    3    3    0  502 -0.13059468845E+04  0.11647445853E+04 -0.40529894160E+03  0.17962167036E+04  0.25500000920E-02 0.  1.
</event>
<event>
 5   0  0.2086250E-07  0.3259297E+04  0.7818609E-02  0.8173330E-01
       -1   -1    0    0    0  501  0.00000000000E+00  0.00000000000E+00  0.17877800117E+04  0.17877800117E+04  0.50400001928E-02 0. -1.
        1   -1    0    0  501    0  0.00000000000E+00  0.00000000000E+00 -0.14855042660E+04  0.14855042660E+04  0.50400001928E-02 0.  1.
    10030    2    1    2    0    0  0.00000000000E+00  0.00000000000E+00  0.30227574570E+03  0.32732842777E+04  0.32592973685E+04 0.  0.
        2    1    3    3  502    0 -0.47731078237E+02  0.88767133292E+03  0.15228382211E+04  0.17633136132E+04  0.25500000920E-02 0. -1.
       -2    1    3    3    0  502  0.47731078237E+02 -0.88767133292E+03 -0.12205624754E+04  0.15099706644E+04  0.25500000920E-02 0.  1.
</event>
<event>
 5   0  0.6729577E-07  0.3582007E+04  0.7818609E-02  0.8094626E-01
       -2   -1    0    0    0  501  0.00000000000E+00  0.00000000000E+00  0.14572427032E+04  0.14572427032E+04  0.25500000920E-02 0.  1.
        2   -1    0    0  501    0  0.00000000000E+00  0.00000000000E+00 -0.22012074338E+04  0.22012074338E+04  0.25500000920E-02 0. -1.
    10030    2    1    2    0    0  0.00000000000E+00  0.00000000000E+00 -0.74396473056E+03  0.36584501370E+04  0.35820069632E+04 0.  0.
        3    1    3    3  502    0 -0.12443391480E+04  0.52959813648E+03 -0.15712815831E+04  0.20731087586E+04  0.10100000352E+00 0. -1.
       -3    1    3    3    0  502  0.12443391480E+04 -0.52959813648E+03  0.82731685253E+03  0.15853413784E+04  0.10100000352E+00 0.  1.
</event>
<event>
 5   0  0.2193129E-07  0.3605193E+04  0.7818609E-02  0.8089303E-01
       -1   -1    0    0    0  501  0.00000000000E+00  0.00000000000E+00  0.24935436580E+04  0.24935436580E+04  0.50400001928E-02 0.  1.
        1   -1    0    0  501    0  0.00000000000E+00  0.00000000000E+00 -0.13031071223E+04  0.13031071223E+04  0.50400001928E-02 0. -1.
    10030    2    1    2    0    0  0.00000000000E+00  0.00000000000E+00  0.11904365357E+04  0.37966507803E+04  0.36051931989E+04 0.  0.
        1    1    3    3  502    0 -0.11724130584E+03  0.96777713528E+02  0.24867805696E+04  0.24914230975E+04  0.50400001928E-02 0.  1.
       -1    1    3    3    0  502  0.11724130584E+03 -0.96777713528E+02 -0.12963440339E+04  0.13052276827E+04  0.50400001928E-02 0. -1.
</event>
<event>
 5   0  0.6848661E-07  0.3491271E+04  0.7818609E-02  0.8115862E-01
       -2   -1    0    0    0  501  0.00000000000E+00  0.00000000000E+00  0.14075157223E+04  0.14075157223E+04  0.25500000920E-02 0. -1.
        2   -1    0    0  501    0  0.00000000000E+00  0.00000000000E+00 -0.21649796828E+04  0.21649796828E+04  0.25500000920E-02 0.  1.
    10030    2    1    2    0    0  0.00000000000E+00  0.00000000000E+00 -0.75746396045E+03  0.35724954051E+04  0.34912707956E+04 0.  0.
        1    1    3    3  502    0  0.14751884031E+04 -0.92918426250E+03 -0.28906497581E+03  0.17672359148E+04  0.50400001928E-02 0.  1.
       -1    1    3    3    0  502 -0.14751884031E+04  0.92918426250E+03 -0.46839898464E+03  0.18052594903E+04  0.50400001928E-02 0. -1.
</event>
<event>
 5   0  0.6324216E-07  0.3639068E+04  0.7818609E-02  0.8081601E-01
        2   -1    0    0  501    0  0.00000000000E+00  0.00000000000E+00  0.13376885029E+04  0.13376885029E+04  0.25500000920E-02 0. -1.
       -2   -1    0    0    0  501  0.00000000000E+00  0.00000000000E+00 -0.24749440704E+04  0.24749440704E+04  0.25500000920E-02 0.  1.
    10030    2    1    2    0    0  0.00000000000E+00  0.00000000000E+00 -0.11372555675E+04  0.38126325733E+04  0.36390681380E+04 0.  0.
        2    1    3    3  502    0 -0.83759634230E+03 -0.68702071393E+03 -0.21002482643E+04  0.23631774935E+04  0.25500000920E-02 0.  1.
       -2    1    3    3    0  502  0.83759634230E+03  0.68702071393E+03  0.96299269689E+03  0.14494550798E+04  0.25500000920E-02 0. -1.
</event>
<event>
 5   0  0.2086250E-07  0.3600976E+04  0.7818609E-02  0.8090268E-01
       -1   -1    0    0    0  501  0.00000000000E+00  0.00000000000E+00  0.15557458716E+04  0.15557458717E+04  0.50400001928E-02 0.  1.
        1   -1    0    0  501    0  0.00000000000E+00  0.00000000000E+00 -0.20837322125E+04  0.20837322125E+04  0.50400001928E-02 0. -1.
    10030    2    1    2    0    0  0.00000000000E+00  0.00000000000E+00 -0.52798634089E+03  0.36394780842E+04  0.36009764161E+04 0.  0.
        2    1    3    3  502    0  0.31039973226E+03 -0.17470912200E+04  0.44362422635E+02  0.17750052815E+04  0.25500000920E-02 0. -1.
       -2    1    3    3    0  502 -0.31039973226E+03  0.17470912200E+04 -0.57234876353E+03  0.18644728027E+04  0.25500000920E-02 0.  1.
</event>
<event>
 5   0  0.6669864E-07  0.3591244E+04  0.7818609E-02  0.8092500E-01
        2   -1    0    0  501    0  0.00000000000E+00  0.00000000000E+00  0.24220522072E+04  0.24220522072E+04  0.25500000920E-02 0.  1.
       -2   -1    0    0    0  501  0.00000000000E+00  0.00000000000E+00 -0.13312095545E+04  0.13312095545E+04  0.25500000920E-02 0. -1.
    10030    2    1    2    0    0  0.00000000000E+00  0.00000000000E+00  0.10908426527E+04  0.37532617618E+04  0.35912443748E+04 0.  0.
        5    1    3    3  502    0 -0.10733051418E+04  0.14304483766E+04  0.37667346401E+03  0.18275862425E+04  0.46999998093E+01 0.  1.
       -5    1    3    3    0  502  0.10733051418E+04 -0.14304483766E+04  0.71416918869E+03  0.19256755193E+04  0.46999998093E+01 0. -1.
</event>
<event>
 5   0  0.2086250E-07  0.3595710E+04  0.7818609E-02  0.8091475E-01
        1   -1    0    0  501    0  0.00000000000E+00  0.00000000000E+00  0.15126764924E+04  0.15126764925E+04  0.50400001928E-02 0. -1.
       -1   -1    0    0    0  501  0.00000000000E+00  0.00000000000E+00 -0.21367968992E+04  0.21367968992E+04  0.50400001928E-02 0.  1.
    10030    2    1    2    0    0  0.00000000000E+00  0.00000000000E+00 -0.62412040678E+03  0.36494733917E+04  0.35957099097E+04 0.  0.
        3    1    3    3  502    0 -0.69517549981E+03  0.16139809415E+04 -0.69731305052E+03  0.18906213148E+04  0.10100000352E+00 0.  1.
       -3    1    3    3    0  502  0.69517549981E+03 -0.16139809415E+04  0.73192643744E+02  0.17588520769E+04  0.10100000352E+00 0. -1.
</event>
<event>
 5   0  0.2086250E-07  0.3612039E+04  0.7818609E-02  0.8087740E-01
       -1   -1    0    0    0  501  0.00000000000E+00  0.00000000000E+00  0.23007779743E+04  0.23007779743E+04  0.50400001928E-02 0.  1.
        1   -1    0    0  501    0  0.00000000000E+00  0.00000000000E+00 -0.14176534034E+04  0.14176534034E+04  0.50400001928E-02 0. -1.
    10030    2    1    2    0    0  0.00000000000E+00  0.00000000000E+00  0.88312457091E+03  0.37184313777E+04  0.36120386076E+04 0.  0.
        3    1    3    3  502    0  0.53691246574E+03 -0.54347891466E+03 -0.12431186123E+04  0.14591052810E+04  0.10100000352E+00 0. -1.
       -3    1    3    3    0  502 -0.53691246574E+03  0.54347891466E+03  0.21262431832E+04  0.22593260967E+04  0.10100000352E+00 0.  1.
</event>
<event>
 5   0  0.2086250E-07  0.3608393E+04  0.7818609E-02  0.8088572E-01
       -1   -1    0    0    0  501  0.00000000000E+00  0.00000000000E+00  0.26949573042E+04  0.26949573042E+04  0.50400001928E-02 0.  1.
        1   -1    0    0  501    0  0.00000000000E+00  0.00000000000E+00 -0.12078579483E+04  0.12078579483E+04  0.50400001928E-02 0. -1.
    10030    2    1    2    0    0  0.00000000000E+00  0.00000000000E+00  0.14870993560E+04  0.39028152525E+04  0.36083933268E+04 0.  0.
        4    1    3    3  502    0  0.72610998872E+03 -0.26804440450E+03 -0.10191627501E+04  0.12797569467E+04  0.12699999809E+01 0. -1.
       -4    1    3    3    0  502 -0.72610998872E+03  0.26804440450E+03  0.25062621061E+04  0.26230583058E+04  0.12699999809E+01 0.  1.
</event>
<event>
 5   0  0.6541476E-07  0.3580616E+04  0.7818609E-02  0.8094946E-01
        2   -1    0    0  501    0  0.00000000000E+00  0.00000000000E+00  0.20115102376E+04  0.20115102376E+04  0.25500000920E-02 0.  1.
       -2   -1    0    0    0  501  0.00000000000E+00  0.00000000000E+00 -0.15934305704E+04  0.15934305704E+04  0.25500000920E-02 0. -1.
    10030    2    1    2    0    0  0.00000000000E+00  0.00000000000E+00  0.41807966718E+03  0.36049408080E+04  0.35806155366E+04 0.  0.
        4    1    3    3  502    0 -0.34225601789E+03 -0.10440496134E+04  0.16321565716E+04  0.19675150480E+04  0.12699999809E+01 0.  1.
       -4    1    3    3    0  502  0.34225601789E+03  0.10440496134E+04 -0.12140769044E+04  0.16374257600E+04  0.12699999809E+01 0. -1.
</event>
<event>
 5   0  0.6324216E-07  0.3639631E+04  0.7818609E-02  0.8081474E-01
        2   -1    0    0  501    0  0.00000000000E+00  0.00000000000E+00  0.17832096591E+04  0.17832096591E+04  0.25500000920E-02 0. -1.
       -2   -1    0    0    0  501  0.00000000000E+00  0.00000000000E+00 -0.18571729033E+04  0.18571729033E+04  0.25500000920E-02 0.  1.
    10030    2    1    2    0    0  0.00000000000E+00  0.00000000000E+00 -0.73963244208E+02  0.36403825624E+04  0.36396311131E+04 0.  0.
        2    1    3    3  502    0 -0.11183914103E+03  0.57382449989E+03  0.16867273454E+04  0.17851699325E+04  0.25500000920E-02 0. -1.
       -2    1    3    3    0  502  0.11183914103E+03 -0.57382449989E+03 -0.17606905896E+04  0.18552126300E+04  0.25500000920E-02 0.  1.
</event>
<event>
 5   0  0.6541476E-07  0.3659482E+04  0.7818609E-02  0.8077001E-01
       -2   -1    0    0    0  501  0.00000000000E+00  0.00000000000E+00  0.19652538457E+04  0.19652538457E+04  0.25500000920E-02 0.  1.
        2   -1    0    0  501    0  0.00000000000E+00  0.00000000000E+00 -0.17035724207E+04  0.17035724207E+04  0.25500000920E-02 0. -1.
    10030    2    1    2    0    0  0.00000000000E+00  0.00000000000E+00  0.26168142505E+03  0.36688262664E+04  0.36594820678E+04 0.  0.
        4    1    3    3  502    0 -0.13292360460E+04 -0.10372444608E+04  0.84343414678E+03  0.18852393244E+04  0.12699999809E+01 0.  1.
       -4    1    3    3    0  502  0.13292360460E+04  0.10372444608E+04 -0.58175272173E+03  0.17835869420E+04  0.12699999809E+01 0. -1.
</event>
<event>
 5   0  0.6848661E-07  0.3555211E+04  0.7818609E-02  0.8100829E-01
       -2   -1    0    0    0  501  0.00000000000E+00  0.00000000000E+00  0.15656333733E+04  0.15656333733E+04  0.25500000920E-02 0. -1.
        2   -1    0    0  501    0  0.00000000000E+00  0.00000000000E+00 -0.20182764851E+04  0.20182764851E+04  0.25500000920E-02 0.  1.
    10030    2    1    2    0    0  0.00000000000E+00  0.00000000000E+00 -0.45264311179E+03  0.35839098583E+04  0.35552108356E+04 0.  0.
        1    1    3    3  502    0  0.20997701110E+03  0.38022396227E+03  0.15113158305E+04  0.15724936076E+04  0.50400001928E-02 0. -1.
       -1    1    3    3    0  502 -0.20997701110E+03 -0.38022396227E+03 -0.19639589422E+04  0.20114162507E+04  0.50400001928E-02 0.  1.
</event>
<event>
 5   0  0.6729577E-07  0.3592784E+04  0.7818609E-02  0.8092147E-01
       -2   -1    0    0    0  501  0.00000000000E+00  0.00000000000E+00  0.15408648162E+04  0.15408648162E+04  0.25500000920E-02 0. -1.
        2   -1    0    0  501    0  0.00000000000E+00  0.00000000000E+00 -0.20942944230E+04  0.20942944230E+04  0.25500000920E-02 0.  1.
    10030    2    1    2    0    0  0.00000000000E+00  0.00000000000E+00 -0.55342960684E+03  0.36351592392E+04  0.35927842080E+04 0.  0.
        3    1    3    3  502    0 -0.11063968322E+04  0.28733437330E+03 -0.16788259931E+04  0.20310420276E+04  0.10100000352E+00 0.  1.
       -3    1    3    3    0  502  0.11063968322E+04 -0.28733437330E+03  0.11253963862E+04  0.16041172117E+04  0.10100000352E+00 0. -1.
</event>
<event>
 5   0  0.2193129E-07  0.3553519E+04  0.7818609E-02  0.8101222E-01
        1   -1    0    0  501    0  0.00000000000E+00  0.00000000000E+00  0.25609283789E+04  0.25609283789E+04  0.50400001928E-02 0. -1.
       -1   -1    0    0    0  501  0.00000000000E+00  0.00000000000E+00 -0.12327070297E+04  0.12327070297E+04  0.50400001928E-02 0.  1.
    10030    2    1    2    0    0  0.00000000000E+00  0.00000000000E+00  0.13282213492E+04  0.37936354086E+04  0.35535190531E+04 0.  0.
        1    1    3    3  502    0  0.16561933785E+04  0.48032189911E+03  0.20718414058E+03  0.17368393426E+04  0.50400001928E-02 0.  1.
       -1    1    3    3    0  502 -0.16561933785E+04 -0.48032189911E+03  0.11210372087E+04  0.20567960660E+04  0.50400001928E-02 0. -1.
</event>
<event>
 5   0  0.6324216E-07  0.3581738E+04  0.7818609E-02  0.8094688E-01
       -2   -1    0    0    0  501  0.00000000000E+00  0.00000000000E+00  0.13458443858E+04  0.13458443858E+04  0.25500000920E-02 0. -1.
        2   -1    0    0  501    0  0.00000000000E+00  0.00000000000E+00 -0.23830486444E+04  0.23830486444E+04  0.25500000920E-02 0.  1.
    10030    2    1    2    0    0  0.00000000000E+00  0.00000000000E+00 -0.10372042586E+04  0.37288930302E+04  0.35817384825E+04 0.  0.
        2    1    3    3  502    0  0.20687746827E+03 -0.17181733601E+04 -0.38917741294E+02  0.17310206737E+04  0.25500000920E-02 0. -1.
       -2    1    3    3    0  502 -0.20687746827E+03  0.17181733601E+04 -0.99828651727E+03  0.19978723565E+04  0.25500000920E-02 0.  1.
</event>
<event>
 5   0  0.2086250E-07  0.3576095E+04  0.7818609E-02  0.8095989E-01
       -1   -1    0    0    0  501  0.00000000000E+00  0.00000000000E+00  0.15390618883E+04  0.15390618883E+04  0.50400001928E-02 0. -1.
        1   -1    0    0  501    0  0.00000000000E+00  0.00000000000E+00 -0.20773132983E+04  0.20773132983E+04  0.50400001928E-02 0.  1.
    10030    2    1    2    0    0  0.00000000000E+00  0.00000000000E+00 -0.53825140999E+03  0.36163751866E+04  0.35760949246E+04 0.  0.
        4    1    3    3  502    0  0.10020867572E+04 -0.14512512380E+04  0.28818221209E+02  0.17638424327E+04  0.12699999809E+01 0. -1.
       -4    1    3    3    0  502 -0.10020867572E+04  0.14512512380E+04 -0.56706963120E+03  0.18525327539E+04  0.12699999809E+01 0.  1.
</event>
<event>
 5   0  0.6324216E-07  0.3576734E+04  0.7818609E-02  0.8095842E-01
       -2   -1    0    0    0  501  0.00000000000E+00  0.00000000000E+00  0.10109349098E+04  0.10109349098E+04  0.25500000920E-02 0.  1.
        2   -1    0    0  501    0  0.00000000000E+00  0.00000000000E+00 -0.31636627828E+04  0.31636627828E+04  0.25500000920E-02 0. -1.
    10030    2    1    2    0    0  0.00000000000E+00  0.00000000000E+00 -0.21527278730E+04  0.41745976926E+04  0.35767343484E+04 0.  0.
        2    1    3    3  502    0  0.60723165288E+03  0.16792072220E+04 -0.11918471186E+04  0.21468504206E+04  0.25500000920E-02 0.  1.
       -2    1    3    3    0  502 -0.60723165288E+03 -0.16792072220E+04 -0.96088075448E+03  0.20277472719E+04  0.25500000920E-02 0. -1.
</event>
<event>
 5   0  0.6541476E-07  0.3602164E+04  0.7818609E-02  0.8089996E-01
        2   -1    0    0  501    0  0.00000000000E+00  0.00000000000E+00  0.31337535672E+04  0.31337535672E+04  0.25500000920E-02 0.  1.
       -2   -1    0    0    0  501  0.00000000000E+00  0.00000000000E+00 -0.10351469665E+04  0.10351469665E+04  0.25500000920E-02 0. -1.
    10030    2    1    2    0    0  0.00000000000E+00  0.00000000000E+00  0.20986066007E+04  0.41689005337E+04  0.36021635159E+04 0.  0.
        4    1    3    3  502    0 -0.17390634900E+03 -0.14819389528E+04 -0.11811608333E+03  0.14967763694E+04  0.12699999809E+01 0. -1.
       -4    1    3    3    0  502  0.17390634900E+03  0.14819389528E+04  0.22167226841E+04  0.26721241642E+04  0.12699999809E+01 0.  1.
</event>
<event>
 5   0  0.2193129E-07  0.3573547E+04  0.7818609E-02  0.8096578E-01
       -1   -1    0    0    0  501  0.00000000000E+00  0.00000000000E+00  0.10621838858E+04  0.10621838858E+04  0.50400001928E-02 0. -1.
        1   -1    0    0  501    0  0.00000000000E+00  0.00000000000E+00 -0.30056566643E+04  0.30056566643E+04  0.50400001928E-02 0.  1.
    10030    2    1    2    0    0  0.00000000000E+00  0.00000000000E+00 -0.19434727786E+04  0.40678405501E+04  0.35735472993E+04 0.  0.
        1    1    3    3  502    0 -0.19720324032E+03  0.14213887394E+04  0.24009339563E+03  0.14549501384E+04  0.50400001928E-02 0. -1.
       -1    1    3    3    0  502  0.19720324032E+03 -0.14213887394E+04 -0.21835661742E+04  0.26128904117E+04  0.50400001928E-02 0.  1.
</event>
<event>
 5   0  0.2086250E-07  0.3606985E+04  0.7818609E-02  0.8088894E-01
        1   -1    0    0  501    0  0.00000000000E+00  0.00000000000E+00  0.16622153952E+04  0.16622153952E+04  0.50400001928E-02 0. -1.
       -1   -1    0    0    0  501  0.00000000000E+00  0.00000000000E+00 -0.19567769559E+04  0.19567769559E+04  0.50400001928E-02 0.  1.
    10030    2    1    2    0    0  0.00000000000E+00  0.00000000000E+00 -0.29456156068E+03  0.36189923511E+04  0.36069847690E+04 0.  0.
        3    1    3    3  502    0  0.56007591687E+03 -0.75457418676E+03 -0.16917288855E+04  0.19352038312E+04  0.10100000352E+00 0.  1.
       -3    1    3    3    0  502 -0.56007591687E+03  0.75457418676E+03  0.13971673248E+04  0.16837885199E+04  0.10100000352E+00 0. -1.
</event>
<event>
 5   0  0.6729577E-07  0.3612675E+04  0.7818609E-02  0.8087595E-01
        2   -1    0    0  501    0  0.00000000000E+00  0.00000000000E+00  0.29797894594E+04  0.29797894594E+04  0.25500000920E-02 0.  1.
       -2   -1    0    0    0  501  0.00000000000E+00  0.00000000000E+00 -0.10949949209E+04  0.10949949209E+04  0.25500000920E-02 0. -1.
    10030    2    1    2    0    0  0.00000000000E+00  0.00000000000E+00  0.18847945385E+04  0.40747843803E+04  0.36126745347E+04 0.  0.
        3    1    3    3  502    0  0.11267329303E+04 -0.99669008429E+03  0.20702747282E+04  0.25590927456E+04  0.10100000352E+00 0.  1.
       -3    1    3    3    0  502 -0.11267329303E+04  0.99669008429E+03 -0.18548018969E+03  0.15156916347E+04  0.10100000352E+00 0. -1.
</event>
<event>
 5   0  0.2108068E-07  0.3562353E+04  0.7818609E-02  0.8099170E-01
        1   -1    0    0  501    0  0.00000000000E+00  0.00000000000E+00  0.19876788707E+04  0.19876788708E+04  0.50400001928E-02 0.  1.
       -1   -1    0    0    0  501  0.00000000000E+00  0.00000000000E+00 -0.15961281678E+04  0.15961281678E+04  0.50400001928E-02 0. -1.
    10030    2    1    2    0    0  0.00000000000E+00  0.00000000000E+00  0.39155070293E+03  0.35838070386E+04  0.35623532864E+04 0.  0.
        5    1    3    3  502    0  0.31370191723E+03  0.80764721691E+03  0.17613818542E+04  0.19629546725E+04  0.46999998093E+01 0.  1.
       -5    1    3    3    0  502 -0.31370191723E+03 -0.80764721691E+03 -0.13698311513E+04  0.16208523661E+04  0.46999998093E+01 0. -1.
</event>
<event>
 5   0  0.2086250E-07  0.3582576E+04  0.7818609E-02  0.8094495E-01
        1   -1    0    0  501    0  0.00000000000E+00  0.00000000000E+00  0.22476103460E+04  0.22476103460E+04  0.50400001928E-02 0.  1.
       -1   -1    0    0    0  501  0.00000000000E+00  0.00000000000E+00 -0.14276107365E+04  0.14276107366E+04  0.50400001928E-02 0. -1.
    10030    2    1    2    0    0  0.00000000000E+00  0.00000000000E+00  0.81999960942E+03  0.36752210825E+04  0.35825759791E+04 0.  0.
        4    1    3    3  502    0 -0.82488665550E+03  0.33492306704E+02 -0.12208113865E+04  0.14737509231E+04  0.12699999809E+01 0. -1.
       -4    1    3    3    0  502  0.82488665550E+03 -0.33492306704E+02  0.20408109959E+04  0.22014701594E+04  0.12699999809E+01 0.  1.
</event>
<event>
 5   0  0.6541476E-07  0.3611773E+04  0.7818609E-02  0.8087800E-01
        2   -1    0    0  501    0  0.00000000000E+00  0.00000000000E+00  0.20801752368E+04  0.20801752368E+04  0.25500000920E-02 0. -1.
       -2   -1    0    0    0  501  0.00000000000E+00  0.00000000000E+00 -0.15677649352E+04  0.15677649352E+04  0.25500000920E-02 0.  1.
    10030    2    1    2    0    0  0.00000000000E+00  0.00000000000E+00  0.51241030158E+03  0.36479401719E+04  0.36117728584E+04 0.  0.
        4    1    3    3  502    0  0.15586236114E+04  0.25206992450E+03 -0.62914397106E+03  0.16996089426E+04  0.12699999809E+01 0.  1.
       -4    1    3    3    0  502 -0.15586236114E+04 -0.25206992450E+03  0.11415542726E+04  0.19483312293E+04  0.12699999809E+01 0. -1.
</event>
<event>
 5   0  0.6848661E-07  0.3529398E+04  0.7818609E-02  0.8106858E-01
        2   -1    0    0  501    0  0.00000000000E+00  0.00000000000E+00  0.22714525443E+04  0.22714525443E+04  0.25500000920E-02 0.  1.
       -2   -1    0    0    0  501  0.00000000000E+00  0.00000000000E+00 -0.13710008812E+04  0.13710008812E+04  0.25500000920E-02 0. -1.
    10030    2    1    2    0    0  0.00000000000E+00  0.00000000000E+00  0.90045166306E+03  0.36424534255E+04  0.35293984983E+04 0.  0.
        1    1    3    3  502    0  0.12714466725E+04  0.33419716911E+03 -0.76472613820E+03  0.15208781856E+04  0.50400001928E-02 0. -1.
       -1    1    3    3    0  502 -0.12714466725E+04 -0.33419716911E+03  0.16651778013E+04  0.21215752399E+04  0.50400001928E-02 0.  1.
</event>
<event>
 5   0  0.2086250E-07  0.3519945E+04  0.7818609E-02  0.8109079E-01
        1   -1    0    0  501    0  0.00000000000E+00  0.00000000000E+00  0.13739987437E+04  0.13739987437E+04  0.50400001928E-02 0. -1.
       -1   -1    0    0    0  501  0.00000000000E+00  0.00000000000E+00 -0.22543715696E+04  0.22543715696E+04  0.50400001928E-02 0.  1.
    10030    2    1    2    0    0  0.00000000000E+00  0.00000000000E+00 -0.88037282591E+03  0.36283703133E+04  0.35199452862E+04 0.  0.
        2    1    3    3  502    0 -0.14063103121E+03  0.17517002205E+04 -0.53944881209E+03  0.18382697763E+04  0.25500000920E-02 0. -1.
       -2    1    3    3    0  502  0.14063103121E+03 -0.17517002205E+04 -0.34092401382E+03  0.17901005371E+04  0.25500000920E-02 0.  1.
</event>
<event>
 5   0  0.6324216E-07  0.3611598E+04  0.7818609E-02  0.8087840E-01
       -2   -1    0    0    0  501  0.00000000000E+00  0.00000000000E+00  0.14547568657E+04  0.14547568657E+04  0.25500000920E-02 0.  1.
        2   -1    0    0  501    0  0.00000000000E+00  0.00000000000E+00 -0.22415495191E+04  0.22415495191E+04  0.25500000920E-02 0. -1.
    10030    2    1    2    0    0  0.00000000000E+00  0.00000000000E+00 -0.78679265344E+03  0.36963063848E+04  0.36115977366E+04 0.  0.
        2    1    3    3  502    0  0.91839712875E+03  0.15474276404E+04 -0.23843852290E+03  0.18151690052E+04  0.25500000920E-02 0. -1.
       -2    1    3    3    0  502 -0.91839712875E+03 -0.15474276404E+04 -0.54835413054E+03  0.18811373796E+04  0.25500000920E-02 0.  1.
</event>
<event>
 5   0  0.6848661E-07  0.3736450E+04  0.7818609E-02  0.8059932E-01
        2   -1    0    0  501    0  0.00000000000E+00  0.00000000000E+00  0.16691159847E+04  0.16691159847E+04  0.25500000920E-02 0. -1.
       -2   -1    0    0    0  501  0.00000000000E+00  0.00000000000E+00 -0.20910861109E+04  0.20910861109E+04  0.25500000920E-02 0.  1.
    10030    2    1    2    0    0  0.00000000000E+00  0.00000000000E+00 -0.42197012617E+03  0.37602020957E+04  0.37364503225E+04 0.  0.
        1    1    3    3  502    0 -0.17240030644E+04  0.69637265827E+03 -0.39419675108E+03  0.19006610755E+04  0.50400001928E-02 0.  1.
       -1    1    3    3    0  502  0.17240030644E+04 -0.69637265827E+03 -0.27773375084E+02  0.18595410202E+04  0.50400001928E-02 0. -1.
</event>
<event>
 5   0  0.6729577E-07  0.3620136E+04  0.7818609E-02  0.8085895E-01
        2   -1    0    0  501    0  0.00000000000E+00  0.00000000000E+00  0.26507876306E+04  0.26507876306E+04  0.25500000920E-02 0.  1.
       -2   -1    0    0    0  501  0.00000000000E+00  0.00000000000E+00 -0.12359898722E+04  0.12359898722E+04  0.25500000920E-02 0. -1.
    10030    2    1    2    0    0  0.00000000000E+00  0.00000000000E+00  0.14147977584E+04  0.38867775028E+04  0.36201362763E+04 0.  0.
        3    1    3    3  502    0 -0.89417511210E+02 -0.12504886549E+04  0.21091784739E+04  0.24536403999E+04  0.10100000352E+00 0.  1.
       -3    1    3    3    0  502  0.89417511210E+02  0.12504886549E+04 -0.69438071544E+03  0.14331371028E+04  0.10100000352E+00 0. -1.
</event>
<event>
 5   0  0.6324216E-07  0.3580042E+04  0.7818609E-02  0.8095079E-01
        2   -1    0    0  501    0  0.00000000000E+00  0.00000000000E+00  0.29836402120E+04  0.29836402120E+04  0.25500000920E-02 0.  1.
       -2   -1    0    0    0  501  0.00000000000E+00  0.00000000000E+00 -0.10739149291E+04  0.10739149291E+04  0.25500000920E-02 0. -1.
    10030    2    1    2    0    0  0.00000000000E+00  0.00000000000E+00  0.19097252829E+04  0.40575551411E+04  0.35800423275E+04 0.  0.
        2    1    3    3  502    0  0.45553111334E+03  0.54828307409E+02  0.29158625839E+04  0.29517400540E+04  0.25500000920E-02 0.  1.
       -2    1    3    3    0  502 -0.45553111334E+03 -0.54828307409E+02 -0.10061373009E+04  0.11058150871E+04  0.25500000920E-02 0. -1.
</event>
<event>
 5   0  0.2108068E-07  0.3599185E+04  0.7818609E-02  0.8090678E-01
        1   -1    0    0  501    0  0.00000000000E+00  0.00000000000E+00  0.16842097478E+04  0.16842097478E+04  0.50400001928E-02 0. -1.
       -1   -1    0    0    0  501  0.00000000000E+00  0.00000000000E+00 -0.19228804823E+04  0.19228804823E+04  0.50400001928E-02 0.  1.
    10030    2    1    2    0    0  0.00000000000E+00  0.00000000000E+00 -0.23867073451E+03  0.36070902301E+04  0.35991854924E+04 0.  0.
        5    1    3    3  502    0  0.22222101576E+03  0.74657057228E+03  0.15064982378E+04  0.16959684047E+04  0.46999998093E+01 0. -1.
       -5    1    3    3    0  502 -0.22222101576E+03 -0.74657057228E+03 -0.17451689724E+04  0.19111218253E+04  0.46999998093E+01 0.  1.
</event>
<event>
 5   0  0.6541476E-07  0.3593105E+04  0.7818609E-02  0.8092073E-01
        2   -1    0    0  501    0  0.00000000000E+00  0.00000000000E+00  0.19338909698E+04  0.19338909698E+04  0.25500000920E-02 0. -1.
       -2   -1    0    0    0  501  0.00000000000E+00  0.00000000000E+00 -0.16689674731E+04  0.16689674731E+04  0.25500000920E-02 0.  1.
    10030    2    1    2    0    0  0.00000000000E+00  0.00000000000E+00  0.26492349670E+03  0.36028584429E+04  0.35931051335E+04 0.  0.
        4    1    3    3  502    0  0.52024805591E+03  0.12394078174E+04 -0.10627510534E+04  0.17135434608E+04  0.12699999809E+01 0.  1.
       -4    1    3    3    0  502 -0.52024805591E+03 -0.12394078174E+04  0.13276745501E+04  0.18893149821E+04  0.12699999809E+01 0. -1.
</event>
<event>
 5   0  0.2086250E-07  0.3594662E+04  0.7818609E-02  0.8091716E-01
        1   -1    0    0  501    0  0.00000000000E+00  0.00000000000E+00  0.13530422249E+04  0.13530422250E+04  0.50400001928E-02 0. -1.
       -1   -1    0    0    0  501  0.00000000000E+00  0.00000000000E+00 -0.23875073106E+04  0.23875073106E+04  0.50400001928E-02 0.  1.
    10030    2    1    2    0    0  0.00000000000E+00  0.00000000000E+00 -0.10344650856E+04  0.37405495356E+04  0.35946617107E+04 0.  0.
        3    1    3    3  502    0  0.38910668148E+03 -0.12240038298E+04 -0.18255618151E+04  0.22320988634E+04  0.10100000352E+00 0.  1.
       -3    1    3    3    0  502 -0.38910668148E+03  0.12240038298E+04  0.79109672945E+03  0.15084506722E+04  0.10100000352E+00 0. -1.
</event>
<event>
 5   0  0.2086250E-07  0.3612217E+04  0.7818609E-02  0.8087699E-01
        1   -1    0    0  501    0  0.00000000000E+00  0.00000000000E+00  0.26826133256E+04  0.26826133256E+04  0.50400001928E-02 0.  1.
       -1   -1    0    0    0  501  0.00000000000E+00  0.00000000000E+00 -0.12159887763E+04  0.12159887763E+04  0.50400001928E-02 0. -1.
    10030    2    1    2    0    0  0.00000000000E+00  0.00000000000E+00  0.14666245492E+04  0.38986021019E+04  0.36122168789E+04 0.  0.
        3    1    3    3  502    0 -0.10187881868E+04 -0.40732503960E+03  0.22816912301E+04  0.25317894733E+04  0.10100000352E+00 0.  1.
       -3    1    3    3    0  502  0.10187881868E+04  0.40732503960E+03 -0.81506668083E+03  0.13668126286E+04  0.10100000352E+00 0. -1.
</event>
<event>
 5   0  0.6729577E-07  0.2956387E+04  0.7818609E-02  0.8256296E-01
        2   -1    0    0  501    0  0.00000000000E+00  0.00000000000E+00  0.16810573732E+04  0.16810573732E+04  0.25500000920E-02 0. -1.
       -2   -1    0    0    0  501  0.00000000000E+00  0.00000000000E+00 -0.12998104252E+04  0.12998104252E+04  0.25500000920E-02 0.  1.
    10030    2    1    2    0    0  0.00000000000E+00  0.00000000000E+00  0.38124694799E+03  0.29808677985E+04  0.29563869159E+04 0.  0.
        3    1    3    3  502    0  0.80775325421E+03  0.92258765308E+03  0.10229422808E+04  0.15968857872E+04  0.10100000352E+00 0. -1.
       -3    1    3    3    0  502 -0.80775325421E+03 -0.92258765308E+03 -0.64169533277E+03  0.13839820113E+04  0.10100000352E+00 0.  1.
</event>
<event>
 5   0  0.2086250E-07  0.3602936E+04  0.7818609E-02  0.8089819E-01
        1   -1    0    0  501    0  0.00000000000E+00  0.00000000000E+00  0.19443859964E+04  0.19443859964E+04  0.50400001928E-02 0.  1.
       -1   -1    0    0    0  501  0.00000000000E+00  0.00000000000E+00 -0.16690552167E+04  0.16690552167E+04  0.50400001928E-02 0. -1.
    10030    2    1    2    0    0  0.00000000000E+00  0.00000000000E+00  0.27533077967E+03  0.36134412131E+04  0.36029363528E+04 0.  0.
        3    1    3    3  502    0 -0.15617696292E+04 -0.71184616560E+03 -0.41113958014E+03  0.17649037092E+04  0.10100000352E+00 0. -1.
       -3    1    3    3    0  502  0.15617696292E+04  0.71184616560E+03  0.68647035982E+03  0.18485375039E+04  0.10100000352E+00 0.  1.
</event>
<event>
 5   0  0.2086250E-07  0.3595699E+04  0.7818609E-02  0.8091478E-01
       -1   -1    0    0    0  501  0.00000000000E+00  0.00000000000E+00  0.13221640187E+04  0.13221640187E+04  0.50400001928E-02 0.  1.
        1   -1    0    0  501    0  0.00000000000E+00  0.00000000000E+00 -0.24446762407E+04  0.24446762407E+04  0.50400001928E-02 0. -1.
    10030    2    1    2    0    0  0.00000000000E+00  0.00000000000E+00 -0.11225122220E+04  0.37668402594E+04  0.35956990769E+04 0.  0.
        4    1    3    3  502    0  0.18530183275E+03 -0.17866371115E+04 -0.64139832401E+03  0.19073023778E+04  0.12699999809E+01 0. -1.
       -4    1    3    3    0  502 -0.18530183275E+03  0.17866371115E+04 -0.48111389803E+03  0.18595378816E+04  0.12699999809E+01 0.  1.
</event>
<event>
 5   0  0.2108068E-07  0.3596785E+04  0.7818609E-02  0.8091229E-01
        1   -1    0    0  501    0  0.00000000000E+00  0.00000000000E+00  0.19082278045E+04  0.19082278045E+04  0.50400001928E-02 0. -1.
       -1   -1    0    0    0  501  0.00000000000E+00  0.00000000000E+00 -0.16948789797E+04  0.16948789797E+04  0.50400001928E-02 0.  1.
    10030    2    1    2    0    0  0.00000000000E+00  0.00000000000E+00  0.21334882486E+03  0.36031067842E+04  0.35967847833E+04 0.  0.
        5    1    3    3  502    0 -0.13154456661E+04 -0.26757609102E+03 -0.10921741860E+04  0.17305666146E+04  0.46999998093E+01 0.  1.
       -5    1    3    3    0  502  0.13154456661E+04  0.26757609102E+03  0.13055230109E+04  0.18725401696E+04  0.46999998093E+01 0. -1.
</event>
<event>
 5   0  0.2086250E-07  0.3654442E+04  0.7818609E-02  0.8078134E-01
       -1   -1    0    0    0  501  0.00000000000E+00  0.00000000000E+00  0.15336457780E+04  0.15336457780E+04  0.50400001928E-02 0. -1.
        1   -1    0    0  501    0  0.00000000000E+00  0.00000000000E+00 -0.21769929093E+04  0.21769929093E+04  0.50400001928E-02 0.  1.
    10030    2    1    2    0    0  0.00000000000E+00  0.00000000000E+00 -0.64334713129E+03  0.37106386873E+04  0.36544416723E+04 0.  0.
        4    1    3    3  502    0 -0.47986257016E+03  0.16592850295E+04 -0.92685868927E+03  0.19602457852E+04  0.12699999809E+01 0.  1.
       -4    1    3    3    0  502  0.47986257016E+03 -0.16592850295E+04  0.28351155798E+03  0.17503929021E+04  0.12699999809E+01 0. -1.
</event>
<event>
 5   0  0.6729577E-07  0.3575403E+04  0.7818609E-02  0.8096149E-01
       -2   -1    0    0    0  501  0.00000000000E+00  0.00000000000E+00  0.20279261070E+04  0.20279261070E+04  0.25500000920E-02 0. -1.
        2   -1    0    0  501    0  0.00000000000E+00  0.00000000000E+00 -0.15759333772E+04  0.15759333772E+04  0.25500000920E-02 0.  1.
    10030    2    1    2    0    0  0.00000000000E+00  0.00000000000E+00  0.45199272980E+03  0.36038594843E+04  0.35754028800E+04 0.  0.
        3    1    3    3  502    0 -0.64564085660E+03  0.67817662866E+03 -0.13089834683E+04  0.16094139884E+04  0.10100000352E+00 0.  1.
       -3    1    3    3    0  502  0.64564085660E+03 -0.67817662866E+03  0.17609761981E+04  0.19944454959E+04  0.10100000352E+00 0. -1.
</event>
<event>
 5   0  0.2193129E-07  0.3512642E+04  0.7818609E-02  0.8110801E-01
       -1   -1    0    0    0  501  0.00000000000E+00  0.00000000000E+00  0.25953689411E+04  0.25953689411E+04  0.50400001928E-02 0.  1.
        1   -1    0    0  501    0  0.00000000000E+00  0.00000000000E+00 -0.11885259240E+04  0.11885259240E+04  0.50400001928E-02 0. -1.
    10030    2    1    2    0    0  0.00000000000E+00  0.00000000000E+00  0.14068430172E+04  0.37838948651E+04  0.35126418940E+04 0.  0.
        1    1    3    3  502    0 -0.10679543431E+04 -0.13733301248E+04  0.44376597668E+03  0.17954081298E+04  0.50400001928E-02 0. -1.
       -1    1    3    3    0  502  0.10679543431E+04  0.13733301248E+04  0.96307704049E+03  0.19884867353E+04  0.50400001928E-02 0.  1.
</event>
<event>
 5   0  0.6729577E-07  0.3431681E+04  0.7818609E-02  0.8130174E-01
       -2   -1    0    0    0  501  0.00000000000E+00  0.00000000000E+00  0.14982282141E+04  0.14982282141E+04  0.25500000920E-02 0. -1.
        2   -1    0    0  501    0  0.00000000000E+00  0.00000000000E+00 -0.19650607428E+04  0.19650607428E+04  0.25500000920E-02 0.  1.
    10030    2    1    2    0    0  0.00000000000E+00  0.00000000000E+00 -0.46683252873E+03  0.34632889568E+04  0.34316814812E+04 0.  0.
        3    1    3    3  502    0 -0.15743994518E+04 -0.62678188315E+03  0.38359969071E+02  0.16950105192E+04  0.10100000352E+00 0. -1.
       -3    1    3    3    0  502  0.15743994518E+04  0.62678188315E+03 -0.50519249780E+03  0.17682784376E+04  0.10100000352E+00 0.  1.
</event>
<event>
 5   0  0.6541476E-07  0.3488653E+04  0.7818609E-02  0.8116484E-01
       -2   -1    0    0    0  501  0.00000000000E+00  0.00000000000E+00  0.19324328769E+04  0.19324328769E+04  0.25500000920E-02 0. -1.
        2   -1    0    0  501    0  0.00000000000E+00  0.00000000000E+00 -0.15745307009E+04  0.15745307009E+04  0.25500000920E-02 0.  1.
    10030    2    1    2    0    0  0.00000000000E+00  0.00000000000E+00  0.35790217604E+03  0.35069635778E+04  0.34886529733E+04 0.  0.
        4    1    3    3  502    0  0.65836982970E+03  0.32033604019E+03 -0.14125855168E+04  0.15910579708E+04  0.12699999809E+01 0.  1.
       -4    1    3    3    0  502 -0.65836982970E+03 -0.32033604019E+03  0.17704876928E+04  0.19159056069E+04  0.12699999809E+01 0. -1.
</event>
<event>
 5   0  0.2086250E-07  0.3602198E+04  0.7818609E-02  0.8089988E-01
        1   -1    0    0  501    0  0.00000000000E+00  0.00000000000E+00  0.20323657792E+04  0.20323657792E+04  0.50400001928E-02 0.  1.
       -1   -1    0    0    0  501  0.00000000000E+00  0.00000000000E+00 -0.15961483530E+04  0.15961483530E+04  0.50400001928E-02 0. -1.
    10030    2    1    2    0    0  0.00000000000E+00  0.00000000000E+00  0.43621742620E+03  0.36285141323E+04  0.36021978243E+04 0.  0.
        4    1    3    3  502    0 -0.24841214606E+03 -0.21298514846E+03  0.20021730724E+04  0.20287360332E+04  0.12699999809E+01 0.  1.
       -4    1    3    3    0  502  0.24841214606E+03  0.21298514846E+03 -0.15659556462E+04  0.15997780991E+04  0.12699999809E+01 0. -1.
</event>
<event>
 5   0  0.2193129E-07  0.3646483E+04  0.7818609E-02  0.8079926E-01
       -1   -1    0    0    0  501  0.00000000000E+00  0.00000000000E+00  0.11906712687E+04  0.11906712687E+04  0.50400001928E-02 0. -1.
        1   -1    0    0  501    0  0.00000000000E+00  0.00000000000E+00 -0.27918780870E+04  0.27918780870E+04  0.50400001928E-02 0.  1.
    10030    2    1    2    0    0  0.00000000000E+00  0.00000000000E+00 -0.16012068183E+04  0.39825493558E+04  0.36464827020E+04 0.  0.
        1    1    3    3  502    0 -0.13217887330E+04 -0.94131426526E+03 -0.17084855994E+04  0.23562939214E+04  0.50400001928E-02 0.  1.
       -1    1    3    3    0  502  0.13217887330E+04  0.94131426526E+03  0.10727878108E+03  0.16262554343E+04  0.50400001928E-02 0. -1.
</event>
<event>
 5   0  0.6324216E-07  0.3355260E+04  0.7818609E-02  0.8148975E-01
       -2   -1    0    0    0  501  0.00000000000E+00  0.00000000000E+00  0.13520229493E+04  0.13520229493E+04  0.25500000920E-02 0.  1.
        2   -1    0    0  501    0  0.00000000000E+00  0.00000000000E+00 -0.20816533151E+04  0.20816533151E+04  0.25500000920E-02 0. -1.
    10030    2    1    2    0    0  0.00000000000E+00  0.00000000000E+00 -0.72963036579E+03  0.34336762644E+04  0.33552603801E+04 0.  0.
        2    1    3    3  502    0  0.13422437948E+04  0.98196981922E+03 -0.13930190505E+03  0.16689182578E+04  0.25500000920E-02 0. -1.
       -2    1    3    3    0  502 -0.13422437948E+04 -0.98196981922E+03 -0.59032846074E+03  0.17647580066E+04  0.25500000920E-02 0.  1.
</event>
<event>
 5   0  0.6729577E-07  0.3556874E+04  0.7818609E-02  0.8100442E-01
       -2   -1    0    0    0  501  0.00000000000E+00  0.00000000000E+00  0.13318575750E+04  0.13318575750E+04  0.25500000920E-02 0.  1.
        2   -1    0    0  501    0  0.00000000000E+00  0.00000000000E+00 -0.23747569570E+04  0.23747569570E+04  0.25500000920E-02 0. -1.
    10030    2    1    2    0    0  0.00000000000E+00  0.00000000000E+00 -0.10428993820E+04  0.37066145320E+04  0.35568739320E+04 0.  0.
        3    1    3    3  502    0 -0.62351251843E+03  0.11157916406E+04  0.76716755657E+03  0.14907397210E+04  0.10100000352E+00 0.  1.
       -3    1    3    3    0  502  0.62351251843E+03 -0.11157916406E+04 -0.18100669386E+04  0.22158748110E+04  0.10100000352E+00 0. -1.
</event>
<event>
 5   0  0.2086250E-07  0.3737393E+04  0.7818609E-02  0.8059725E-01
       -1   -1    0    0    0  501  0.00000000000E+00  0.00000000000E+00  0.14730588353E+04  0.14730588353E+04  0.50400001928E-02 0. -1.
        1   -1    0    0  501    0  0.00000000000E+00  0.00000000000E+00 -0.23705960843E+04  0.23705960843E+04  0.50400001928E-02 0.  1.
    10030    2    1    2    0    0  0.00000000000E+00  0.00000000000E+00 -0.89753724897E+03  0.38436549196E+04  0.37373934804E+04 0.  0.
        4    1    3    3  502    0 -0.27115720427E+03  0.78583512964E+03 -0.21699603040E+04  0.23237453419E+04  0.12699999809E+01 0.  1.
       -4    1    3    3    0  502  0.27115720427E+03 -0.78583512964E+03  0.12724230550E+04  0.15199095777E+04  0.12699999809E+01 0. -1.
</event>
<event>
 5   0  0.2086250E-07  0.3597860E+04  0.7818609E-02  0.8090982E-01
       -1   -1    0    0    0  501  0.00000000000E+00  0.00000000000E+00  0.13400455948E+04  0.13400455948E+04  0.50400001928E-02 0. -1.
        1   -1    0    0  501    0  0.00000000000E+00  0.00000000000E+00 -0.24149539832E+04  0.24149539832E+04  0.50400001928E-02 0.  1.
    10030    2    1    2    0    0  0.00000000000E+00  0.00000000000E+00 -0.10749083884E+04  0.37549995781E+04  0.35978596120E+04 0.  0.
        2    1    3    3  502    0 -0.15251680258E+04 -0.93101071105E+03 -0.75445346644E+03  0.19396181284E+04  0.25500000920E-02 0. -1.
       -2    1    3    3    0  502  0.15251680258E+04  0.93101071105E+03 -0.32045492197E+03  0.18153814497E+04  0.25500000920E-02 0.  1.
</event>
<event>
 5   0  0.2193129E-07  0.3663198E+04  0.7818609E-02  0.8076167E-01
       -1   -1    0    0    0  501  0.00000000000E+00  0.00000000000E+00  0.19023026976E+04  0.19023026976E+04  0.50400001928E-02 0.  1.
        1   -1    0    0  501    0  0.00000000000E+00  0.00000000000E+00 -0.17635236237E+04  0.17635236237E+04  0.50400001928E-02 0. -1.
    10030    2    1    2    0    0  0.00000000000E+00  0.00000000000E+00  0.13877907395E+03  0.36658263213E+04  0.36631984640E+04 0.  0.
        1    1    3    3  502    0 -0.12633723598E+04  0.90597309336E+03 -0.89973627609E+03  0.17962244659E+04  0.50400001928E-02 0. -1.
       -1    1    3    3    0  502  0.12633723598E+04 -0.90597309336E+03  0.10385153500E+04  0.18696018554E+04  0.50400001928E-02 0.  1.
</event>
<event>
 5   0  0.6324216E-07  0.3661746E+04  0.7818609E-02  0.8076493E-01
       -2   -1    0    0    0  501  0.00000000000E+00  0.00000000000E+00  0.20542841572E+04  0.20542841572E+04  0.25500000920E-02 0. -1.
        2   -1    0    0  501    0  0.00000000000E+00  0.00000000000E+00 -0.16317583459E+04  0.16317583459E+04  0.25500000920E-02 0.  1.
    10030    2    1    2    0    0  0.00000000000E+00  0.00000000000E+00  0.42252581135E+03  0.36860425031E+04  0.36617456593E+04 0.  0.
        2    1    3    3  502    0 -0.62467705440E+03 -0.17131672146E+04  0.46064294179E+02  0.18240847696E+04  0.25500000920E-02 0.  1.
       -2    1    3    3    0  502  0.62467705440E+03  0.17131672146E+04  0.37646151717E+03  0.18619577335E+04  0.25500000920E-02 0. -1.
</event>
<event>
 5   0  0.2108068E-07  0.3602685E+04  0.7818609E-02  0.8089877E-01
       -1   -1    0    0    0  501  0.00000000000E+00  0.00000000000E+00  0.14796734861E+04  0.14796734861E+04  0.50400001928E-02 0.  1.
        1   -1    0    0  501    0  0.00000000000E+00  0.00000000000E+00 -0.21929393011E+04  0.21929393011E+04  0.50400001928E-02 0. -1.
    10030    2    1    2    0    0  0.00000000000E+00  0.00000000000E+00 -0.71326581495E+03  0.36726127872E+04  0.36026846326E+04 0.  0.
        5    1    3    3  502    0  0.51662937721E+03  0.16864816443E+04  0.16094677522E+02  0.17639181893E+04  0.46999998093E+01 0. -1.
       -5    1    3    3    0  502 -0.51662937721E+03 -0.16864816443E+04 -0.72936049247E+03  0.19086945979E+04  0.46999998093E+01 0.  1.
</event>
<event>
 5   0  0.2086250E-07  0.3637932E+04  0.7818609E-02  0.8081858E-01
       -1   -1    0    0    0  501  0.00000000000E+00  0.00000000000E+00  0.19034683726E+04  0.19034683726E+04  0.50400001928E-02 0.  1.
        1   -1    0    0  501    0  0.00000000000E+00  0.00000000000E+00 -0.17382150928E+04  0.17382150928E+04  0.50400001928E-02 0. -1.
    10030    2    1    2    0    0  0.00000000000E+00  0.00000000000E+00  0.16525327976E+03  0.36416834654E+04  0.36379320796E+04 0.  0.
        3    1    3    3  502    0  0.15986294038E+04  0.96052154671E+02 -0.78069846165E+03  0.17816655369E+04  0.10100000352E+00 0. -1.
       -3    1    3    3    0  502 -0.15986294038E+04 -0.96052154671E+02  0.94595174142E+03  0.18600179285E+04  0.10100000352E+00 0.  1.
</event>
<event>
 5   0  0.6729577E-07  0.3610101E+04  0.7818609E-02  0.8088182E-01
        2   -1    0    0  501    0  0.00000000000E+00  0.00000000000E+00  0.18130758905E+04  0.18130758905E+04  0.25500000920E-02 0. -1.
       -2   -1    0    0    0  501  0.00000000000E+00  0.00000000000E+00 -0.17970608066E+04  0.17970608066E+04  0.25500000920E-02 0.  1.
    10030    2    1    2    0    0  0.00000000000E+00  0.00000000000E+00  0.16015083938E+02  0.36101366971E+04  0.36101011743E+04 0.  0.
        3    1    3    3  502    0 -0.41269425839E+03 -0.15759747856E+04  0.78531470557E+03  0.18085165945E+04  0.10100000352E+00 0. -1.
       -3    1    3    3    0  502  0.41269425839E+03  0.15759747856E+04 -0.76929962163E+03  0.18016201025E+04  0.10100000352E+00 0.  1.
</event>
<event>
 5   0  0.6729577E-07  0.3597756E+04  0.7818609E-02  0.8091006E-01
       -2   -1    0    0    0  501  0.00000000000E+00  0.00000000000E+00  0.11916777775E+04  0.11916777775E+04  0.25500000920E-02 0.  1.
        2   -1    0    0  501    0  0.00000000000E+00  0.00000000000E+00 -0.27154678848E+04  0.27154678848E+04  0.25500000920E-02 0. -1.
    10030    2    1    2    0    0  0.00000000000E+00  0.00000000000E+00 -0.15237901073E+04  0.39071456623E+04  0.35977563752E+04 0.  0.
        3    1    3    3  502    0 -0.21685842604E+03  0.16163526879E+04 -0.15863499589E+04  0.22751109403E+04  0.10100000352E+00 0. -1.
       -3    1    3    3    0  502  0.21685842604E+03 -0.16163526879E+04  0.62559851553E+02  0.16320347220E+04  0.10100000352E+00 0.  1.
</event>
<event>
 5   0  0.2193129E-07  0.3618264E+04  0.7818609E-02  0.8086321E-01
        1   -1    0    0  501    0  0.00000000000E+00  0.00000000000E+00  0.27893450903E+04  0.27893450903E+04  0.50400001928E-02 0.  1.
       -1   -1    0    0    0  501  0.00000000000E+00  0.00000000000E+00 -0.11733788785E+04  0.11733788785E+04  0.50400001928E-02 0. -1.
    10030    2    1    2    0    0  0.00000000000E+00  0.00000000000E+00  0.16159662118E+04  0.39627239688E+04  0.36182640112E+04 0.  0.
        1    1    3    3  502    0  0.16181045965E+03 -0.46235632117E+03  0.27153312102E+04  0.27591628393E+04  0.50400001928E-02 0.  1.
       -1    1    3    3    0  502 -0.16181045965E+03  0.46235632117E+03 -0.10993649984E+04  0.12035611295E+04  0.50400001928E-02 0. -1.
</event>
<event>
 5   0  0.6848661E-07  0.3580089E+04  0.7818609E-02  0.8095068E-01
       -2   -1    0    0    0  501  0.00000000000E+00  0.00000000000E+00  0.12722985788E+04  0.12722985788E+04  0.25500000920E-02 0.  1.
        2   -1    0    0  501    0  0.00000000000E+00  0.00000000000E+00 -0.25184802183E+04  0.25184802183E+04  0.25500000920E-02 0. -1.
    10030    2    1    2    0    0  0.00000000000E+00  0.00000000000E+00 -0.12461816395E+04  0.37907787971E+04  0.35800887153E+04 0.  0.
        1    1    3    3  502    0 -0.23033681326E+03 -0.17751391627E+04 -0.63283614979E+03  0.18985930810E+04  0.50400001928E-02 0.  1.
       -1    1    3    3    0  502  0.23033681326E+03  0.17751391627E+04 -0.61334548971E+03  0.18921857161E+04  0.50400001928E-02 0. -1.
</event>
<event>
 5   0  0.2086250E-07  0.3584430E+04  0.7818609E-02  0.8094067E-01
        1   -1    0    0  501    0  0.00000000000E+00  0.00000000000E+00  0.20900228909E+04  0.20900228909E+04  0.50400001928E-02 0. -1.
       -1   -1    0    0    0  501  0.00000000000E+00  0.00000000000E+00 -0.15368421251E+04  0.15368421251E+04  0.50400001928E-02 0.  1.
    10030    2    1    2    0    0  0.00000000000E+00  0.00000000000E+00  0.55318076584E+03  0.36268650160E+04  0.35844303431E+04 0.  0.
        4    1    3    3  502    0  0.10925379490E+03 -0.87736519574E+03 -0.13008162058E+04  0.15728415345E+04  0.12699999809E+01 0.  1.
       -4    1    3    3    0  502 -0.10925379490E+03  0.87736519574E+03  0.18539969717E+04  0.20540234814E+04  0.12699999809E+01 0. -1.
</event>
<event>
 5   0  0.2193129E-07  0.3601146E+04  0.7818609E-02  0.8090229E-01
        1   -1    0    0  501    0  0.00000000000E+00  0.00000000000E+00  0.18947288279E+04  0.18947288279E+04  0.50400001928E-02 0. -1.
       -1   -1    0    0    0  501  0.00000000000E+00  0.00000000000E+00 -0.17110958213E+04  0.17110958213E+04  0.50400001928E-02 0.  1.
    10030    2    1    2    0    0  0.00000000000E+00  0.00000000000E+00  0.18363300658E+03  0.36058246492E+04  0.36011456954E+04 0.  0.
        1    1    3    3  502    0 -0.87987985459E+03 -0.90566780159E+03 -0.11934555221E+04  0.17374575703E+04  0.50400001928E-02 0.  1.
       -1    1    3    3    0  502  0.87987985459E+03  0.90566780159E+03  0.13770885287E+04  0.18683670788E+04  0.50400001928E-02 0. -1.
</event>
<event>
 5   0  0.2086250E-07  0.3501101E+04  0.7818609E-02  0.8113529E-01
        1   -1    0    0  501    0  0.00000000000E+00  0.00000000000E+00  0.18107769752E+04  0.18107769752E+04  0.50400001928E-02 0. -1.
       -1   -1    0    0    0  501  0.00000000000E+00  0.00000000000E+00 -0.16923272869E+04  0.16923272869E+04  0.50400001928E-02 0.  1.
    10030    2    1    2    0    0  0.00000000000E+00  0.00000000000E+00  0.11844968836E+03  0.35031042621E+04  0.35011011329E+04 0.  0.
        2    1    3    3  502    0  0.13651157982E+04 -0.93643351428E+03 -0.51029183360E+03  0.17322951898E+04  0.25500000920E-02 0.  1.
       -2    1    3    3    0  502 -0.13651157982E+04  0.93643351428E+03  0.62874152196E+03  0.17708090723E+04  0.25500000920E-02 0. -1.
</event>
<event>
 5   0  0.6848661E-07  0.3505702E+04  0.7818609E-02  0.8112440E-01
        2   -1    0    0  501    0  0.00000000000E+00  0.00000000000E+00  0.18774259022E+04  0.18774259022E+04  0.25500000920E-02 0. -1.
       -2   -1    0    0    0  501  0.00000000000E+00  0.00000000000E+00 -0.16365422198E+04  0.16365422198E+04  0.25500000920E-02 0.  1.
    10030    2    1    2    0    0  0.00000000000E+00  0.00000000000E+00  0.24088368238E+03  0.35139681220E+04  0.35057020715E+04 0.  0.
        1    1    3    3  502    0  0.13673639279E+04 -0.10424394732E+04  0.46201297615E+03  0.17803988758E+04  0.50400001928E-02 0. -1.
       -1    1    3    3    0  502 -0.13673639279E+04  0.10424394732E+04 -0.22112929377E+03  0.17335692462E+04  0.50400001928E-02 0.  1.
</event>
<event>
 5   0  0.2086250E-07  0.3621530E+04  0.7818609E-02  0.8085578E-01
       -1   -1    0    0    0  501  0.00000000000E+00  0.00000000000E+00  0.14261656756E+04  0.14261656757E+04  0.50400001928E-02 0.  1.
        1   -1    0    0  501    0  0.00000000000E+00  0.00000000000E+00 -0.22990800786E+04  0.22990800786E+04  0.50400001928E-02 0. -1.
    10030    2    1    2    0    0  0.00000000000E+00  0.00000000000E+00 -0.87291440297E+03  0.37252457543E+04  0.36215295629E+04 0.  0.
        4    1    3    3  502    0  0.22287085516E+03 -0.89497953732E+03 -0.20393549128E+04  0.22382202447E+04  0.12699999809E+01 0. -1.
       -4    1    3    3    0  502 -0.22287085516E+03  0.89497953732E+03  0.11664405098E+04  0.14870255096E+04  0.12699999809E+01 0.  1.
</event>
<event>
 5   0  0.2086250E-07  0.3594256E+04  0.7818609E-02  0.8091809E-01
        1   -1    0    0  501    0  0.00000000000E+00  0.00000000000E+00  0.22672257009E+04  0.22672257009E+04  0.50400001928E-02 0.  1.
       -1   -1    0    0    0  501  0.00000000000E+00  0.00000000000E+00 -0.14245030576E+04  0.14245030576E+04  0.50400001928E-02 0. -1.
    10030    2    1    2    0    0  0.00000000000E+00  0.00000000000E+00  0.84272264327E+03  0.36917287585E+04  0.35942564979E+04 0.  0.
        2    1    3    3  502    0  0.38085221935E+03  0.48080549461E+03 -0.13136634090E+04  0.14498047761E+04  0.25500000920E-02 0. -1.
       -2    1    3    3    0  502 -0.38085221935E+03 -0.48080549461E+03  0.21563860523E+04  0.22419239824E+04  0.25500000920E-02 0.  1.
</event>
<event>
 5   0  0.6324216E-07  0.3569135E+04  0.7818609E-02  0.8097598E-01
        2   -1    0    0  501    0  0.00000000000E+00  0.00000000000E+00  0.19253182724E+04  0.19253182724E+04  0.25500000920E-02 0. -1.
       -2   -1    0    0    0  501  0.00000000000E+00  0.00000000000E+00 -0.16541065247E+04  0.16541065247E+04  0.25500000920E-02 0.  1.
    10030    2    1    2    0    0  0.00000000000E+00  0.00000000000E+00  0.27121174762E+03  0.35794247971E+04  0.35691351986E+04 0.  0.
        2    1    3    3  502    0  0.56445377013E+03 -0.63830998299E+03  0.17081294634E+04  0.19088619533E+04  0.25500000920E-02 0. -1.
       -2    1    3    3    0  502 -0.56445377013E+03  0.63830998299E+03 -0.14369177158E+04  0.16705628438E+04  0.25500000920E-02 0.  1.
</event>
<event>
 5   0  0.2086250E-07  0.3507544E+04  0.7818609E-02  0.8112004E-01
       -1   -1    0    0    0  501  0.00000000000E+00  0.00000000000E+00  0.16861198328E+04  0.16861198328E+04  0.50400001928E-02 0.  1.
        1   -1    0    0  501    0  0.00000000000E+00  0.00000000000E+00 -0.18241389222E+04  0.18241389222E+04  0.50400001928E-02 0. -1.
    10030    2    1    2    0    0  0.00000000000E+00  0.00000000000E+00 -0.13801908937E+03  0.35102587549E+04  0.35075443344E+04 0.  0.
        3    1    3    3  502    0 -0.16158551845E+04  0.50878826757E+03 -0.52308231005E+03  0.17729829643E+04  0.10100000352E+00 0. -1.
       -3    1    3    3    0  502  0.16158551845E+04 -0.50878826757E+03  0.38506322068E+03  0.17372757906E+04  0.10100000352E+00 0.  1.
</event>
<event>
 5   0  0.6669864E-07  0.3605319E+04  0.7818609E-02  0.8089274E-01
       -2   -1    0    0    0  501  0.00000000000E+00  0.00000000000E+00  0.14820064060E+04  0.14820064060E+04  0.25500000920E-02 0.  1.
        2   -1    0    0  501    0  0.00000000000E+00  0.00000000000E+00 -0.21926900572E+04  0.21926900572E+04  0.25500000920E-02 0. -1.
    10030    2    1    2    0    0  0.00000000000E+00  0.00000000000E+00 -0.71068365119E+03  0.36746964631E+04  0.36053186883E+04 0.  0.
        5    1    3    3  502    0 -0.24740449949E+03 -0.88110094332E+03  0.12276090312E+04  0.15312066752E+04  0.46999998093E+01 0.  1.
       -5    1    3    3    0  502  0.24740449949E+03  0.88110094332E+03 -0.19382926824E+04  0.21434897880E+04  0.46999998093E+01 0. -1.
</event>
<event>
 5   0  0.2086250E-07  0.3574792E+04  0.7818609E-02  0.8096290E-01
       -1   -1    0    0    0  501  0.00000000000E+00  0.00000000000E+00  0.21266876682E+04  0.21266876682E+04  0.50400001928E-02 0. -1.
        1   -1    0    0  501    0  0.00000000000E+00  0.00000000000E+00 -0.15022347013E+04  0.15022347013E+04  0.50400001928E-02 0.  1.
    10030    2    1    2    0    0  0.00000000000E+00  0.00000000000E+00  0.62445296688E+03  0.36289223695E+04  0.35747917500E+04 0.  0.
        3    1    3    3  502    0  0.48778791018E+03 -0.15608408569E+04  0.10446942428E+04  0.19405018158E+04  0.10100000352E+00 0. -1.
       -3    1    3    3    0  502 -0.48778791018E+03  0.15608408569E+04 -0.42024127594E+03  0.16884205537E+04  0.10100000352E+00 0.  1.
</event>
<event>
 5   0  0.6324216E-07  0.3545908E+04  0.7818609E-02  0.8102996E-01
       -2   -1    0    0    0  501  0.00000000000E+00  0.00000000000E+00  0.16060394156E+04  0.16060394156E+04  0.25500000920E-02 0.  1.
        2   -1    0    0  501    0  0.00000000000E+00  0.00000000000E+00 -0.19572156104E+04  0.19572156104E+04  0.25500000920E-02 0. -1.
    10030    2    1    2    0    0  0.00000000000E+00  0.00000000000E+00 -0.35117619482E+03  0.35632550260E+04  0.35459077343E+04 0.  0.
        2    1    3    3  502    0  0.67544144540E+03 -0.14579327535E+04 -0.92863821791E+03  0.18558442822E+04  0.25500000920E-02 0. -1.
       -2    1    3    3    0  502 -0.67544144540E+03  0.14579327535E+04  0.57746202309E+03  0.17074107438E+04  0.25500000920E-02 0.  1.
</event>
<event>
 5   0  0.6324216E-07  0.3604021E+04  0.7818609E-02  0.8089571E-01
        2   -1    0    0  501    0  0.00000000000E+00  0.00000000000E+00  0.18607294232E+04  0.18607294232E+04  0.25500000920E-02 0.  1.
       -2   -1    0    0    0  501  0.00000000000E+00  0.00000000000E+00 -0.17451445104E+04  0.17451445104E+04  0.25500000920E-02 0. -1.
    10030    2    1    2    0    0  0.00000000000E+00  0.00000000000E+00  0.11558491284E+03  0.36058739336E+04  0.36040209423E+04 0.  0.
        2    1    3    3  502    0  0.55823052336E+02 -0.39906202511E+03  0.18150767220E+04  0.18592660433E+04  0.25500000920E-02 0.  1.
       -2    1    3    3    0  502 -0.55823052336E+02  0.39906202511E+03 -0.16994918091E+04  0.17466078903E+04  0.25500000920E-02 0. -1.
</event>
<event>
 5   0  0.2193129E-07  0.3584061E+04  0.7818609E-02  0.8094152E-01
       -1   -1    0    0    0  501  0.00000000000E+00  0.00000000000E+00  0.14880708715E+04  0.14880708715E+04  0.50400001928E-02 0.  1.
        1   -1    0    0  501    0  0.00000000000E+00  0.00000000000E+00 -0.21580783495E+04  0.21580783496E+04  0.50400001928E-02 0. -1.
    10030    2    1    2    0    0  0.00000000000E+00  0.00000000000E+00 -0.67000747802E+03  0.36461492211E+04  0.35840611214E+04 0.  0.
        1    1    3    3  502    0  0.55453362516E+03  0.16196312659E+04  0.20394780215E+03  0.17240381913E+04  0.50400001928E-02 0. -1.
       -1    1    3    3    0  502 -0.55453362516E+03 -0.16196312659E+04 -0.87395528017E+03  0.19221110298E+04  0.50400001928E-02 0.  1.
</event>
<event>
 5   0  0.6729577E-07  0.3600117E+04  0.7818609E-02  0.8090465E-01
       -2   -1    0    0    0  501  0.00000000000E+00  0.00000000000E+00  0.18590257927E+04  0.18590257927E+04  0.25500000920E-02 0. -1.
        2   -1    0    0  501    0  0.00000000000E+00  0.00000000000E+00 -0.17429617414E+04  0.17429617414E+04  0.25500000920E-02 0.  1.
    10030    2    1    2    0    0  0.00000000000E+00  0.00000000000E+00  0.11606405121E+03  0.36019875341E+04  0.36001171275E+04 0.  0.
        3    1    3    3  502    0 -0.16247080401E+04  0.68451435311E+03  0.42150399915E+03  0.18127056426E+04  0.10100000352E+00 0.  1.
       -3    1    3    3    0  502  0.16247080401E+04 -0.68451435311E+03 -0.30543994793E+03  0.17892818915E+04  0.10100000352E+00 0. -1.
</event>
<event>
 5   0  0.6324216E-07  0.3594313E+04  0.7818609E-02  0.8091796E-01
        2   -1    0    0  501    0  0.00000000000E+00  0.00000000000E+00  0.30072931293E+04  0.30072931293E+04  0.25500000920E-02 0. -1.
       -2   -1    0    0    0  501  0.00000000000E+00  0.00000000000E+00 -0.10739795126E+04  0.10739795126E+04  0.25500000920E-02 0.  1.
    10030    2    1    2    0    0  0.00000000000E+00  0.00000000000E+00  0.19333136167E+04  0.40812726420E+04  0.35943128463E+04 0.  0.
        2    1    3    3  502    0  0.83222431968E+03 -0.15353474543E+04  0.14482426273E+04  0.22687652658E+04  0.25500000920E-02 0.  1.
       -2    1    3    3    0  502 -0.83222431968E+03  0.15353474543E+04  0.48507098947E+03  0.18125073762E+04  0.25500000920E-02 0. -1.
</event>
<event>
 5   0  0.2086250E-07  0.3605739E+04  0.7818609E-02  0.8089178E-01
        1   -1    0    0  501    0  0.00000000000E+00  0.00000000000E+00  0.24436590109E+04  0.24436590110E+04  0.50400001928E-02 0.  1.
       -1   -1    0    0    0  501  0.00000000000E+00  0.00000000000E+00 -0.13301111921E+04  0.13301111921E+04  0.50400001928E-02 0. -1.
    10030    2    1    2    0    0  0.00000000000E+00  0.00000000000E+00  0.11135478188E+04  0.37737702031E+04  0.36057388703E+04 0.  0.
        3    1    3    3  502    0 -0.50345298858E+03 -0.46766609032E+03 -0.11876817691E+04  0.13721386513E+04  0.10100000352E+00 0. -1.
       -3    1    3    3    0  502  0.50345298858E+03  0.46766609032E+03  0.23012295879E+04  0.24016315517E+04  0.10100000352E+00 0.  1.
</event>
<event>
 5   0  0.2108068E-07  0.2937061E+04  0.7818609E-02  0.8261935E-01
       -1   -1    0    0    0  501  0.00000000000E+00  0.00000000000E+00  0.13385951385E+04  0.13385951385E+04  0.50400001928E-02 0.  1.
        1   -1    0    0  501    0  0.00000000000E+00  0.00000000000E+00 -0.16110789413E+04  0.16110789413E+04  0.50400001928E-02 0. -1.
    10030    2    1    2    0    0  0.00000000000E+00  0.00000000000E+00 -0.27248380289E+03  0.29496740798E+04  0.29370614148E+04 0.  0.
        5    1    3    3  502    0  0.14006493385E+04  0.36915448118E+03 -0.37907924498E+03  0.14972697701E+04  0.46999998093E+01 0. -1.
       -5    1    3    3    0  502 -0.14006493385E+04 -0.36915448118E+03  0.10659544209E+03  0.14524043097E+04  0.46999998093E+01 0.  1.
</event>
<event>
 5   0  0.2086250E-07  0.3586606E+04  0.7818609E-02  0.8093567E-01
        1   -1    0    0  501    0  0.00000000000E+00  0.00000000000E+00  0.14438807005E+04  0.14438807005E+04  0.50400001928E-02 0. -1.
       -1   -1    0    0    0  501  0.00000000000E+00  0.00000000000E+00 -0.22272858024E+04  0.22272858024E+04  0.50400001928E-02 0.  1.
    10030    2    1    2    0    0  0.00000000000E+00  0.00000000000E+00 -0.78340510197E+03  0.36711665029E+04  0.35866056290E+04 0.  0.
        4    1    3    3  502    0 -0.19406574326E+03 -0.85804382026E+03 -0.19912465484E+04  0.21769164292E+04  0.12699999809E+01 0.  1.
       -4    1    3    3    0  502  0.19406574326E+03  0.85804382026E+03  0.12078414464E+04  0.14942500737E+04  0.12699999809E+01 0. -1.
</event>
<event>
 5   0  0.6729577E-07  0.3601969E+04  0.7818609E-02  0.8090041E-01
        2   -1    0    0  501    0  0.00000000000E+00  0.00000000000E+00  0.18981657525E+04  0.18981657525E+04  0.25500000920E-02 0.  1.
       -2   -1    0    0    0  501  0.00000000000E+00  0.00000000000E+00 -0.17087785364E+04  0.17087785364E+04  0.25500000920E-02 0. -1.
    10030    2    1    2    0    0  0.00000000000E+00  0.00000000000E+00  0.18938721602E+03  0.36069442889E+04  0.36019688485E+04 0.  0.
        3    1    3    3  502    0 -0.26758527143E+03  0.12961826686E+04  0.13177953099E+04  0.18676926612E+04  0.10100000352E+00 0.  1.
       -3    1    3    3    0  502  0.26758527143E+03 -0.12961826686E+04 -0.11284080939E+04  0.17392516277E+04  0.10100000352E+00 0. -1.
</event>
<event>
 5   0  0.6324216E-07  0.3600774E+04  0.7818609E-02  0.8090314E-01
        2   -1    0    0  501    0  0.00000000000E+00  0.00000000000E+00  0.30598263998E+04  0.30598263998E+04  0.25500000920E-02 0. -1.
       -2   -1    0    0    0  501  0.00000000000E+00  0.00000000000E+00 -0.10593391808E+04  0.10593391808E+04  0.25500000920E-02 0.  1.
    10030    2    1    2    0    0  0.00000000000E+00  0.00000000000E+00  0.20004872190E+04  0.41191655806E+04  0.36007743566E+04 0.  0.
        2    1    3    3  502    0 -0.14050985211E+04 -0.10520921798E+04  0.54237938220E+03  0.18372194216E+04  0.25500000920E-02 0.  1.
       -2    1    3    3    0  502  0.14050985211E+04  0.10520921798E+04  0.14581078368E+04  0.22819461590E+04  0.25500000920E-02 0. -1.
</event>
<event>
 5   0  0.6541476E-07  0.3577406E+04  0.7818609E-02  0.8095687E-01
       -2   -1    0    0    0  501  0.00000000000E+00  0.00000000000E+00  0.11441872267E+04  0.11441872267E+04  0.25500000920E-02 0. -1.
        2   -1    0    0  501    0  0.00000000000E+00  0.00000000000E+00 -0.27962716854E+04  0.27962716854E+04  0.25500000920E-02 0.  1.
    10030    2    1    2    0    0  0.00000000000E+00  0.00000000000E+00 -0.16520844586E+04  0.39404589121E+04  0.35774059567E+04 0.  0.
        4    1    3    3  502    0 -0.14719078889E+04 -0.86546062753E+03 -0.23912352795E+03  0.17241567811E+04  0.12699999809E+01 0. -1.
       -4    1    3    3    0  502  0.14719078889E+04  0.86546062753E+03 -0.14129609307E+04  0.22163021310E+04  0.12699999809E+01 0.  1.
</event>
<event>
 5   0  0.2086250E-07  0.3563373E+04  0.7818609E-02  0.8098933E-01
       -1   -1    0    0    0  501  0.00000000000E+00  0.00000000000E+00  0.16543771124E+04  0.16543771124E+04  0.50400001928E-02 0. -1.
        1   -1    0    0  501    0  0.00000000000E+00  0.00000000000E+00 -0.19187930439E+04  0.19187930439E+04  0.50400001928E-02 0.  1.
    10030    2    1    2    0    0  0.00000000000E+00  0.00000000000E+00 -0.26441593145E+03  0.35731701563E+04  0.35633732868E+04 0.  0.
        2    1    3    3  502    0 -0.62537410860E+03 -0.15677983504E+04  0.43973097095E+03  0.17442613824E+04  0.25500000920E-02 0. -1.
       -2    1    3    3    0  502  0.62537410860E+03  0.15677983504E+04 -0.70414690240E+03  0.18289087739E+04  0.25500000920E-02 0.  1.
</event>
<event>
 5   0  0.6848661E-07  0.3596766E+04  0.7818609E-02  0.8091233E-01
       -2   -1    0    0    0  501  0.00000000000E+00  0.00000000000E+00  0.22538977411E+04  0.22538977411E+04  0.25500000920E-02 0.  1.
        2   -1    0    0  501    0  0.00000000000E+00  0.00000000000E+00 -0.14349285808E+04  0.14349285808E+04  0.25500000920E-02 0. -1.
    10030    2    1    2    0    0  0.00000000000E+00  0.00000000000E+00  0.81896916029E+03  0.36888263219E+04  0.35967664850E+04 0.  0.
        1    1    3    3  502    0  0.61553740040E+03  0.12858858726E+04 -0.71483789971E+03  0.15947984172E+04  0.50400001928E-02 0. -1.
       -1    1    3    3    0  502 -0.61553740040E+03 -0.12858858726E+04  0.15338070600E+04  0.20940279048E+04  0.50400001928E-02 0.  1.
</event>
<event>
 5   0  0.6324216E-07  0.3579274E+04  0.7818609E-02  0.8095256E-01
       -2   -1    0    0    0  501  0.00000000000E+00  0.00000000000E+00  0.14493341131E+04  0.14493341131E+04  0.25500000920E-02 0. -1.
        2   -1    0    0  501    0  0.00000000000E+00  0.00000000000E+00 -0.22098424235E+04  0.22098424235E+04  0.25500000920E-02 0.  1.
    10030    2    1    2    0    0  0.00000000000E+00  0.00000000000E+00 -0.76050831045E+03  0.36591765366E+04  0.35792736743E+04 0.  0.
        2    1    3    3  502    0 -0.65031633005E+03  0.87359747632E+03  0.10715593838E+04  0.15278492703E+04  0.25500000920E-02 0. -1.
       -2    1    3    3    0  502  0.65031633005E+03 -0.87359747632E+03 -0.18320676942E+04  0.21313272663E+04  0.25500000920E-02 0.  1.
</event>
<event>
 5   0  0.2193129E-07  0.3592171E+04  0.7818609E-02  0.8092287E-01
       -1   -1    0    0    0  501  0.00000000000E+00  0.00000000000E+00  0.27383243391E+04  0.27383243391E+04  0.50400001928E-02 0. -1.
        1   -1    0    0  501    0  0.00000000000E+00  0.00000000000E+00 -0.11780644730E+04  0.11780644730E+04  0.50400001928E-02 0.  1.
    10030    2    1    2    0    0  0.00000000000E+00  0.00000000000E+00  0.15602598661E+04  0.39163888121E+04  0.35921707195E+04 0.  0.
        1    1    3    3  502    0 -0.15018467591E+04 -0.37978363008E+03 -0.21083099682E+03  0.15634030199E+04  0.50400001928E-02 0.  1.
       -1    1    3    3    0  502  0.15018467591E+04  0.37978363008E+03  0.17710908629E+04  0.23529857922E+04  0.50400001928E-02 0. -1.
</event>
<event>
 5   0  0.2108068E-07  0.3620104E+04  0.7818609E-02  0.8085902E-01
        1   -1    0    0  501    0  0.00000000000E+00  0.00000000000E+00  0.18698417382E+04  0.18698417382E+04  0.50400001928E-02 0.  1.
       -1   -1    0    0    0  501  0.00000000000E+00  0.00000000000E+00 -0.17521738868E+04  0.17521738868E+04  0.50400001928E-02 0. -1.
    10030    2    1    2    0    0  0.00000000000E+00  0.00000000000E+00  0.11766785140E+03  0.36220156250E+04  0.36201037920E+04 0.  0.
        5    1    3    3  502    0 -0.11965860487E+04 -0.12729506255E+04 -0.41474923939E+03  0.17956225908E+04  0.46999998093E+01 0. -1.
       -5    1    3    3    0  502  0.11965860487E+04  0.12729506255E+04  0.53241709079E+03  0.18263930342E+04  0.46999998093E+01 0.  1.
</event>
<event>
 5   0  0.2086250E-07  0.3573409E+04  0.7818609E-02  0.8096610E-01
       -1   -1    0    0    0  501  0.00000000000E+00  0.00000000000E+00  0.14141745994E+04  0.14141745994E+04  0.50400001928E-02 0.  1.
        1   -1    0    0  501    0  0.00000000000E+00  0.00000000000E+00 -0.22573683206E+04  0.22573683206E+04  0.50400001928E-02 0. -1.
    10030    2    1    2    0    0  0.00000000000E+00  0.00000000000E+00 -0.84319372120E+03  0.36715429200E+04  0.35734089833E+04 0.  0.
        4    1    3    3  502    0  0.10795247213E+04  0.31829124407E+03 -0.18473755672E+04  0.21632108171E+04  0.12699999809E+01 0. -1.
       -4    1    3    3    0  502 -0.10795247213E+04 -0.31829124407E+03  0.10041818460E+04  0.15083321029E+04  0.12699999809E+01 0.  1.
</event>
<event>
 5   0  0.2086250E-07  0.3589256E+04  0.7818609E-02  0.8092957E-01
       -1   -1    0    0    0  501  0.00000000000E+00  0.00000000000E+00  0.12662074010E+04  0.12662074010E+04  0.50400001928E-02 0. -1.
        1   -1    0    0  501    0  0.00000000000E+00  0.00000000000E+00 -0.25435726732E+04  0.25435726732E+04  0.50400001928E-02 0.  1.
    10030    2    1    2    0    0  0.00000000000E+00  0.00000000000E+00 -0.12773652722E+04  0.38097800742E+04  0.35892564934E+04 0.  0.
        3    1    3    3  502    0  0.23575357239E+03  0.17490710745E+04 -0.29332923127E+03  0.17890979343E+04  0.10100000352E+00 0. -1.
       -3    1    3    3    0  502 -0.23575357239E+03 -0.17490710745E+04 -0.98403604089E+03  0.20206821399E+04  0.10100000352E+00 0.  1.
</event>
<event>
 5   0  0.6729577E-07  0.3618397E+04  0.7818609E-02  0.8086291E-01
        2   -1    0    0  501    0  0.00000000000E+00  0.00000000000E+00  0.20289884607E+04  0.20289884607E+04  0.25500000920E-02 0. -1.
       -2   -1    0    0    0  501  0.00000000000E+00  0.00000000000E+00 -0.16132168180E+04  0.16132168180E+04  0.25500000920E-02 0.  1.
    10030    2    1    2    0    0  0.00000000000E+00  0.00000000000E+00  0.41577164266E+03  0.36422052788E+04  0.36183965004E+04 0.  0.
        3    1    3    3  502    0 -0.13020242581E+04 -0.12419143875E+04  0.39775300890E+03  0.18427767040E+04  0.10100000352E+00 0. -1.
       -3    1    3    3    0  502  0.13020242581E+04  0.12419143875E+04  0.18018633756E+02  0.17994285748E+04  0.10100000352E+00 0.  1.
</event>
<event>
 5   0  0.2086250E-07  0.3636211E+04  0.7818609E-02  0.8082247E-01
        1   -1    0    0  501    0  0.00000000000E+00  0.00000000000E+00  0.21393628717E+04  0.21393628717E+04  0.50400001928E-02 0. -1.
       -1   -1    0    0    0  501  0.00000000000E+00  0.00000000000E+00 -0.15450897889E+04  0.15450897889E+04  0.50400001928E-02 0.  1.
    10030    2    1    2    0    0  0.00000000000E+00  0.00000000000E+00  0.59427308280E+03  0.36844526606E+04  0.36362110653E+04 0.  0.
        4    1    3    3  502    0 -0.35320989578E+03  0.17561049727E+03 -0.15012082369E+04  0.15521675363E+04  0.12699999809E+01 0.  1.
       -4    1    3    3    0  502  0.35320989578E+03 -0.17561049727E+03  0.20954813197E+04  0.21322851243E+04  0.12699999809E+01 0. -1.
</event>
<event>
 5   0  0.6848661E-07  0.3352217E+04  0.7818609E-02  0.8149734E-01
        2   -1    0    0  501    0  0.00000000000E+00  0.00000000000E+00  0.24521926081E+04  0.24521926081E+04  0.25500000920E-02 0.  1.
       -2   -1    0    0    0  501  0.00000000000E+00  0.00000000000E+00 -0.11456441390E+04  0.11456441390E+04  0.25500000920E-02 0. -1.
    10030    2    1    2    0    0  0.00000000000E+00  0.00000000000E+00  0.13065484690E+04  0.35978367471E+04  0.33522172300E+04 0.  0.
        1    1    3    3  502    0  0.40234594811E+03  0.85409771678E+03 -0.83310887273E+03  0.12591408045E+04  0.50400001928E-02 0. -1.
       -1    1    3    3    0  502 -0.40234594811E+03 -0.85409771678E+03  0.21396573417E+04  0.23386959426E+04  0.50400001928E-02 0.  1.
</event>
<event>
 5   0  0.2086250E-07  0.3602148E+04  0.7818609E-02  0.8090000E-01
        1   -1    0    0  501    0  0.00000000000E+00  0.00000000000E+00  0.18374542135E+04  0.18374542135E+04  0.50400001928E-02 0.  1.
       -1   -1    0    0    0  501  0.00000000000E+00  0.00000000000E+00 -0.17654144451E+04  0.17654144451E+04  0.50400001928E-02 0. -1.
    10030    2    1    2    0    0  0.00000000000E+00  0.00000000000E+00  0.72039768454E+02  0.36028686586E+04  0.36021483650E+04 0.  0.
        2    1    3    3  502    0  0.13379302272E+04  0.11619126681E+04 -0.28617784046E+03  0.17949919492E+04  0.25500000920E-02 0. -1.
       -2    1    3    3    0  502 -0.13379302272E+04 -0.11619126681E+04  0.35821760892E+03  0.18078767095E+04  0.25500000920E-02 0.  1.
</event>
<event>
 5   0  0.2086250E-07  0.3617632E+04  0.7818609E-02  0.8086465E-01
       -1   -1    0    0    0  501  0.00000000000E+00  0.00000000000E+00  0.18426153021E+04  0.18426153021E+04  0.50400001928E-02 0.  1.
        1   -1    0    0  501    0  0.00000000000E+00  0.00000000000E+00 -0.17756371162E+04  0.17756371162E+04  0.50400001928E-02 0. -1.
    10030    2    1    2    0    0  0.00000000000E+00  0.00000000000E+00  0.66978185938E+02  0.36182524183E+04  0.36176324419E+04 0.  0.
        3    1    3    3  502    0 -0.91379922620E+03 -0.16831593493E+03  0.15856754242E+04  0.18378590372E+04  0.10100000352E+00 0.  1.
       -3    1    3    3    0  502  0.91379922620E+03  0.16831593493E+03 -0.15186972382E+04  0.17803933811E+04  0.10100000352E+00 0. -1.
</event>
<event>
 5   0  0.6541476E-07  0.3612975E+04  0.7818609E-02  0.8087526E-01
       -2   -1    0    0    0  501  0.00000000000E+00  0.00000000000E+00  0.16443315140E+04  0.16443315140E+04  0.25500000920E-02 0.  1.
        2   -1    0    0  501    0  0.00000000000E+00  0.00000000000E+00 -0.19846350357E+04  0.19846350357E+04  0.25500000920E-02 0. -1.
    10030    2    1    2    0    0  0.00000000000E+00  0.00000000000E+00 -0.34030352176E+03  0.36289665497E+04  0.36129754679E+04 0.  0.
        4    1    3    3  502    0 -0.33787230955E+03  0.10831325550E+04  0.12417948966E+04  0.16820790729E+04  0.12699999809E+01 0.  1.
       -4    1    3    3    0  502  0.33787230955E+03 -0.10831325550E+04 -0.15820984183E+04  0.19468874768E+04  0.12699999809E+01 0. -1.
</event>
<event>
 5   0  0.2086250E-07  0.3474131E+04  0.7818609E-02  0.8119948E-01
        1   -1    0    0  501    0  0.00000000000E+00  0.00000000000E+00  0.17159050193E+04  0.17159050193E+04  0.50400001928E-02 0.  1.
       -1   -1    0    0    0  501  0.00000000000E+00  0.00000000000E+00 -0.17584868569E+04  0.17584868569E+04  0.50400001928E-02 0. -1.
    10030    2    1    2    0    0  0.00000000000E+00  0.00000000000E+00 -0.42581837605E+02  0.34743918762E+04  0.34741309268E+04 0.  0.
        4    1    3    3  502    0 -0.51230411638E+03 -0.11445881824E+04  0.11808214957E+04  0.17224629553E+04  0.12699999809E+01 0.  1.
       -4    1    3    3    0  502  0.51230411638E+03  0.11445881824E+04 -0.12234033333E+04  0.17519289208E+04  0.12699999809E+01 0. -1.
</event>
<event>
 5   0  0.6324216E-07  0.3608918E+04  0.7818609E-02  0.8088452E-01
        2   -1    0    0  501    0  0.00000000000E+00  0.00000000000E+00  0.20817354268E+04  0.20817354268E+04  0.25500000920E-02 0. -1.
       -2   -1    0    0    0  501  0.00000000000E+00  0.00000000000E+00 -0.15641142008E+04  0.15641142008E+04  0.25500000920E-02 0.  1.
    10030    2    1    2    0    0  0.00000000000E+00  0.00000000000E+00  0.51762122597E+03  0.36458496275E+04  0.36089178119E+04 0.  0.
        2    1    3    3  502    0  0.55222209072E+03  0.29950275048E+03 -0.14500735543E+04  0.15803051755E+04  0.25500000920E-02 0.  1.
       -2    1    3    3    0  502 -0.55222209072E+03 -0.29950275048E+03  0.19676947802E+04  0.20655444520E+04  0.25500000920E-02 0. -1.
</event>
<event>
 5   0  0.2108068E-07  0.3613961E+04  0.7818609E-02  0.8087301E-01
        1   -1    0    0  501    0  0.00000000000E+00  0.00000000000E+00  0.16620851789E+04  0.16620851789E+04  0.50400001928E-02 0. -1.
       -1   -1    0    0    0  501  0.00000000000E+00  0.00000000000E+00 -0.19645069435E+04  0.19645069435E+04  0.50400001928E-02 0.  1.
    10030    2    1    2    0    0  0.00000000000E+00  0.00000000000E+00 -0.30242176458E+03  0.36265921224E+04  0.36139606388E+04 0.  0.
        5    1    3    3  502    0 -0.18792129157E+03  0.12857193867E+04 -0.14112936171E+04  0.19183744465E+04  0.46999998093E+01 0.  1.
       -5    1    3    3    0  502  0.18792129157E+03 -0.12857193867E+04  0.11088718525E+04  0.17082176760E+04  0.46999998093E+01 0. -1.
</event>
<event>
 5   0  0.6729577E-07  0.3589653E+04  0.7818609E-02  0.8092866E-01
        2   -1    0    0  501    0  0.00000000000E+00  0.00000000000E+00  0.30164870012E+04  0.30164870012E+04  0.25500000920E-02 0.  1.
       -2   -1    0    0    0  501  0.00000000000E+00  0.00000000000E+00 -0.10679314593E+04  0.10679314593E+04  0.25500000920E-02 0. -1.
    10030    2    1    2    0    0  0.00000000000E+00  0.00000000000E+00  0.19485555419E+04  0.40844184605E+04  0.35896525542E+04 0.  0.
        3    1    3    3  502    0 -0.12008418166E+04 -0.93325396626E+03  0.20587552029E+04  0.25595814169E+04  0.10100000352E+00 0.  1.
       -3    1    3    3    0  502  0.12008418166E+04  0.93325396626E+03 -0.11019966091E+03  0.15248370436E+04  0.10100000352E+00 0. -1.
</event>
<event>
 5   0  0.2086250E-07  0.3479411E+04  0.7818609E-02  0.8118687E-01
       -1   -1    0    0    0  501  0.00000000000E+00  0.00000000000E+00  0.19902127120E+04  0.19902127120E+04  0.50400001928E-02 0. -1.
        1   -1    0    0  501    0  0.00000000000E+00  0.00000000000E+00 -0.15207295508E+04  0.15207295509E+04  0.50400001928E-02 0.  1.
    10030    2    1    2    0    0  0.00000000000E+00  0.00000000000E+00  0.46948316118E+03  0.35109422629E+04  0.34794110327E+04 0.  0.
        2    1    3    3  502    0 -0.11463783217E+04 -0.53611444945E+03  0.14392818359E+04  0.19165422413E+04  0.25500000920E-02 0. -1.
       -2    1    3    3    0  502  0.11463783217E+04  0.53611444945E+03 -0.96979867476E+03  0.15944000216E+04  0.25500000920E-02 0.  1.
</event>
<event>
 5   0  0.6324216E-07  0.3578103E+04  0.7818609E-02  0.8095526E-01
        2   -1    0    0  501    0  0.00000000000E+00  0.00000000000E+00  0.12944835593E+04  0.12944835593E+04  0.25500000920E-02 0. -1.
       -2   -1    0    0    0  501  0.00000000000E+00  0.00000000000E+00 -0.24725734354E+04  0.24725734354E+04  0.25500000920E-02 0.  1.
    10030    2    1    2    0    0  0.00000000000E+00  0.00000000000E+00 -0.11780898761E+04  0.37670569947E+04  0.35781032189E+04 0.  0.
        2    1    3    3  502    0 -0.67960164619E+03 -0.25103399612E+03 -0.23112248549E+04  0.24221141168E+04  0.25500000920E-02 0.  1.
       -2    1    3    3    0  502  0.67960164619E+03  0.25103399612E+03  0.11331349788E+04  0.13449428779E+04  0.25500000920E-02 0. -1.
</event>
<event>
 5   0  0.6848661E-07  0.3279627E+04  0.7818609E-02  0.8168099E-01
       -2   -1    0    0    0  501  0.00000000000E+00  0.00000000000E+00  0.12310270434E+04  0.12310270434E+04  0.25500000920E-02 0. -1.
        2   -1    0    0  501    0  0.00000000000E+00  0.00000000000E+00 -0.21843456245E+04  0.21843456245E+04  0.25500000920E-02 0.  1.
    10030    2    1    2    0    0  0.00000000000E+00  0.00000000000E+00 -0.95331858102E+03  0.34153726679E+04  0.32796271349E+04 0.  0.
        1    1    3    3  502    0 -0.11732487799E+04 -0.18705803365E+03 -0.16537001907E+04  0.20362288006E+04  0.50400001928E-02 0.  1.
       -1    1    3    3    0  502  0.11732487799E+04  0.18705803365E+03  0.70038160972E+03  0.13791438673E+04  0.50400001928E-02 0. -1.
</event>
<event>
 5   0  0.2086250E-07  0.3742332E+04  0.7818609E-02  0.8058645E-01
        1   -1    0    0  501    0  0.00000000000E+00  0.00000000000E+00  0.21688219144E+04  0.21688219144E+04  0.50400001928E-02 0.  1.
       -1   -1    0    0    0  501  0.00000000000E+00  0.00000000000E+00 -0.16143612186E+04  0.16143612186E+04  0.50400001928E-02 0. -1.
    10030    2    1    2    0    0  0.00000000000E+00  0.00000000000E+00  0.55446069573E+03  0.37831831330E+04  0.37423318873E+04 0.  0.
        3    1    3    3  502    0 -0.98099413060E+03  0.15897047384E+04  0.16764342302E+03  0.18755305828E+04  0.10100000352E+00 0.  1.
       -3    1    3    3    0  502  0.98099413060E+03 -0.15897047384E+04  0.38681727271E+03  0.19076525502E+04  0.10100000352E+00 0. -1.
</event>
<event>
 5   0  0.2086250E-07  0.3586373E+04  0.7818609E-02  0.8093620E-01
       -1   -1    0    0    0  501  0.00000000000E+00  0.00000000000E+00  0.18667843941E+04  0.18667843941E+04  0.50400001928E-02 0. -1.
        1   -1    0    0  501    0  0.00000000000E+00  0.00000000000E+00 -0.17224905894E+04  0.17224905894E+04  0.50400001928E-02 0.  1.
    10030    2    1    2    0    0  0.00000000000E+00  0.00000000000E+00  0.14429380470E+03  0.35892749835E+04  0.35863734057E+04 0.  0.
        4    1    3    3  502    0 -0.14772674153E+04 -0.10157398541E+04  0.33769158073E+02  0.17930946535E+04  0.12699999809E+01 0. -1.
       -4    1    3    3    0  502  0.14772674153E+04  0.10157398541E+04  0.11052464663E+03  0.17961803300E+04  0.12699999809E+01 0.  1.
</event>
<event>
 5   0  0.6324216E-07  0.3726607E+04  0.7818609E-02  0.8062091E-01
       -2   -1    0    0    0  501  0.00000000000E+00  0.00000000000E+00  0.20298245416E+04  0.20298245416E+04  0.25500000920E-02 0. -1.
        2   -1    0    0  501    0  0.00000000000E+00  0.00000000000E+00 -0.17104436195E+04  0.17104436195E+04  0.25500000920E-02 0.  1.
    10030    2    1    2    0    0  0.00000000000E+00  0.00000000000E+00  0.31938092206E+03  0.37402681611E+04  0.37266072699E+04 0.  0.
        2    1    3    3  502    0 -0.90841111419E+03 -0.58512351191E+02  0.17914627268E+04  0.20094708629E+04  0.25500000920E-02 0. -1.
       -2    1    3    3    0  502  0.90841111419E+03  0.58512351191E+02 -0.14720818047E+04  0.17307972982E+04  0.25500000920E-02 0.  1.
</event>
<event>
 5   0  0.6541476E-07  0.3615225E+04  0.7818609E-02  0.8087013E-01
        2   -1    0    0  501    0  0.00000000000E+00  0.00000000000E+00  0.21117693536E+04  0.21117693536E+04  0.25500000920E-02 0.  1.
       -2   -1    0    0    0  501  0.00000000000E+00  0.00000000000E+00 -0.15472628616E+04  0.15472628616E+04  0.25500000920E-02 0. -1.
    10030    2    1    2    0    0  0.00000000000E+00  0.00000000000E+00  0.56450649191E+03  0.36590322152E+04  0.36152246365E+04 0.  0.
        4    1    3    3  502    0  0.81799535929E+03 -0.16003871330E+04  0.87291726754E+02  0.17994379239E+04  0.12699999809E+01 0. -1.
       -4    1    3    3    0  502 -0.81799535929E+03  0.16003871330E+04  0.47721476516E+03  0.18595942913E+04  0.12699999809E+01 0.  1.
</event>
<event>
 5   0  0.6729577E-07  0.3530279E+04  0.7818609E-02  0.8106651E-01
        2   -1    0    0  501    0  0.00000000000E+00  0.00000000000E+00  0.20595613380E+04  0.20595613380E+04  0.25500000920E-02 0. -1.
       -2   -1    0    0    0  501  0.00000000000E+00  0.00000000000E+00 -0.15128063200E+04  0.15128063200E+04  0.25500000920E-02 0.  1.
    10030    2    1    2    0    0  0.00000000000E+00  0.00000000000E+00  0.54675501802E+03  0.35723676580E+04  0.35302789739E+04 0.  0.
        3    1    3    3  502    0  0.23645630284E+03  0.10975243736E+03 -0.14932196218E+04  0.15158040869E+04  0.10100000352E+00 0.  1.
       -3    1    3    3    0  502 -0.23645630284E+03 -0.10975243736E+03  0.20399746398E+04  0.20565635711E+04  0.10100000352E+00 0. -1.
</event>
<event>
 5   0  0.6669864E-07  0.3597208E+04  0.7818609E-02  0.8091131E-01
       -2   -1    0    0    0  501  0.00000000000E+00  0.00000000000E+00  0.11652025716E+04  0.11652025716E+04  0.25500000920E-02 0. -1.
        2   -1    0    0  501    0  0.00000000000E+00  0.00000000000E+00 -0.27763216964E+04  0.27763216964E+04  0.25500000920E-02 0.  1.
    10030    2    1    2    0    0  0.00000000000E+00  0.00000000000E+00 -0.16111191248E+04  0.39415242680E+04  0.35972084622E+04 0.  0.
        5    1    3    3  502    0 -0.11416996646E+04 -0.25766625099E+03 -0.23019603260E+04  0.25824239493E+04  0.46999998093E+01 0.  1.
       -5    1    3    3    0  502  0.11416996646E+04  0.25766625099E+03  0.69084120121E+03  0.13591003187E+04  0.46999998093E+01 0. -1.
</event>
<event>
 5   0  0.2086250E-07  0.3580811E+04  0.7818609E-02  0.8094901E-01
       -1   -1    0    0    0  501  0.00000000000E+00  0.00000000000E+00  0.13707448067E+04  0.13707448067E+04  0.50400001928E-02 0. -1.
        1   -1    0    0  501    0  0.00000000000E+00  0.00000000000E+00 -0.23385480576E+04  0.23385480576E+04  0.50400001928E-02 0.  1.
    10030    2    1    2    0    0  0.00000000000E+00  0.00000000000E+00 -0.96780325084E+03  0.37092928643E+04  0.35808114193E+04 0.  0.
        4    1    3    3  502    0 -0.14892669911E+04  0.99378369018E+03 -0.48946061209E+03  0.18560968448E+04  0.12699999809E+01 0. -1.
       -4    1    3    3    0  502  0.14892669911E+04 -0.99378369018E+03 -0.47834263875E+03  0.18531960195E+04  0.12699999809E+01 0.  1.
</event>
<event>
 5   0  0.2108068E-07  0.3588910E+04  0.7818609E-02  0.8093037E-01
       -1   -1    0    0    0  501  0.00000000000E+00  0.00000000000E+00  0.20085264517E+04  0.20085264517E+04  0.50400001928E-02 0.  1.
        1   -1    0    0  501    0  0.00000000000E+00  0.00000000000E+00 -0.16031996927E+04  0.16031996927E+04  0.50400001928E-02 0. -1.
    10030    2    1    2    0    0  0.00000000000E+00  0.00000000000E+00  0.40532675899E+03  0.36117261443E+04  0.35889101354E+04 0.  0.
        5    1    3    3  502    0 -0.12659957925E+04  0.99817627679E+03 -0.59034729228E+03  0.17168672755E+04  0.46999998093E+01 0. -1.
       -5    1    3    3    0  502  0.12659957925E+04 -0.99817627679E+03  0.99567405127E+03  0.18948588688E+04  0.46999998093E+01 0.  1.
</event>
<event>
 5   0  0.2193129E-07  0.3594709E+04  0.7818609E-02  0.8091705E-01
       -1   -1    0    0    0  501  0.00000000000E+00  0.00000000000E+00  0.27036713985E+04  0.27036713985E+04  0.50400001928E-02 0. -1.
        1   -1    0    0  501    0  0.00000000000E+00  0.00000000000E+00 -0.11948502691E+04  0.11948502691E+04  0.50400001928E-02 0.  1.
    10030    2    1    2    0    0  0.00000000000E+00  0.00000000000E+00  0.15088211294E+04  0.38985216676E+04  0.35947086102E+04 0.  0.
        1    1    3    3  502    0  0.35206339343E+03 -0.15151749190E+04  0.17309447713E+04  0.23272029283E+04  0.50400001928E-02 0.  1.
       -1    1    3    3    0  502 -0.35206339343E+03  0.15151749190E+04 -0.22212364192E+03  0.15713187393E+04  0.50400001928E-02 0. -1.
</event>
<event>
 5   0  0.6541476E-07  0.3509348E+04  0.7818609E-02  0.8111578E-01
       -2   -1    0    0    0  501  0.00000000000E+00  0.00000000000E+00  0.17555848751E+04  0.17555848751E+04  0.25500000920E-02 0. -1.
        2   -1    0    0  501    0  0.00000000000E+00  0.00000000000E+00 -0.17537636353E+04  0.17537636353E+04  0.25500000920E-02 0.  1.
    10030    2    1    2    0    0  0.00000000000E+00  0.00000000000E+00  0.18212397506E+01  0.35093485104E+04  0.35093480378E+04 0.  0.
        4    1    3    3  502    0  0.97024163439E+03 -0.10259835891E+04 -0.10406595591E+04  0.17541337135E+04  0.12699999809E+01 0. -1.
       -4    1    3    3    0  502 -0.97024163439E+03  0.10259835891E+04  0.10424807988E+04  0.17552147968E+04  0.12699999809E+01 0.  1.
</event>
<event>
 5   0  0.6541476E-07  0.3619126E+04  0.7818609E-02  0.8086125E-01
        2   -1    0    0  501    0  0.00000000000E+00  0.00000000000E+00  0.28112596486E+04  0.28112596486E+04  0.25500000920E-02 0.  1.
       -2   -1    0    0    0  501  0.00000000000E+00  0.00000000000E+00 -0.11647869631E+04  0.11647869631E+04  0.25500000920E-02 0. -1.
    10030    2    1    2    0    0  0.00000000000E+00  0.00000000000E+00  0.16464726855E+04  0.39760466117E+04  0.36191261865E+04 0.  0.
        4    1    3    3  502    0 -0.32750040097E+03 -0.17236002487E+04  0.13101901158E+04  0.21896698570E+04  0.12699999809E+01 0.  1.
       -4    1    3    3    0  502  0.32750040097E+03  0.17236002487E+04  0.33628256966E+03  0.17863767547E+04  0.12699999809E+01 0. -1.
</event>
<event>
 5   0  0.2086250E-07  0.3532782E+04  0.7818609E-02  0.8106065E-01
        3   -1    0    0  501    0  0.00000000000E+00  0.00000000000E+00  0.15371691531E+04  0.15371691565E+04  0.10100000352E+00 0.  1.
       -3   -1    0    0    0  501  0.00000000000E+00  0.00000000000E+00 -0.20297940325E+04  0.20297940350E+04  0.10100000352E+00 0. -1.
    10030    2    1    2    0    0  0.00000000000E+00  0.00000000000E+00 -0.49262487931E+03  0.35669631914E+04  0.35327817846E+04 0.  0.
        5    1    3    3  502    0  0.13791292555E+04  0.81925454468E+03 -0.99302134989E+03  0.18866078034E+04  0.46999998093E+01 0. -1.
       -5    1    3    3    0  502 -0.13791292555E+04 -0.81925454468E+03  0.50039647058E+03  0.16803553881E+04  0.46999998093E+01 0.  1.
</event>
<event>
 5   0  0.6324216E-07  0.3334408E+04  0.7818609E-02  0.8154195E-01
        2   -1    0    0  501    0  0.00000000000E+00  0.00000000000E+00  0.21070717315E+04  0.21070717315E+04  0.25500000920E-02 0. -1.
       -2   -1    0    0    0  501  0.00000000000E+00  0.00000000000E+00 -0.13191619685E+04  0.13191619685E+04  0.25500000920E-02 0.  1.
    10030    2    1    2    0    0  0.00000000000E+00  0.00000000000E+00  0.78790976304E+03  0.34262337000E+04  0.33344078294E+04 0.  0.
        2    1    3    3  502    0 -0.25474082808E+03 -0.17667614676E+03  0.20771945336E+04  0.21002010572E+04  0.25500000920E-02 0. -1.
       -2    1    3    3    0  502  0.25474082808E+03  0.17667614676E+03 -0.12892847705E+04  0.13260326428E+04  0.25500000920E-02 0.  1.
</event>
<event>
 5   0  0.2086250E-07  0.3608447E+04  0.7818609E-02  0.8088559E-01
        1   -1    0    0  501    0  0.00000000000E+00  0.00000000000E+00  0.13908185085E+04  0.13908185085E+04  0.50400001928E-02 0. -1.
       -1   -1    0    0    0  501  0.00000000000E+00  0.00000000000E+00 -0.23405088941E+04  0.23405088941E+04  0.50400001928E-02 0.  1.
    10030    2    1    2    0    0  0.00000000000E+00  0.00000000000E+00 -0.94969038557E+03  0.37313274026E+04  0.36084473609E+04 0.  0.
        2    1    3    3  502    0  0.17938484699E+03 -0.23601499055E+03  0.13654623270E+04  0.13972721158E+04  0.25500000920E-02 0. -1.
       -2    1    3    3    0  502 -0.17938484699E+03  0.23601499055E+03 -0.23151527126E+04  0.23340552868E+04  0.25500000920E-02 0.  1.
</event>
<event>
 5   0  0.2086250E-07  0.3584963E+04  0.7818609E-02  0.8093945E-01
        1   -1    0    0  501    0  0.00000000000E+00  0.00000000000E+00  0.18766221447E+04  0.18766221447E+04  0.50400001928E-02 0.  1.
       -1   -1    0    0    0  501  0.00000000000E+00  0.00000000000E+00 -0.17121137104E+04  0.17121137105E+04  0.50400001928E-02 0. -1.
    10030    2    1    2    0    0  0.00000000000E+00  0.00000000000E+00  0.16450843425E+03  0.35887358552E+04  0.35849633210E+04 0.  0.
        3    1    3    3  502    0 -0.48695590707E+03 -0.15397198928E+04 -0.69646353399E+03  0.17586713360E+04  0.10100000352E+00 0. -1.
       -3    1    3    3    0  502  0.48695590707E+03  0.15397198928E+04  0.86097196824E+03  0.18300645191E+04  0.10100000352E+00 0.  1.
</event>
<event>
 5   0  0.6669864E-07  0.3583259E+04  0.7818609E-02  0.8094337E-01
        2   -1    0    0  501    0  0.00000000000E+00  0.00000000000E+00  0.16345820815E+04  0.16345820815E+04  0.25500000920E-02 0. -1.
       -2   -1    0    0    0  501  0.00000000000E+00  0.00000000000E+00 -0.19637652612E+04  0.19637652612E+04  0.25500000920E-02 0.  1.
    10030    2    1    2    0    0  0.00000000000E+00  0.00000000000E+00 -0.32918317970E+03  0.35983473427E+04  0.35832585775E+04 0.  0.
        5    1    3    3  502    0  0.55155134268E+02 -0.17904051675E+04 -0.20108557872E+03  0.18025122060E+04  0.46999998093E+01 0.  1.
       -5    1    3    3    0  502 -0.55155134268E+02  0.17904051675E+04 -0.12809760098E+03  0.17958351367E+04  0.46999998093E+01 0. -1.
</event>
<event>
 5   0  0.6848661E-07  0.3568421E+04  0.7818609E-02  0.8097764E-01
       -2   -1    0    0    0  501  0.00000000000E+00  0.00000000000E+00  0.23249337865E+04  0.23249337865E+04  0.25500000920E-02 0.  1.
        2   -1    0    0  501    0  0.00000000000E+00  0.00000000000E+00 -0.13692460339E+04  0.13692460339E+04  0.25500000920E-02 0. -1.
    10030    2    1    2    0    0  0.00000000000E+00  0.00000000000E+00  0.95568775262E+03  0.36941798203E+04  0.35684205840E+04 0.  0.
        1    1    3    3  502    0  0.11349096097E+04 -0.13749294781E+04  0.40496786212E+03  0.18282368176E+04  0.50400001928E-02 0.  1.
       -1    1    3    3    0  502 -0.11349096097E+04  0.13749294781E+04  0.55071989050E+03  0.18659430028E+04  0.50400001928E-02 0. -1.
</event>
<event>
 5   0  0.2086250E-07  0.3613548E+04  0.7818609E-02  0.8087395E-01
        1   -1    0    0  501    0  0.00000000000E+00  0.00000000000E+00  0.27825764904E+04  0.27825764904E+04  0.50400001928E-02 0. -1.
       -1   -1    0    0    0  501  0.00000000000E+00  0.00000000000E+00 -0.11731690366E+04  0.11731690366E+04  0.50400001928E-02 0.  1.
    10030    2    1    2    0    0  0.00000000000E+00  0.00000000000E+00  0.16094074538E+04  0.39557455270E+04  0.36135481624E+04 0.  0.
        4    1    3    3  502    0  0.78567480224E+03  0.90875317942E+03 -0.67265812009E+03  0.13768034701E+04  0.12699999809E+01 0.  1.
       -4    1    3    3    0  502 -0.78567480224E+03 -0.90875317942E+03  0.22820655739E+04  0.25789420569E+04  0.12699999809E+01 0. -1.
</event>
<event>
 5   0  0.2086250E-07  0.3547798E+04  0.7818609E-02  0.8102555E-01
        1   -1    0    0  501    0  0.00000000000E+00  0.00000000000E+00  0.16165674873E+04  0.16165674873E+04  0.50400001928E-02 0. -1.
       -1   -1    0    0    0  501  0.00000000000E+00  0.00000000000E+00 -0.19465429804E+04  0.19465429804E+04  0.50400001928E-02 0.  1.
    10030    2    1    2    0    0  0.00000000000E+00  0.00000000000E+00 -0.32997549311E+03  0.35631104677E+04  0.35477982439E+04 0.  0.
        4    1    3    3  502    0 -0.16770631712E+04  0.34924466907E+03 -0.62763172384E+03  0.18244001515E+04  0.12699999809E+01 0.  1.
       -4    1    3    3    0  502  0.16770631712E+04 -0.34924466907E+03  0.29765623073E+03  0.17387103162E+04  0.12699999809E+01 0. -1.
</event>
<event>
 5   0  0.2108068E-07  0.3582535E+04  0.7818609E-02  0.8094504E-01
       -1   -1    0    0    0  501  0.00000000000E+00  0.00000000000E+00  0.28861082483E+04  0.28861082483E+04  0.50400001928E-02 0. -1.
        1   -1    0    0  501    0  0.00000000000E+00  0.00000000000E+00 -0.11117530035E+04  0.11117530035E+04  0.50400001928E-02 0.  1.
    10030    2    1    2    0    0  0.00000000000E+00  0.00000000000E+00  0.17743552448E+04  0.39978612518E+04  0.35825351435E+04 0.  0.
        5    1    3    3  502    0  0.99179490494E+03  0.86216128509E+02 -0.77459547248E+03  0.12613923221E+04  0.46999998093E+01 0.  1.
       -5    1    3    3    0  502 -0.99179490494E+03 -0.86216128509E+02  0.25489507173E+04  0.27364689297E+04  0.46999998093E+01 0. -1.
</event>
<event>
 5   0  0.6541476E-07  0.3580855E+04  0.7818609E-02  0.8094891E-01
       -2   -1    0    0    0  501  0.00000000000E+00  0.00000000000E+00  0.11386396318E+04  0.11386396318E+04  0.25500000920E-02 0.  1.
        2   -1    0    0  501    0  0.00000000000E+00  0.00000000000E+00 -0.28153156418E+04  0.28153156418E+04  0.25500000920E-02 0. -1.
    10030    2    1    2    0    0  0.00000000000E+00  0.00000000000E+00 -0.16766760100E+04  0.39539552736E+04  0.35808546275E+04 0.  0.
        4    1    3    3  502    0 -0.12153749988E+04  0.89652571762E+03 -0.19001640696E+04  0.24272453222E+04  0.12699999809E+01 0. -1.
       -4    1    3    3    0  502  0.12153749988E+04 -0.89652571762E+03  0.22348805962E+03  0.15267099514E+04  0.12699999809E+01 0.  1.
</event>
<event>
 5   0  0.2108068E-07  0.2986216E+04  0.7818609E-02  0.8247678E-01
        1   -1    0    0  501    0  0.00000000000E+00  0.00000000000E+00  0.18553449905E+04  0.18553449905E+04  0.50400001928E-02 0. -1.
       -1   -1    0    0    0  501  0.00000000000E+00  0.00000000000E+00 -0.12015942002E+04  0.12015942002E+04  0.50400001928E-02 0.  1.
    10030    2    1    2    0    0  0.00000000000E+00  0.00000000000E+00  0.65375079032E+03  0.30569391907E+04  0.29862161878E+04 0.  0.
        5    1    3    3  502    0  0.10244101421E+04  0.35375608084E+03  0.13782284830E+04  0.17533098258E+04  0.46999998093E+01 0. -1.
       -5    1    3    3    0  502 -0.10244101421E+04 -0.35375608084E+03 -0.72447769270E+03  0.13036293649E+04  0.46999998093E+01 0.  1.
</event>
<event>
 5   0  0.6729577E-07  0.3598112E+04  0.7818609E-02  0.8090924E-01
       -2   -1    0    0    0  501  0.00000000000E+00  0.00000000000E+00  0.18993978311E+04  0.18993978311E+04  0.25500000920E-02 0.  1.
        2   -1    0    0  501    0  0.00000000000E+00  0.00000000000E+00 -0.17040154422E+04  0.17040154422E+04  0.25500000920E-02 0. -1.
    10030    2    1    2    0    0  0.00000000000E+00  0.00000000000E+00  0.19538238892E+03  0.36034132733E+04  0.35981124136E+04 0.  0.
        3    1    3    3  502    0  0.23472947597E+03 -0.16990732341E+04  0.64131263916E+03  0.18311825942E+04  0.10100000352E+00 0.  1.
       -3    1    3    3    0  502 -0.23472947597E+03  0.16990732341E+04 -0.44593025024E+03  0.17722306792E+04  0.10100000352E+00 0. -1.
</event>
<event>
 5   0  0.6729577E-07  0.3596299E+04  0.7818609E-02  0.8091340E-01
       -2   -1    0    0    0  501  0.00000000000E+00  0.00000000000E+00  0.16435674806E+04  0.16435674806E+04  0.25500000920E-02 0. -1.
        2   -1    0    0  501    0  0.00000000000E+00  0.00000000000E+00 -0.19672701240E+04  0.19672701240E+04  0.25500000920E-02 0.  1.
    10030    2    1    2    0    0  0.00000000000E+00  0.00000000000E+00 -0.32370264342E+03  0.36108376046E+04  0.35962987648E+04 0.  0.
        3    1    3    3  502    0 -0.14821298214E+04 -0.33900718041E+03  0.80208539184E+03  0.17190042646E+04  0.10100000352E+00 0. -1.
       -3    1    3    3    0  502  0.14821298214E+04  0.33900718041E+03 -0.11257880353E+04  0.18918333400E+04  0.10100000352E+00 0.  1.
</event>
<event>
 5   0  0.2108068E-07  0.3587832E+04  0.7818609E-02  0.8093285E-01
        1   -1    0    0  501    0  0.00000000000E+00  0.00000000000E+00  0.15903061787E+04  0.15903061787E+04  0.50400001928E-02 0. -1.
       -1   -1    0    0    0  501  0.00000000000E+00  0.00000000000E+00 -0.20235941995E+04  0.20235941995E+04  0.50400001928E-02 0.  1.
    10030    2    1    2    0    0  0.00000000000E+00  0.00000000000E+00 -0.43328802077E+03  0.36139003782E+04  0.35878318570E+04 0.  0.
        5    1    3    3  502    0  0.17347467349E+04  0.24289492666E+03 -0.60645469490E+03  0.18536864802E+04  0.46999998093E+01 0.  1.
       -5    1    3    3    0  502 -0.17347467349E+04 -0.24289492666E+03  0.17316667413E+03  0.17602138980E+04  0.46999998093E+01 0. -1.
</event>
<event>
 5   0  0.6729577E-07  0.3918080E+04  0.7818609E-02  0.8021279E-01
        2   -1    0    0  501    0  0.00000000000E+00  0.00000000000E+00  0.15773355838E+04  0.15773355838E+04  0.25500000920E-02 0.  1.
       -2   -1    0    0    0  501  0.00000000000E+00  0.00000000000E+00 -0.24331147873E+04  0.24331147873E+04  0.25500000920E-02 0. -1.
    10030    2    1    2    0    0  0.00000000000E+00  0.00000000000E+00 -0.85577920347E+03  0.40104503711E+04  0.39180804145E+04 0.  0.
        3    1    3    3  502    0  0.41877850828E+03 -0.16562322181E+04  0.55354668917E+03  0.17957991387E+04  0.10100000352E+00 0.  1.
       -3    1    3    3    0  502 -0.41877850828E+03  0.16562322181E+04 -0.14093258926E+04  0.22146512324E+04  0.10100000352E+00 0. -1.
</event>
<event>
 5   0  0.6324216E-07  0.3636364E+04  0.7818609E-02  0.8082213E-01
        2   -1    0    0  501    0  0.00000000000E+00  0.00000000000E+00  0.20428060698E+04  0.20428060698E+04  0.25500000920E-02 0. -1.
       -2   -1    0    0    0  501  0.00000000000E+00  0.00000000000E+00 -0.16182572086E+04  0.16182572086E+04  0.25500000920E-02 0.  1.
    10030    2    1    2    0    0  0.00000000000E+00  0.00000000000E+00  0.42454886125E+03  0.36610632784E+04  0.36363639247E+04 0.  0.
        2    1    3    3  502    0 -0.11313343591E+04  0.12531934629E+04 -0.46712344108E+03  0.17517464419E+04  0.25500000920E-02 0.  1.
       -2    1    3    3    0  502  0.11313343591E+04 -0.12531934629E+04  0.89167230233E+03  0.19093168365E+04  0.25500000920E-02 0. -1.
</event>
<event>
 5   0  0.6848661E-07  0.3574172E+04  0.7818609E-02  0.8096434E-01
        2   -1    0    0  501    0  0.00000000000E+00  0.00000000000E+00  0.14130748625E+04  0.14130748625E+04  0.25500000920E-02 0.  1.
       -2   -1    0    0    0  501  0.00000000000E+00  0.00000000000E+00 -0.22600897642E+04  0.22600897642E+04  0.25500000920E-02 0. -1.
    10030    2    1    2    0    0  0.00000000000E+00  0.00000000000E+00 -0.84701490169E+03  0.36731646267E+04  0.35741718105E+04 0.  0.
        1    1    3    3  502    0 -0.15809577183E+04  0.63314188344E+03  0.13314007141E+03  0.17082219499E+04  0.50400001928E-02 0.  1.
       -1    1    3    3    0  502  0.15809577183E+04 -0.63314188344E+03 -0.98015497310E+03  0.19649426767E+04  0.50400001928E-02 0. -1.
</event>
<event>
 5   0  0.2086250E-07  0.3568911E+04  0.7818609E-02  0.8097650E-01
        1   -1    0    0  501    0  0.00000000000E+00  0.00000000000E+00  0.30420894188E+04  0.30420894188E+04  0.50400001928E-02 0. -1.
       -1   -1    0    0    0  501  0.00000000000E+00  0.00000000000E+00 -0.10467416086E+04  0.10467416086E+04  0.50400001928E-02 0.  1.
    10030    2    1    2    0    0  0.00000000000E+00  0.00000000000E+00  0.19953478101E+04  0.40888310274E+04  0.35689110786E+04 0.  0.
        3    1    3    3  502    0 -0.65940010732E+03 -0.73519929389E+02  0.28955194350E+04  0.29705633287E+04  0.10100000352E+00 0. -1.
       -3    1    3    3    0  502  0.65940010732E+03  0.73519929389E+02 -0.90017162483E+03  0.11182676987E+04  0.10100000352E+00 0.  1.
</event>
<event>
 5   0  0.6541476E-07  0.3676897E+04  0.7818609E-02  0.8073101E-01
        2   -1    0    0  501    0  0.00000000000E+00  0.00000000000E+00  0.14622568769E+04  0.14622568769E+04  0.25500000920E-02 0. -1.
       -2   -1    0    0    0  501  0.00000000000E+00  0.00000000000E+00 -0.23114223824E+04  0.23114223824E+04  0.25500000920E-02 0.  1.
    10030    2    1    2    0    0  0.00000000000E+00  0.00000000000E+00 -0.84916550550E+03  0.37736792593E+04  0.36768972105E+04 0.  0.
        4    1    3    3  502    0 -0.10648413249E+04 -0.12060388803E+04  0.48848299409E+03  0.16813786238E+04  0.12699999809E+01 0. -1.
       -4    1    3    3    0  502  0.10648413249E+04  0.12060388803E+04 -0.13376484996E+04  0.20923006355E+04  0.12699999809E+01 0.  1.
</event>
<event>
 5   0  0.6541476E-07  0.3574951E+04  0.7818609E-02  0.8096254E-01
       -2   -1    0    0    0  501  0.00000000000E+00  0.00000000000E+00  0.17429736848E+04  0.17429736848E+04  0.25500000920E-02 0. -1.
        2   -1    0    0  501    0  0.00000000000E+00  0.00000000000E+00 -0.18331136582E+04  0.18331136582E+04  0.25500000920E-02 0.  1.
    10030    2    1    2    0    0  0.00000000000E+00  0.00000000000E+00 -0.90139973364E+02  0.35760873430E+04  0.35749511144E+04 0.  0.
        4    1    3    3  502    0  0.10871884384E+03 -0.10631230223E+04 -0.14783606542E+04  0.18241716433E+04  0.12699999809E+01 0.  1.
       -4    1    3    3    0  502 -0.10871884384E+03  0.10631230223E+04  0.13882206808E+04  0.17519156997E+04  0.12699999809E+01 0. -1.
</event>
<event>
 5   0  0.6669864E-07  0.3146563E+04  0.7818609E-02  0.8203074E-01
       -2   -1    0    0    0  501  0.00000000000E+00  0.00000000000E+00  0.16068903633E+04  0.16068903633E+04  0.25500000920E-02 0.  1.
        2   -1    0    0  501    0  0.00000000000E+00  0.00000000000E+00 -0.15403752703E+04  0.15403752703E+04  0.25500000920E-02 0. -1.
    10030    2    1    2    0    0  0.00000000000E+00  0.00000000000E+00  0.66515093020E+02  0.31472656336E+04  0.31465626818E+04 0.  0.
        5    1    3    3  502    0  0.76395347313E+03 -0.41698815979E+03  0.13441563269E+04  0.16013376770E+04  0.46999998093E+01 0.  1.
       -5    1    3    3    0  502 -0.76395347313E+03  0.41698815979E+03 -0.12776412339E+04  0.15459279566E+04  0.46999998093E+01 0. -1.
</event>
<event>
 5   0  0.2086250E-07  0.3596232E+04  0.7818609E-02  0.8091355E-01
       -1   -1    0    0    0  501  0.00000000000E+00  0.00000000000E+00  0.14452973520E+04  0.14452973521E+04  0.50400001928E-02 0.  1.
        1   -1    0    0  501    0  0.00000000000E+00  0.00000000000E+00 -0.22370633317E+04  0.22370633317E+04  0.50400001928E-02 0. -1.
    10030    2    1    2    0    0  0.00000000000E+00  0.00000000000E+00 -0.79176597968E+03  0.36823606838E+04  0.35962323116E+04 0.  0.
        4    1    3    3  502    0  0.35103400651E+03 -0.16685224509E+04 -0.98054661101E+03  0.19668922980E+04  0.12699999809E+01 0. -1.
       -4    1    3    3    0  502 -0.35103400651E+03  0.16685224509E+04  0.18878063133E+03  0.17154683857E+04  0.12699999809E+01 0.  1.
</event>
<event>
 5   0  0.2086250E-07  0.3592978E+04  0.7818609E-02  0.8092102E-01
       -1   -1    0    0    0  501  0.00000000000E+00  0.00000000000E+00  0.27303541058E+04  0.27303541058E+04  0.50400001928E-02 0. -1.
        1   -1    0    0  501    0  0.00000000000E+00  0.00000000000E+00 -0.11820342367E+04  0.11820342367E+04  0.50400001928E-02 0.  1.
    10030    2    1    2    0    0  0.00000000000E+00  0.00000000000E+00  0.15483198692E+04  0.39123883425E+04  0.35929776127E+04 0.  0.
        2    1    3    3  502    0  0.95174046308E+03 -0.15161111582E+04  0.60913132967E+03  0.18908844306E+04  0.25500000920E-02 0. -1.
       -2    1    3    3    0  502 -0.95174046308E+03  0.15161111582E+04  0.93918853948E+03  0.20215039119E+04  0.25500000920E-02 0.  1.
</event>
<event>
 5   0  0.6729577E-07  0.3611489E+04  0.7818609E-02  0.8087865E-01
       -2   -1    0    0    0  501  0.00000000000E+00  0.00000000000E+00  0.12689395975E+04  0.12689395975E+04  0.25500000920E-02 0.  1.
        2   -1    0    0  501    0  0.00000000000E+00  0.00000000000E+00 -0.25696357821E+04  0.25696357821E+04  0.25500000920E-02 0. -1.
    10030    2    1    2    0    0  0.00000000000E+00  0.00000000000E+00 -0.13006961846E+04  0.38385753796E+04  0.36114886653E+04 0.  0.
        3    1    3    3  502    0 -0.78366777529E+03 -0.26758517707E+03 -0.23559213356E+04  0.24972189249E+04  0.10100000352E+00 0. -1.
       -3    1    3    3    0  502  0.78366777529E+03  0.26758517707E+03  0.10552251510E+04  0.13413564547E+04  0.10100000352E+00 0.  1.
</event>
<event>
 5   0  0.6541476E-07  0.3612998E+04  0.7818609E-02  0.8087521E-01
        2   -1    0    0  501    0  0.00000000000E+00  0.00000000000E+00  0.24784815418E+04  0.24784815418E+04  0.25500000920E-02 0.  1.
       -2   -1    0    0    0  501  0.00000000000E+00  0.00000000000E+00 -0.13167087869E+04  0.13167087869E+04  0.25500000920E-02 0. -1.
    10030    2    1    2    0    0  0.00000000000E+00  0.00000000000E+00  0.11617727549E+04  0.37951903287E+04  0.36129978822E+04 0.  0.
        4    1    3    3  502    0 -0.48790894088E+03  0.12368959104E+04  0.18654473788E+04  0.22908212859E+04  0.12699999809E+01 0.  1.
       -4    1    3    3    0  502  0.48790894088E+03 -0.12368959104E+04 -0.70367462393E+03  0.15043690428E+04  0.12699999809E+01 0. -1.
</event>
<event>
 5   0  0.6541476E-07  0.3627211E+04  0.7818609E-02  0.8084287E-01
        2   -1    0    0  501    0  0.00000000000E+00  0.00000000000E+00  0.22560653927E+04  0.22560653927E+04  0.25500000920E-02 0. -1.
       -2   -1    0    0    0  501  0.00000000000E+00  0.00000000000E+00 -0.14579205446E+04  0.14579205446E+04  0.25500000920E-02 0.  1.
    10030    2    1    2    0    0  0.00000000000E+00  0.00000000000E+00  0.79814484817E+03  0.37139859373E+04  0.36272105458E+04 0.  0.
        4    1    3    3  502    0 -0.19595484279E+03  0.17959676003E+04  0.23632156681E+03  0.18220174032E+04  0.12699999809E+01 0.  1.
       -4    1    3    3    0  502  0.19595484279E+03 -0.17959676003E+04  0.56182328136E+03  0.18919685341E+04  0.12699999809E+01 0. -1.
</event>
<event>
 5   0  0.2086250E-07  0.3614982E+04  0.7818609E-02  0.8087068E-01
       -1   -1    0    0    0  501  0.00000000000E+00  0.00000000000E+00  0.13479875351E+04  0.13479875351E+04  0.50400001928E-02 0.  1.
        1   -1    0    0  501    0  0.00000000000E+00  0.00000000000E+00 -0.24236306057E+04  0.24236306057E+04  0.50400001928E-02 0. -1.
    10030    2    1    2    0    0  0.00000000000E+00  0.00000000000E+00 -0.10756430706E+04  0.37716181408E+04  0.36149820725E+04 0.  0.
        3    1    3    3  502    0  0.43036229117E+03 -0.11966683858E+04 -0.18779203123E+04  0.22679972744E+04  0.10100000352E+00 0. -1.
       -3    1    3    3    0  502 -0.43036229117E+03  0.11966683858E+04  0.80227724171E+03  0.15036208664E+04  0.10100000352E+00 0.  1.
</event>
<event>
 5   0  0.2193129E-07  0.3607609E+04  0.7818609E-02  0.8088751E-01
        1   -1    0    0  501    0  0.00000000000E+00  0.00000000000E+00  0.17087580942E+04  0.17087580942E+04  0.50400001928E-02 0. -1.
       -1   -1    0    0    0  501  0.00000000000E+00  0.00000000000E+00 -0.19041375894E+04  0.19041375894E+04  0.50400001928E-02 0.  1.
    10030    2    1    2    0    0  0.00000000000E+00  0.00000000000E+00 -0.19537949517E+03  0.36128956836E+04  0.36076089136E+04 0.  0.
        1    1    3    3  502    0  0.19633754086E+03  0.36767071700E+03 -0.18552488675E+04  0.19014937672E+04  0.50400001928E-02 0.  1.
       -1    1    3    3    0  502 -0.19633754086E+03 -0.36767071700E+03  0.16598693724E+04  0.17114019164E+04  0.50400001928E-02 0. -1.
</event>
<event>
 5   0  0.2086250E-07  0.3673955E+04  0.7818609E-02  0.8073758E-01
       -1   -1    0    0    0  501  0.00000000000E+00  0.00000000000E+00  0.14551620477E+04  0.14551620477E+04  0.50400001928E-02 0.  1.
        1   -1    0    0  501    0  0.00000000000E+00  0.00000000000E+00 -0.23189765451E+04  0.23189765451E+04  0.50400001928E-02 0. -1.
    10030    2    1    2    0    0  0.00000000000E+00  0.00000000000E+00 -0.86381449743E+03  0.37741385928E+04  0.36739551755E+04 0.  0.
        4    1    3    3  502    0  0.10173937121E+04  0.14056933316E+04  0.18737581324E+03  0.17453294864E+04  0.12699999809E+01 0.  1.
       -4    1    3    3    0  502 -0.10173937121E+04 -0.14056933316E+04 -0.10511903107E+04  0.20288091063E+04  0.12699999809E+01 0. -1.
</event>
<event>
 5   0  0.6848661E-07  0.3548267E+04  0.7818609E-02  0.8102446E-01
       -2   -1    0    0    0  501  0.00000000000E+00  0.00000000000E+00  0.10459334238E+04  0.10459334238E+04  0.25500000920E-02 0.  1.
        2   -1    0    0  501    0  0.00000000000E+00  0.00000000000E+00 -0.30093219967E+04  0.30093219967E+04  0.25500000920E-02 0. -1.
    10030    2    1    2    0    0  0.00000000000E+00  0.00000000000E+00 -0.19633885729E+04  0.40552554204E+04  0.35482674415E+04 0.  0.
        1    1    3    3  502    0  0.68480370597E+02 -0.41507031964E+03 -0.29514951019E+04  0.29813245828E+04  0.50400001928E-02 0. -1.
       -1    1    3    3    0  502 -0.68480370597E+02  0.41507031964E+03  0.98810652899E+03  0.10739308377E+04  0.50400001928E-02 0.  1.
</event>
<event>
 5   0  0.6541476E-07  0.3603399E+04  0.7818609E-02  0.8089713E-01
       -2   -1    0    0    0  501  0.00000000000E+00  0.00000000000E+00  0.21269624030E+04  0.21269624030E+04  0.25500000920E-02 0. -1.
        2   -1    0    0  501    0  0.00000000000E+00  0.00000000000E+00 -0.15261774178E+04  0.15261774178E+04  0.25500000920E-02 0.  1.
    10030    2    1    2    0    0  0.00000000000E+00  0.00000000000E+00  0.60078498519E+03  0.36531398208E+04  0.36033994994E+04 0.  0.
        4    1    3    3  502    0  0.66690924084E+03  0.16129870854E+04 -0.15256918056E+03  0.17520771219E+04  0.12699999809E+01 0.  1.
       -4    1    3    3    0  502 -0.66690924084E+03 -0.16129870854E+04  0.75335416575E+03  0.19010626989E+04  0.12699999809E+01 0. -1.
</event>
<event>
 5   0  0.2108068E-07  0.3605248E+04  0.7818609E-02  0.8089291E-01
        1   -1    0    0  501    0  0.00000000000E+00  0.00000000000E+00  0.20804383324E+04  0.20804383324E+04  0.50400001928E-02 0.  1.
       -1   -1    0    0    0  501  0.00000000000E+00  0.00000000000E+00 -0.15619078882E+04  0.15619078882E+04  0.50400001928E-02 0. -1.
    10030    2    1    2    0    0  0.00000000000E+00  0.00000000000E+00  0.51853044423E+03  0.36423462206E+04  0.36052478651E+04 0.  0.
        5    1    3    3  502    0 -0.16907450776E+04  0.62489394297E+03  0.27732639624E+03  0.18237443290E+04  0.46999998093E+01 0.  1.
       -5    1    3    3    0  502  0.16907450776E+04 -0.62489394297E+03  0.24120404799E+03  0.18186018916E+04  0.46999998093E+01 0. -1.
</event>
<event>
 5   0  0.6848661E-07  0.3519301E+04  0.7818609E-02  0.8109231E-01
       -2   -1    0    0    0  501  0.00000000000E+00  0.00000000000E+00  0.18297857443E+04  0.18297857443E+04  0.25500000920E-02 0.  1.
        2   -1    0    0  501    0  0.00000000000E+00  0.00000000000E+00 -0.16922030661E+04  0.16922030661E+04  0.25500000920E-02 0. -1.
    10030    2    1    2    0    0  0.00000000000E+00  0.00000000000E+00  0.13758267817E+03  0.35219888104E+04  0.35193005253E+04 0.  0.
        1    1    3    3  502    0 -0.14274133235E+04 -0.60037329826E+03 -0.76755760244E+03  0.17283233397E+04  0.50400001928E-02 0. -1.
       -1    1    3    3    0  502  0.14274133235E+04  0.60037329826E+03  0.90514028061E+03  0.17936654707E+04  0.50400001928E-02 0.  1.
</event>
<event>
 5   0  0.2086250E-07  0.3614302E+04  0.7818609E-02  0.8087223E-01
        1   -1    0    0  501    0  0.00000000000E+00  0.00000000000E+00  0.16974193059E+04  0.16974193059E+04  0.50400001928E-02 0. -1.
       -1   -1    0    0    0  501  0.00000000000E+00  0.00000000000E+00 -0.19239767096E+04  0.19239767096E+04  0.50400001928E-02 0.  1.
    10030    2    1    2    0    0  0.00000000000E+00  0.00000000000E+00 -0.22655740370E+03  0.36213960154E+04  0.36143022623E+04 0.  0.
        3    1    3    3  502    0  0.69741374408E+03  0.91902541513E+03 -0.15069801904E+04  0.18978890770E+04  0.10100000352E+00 0.  1.
       -3    1    3    3    0  502 -0.69741374408E+03 -0.91902541513E+03  0.12804227867E+04  0.17235069385E+04  0.10100000352E+00 0. -1.
</event>
<event>
 5   0  0.2086250E-07  0.3655669E+04  0.7818609E-02  0.8077858E-01
        3   -1    0    0  501    0  0.00000000000E+00  0.00000000000E+00  0.29057731709E+04  0.29057731727E+04  0.10100000352E+00 0.  1.
       -3   -1    0    0    0  501  0.00000000000E+00  0.00000000000E+00 -0.11497730571E+04  0.11497730615E+04  0.10100000352E+00 0. -1.
    10030    2    1    2    0    0  0.00000000000E+00  0.00000000000E+00  0.17560001138E+04  0.40555462342E+04  0.36556694132E+04 0.  0.
        1    1    3    3  502    0  0.15354237822E+04  0.69602021927E+03  0.94323607980E+02  0.16884511481E+04  0.50400001928E-02 0. -1.
       -1    1    3    3    0  502 -0.15354237822E+04 -0.69602021927E+03  0.16616765058E+04  0.23670950861E+04  0.50400001928E-02 0.  1.
</event>
<event>
 5   0  0.2108068E-07  0.3593803E+04  0.7818609E-02  0.8091913E-01
       -1   -1    0    0    0  501  0.00000000000E+00  0.00000000000E+00  0.18847202626E+04  0.18847202626E+04  0.50400001928E-02 0. -1.
        1   -1    0    0  501    0  0.00000000000E+00  0.00000000000E+00 -0.17131747650E+04  0.17131747650E+04  0.50400001928E-02 0.  1.
    10030    2    1    2    0    0  0.00000000000E+00  0.00000000000E+00  0.17154549761E+03  0.35978950276E+04  0.35938031070E+04 0.  0.
        5    1    3    3  502    0  0.97604315532E+03 -0.97727286964E+03  0.12364772105E+04  0.18538124190E+04  0.46999998093E+01 0. -1.
       -5    1    3    3    0  502 -0.97604315532E+03  0.97727286964E+03 -0.10649317128E+04  0.17440826087E+04  0.46999998093E+01 0.  1.
</event>
<event>
 5   0  0.2086250E-07  0.3582440E+04  0.7818609E-02  0.8094526E-01
       -1   -1    0    0    0  501  0.00000000000E+00  0.00000000000E+00  0.17076970644E+04  0.17076970644E+04  0.50400001928E-02 0. -1.
        1   -1    0    0  501    0  0.00000000000E+00  0.00000000000E+00 -0.18788284512E+04  0.18788284513E+04  0.50400001928E-02 0.  1.
    10030    2    1    2    0    0  0.00000000000E+00  0.00000000000E+00 -0.17113138684E+03  0.35865255157E+04  0.35824404144E+04 0.  0.
        2    1    3    3  502    0  0.12662243560E+04  0.12626022121E+04 -0.19047719697E+03  0.17982686196E+04  0.25500000920E-02 0.  1.
       -2    1    3    3    0  502 -0.12662243560E+04 -0.12626022121E+04  0.19345810131E+02  0.17882568960E+04  0.25500000920E-02 0. -1.
</event>
<event>
 5   0  0.6669864E-07  0.3614300E+04  0.7818609E-02  0.8087224E-01
       -2   -1    0    0    0  501  0.00000000000E+00  0.00000000000E+00  0.18788936809E+04  0.18788936809E+04  0.25500000920E-02 0.  1.
        2   -1    0    0  501    0  0.00000000000E+00  0.00000000000E+00 -0.17381459180E+04  0.17381459180E+04  0.25500000920E-02 0. -1.
    10030    2    1    2    0    0  0.00000000000E+00  0.00000000000E+00  0.14074776297E+03  0.36170395989E+04  0.36143001435E+04 0.  0.
        5    1    3    3  502    0 -0.15774503949E+04 -0.44863015355E+03  0.82999500096E+03  0.18380784953E+04  0.46999998093E+01 0.  1.
       -5    1    3    3    0  502  0.15774503949E+04  0.44863015355E+03 -0.68924723799E+03  0.17789611036E+04  0.46999998093E+01 0. -1.
</event>
<event>
 5   0  0.6324216E-07  0.3637375E+04  0.7818609E-02  0.8081984E-01
        2   -1    0    0  501    0  0.00000000000E+00  0.00000000000E+00  0.21787810949E+04  0.21787810949E+04  0.25500000920E-02 0. -1.
       -2   -1    0    0    0  501  0.00000000000E+00  0.00000000000E+00 -0.15181072667E+04  0.15181072667E+04  0.25500000920E-02 0.  1.
    10030    2    1    2    0    0  0.00000000000E+00  0.00000000000E+00  0.66067382821E+03  0.36968883616E+04  0.36373745547E+04 0.  0.
        2    1    3    3  502    0  0.17435510769E+04  0.11997886085E+03  0.84181850557E+03  0.19398514585E+04  0.25500000920E-02 0. -1.
       -2    1    3    3    0  502 -0.17435510769E+04 -0.11997886085E+03 -0.18114467736E+03  0.17570369031E+04  0.25500000920E-02 0.  1.
</event>
<event>
 5   0  0.2193129E-07  0.3442860E+04  0.7818609E-02  0.8127466E-01
        1   -1    0    0  501    0  0.00000000000E+00  0.00000000000E+00  0.17873584301E+04  0.17873584301E+04  0.50400001928E-02 0. -1.
       -1   -1    0    0    0  501  0.00000000000E+00  0.00000000000E+00 -0.16579334101E+04  0.16579334101E+04  0.50400001928E-02 0.  1.
    10030    2    1    2    0    0  0.00000000000E+00  0.00000000000E+00  0.12942502005E+03  0.34452918402E+04  0.34428600071E+04 0.  0.
        1    1    3    3  502    0  0.17150997434E+04 -0.94966500728E+02  0.17764385454E+03  0.17268882723E+04  0.50400001928E-02 0. -1.
       -1    1    3    3    0  502 -0.17150997434E+04  0.94966500728E+02 -0.48218834489E+02  0.17184035679E+04  0.50400001928E-02 0.  1.
</event>
<event>
 5   0  0.6669864E-07  0.3550320E+04  0.7818609E-02  0.8101967E-01
        2   -1    0    0  501    0  0.00000000000E+00  0.00000000000E+00  0.19204440522E+04  0.19204440522E+04  0.25500000920E-02 0. -1.
       -2   -1    0    0    0  501  0.00000000000E+00  0.00000000000E+00 -0.16408670159E+04  0.16408670159E+04  0.25500000920E-02 0.  1.
    10030    2    1    2    0    0  0.00000000000E+00  0.00000000000E+00  0.27957703624E+03  0.35613110681E+04  0.35503201553E+04 0.  0.
        5    1    3    3  502    0  0.46699932825E+02  0.62174502940E+03 -0.15274107739E+04  0.16497737807E+04  0.46999998093E+01 0.  1.
       -5    1    3    3    0  502 -0.46699932825E+02 -0.62174502940E+03  0.18069878101E+04  0.19115372874E+04  0.46999998093E+01 0. -1.
</event>
<event>
 5   0  0.2108068E-07  0.3587551E+04  0.7818609E-02  0.8093349E-01
       -1   -1    0    0    0  501  0.00000000000E+00  0.00000000000E+00  0.11082774092E+04  0.11082774092E+04  0.50400001928E-02 0. -1.
        1   -1    0    0  501    0  0.00000000000E+00  0.00000000000E+00 -0.29032711532E+04  0.29032711532E+04  0.50400001928E-02 0.  1.
    10030    2    1    2    0    0  0.00000000000E+00  0.00000000000E+00 -0.17949937440E+04  0.40115485624E+04  0.35875506028E+04 0.  0.
        5    1    3    3  502    0 -0.10415653809E+04  0.82075896589E+03  0.45319767117E+03  0.14013971392E+04  0.46999998093E+01 0. -1.
       -5    1    3    3    0  502  0.10415653809E+04 -0.82075896589E+03 -0.22481914152E+04  0.26101514232E+04  0.46999998093E+01 0.  1.
</event>
<event>
 5   0  0.6729577E-07  0.3619518E+04  0.7818609E-02  0.8086035E-01
        2   -1    0    0  501    0  0.00000000000E+00  0.00000000000E+00  0.11060214398E+04  0.11060214398E+04  0.25500000920E-02 0.  1.
       -2   -1    0    0    0  501  0.00000000000E+00  0.00000000000E+00 -0.29612698732E+04  0.29612698732E+04  0.25500000920E-02 0. -1.
    10030    2    1    2    0    0  0.00000000000E+00  0.00000000000E+00 -0.18552484334E+04  0.40672913131E+04  0.36195181828E+04 0.  0.
        3    1    3    3  502    0 -0.60087481943E+03  0.87115274255E+03 -0.25773257937E+04  0.27861381708E+04  0.10100000352E+00 0. -1.
       -3    1    3    3    0  502  0.60087481943E+03 -0.87115274255E+03  0.72207736034E+03  0.12811531423E+04  0.10100000352E+00 0.  1.
</event>
<event>
 5   0  0.6669864E-07  0.3589957E+04  0.7818609E-02  0.8092796E-01
        2   -1    0    0  501    0  0.00000000000E+00  0.00000000000E+00  0.21989090989E+04  0.21989090989E+04  0.25500000920E-02 0.  1.
       -2   -1    0    0    0  501  0.00000000000E+00  0.00000000000E+00 -0.14652484310E+04  0.14652484310E+04  0.25500000920E-02 0. -1.
    10030    2    1    2    0    0  0.00000000000E+00  0.00000000000E+00  0.73366066782E+03  0.36641575299E+04  0.35899571625E+04 0.  0.
        5    1    3    3  502    0 -0.46255350475E+03  0.16423394597E+04 -0.20208739338E+03  0.17181664792E+04  0.46999998093E+01 0. -1.
       -5    1    3    3    0  502  0.46255350475E+03 -0.16423394597E+04  0.93574806120E+03  0.19459910507E+04  0.46999998093E+01 0.  1.
</event>
<event>
 5   0  0.2086250E-07  0.3623691E+04  0.7818609E-02  0.8085087E-01
       -1   -1    0    0    0  501  0.00000000000E+00  0.00000000000E+00  0.15589581720E+04  0.15589581720E+04  0.50400001928E-02 0.  1.
        1   -1    0    0  501    0  0.00000000000E+00  0.00000000000E+00 -0.21057548003E+04  0.21057548003E+04  0.50400001928E-02 0. -1.
    10030    2    1    2    0    0  0.00000000000E+00  0.00000000000E+00 -0.54679662830E+03  0.36647129723E+04  0.36236907452E+04 0.  0.
        4    1    3    3  502    0  0.39040133171E+03  0.13312147832E+04  0.90522889864E+03  0.16564984065E+04  0.12699999809E+01 0.  1.
       -4    1    3    3    0  502 -0.39040133171E+03 -0.13312147832E+04 -0.14520255269E+04  0.20082145659E+04  0.12699999809E+01 0. -1.
</event>
<event>
 5   0  0.6729577E-07  0.3606418E+04  0.7818609E-02  0.8089023E-01
        2   -1    0    0  501    0  0.00000000000E+00  0.00000000000E+00  0.15665833373E+04  0.15665833373E+04  0.25500000920E-02 0.  1.
       -2   -1    0    0    0  501  0.00000000000E+00  0.00000000000E+00 -0.20755765094E+04  0.20755765094E+04  0.25500000920E-02 0. -1.
    10030    2    1    2    0    0  0.00000000000E+00  0.00000000000E+00 -0.50899317212E+03  0.36421598468E+04  0.36064184866E+04 0.  0.
        3    1    3    3  502    0 -0.11512750828E+04  0.92346780370E+03 -0.13007835720E+04  0.19672989128E+04  0.10100000352E+00 0.  1.
       -3    1    3    3    0  502  0.11512750828E+04 -0.92346780370E+03  0.79179039986E+03  0.16748609340E+04  0.10100000352E+00 0. -1.
</event>
<event>
 5   0  0.6324216E-07  0.3588861E+04  0.7818609E-02  0.8093048E-01
       -2   -1    0    0    0  501  0.00000000000E+00  0.00000000000E+00  0.18354185301E+04  0.18354185301E+04  0.25500000920E-02 0.  1.
        2   -1    0    0  501    0  0.00000000000E+00  0.00000000000E+00 -0.17543580981E+04  0.17543580981E+04  0.25500000920E-02 0. -1.
    10030    2    1    2    0    0  0.00000000000E+00  0.00000000000E+00  0.81060431991E+02  0.35897766283E+04  0.35888613023E+04 0.  0.
        2    1    3    3  502    0  0.88291507906E+03  0.34811718844E+03 -0.14827688140E+04  0.17604908320E+04  0.25500000920E-02 0. -1.
       -2    1    3    3    0  502 -0.88291507906E+03 -0.34811718844E+03  0.15638292460E+04  0.18292857963E+04  0.25500000920E-02 0.  1.
</event>
<event>
 5   0  0.6541476E-07  0.3569116E+04  0.7818609E-02  0.8097603E-01
       -2   -1    0    0    0  501  0.00000000000E+00  0.00000000000E+00  0.29683288969E+04  0.29683288969E+04  0.25500000920E-02 0. -1.
        2   -1    0    0  501    0  0.00000000000E+00  0.00000000000E+00 -0.10728754551E+04  0.10728754551E+04  0.25500000920E-02 0.  1.
    10030    2    1    2    0    0  0.00000000000E+00  0.00000000000E+00  0.18954534418E+04  0.40412043520E+04  0.35691159780E+04 0.  0.
        4    1    3    3  502    0  0.54561611663E+03  0.25761223457E+02  0.28713488250E+04  0.29228421570E+04  0.12699999809E+01 0. -1.
       -4    1    3    3    0  502 -0.54561611663E+03 -0.25761223457E+02 -0.97589538316E+03  0.11183621950E+04  0.12699999809E+01 0.  1.
</event>
<event>
 5   0  0.6669864E-07  0.3140364E+04  0.7818609E-02  0.8204747E-01
       -2   -1    0    0    0  501  0.00000000000E+00  0.00000000000E+00  0.20775914489E+04  0.20775914489E+04  0.25500000920E-02 0. -1.
        2   -1    0    0  501    0  0.00000000000E+00  0.00000000000E+00 -0.11866968379E+04  0.11866968379E+04  0.25500000920E-02 0.  1.
    10030    2    1    2    0    0  0.00000000000E+00  0.00000000000E+00  0.89089461100E+03  0.32642882868E+04  0.31403638024E+04 0.  0.
        5    1    3    3  502    0 -0.34012428260E+03  0.74526312505E+03  0.18378402564E+04  0.20121581824E+04  0.46999998093E+01 0. -1.
       -5    1    3    3    0  502  0.34012428260E+03 -0.74526312505E+03 -0.94694564535E+03  0.12521301044E+04  0.46999998093E+01 0.  1.
</event>
<event>
 5   0  0.6848661E-07  0.3556546E+04  0.7818609E-02  0.8100518E-01
        2   -1    0    0  501    0  0.00000000000E+00  0.00000000000E+00  0.24553699878E+04  0.24553699878E+04  0.25500000920E-02 0. -1.
       -2   -1    0    0    0  501  0.00000000000E+00  0.00000000000E+00 -0.12878935616E+04  0.12878935616E+04  0.25500000920E-02 0.  1.
    10030    2    1    2    0    0  0.00000000000E+00  0.00000000000E+00  0.11674764262E+04  0.37432635494E+04  0.35565461891E+04 0.  0.
        1    1    3    3  502    0 -0.17101441581E+03 -0.34063328660E+03  0.24118722743E+04  0.24418036026E+04  0.50400001928E-02 0. -1.
       -1    1    3    3    0  502  0.17101441581E+03  0.34063328660E+03 -0.12443958481E+04  0.13014599468E+04  0.50400001928E-02 0.  1.
</event>
<event>
 5   0  0.6848661E-07  0.3484451E+04  0.7818609E-02  0.8117485E-01
       -2   -1    0    0    0  501  0.00000000000E+00  0.00000000000E+00  0.16153821282E+04  0.16153821282E+04  0.25500000920E-02 0. -1.
        2   -1    0    0  501    0  0.00000000000E+00  0.00000000000E+00 -0.18790287135E+04  0.18790287136E+04  0.25500000920E-02 0.  1.
    10030    2    1    2    0    0  0.00000000000E+00  0.00000000000E+00 -0.26364658537E+03  0.34944108417E+04  0.34844508332E+04 0.  0.
        1    1    3    3  502    0  0.43296547943E+03  0.16842121934E+04 -0.23852094075E+03  0.17552555534E+04  0.50400001928E-02 0.  1.
       -1    1    3    3    0  502 -0.43296547943E+03 -0.16842121934E+04 -0.25125644627E+02  0.17391552883E+04  0.50400001928E-02 0. -1.
</event>
<event>
 5   0  0.2193129E-07  0.3585986E+04  0.7818609E-02  0.8093709E-01
       -1   -1    0    0    0  501  0.00000000000E+00  0.00000000000E+00  0.16607482653E+04  0.16607482653E+04  0.50400001928E-02 0.  1.
        1   -1    0    0  501    0  0.00000000000E+00  0.00000000000E+00 -0.19357684446E+04  0.19357684446E+04  0.50400001928E-02 0. -1.
    10030    2    1    2    0    0  0.00000000000E+00  0.00000000000E+00 -0.27502017932E+03  0.35965167099E+04  0.35859861050E+04 0.  0.
        1    1    3    3  502    0  0.14706381318E+04 -0.56563066387E+03  0.72063655391E+03  0.17326371823E+04  0.50400001928E-02 0.  1.
       -1    1    3    3    0  502 -0.14706381318E+04  0.56563066387E+03 -0.99565673323E+03  0.18638795275E+04  0.50400001928E-02 0. -1.
</event>
<event>
 5   0  0.2086250E-07  0.3619282E+04  0.7818609E-02  0.8086089E-01
       -1   -1    0    0    0  501  0.00000000000E+00  0.00000000000E+00  0.88694899661E+03  0.88694899663E+03  0.50400001928E-02 0. -1.
        1   -1    0    0  501    0  0.00000000000E+00  0.00000000000E+00 -0.36922090520E+04  0.36922090520E+04  0.50400001928E-02 0.  1.
    10030    2    1    2    0    0  0.00000000000E+00  0.00000000000E+00 -0.28052600554E+04  0.45791580486E+04  0.36192823123E+04 0.  0.
        2    1    3    3  502    0 -0.50477229651E+02 -0.84002374682E+03  0.62432162758E+03  0.10478384134E+04  0.25500000920E-02 0. -1.
       -2    1    3    3    0  502  0.50477229651E+02  0.84002374682E+03 -0.34295816830E+04  0.35313196352E+04  0.25500000920E-02 0.  1.
</event>
<event>
 5   0  0.6848661E-07  0.3596034E+04  0.7818609E-02  0.8091401E-01
       -2   -1    0    0    0  501  0.00000000000E+00  0.00000000000E+00  0.19909813244E+04  0.19909813244E+04  0.25500000920E-02 0.  1.
        2   -1    0    0  501    0  0.00000000000E+00  0.00000000000E+00 -0.16237550029E+04  0.16237550029E+04  0.25500000920E-02 0. -1.
    10030    2    1    2    0    0  0.00000000000E+00  0.00000000000E+00  0.36722632148E+03  0.36147363273E+04  0.35960344193E+04 0.  0.
        1    1    3    3  502    0 -0.89690876265E+03  0.67791819999E+03 -0.12268404921E+04  0.16640781254E+04  0.50400001928E-02 0. -1.
       -1    1    3    3    0  502  0.89690876265E+03 -0.67791819999E+03  0.15940668136E+04  0.19506582019E+04  0.50400001928E-02 0.  1.
</event>
<event>
 5   0  0.2108068E-07  0.3497056E+04  0.7818609E-02  0.8114488E-01
        1   -1    0    0  501    0  0.00000000000E+00  0.00000000000E+00  0.19184208847E+04  0.19184208847E+04  0.50400001928E-02 0.  1.
       -1   -1    0    0    0  501  0.00000000000E+00  0.00000000000E+00 -0.15936803905E+04  0.15936803905E+04  0.50400001928E-02 0. -1.
    10030    2    1    2    0    0  0.00000000000E+00  0.00000000000E+00  0.32474049415E+03  0.35121012752E+04  0.34970557586E+04 0.  0.
        5    1    3    3  502    0 -0.13036301125E+04 -0.79837103014E+03 -0.69009248831E+03  0.16772291150E+04  0.46999998093E+01 0. -1.
       -5    1    3    3    0  502  0.13036301125E+04  0.79837103014E+03  0.10148329825E+04  0.18348721602E+04  0.46999998093E+01 0.  1.
</event>
<event>
 5   0  0.6669864E-07  0.3637661E+04  0.7818609E-02  0.8081919E-01
       -2   -1    0    0    0  501  0.00000000000E+00  0.00000000000E+00  0.16716740249E+04  0.16716740249E+04  0.25500000920E-02 0. -1.
        2   -1    0    0  501    0  0.00000000000E+00  0.00000000000E+00 -0.19789409349E+04  0.19789409349E+04  0.25500000920E-02 0.  1.
    10030    2    1    2    0    0  0.00000000000E+00  0.00000000000E+00 -0.30726690998E+03  0.36506149597E+04  0.36376608735E+04 0.  0.
        5    1    3    3  502    0 -0.94862444994E+03  0.15518395423E+04 -0.15892055908E+03  0.18257524877E+04  0.46999998093E+01 0. -1.
       -5    1    3    3    0  502  0.94862444994E+03 -0.15518395423E+04 -0.14834635091E+03  0.18248624721E+04  0.46999998093E+01 0.  1.
</event>
<event>
 5   0  0.2086250E-07  0.3601108E+04  0.7818609E-02  0.8090238E-01
       -1   -1    0    0    0  501  0.00000000000E+00  0.00000000000E+00  0.15258442710E+04  0.15258442710E+04  0.50400001928E-02 0. -1.
        1   -1    0    0  501    0  0.00000000000E+00  0.00000000000E+00 -0.21247220854E+04  0.21247220854E+04  0.50400001928E-02 0.  1.
    10030    2    1    2    0    0  0.00000000000E+00  0.00000000000E+00 -0.59887781439E+03  0.36505663564E+04  0.36011081747E+04 0.  0.
        3    1    3    3  502    0 -0.54272269857E+03 -0.95876062645E+03  0.11442783935E+04  0.15884404044E+04  0.10100000352E+00 0. -1.
       -3    1    3    3    0  502  0.54272269857E+03  0.95876062645E+03 -0.17431562079E+04  0.20621259519E+04  0.10100000352E+00 0.  1.
</event>
<event>
 5   0  0.6324216E-07  0.3236792E+04  0.7818609E-02  0.8179167E-01
       -2   -1    0    0    0  501  0.00000000000E+00  0.00000000000E+00  0.17478390356E+04  0.17478390356E+04  0.25500000920E-02 0. -1.
        2   -1    0    0  501    0  0.00000000000E+00  0.00000000000E+00 -0.14985396268E+04  0.14985396268E+04  0.25500000920E-02 0.  1.
    10030    2    1    2    0    0  0.00000000000E+00  0.00000000000E+00  0.24929940879E+03  0.32463786624E+04  0.32367922739E+04 0.  0.
        2    1    3    3  502    0 -0.69034107982E+03 -0.21645531553E+03 -0.13273196003E+04  0.15116881396E+04  0.25500000920E-02 0.  1.
       -2    1    3    3    0  502  0.69034107982E+03  0.21645531553E+03  0.15766190091E+04  0.17346905228E+04  0.25500000920E-02 0. -1.
</event>
<event>
 5   0  0.2086250E-07  0.3577956E+04  0.7818609E-02  0.8095560E-01
        1   -1    0    0  501    0  0.00000000000E+00  0.00000000000E+00  0.15430062900E+04  0.15430062900E+04  0.50400001928E-02 0. -1.
       -1   -1    0    0    0  501  0.00000000000E+00  0.00000000000E+00 -0.20741597543E+04  0.20741597543E+04  0.50400001928E-02 0.  1.
    10030    2    1    2    0    0  0.00000000000E+00  0.00000000000E+00 -0.53115346426E+03  0.36171660443E+04  0.35779555880E+04 0.  0.
        4    1    3    3  502    0 -0.89949092361E+03  0.10878354310E+04  0.84554486697E+03  0.16454232226E+04  0.12699999809E+01 0. -1.
       -4    1    3    3    0  502  0.89949092361E+03 -0.10878354310E+04 -0.13766983312E+04  0.19717428217E+04  0.12699999809E+01 0.  1.
</event>
<event>
 5   0  0.2108068E-07  0.3543652E+04  0.7818609E-02  0.8103522E-01
        1   -1    0    0  501    0  0.00000000000E+00  0.00000000000E+00  0.22013779552E+04  0.22013779553E+04  0.50400001928E-02 0. -1.
       -1   -1    0    0    0  501  0.00000000000E+00  0.00000000000E+00 -0.14260922408E+04  0.14260922408E+04  0.50400001928E-02 0.  1.
    10030    2    1    2    0    0  0.00000000000E+00  0.00000000000E+00  0.77528571447E+03  0.36274701960E+04  0.35436523650E+04 0.  0.
        5    1    3    3  502    0 -0.47275977732E+02  0.17364939047E+04  0.30536377072E+02  0.17374120581E+04  0.46999998093E+01 0. -1.
       -5    1    3    3    0  502  0.47275977732E+02 -0.17364939047E+04  0.74474933739E+03  0.18900581379E+04  0.46999998093E+01 0.  1.
</event>
<event>
 5   0  0.2086250E-07  0.3608191E+04  0.7818609E-02  0.8088618E-01
        1   -1    0    0  501    0  0.00000000000E+00  0.00000000000E+00  0.15644492187E+04  0.15644492187E+04  0.50400001928E-02 0.  1.
       -1   -1    0    0    0  501  0.00000000000E+00  0.00000000000E+00 -0.20804513428E+04  0.20804513428E+04  0.50400001928E-02 0. -1.
    10030    2    1    2    0    0  0.00000000000E+00  0.00000000000E+00 -0.51600212415E+03  0.36449005616E+04  0.36081909472E+04 0.  0.
        3    1    3    3  502    0 -0.20520931703E+03 -0.13176862391E+04 -0.14854154663E+04  0.19962131665E+04  0.10100000352E+00 0. -1.
       -3    1    3    3    0  502  0.20520931703E+03  0.13176862391E+04  0.96941334217E+03  0.16486873950E+04  0.10100000352E+00 0.  1.
</event>
<event>
 5   0  0.2086250E-07  0.3665438E+04  0.7818609E-02  0.8075665E-01
        1   -1    0    0  501    0  0.00000000000E+00  0.00000000000E+00  0.20889035925E+04  0.20889035925E+04  0.50400001928E-02 0. -1.
       -1   -1    0    0    0  501  0.00000000000E+00  0.00000000000E+00 -0.16079534652E+04  0.16079534652E+04  0.50400001928E-02 0.  1.
    10030    2    1    2    0    0  0.00000000000E+00  0.00000000000E+00  0.48095012726E+03  0.36968570577E+04  0.36654384567E+04 0.  0.
        2    1    3    3  502    0 -0.43055835013E+03 -0.42629228803E+03 -0.15040197332E+04  0.16214749352E+04  0.25500000920E-02 0.  1.
       -2    1    3    3    0  502  0.43055835013E+03  0.42629228803E+03  0.19849698604E+04  0.20753821225E+04  0.25500000920E-02 0. -1.
</event>
<event>
 5   0  0.6729577E-07  0.3636802E+04  0.7818609E-02  0.8082113E-01
        2   -1    0    0  501    0  0.00000000000E+00  0.00000000000E+00  0.20530356198E+04  0.20530356198E+04  0.25500000920E-02 0.  1.
       -2   -1    0    0    0  501  0.00000000000E+00  0.00000000000E+00 -0.16105822590E+04  0.16105822590E+04  0.25500000920E-02 0. -1.
    10030    2    1    2    0    0  0.00000000000E+00  0.00000000000E+00  0.44245336074E+03  0.36636178788E+04  0.36368023022E+04 0.  0.
        3    1    3    3  502    0  0.12080805985E+04 -0.12685419568E+04  0.71259912249E+03  0.18911517518E+04  0.10100000352E+00 0.  1.
       -3    1    3    3    0  502 -0.12080805985E+04  0.12685419568E+04 -0.27014576174E+03  0.17724661270E+04  0.10100000352E+00 0. -1.
</event>
<event>
 5   0  0.6848661E-07  0.3568634E+04  0.7818609E-02  0.8097714E-01
        2   -1    0    0  501    0  0.00000000000E+00  0.00000000000E+00  0.19068975590E+04  0.19068975590E+04  0.25500000920E-02 0. -1.
       -2   -1    0    0    0  501  0.00000000000E+00  0.00000000000E+00 -0.16696165093E+04  0.16696165093E+04  0.25500000920E-02 0.  1.
    10030    2    1    2    0    0  0.00000000000E+00  0.00000000000E+00  0.23728104971E+03  0.35765140684E+04  0.35686342744E+04 0.  0.
        1    1    3    3  502    0  0.29776449790E+03  0.12872239439E+04  0.13205293206E+04  0.18679954134E+04  0.50400001928E-02 0. -1.
       -1    1    3    3    0  502 -0.29776449790E+03 -0.12872239439E+04 -0.10832482709E+04  0.17085186550E+04  0.50400001928E-02 0.  1.
</event>
<event>
 5   0  0.2086250E-07  0.3599862E+04  0.7818609E-02  0.8090523E-01
       -1   -1    0    0    0  501  0.00000000000E+00  0.00000000000E+00  0.21924186758E+04  0.21924186758E+04  0.50400001928E-02 0.  1.
        1   -1    0    0  501    0  0.00000000000E+00  0.00000000000E+00 -0.14777066939E+04  0.14777066939E+04  0.50400001928E-02 0. -1.
    10030    2    1    2    0    0  0.00000000000E+00  0.00000000000E+00  0.71471198186E+03  0.36701253697E+04  0.35998620824E+04 0.  0.
        2    1    3    3  502    0 -0.63189640399E+03  0.16087710720E+04  0.86946921649E+03  0.19347904657E+04  0.25500000920E-02 0. -1.
       -2    1    3    3    0  502  0.63189640399E+03 -0.16087710720E+04 -0.15475723464E+03  0.17353349041E+04  0.25500000920E-02 0.  1.
</event>
<event>
 5   0  0.2086250E-07  0.3625871E+04  0.7818609E-02  0.8084591E-01
        1   -1    0    0  501    0  0.00000000000E+00  0.00000000000E+00  0.14880273482E+04  0.14880273483E+04  0.50400001928E-02 0. -1.
       -1   -1    0    0    0  501  0.00000000000E+00  0.00000000000E+00 -0.22087864359E+04  0.22087864359E+04  0.50400001928E-02 0.  1.
    10030    2    1    2    0    0  0.00000000000E+00  0.00000000000E+00 -0.72075908766E+03  0.36968137842E+04  0.36258707220E+04 0.  0.
        4    1    3    3  502    0 -0.14892537772E+04 -0.51942456691E+02  0.69237246952E+03  0.16431543084E+04  0.12699999809E+01 0. -1.
       -4    1    3    3    0  502  0.14892537772E+04  0.51942456691E+02 -0.14131315572E+04  0.20536594758E+04  0.12699999809E+01 0.  1.
</event>
<event>
 5   0  0.2086250E-07  0.3598116E+04  0.7818609E-02  0.8090923E-01
       -1   -1    0    0    0  501  0.00000000000E+00  0.00000000000E+00  0.29153479103E+04  0.29153479103E+04  0.50400001928E-02 0. -1.
        1   -1    0    0  501    0  0.00000000000E+00  0.00000000000E+00 -0.11101967997E+04  0.11101967997E+04  0.50400001928E-02 0.  1.
    10030    2    1    2    0    0  0.00000000000E+00  0.00000000000E+00  0.18051511106E+04  0.40255447100E+04  0.35981161294E+04 0.  0.
        3    1    3    3  502    0 -0.15025237700E+04  0.66804493668E+03  0.17191776151E+04  0.23789563677E+04  0.10100000352E+00 0. -1.
       -3    1    3    3    0  502  0.15025237700E+04 -0.66804493668E+03  0.85973495445E+02  0.16465883423E+04  0.10100000352E+00 0.  1.
</event>
<event>
 5   0  0.2086250E-07  0.3587426E+04  0.7818609E-02  0.8093378E-01
        1   -1    0    0  501    0  0.00000000000E+00  0.00000000000E+00  0.28010377441E+04  0.28010377441E+04  0.50400001928E-02 0. -1.
       -1   -1    0    0    0  501  0.00000000000E+00  0.00000000000E+00 -0.11486477987E+04  0.11486477987E+04  0.50400001928E-02 0.  1.
    10030    2    1    2    0    0  0.00000000000E+00  0.00000000000E+00  0.16523899454E+04  0.39496855428E+04  0.35874257282E+04 0.  0.
        4    1    3    3  502    0 -0.37254555449E+03  0.14118453529E+03  0.27517090225E+04  0.27804005864E+04  0.12699999809E+01 0. -1.
       -4    1    3    3    0  502  0.37254555449E+03 -0.14118453529E+03 -0.10993190771E+04  0.11692849564E+04  0.12699999809E+01 0.  1.
</event>
<event>
 5   0  0.6324216E-07  0.3603240E+04  0.7818609E-02  0.8089750E-01
       -2   -1    0    0    0  501  0.00000000000E+00  0.00000000000E+00  0.13941120466E+04  0.13941120466E+04  0.25500000920E-02 0.  1.
        2   -1    0    0  501    0  0.00000000000E+00  0.00000000000E+00 -0.23282446613E+04  0.23282446613E+04  0.25500000920E-02 0. -1.
    10030    2    1    2    0    0  0.00000000000E+00  0.00000000000E+00 -0.93413261476E+03  0.37223567079E+04  0.36032396144E+04 0.  0.
        2    1    3    3  502    0  0.16942161622E+02 -0.17772287246E+04 -0.16234920199E+03  0.17847090071E+04  0.25500000920E-02 0.  1.
       -2    1    3    3    0  502 -0.16942161622E+02  0.17772287246E+04 -0.77178341278E+03  0.19376477009E+04  0.25500000920E-02 0. -1.
</event>
<event>
 5   0  0.6848661E-07  0.3569282E+04  0.7818609E-02  0.8097565E-01
       -2   -1    0    0    0  501  0.00000000000E+00  0.00000000000E+00  0.10655261841E+04  0.10655261841E+04  0.25500000920E-02 0.  1.
        2   -1    0    0  501    0  0.00000000000E+00  0.00000000000E+00 -0.29890799731E+04  0.29890799731E+04  0.25500000920E-02 0. -1.
    10030    2    1    2    0    0  0.00000000000E+00  0.00000000000E+00 -0.19235537890E+04  0.40546061572E+04  0.35692817080E+04 0.  0.
        1    1    3    3  502    0  0.50279500853E+03  0.15473421365E+04 -0.12865699627E+03  0.16320610070E+04  0.50400001928E-02 0. -1.
       -1    1    3    3    0  502 -0.50279500853E+03 -0.15473421365E+04 -0.17948967927E+04  0.24225451502E+04  0.50400001928E-02 0.  1.
</event>
<event>
 5   0  0.2193129E-07  0.3590171E+04  0.7818609E-02  0.8092747E-01
       -1   -1    0    0    0  501  0.00000000000E+00  0.00000000000E+00  0.14594817485E+04  0.14594817485E+04  0.50400001928E-02 0.  1.
        1   -1    0    0  501    0  0.00000000000E+00  0.00000000000E+00 -0.22078608956E+04  0.22078608956E+04  0.50400001928E-02 0. -1.
    10030    2    1    2    0    0  0.00000000000E+00  0.00000000000E+00 -0.74837914711E+03  0.36673426441E+04  0.35901714056E+04 0.  0.
        1    1    3    3  502    0 -0.28765328219E+03  0.62495395505E+03 -0.20678460208E+04  0.21792886506E+04  0.50400001928E-02 0. -1.
       -1    1    3    3    0  502  0.28765328219E+03 -0.62495395505E+03  0.13194668737E+04  0.14880539935E+04  0.50400001928E-02 0.  1.
</event>
<event>
 5   0  0.6324216E-07  0.3557171E+04  0.7818609E-02  0.8100373E-01
       -2   -1    0    0    0  501  0.00000000000E+00  0.00000000000E+00  0.11129809205E+04  0.11129809205E+04  0.25500000920E-02 0.  1.
        2   -1    0    0  501    0  0.00000000000E+00  0.00000000000E+00 -0.28422463228E+04  0.28422463228E+04  0.25500000920E-02 0. -1.
    10030    2    1    2    0    0  0.00000000000E+00  0.00000000000E+00 -0.17292654023E+04  0.39552272433E+04  0.35571707458E+04 0.  0.
        2    1    3    3  502    0  0.10318592310E+04 -0.10952165626E+04 -0.19189679599E+04  0.24385796732E+04  0.25500000920E-02 0. -1.
       -2    1    3    3    0  502 -0.10318592310E+04  0.10952165626E+04  0.18970255759E+03  0.15166475701E+04  0.25500000920E-02 0.  1.
</event>
<event>
 5   0  0.2086250E-07  0.3590217E+04  0.7818609E-02  0.8092736E-01
       -1   -1    0    0    0  501  0.00000000000E+00  0.00000000000E+00  0.27074941384E+04  0.27074941384E+04  0.50400001928E-02 0. -1.
        1   -1    0    0  501    0  0.00000000000E+00  0.00000000000E+00 -0.11901835024E+04  0.11901835024E+04  0.50400001928E-02 0.  1.
    10030    2    1    2    0    0  0.00000000000E+00  0.00000000000E+00  0.15173106360E+04  0.38976776407E+04  0.35902171836E+04 0.  0.
        3    1    3    3  502    0 -0.15194811007E+03  0.75444163158E+03  0.25193132856E+04  0.26342380008E+04  0.10100000352E+00 0. -1.
       -3    1    3    3    0  502  0.15194811007E+03 -0.75444163158E+03 -0.10020026496E+04  0.12634396399E+04  0.10100000352E+00 0.  1.
</event>
<event>
 5   0  0.6848661E-07  0.3601642E+04  0.7818609E-02  0.8090116E-01
       -2   -1    0    0    0  501  0.00000000000E+00  0.00000000000E+00  0.11363336714E+04  0.11363336714E+04  0.25500000920E-02 0. -1.
        2   -1    0    0  501    0  0.00000000000E+00  0.00000000000E+00 -0.28538764562E+04  0.28538764562E+04  0.25500000920E-02 0.  1.
    10030    2    1    2    0    0  0.00000000000E+00  0.00000000000E+00 -0.17175427848E+04  0.39902101276E+04  0.36016417984E+04 0.  0.
        1    1    3    3  502    0 -0.74379623891E+03 -0.15649620156E+04 -0.31532293196E+03  0.17611835528E+04  0.50400001928E-02 0. -1.
       -1    1    3    3    0  502  0.74379623891E+03  0.15649620156E+04 -0.14022198529E+04  0.22290265748E+04  0.50400001928E-02 0.  1.
</event>
<event>
 5   0  0.2086250E-07  0.3568949E+04  0.7818609E-02  0.8097642E-01
       -1   -1    0    0    0  501  0.00000000000E+00  0.00000000000E+00  0.28755296717E+04  0.28755296717E+04  0.50400001928E-02 0. -1.
        1   -1    0    0  501    0  0.00000000000E+00  0.00000000000E+00 -0.11073954440E+04  0.11073954440E+04  0.50400001928E-02 0.  1.
    10030    2    1    2    0    0  0.00000000000E+00  0.00000000000E+00  0.17681342278E+04  0.39829251157E+04  0.35689485608E+04 0.  0.
        3    1    3    3  502    0 -0.30260357311E+03 -0.46654867098E+03 -0.10082295596E+04  0.11514180126E+04  0.10100000352E+00 0.  1.
       -3    1    3    3    0  502  0.30260357311E+03  0.46654867098E+03  0.27763637873E+04  0.28315071030E+04  0.10100000352E+00 0. -1.
</event>
<event>
 5   0  0.6669864E-07  0.3799309E+04  0.7818609E-02  0.8046303E-01
       -2   -1    0    0    0  501  0.00000000000E+00  0.00000000000E+00  0.13439583145E+04  0.13439583145E+04  0.25500000920E-02 0.  1.
        2   -1    0    0  501    0  0.00000000000E+00  0.00000000000E+00 -0.26851187765E+04  0.26851187766E+04  0.25500000920E-02 0. -1.
    10030    2    1    2    0    0  0.00000000000E+00  0.00000000000E+00 -0.13411604620E+04  0.40290770911E+04  0.37993092558E+04 0.  0.
        5    1    3    3  502    0  0.14069994735E+04 -0.11735868223E+04 -0.13852961564E+03  0.18374346498E+04  0.46999998093E+01 0.  1.
       -5    1    3    3    0  502 -0.14069994735E+04  0.11735868223E+04 -0.12026308464E+04  0.21916424413E+04  0.46999998093E+01 0. -1.
</event>
<event>
 5   0  0.6848661E-07  0.3592017E+04  0.7818609E-02  0.8092323E-01
        2   -1    0    0  501    0  0.00000000000E+00  0.00000000000E+00  0.18553948129E+04  0.18553948129E+04  0.25500000920E-02 0. -1.
       -2   -1    0    0    0  501  0.00000000000E+00  0.00000000000E+00 -0.17385225189E+04  0.17385225189E+04  0.25500000920E-02 0.  1.
    10030    2    1    2    0    0  0.00000000000E+00  0.00000000000E+00  0.11687229393E+03  0.35939173318E+04  0.35920165165E+04 0.  0.
        1    1    3    3  502    0 -0.76340270059E+03 -0.42457962034E+03  0.16285320409E+04  0.18480173553E+04  0.50400001928E-02 0. -1.
       -1    1    3    3    0  502  0.76340270059E+03  0.42457962034E+03 -0.15116597470E+04  0.17458999765E+04  0.50400001928E-02 0.  1.
</event>
<event>
 5   0  0.2086250E-07  0.3607119E+04  0.7818609E-02  0.8088863E-01
       -1   -1    0    0    0  501  0.00000000000E+00  0.00000000000E+00  0.11909505918E+04  0.11909505918E+04  0.50400001928E-02 0. -1.
        1   -1    0    0  501    0  0.00000000000E+00  0.00000000000E+00 -0.27312858483E+04  0.27312858483E+04  0.50400001928E-02 0.  1.
    10030    2    1    2    0    0  0.00000000000E+00  0.00000000000E+00 -0.15403352565E+04  0.39222364402E+04  0.36071187935E+04 0.  0.
        2    1    3    3  502    0  0.10013707717E+04 -0.11771821074E+04  0.24074111608E+03  0.15641155397E+04  0.25500000920E-02 0. -1.
       -2    1    3    3    0  502 -0.10013707717E+04  0.11771821074E+04 -0.17810763726E+04  0.23581209005E+04  0.25500000920E-02 0.  1.
</event>
<event>
 5   0  0.6324216E-07  0.3551617E+04  0.7818609E-02  0.8101665E-01
        2   -1    0    0  501    0  0.00000000000E+00  0.00000000000E+00  0.12262345526E+04  0.12262345526E+04  0.25500000920E-02 0.  1.
       -2   -1    0    0    0  501  0.00000000000E+00  0.00000000000E+00 -0.25716903569E+04  0.25716903569E+04  0.25500000920E-02 0. -1.
    10030    2    1    2    0    0  0.00000000000E+00  0.00000000000E+00 -0.13454558043E+04  0.37979249095E+04  0.35516168567E+04 0.  0.
        2    1    3    3  502    0 -0.15551407658E+04  0.32736248452E+03  0.17460476039E+03  0.15987857330E+04  0.25500000920E-02 0.  1.
       -2    1    3    3    0  502  0.15551407658E+04 -0.32736248452E+03 -0.15200605647E+04  0.21991391766E+04  0.25500000920E-02 0. -1.
</event>
<event>
 5   0  0.6848661E-07  0.3591600E+04  0.7818609E-02  0.8092419E-01
        2   -1    0    0  501    0  0.00000000000E+00  0.00000000000E+00  0.15317755157E+04  0.15317755157E+04  0.25500000920E-02 0.  1.
       -2   -1    0    0    0  501  0.00000000000E+00  0.00000000000E+00 -0.21053326721E+04  0.21053326721E+04  0.25500000920E-02 0. -1.
    10030    2    1    2    0    0  0.00000000000E+00  0.00000000000E+00 -0.57355715640E+03  0.36371081879E+04  0.35915996657E+04 0.  0.
        1    1    3    3  502    0  0.14173494182E+04  0.80644083360E+03 -0.10484193704E+04  0.19386617466E+04  0.50400001928E-02 0.  1.
       -1    1    3    3    0  502 -0.14173494182E+04 -0.80644083360E+03  0.47486221402E+03  0.16984464412E+04  0.50400001928E-02 0. -1.
</event>
<event>
 5   0  0.2086250E-07  0.3364725E+04  0.7818609E-02  0.8146619E-01
        1   -1    0    0  501    0  0.00000000000E+00  0.00000000000E+00  0.20249039798E+04  0.20249039799E+04  0.50400001928E-02 0. -1.
       -1   -1    0    0    0  501  0.00000000000E+00  0.00000000000E+00 -0.13977665389E+04  0.13977665390E+04  0.50400001928E-02 0.  1.
    10030    2    1    2    0    0  0.00000000000E+00  0.00000000000E+00  0.62713744090E+03  0.34226705188E+04  0.33647246708E+04 0.  0.
        2    1    3    3  502    0  0.12741633360E+04  0.22476353260E+03 -0.78027900144E+03  0.15109090550E+04  0.25500000920E-02 0.  1.
       -2    1    3    3    0  502 -0.12741633360E+04 -0.22476353260E+03  0.14074164423E+04  0.19117614638E+04  0.25500000920E-02 0. -1.
</event>
<event>
 5   0  0.2086250E-07  0.3565002E+04  0.7818609E-02  0.8098556E-01
        1   -1    0    0  501    0  0.00000000000E+00  0.00000000000E+00  0.20937967333E+04  0.20937967333E+04  0.50400001928E-02 0.  1.
       -1   -1    0    0    0  501  0.00000000000E+00  0.00000000000E+00 -0.15174868402E+04  0.15174868402E+04  0.50400001928E-02 0. -1.
    10030    2    1    2    0    0  0.00000000000E+00  0.00000000000E+00  0.57630989308E+03  0.36112835735E+04  0.35650015365E+04 0.  0.
        4    1    3    3  502    0  0.85650893342E+02 -0.16332844947E+04  0.10061251105E+04  0.19202196924E+04  0.12699999809E+01 0.  1.
       -4    1    3    3    0  502 -0.85650893342E+02  0.16332844947E+04 -0.42981521740E+03  0.16910638811E+04  0.12699999809E+01 0. -1.
</event>
<event>
 5   0  0.6669864E-07  0.3674843E+04  0.7818609E-02  0.8073560E-01
        2   -1    0    0  501    0  0.00000000000E+00  0.00000000000E+00  0.19834524698E+04  0.19834524698E+04  0.25500000920E-02 0.  1.
       -2   -1    0    0    0  501  0.00000000000E+00  0.00000000000E+00 -0.17021419928E+04  0.17021419928E+04  0.25500000920E-02 0. -1.
    10030    2    1    2    0    0  0.00000000000E+00  0.00000000000E+00  0.28131047700E+03  0.36855944627E+04  0.36748429842E+04 0.  0.
        5    1    3    3  502    0  0.96851256272E+03 -0.84933586054E+03  0.14547204919E+04  0.19430959286E+04  0.46999998093E+01 0.  1.
       -5    1    3    3    0  502 -0.96851256272E+03  0.84933586054E+03 -0.11734100149E+04  0.17424985341E+04  0.46999998093E+01 0. -1.
</event>
<event>
 5   0  0.2108068E-07  0.3654278E+04  0.7818609E-02  0.8078171E-01
        1   -1    0    0  501    0  0.00000000000E+00  0.00000000000E+00  0.19648530169E+04  0.19648530169E+04  0.50400001928E-02 0. -1.
       -1   -1    0    0    0  501  0.00000000000E+00  0.00000000000E+00 -0.16990774702E+04  0.16990774702E+04  0.50400001928E-02 0.  1.
    10030    2    1    2    0    0  0.00000000000E+00  0.00000000000E+00  0.26577554674E+03  0.36639304871E+04  0.36542783108E+04 0.  0.
        5    1    3    3  502    0 -0.84423271479E+03 -0.15317838092E+04  0.66279570755E+03  0.18704039015E+04  0.46999998093E+01 0. -1.
       -5    1    3    3    0  502  0.84423271479E+03  0.15317838092E+04 -0.39702016081E+03  0.17935265855E+04  0.46999998093E+01 0.  1.
</event>
<event>
 5   0  0.2086250E-07  0.3502415E+04  0.7818609E-02  0.8113218E-01
        1   -1    0    0  501    0  0.00000000000E+00  0.00000000000E+00  0.19346277626E+04  0.19346277626E+04  0.50400001928E-02 0.  1.
       -1   -1    0    0    0  501  0.00000000000E+00  0.00000000000E+00 -0.15851773872E+04  0.15851773872E+04  0.50400001928E-02 0. -1.
    10030    2    1    2    0    0  0.00000000000E+00  0.00000000000E+00  0.34945037536E+03  0.35198051498E+04  0.35024152706E+04 0.  0.
        3    1    3    3  502    0  0.64226362485E+03 -0.16211535003E+04  0.33704163329E+03  0.17760175416E+04  0.10100000352E+00 0. -1.
       -3    1    3    3    0  502 -0.64226362485E+03  0.16211535003E+04  0.12408742066E+02  0.17437876082E+04  0.10100000352E+00 0.  1.
</event>
<event>
 5   0  0.6729577E-07  0.3570401E+04  0.7818609E-02  0.8097305E-01
       -2   -1    0    0    0  501  0.00000000000E+00  0.00000000000E+00  0.15066820263E+04  0.15066820263E+04  0.25500000920E-02 0. -1.
        2   -1    0    0  501    0  0.00000000000E+00  0.00000000000E+00 -0.21152051659E+04  0.21152051659E+04  0.25500000920E-02 0.  1.
    10030    2    1    2    0    0  0.00000000000E+00  0.00000000000E+00 -0.60852313965E+03  0.36218871922E+04  0.35704014371E+04 0.  0.
        3    1    3    3  502    0  0.10356671187E+03 -0.14614211097E+04 -0.13390018922E+04  0.19847931382E+04  0.10100000352E+00 0.  1.
       -3    1    3    3    0  502 -0.10356671187E+03  0.14614211097E+04  0.73047875257E+03  0.16370940541E+04  0.10100000352E+00 0. -1.
</event>
<event>
 5   0  0.6669864E-07  0.3579688E+04  0.7818609E-02  0.8095160E-01
       -2   -1    0    0    0  501  0.00000000000E+00  0.00000000000E+00  0.16507534098E+04  0.16507534098E+04  0.25500000920E-02 0. -1.
        2   -1    0    0  501    0  0.00000000000E+00  0.00000000000E+00 -0.19406545194E+04  0.19406545194E+04  0.25500000920E-02 0.  1.
    10030    2    1    2    0    0  0.00000000000E+00  0.00000000000E+00 -0.28990110966E+03  0.35914079292E+04  0.35796882910E+04 0.  0.
        5    1    3    3  502    0 -0.60162813991E+03 -0.93241309358E+03 -0.15538877413E+04  0.19094344185E+04  0.46999998093E+01 0.  1.
       -5    1    3    3    0  502  0.60162813991E+03  0.93241309358E+03  0.12639866316E+04  0.16819735107E+04  0.46999998093E+01 0. -1.
</event>
<event>
 5   0  0.2108068E-07  0.3613110E+04  0.7818609E-02  0.8087495E-01
        1   -1    0    0  501    0  0.00000000000E+00  0.00000000000E+00  0.20555004660E+04  0.20555004660E+04  0.50400001928E-02 0. -1.
       -1   -1    0    0    0  501  0.00000000000E+00  0.00000000000E+00 -0.15877595900E+04  0.15877595900E+04  0.50400001928E-02 0.  1.
    10030    2    1    2    0    0  0.00000000000E+00  0.00000000000E+00  0.46774087601E+03  0.36432600560E+04  0.36131097837E+04 0.  0.
        5    1    3    3  502    0 -0.11966576868E+04  0.10238154912E+04  0.11263726678E+04  0.19362141555E+04  0.46999998093E+01 0.  1.
       -5    1    3    3    0  502  0.11966576868E+04 -0.10238154912E+04 -0.65863179176E+03  0.17070459005E+04  0.46999998093E+01 0. -1.
</event>
<event>
 5   0  0.2086250E-07  0.3493313E+04  0.7818609E-02  0.8115376E-01
       -1   -1    0    0    0  501  0.00000000000E+00  0.00000000000E+00  0.96091100144E+03  0.96091100146E+03  0.50400001928E-02 0.  1.
        1   -1    0    0  501    0  0.00000000000E+00  0.00000000000E+00 -0.31749135170E+04  0.31749135170E+04  0.50400001928E-02 0. -1.
    10030    2    1    2    0    0  0.00000000000E+00  0.00000000000E+00 -0.22140025155E+04  0.41358245184E+04  0.34933132279E+04 0.  0.
        2    1    3    3  502    0  0.85051783251E+03 -0.14480374547E+04 -0.53845009744E+03  0.17635536740E+04  0.25500000920E-02 0.  1.
       -2    1    3    3    0  502 -0.85051783251E+03  0.14480374547E+04 -0.16755524181E+04  0.23722708444E+04  0.25500000920E-02 0. -1.
</event>
<event>
 5   0  0.6541476E-07  0.3608983E+04  0.7818609E-02  0.8088437E-01
       -2   -1    0    0    0  501  0.00000000000E+00  0.00000000000E+00  0.13097133140E+04  0.13097133140E+04  0.25500000920E-02 0. -1.
        2   -1    0    0  501    0  0.00000000000E+00  0.00000000000E+00 -0.24861849682E+04  0.24861849682E+04  0.25500000920E-02 0.  1.
    10030    2    1    2    0    0  0.00000000000E+00  0.00000000000E+00 -0.11764716542E+04  0.37958982822E+04  0.36089829891E+04 0.  0.
        4    1    3    3  502    0 -0.12200487014E+04  0.12790683670E+04 -0.20660322051E+03  0.17796688526E+04  0.12699999809E+01 0. -1.
       -4    1    3    3    0  502  0.12200487014E+04 -0.12790683670E+04 -0.96986843365E+03  0.20162294296E+04  0.12699999809E+01 0.  1.
</event>
<event>
 5   0  0.6669864E-07  0.3585901E+04  0.7818609E-02  0.8093729E-01
        2   -1    0    0  501    0  0.00000000000E+00  0.00000000000E+00  0.13937946370E+04  0.13937946370E+04  0.25500000920E-02 0. -1.
       -2   -1    0    0    0  501  0.00000000000E+00  0.00000000000E+00 -0.23064167961E+04  0.23064167961E+04  0.25500000920E-02 0.  1.
    10030    2    1    2    0    0  0.00000000000E+00  0.00000000000E+00 -0.91262215917E+03  0.37002114331E+04  0.35859009251E+04 0.  0.
        5    1    3    3  502    0  0.11569603492E+04 -0.11741263771E+04 -0.11841465364E+04  0.20296194492E+04  0.46999998093E+01 0. -1.
       -5    1    3    3    0  502 -0.11569603492E+04  0.11741263771E+04  0.27152437722E+03  0.16705919839E+04  0.46999998093E+01 0.  1.
</event>
<event>
 5   0  0.2193129E-07  0.3585345E+04  0.7818609E-02  0.8093857E-01
        1   -1    0    0  501    0  0.00000000000E+00  0.00000000000E+00  0.20815132549E+04  0.20815132549E+04  0.50400001928E-02 0.  1.
       -1   -1    0    0    0  501  0.00000000000E+00  0.00000000000E+00 -0.15439124530E+04  0.15439124530E+04  0.50400001928E-02 0. -1.
    10030    2    1    2    0    0  0.00000000000E+00  0.00000000000E+00  0.53760080182E+03  0.36254257079E+04  0.35853447451E+04 0.  0.
        1    1    3    3  502    0  0.25258634490E+03 -0.15987002896E+04 -0.51055028261E+03  0.16971458596E+04  0.50400001928E-02 0. -1.
       -1    1    3    3    0  502 -0.25258634490E+03  0.15987002896E+04  0.10481510844E+04  0.19282798483E+04  0.50400001928E-02 0.  1.
</event>
<event>
 5   0  0.6324216E-07  0.3587545E+04  0.7818609E-02  0.8093351E-01
       -2   -1    0    0    0  501  0.00000000000E+00  0.00000000000E+00  0.13425956089E+04  0.13425956089E+04  0.25500000920E-02 0. -1.
        2   -1    0    0  501    0  0.00000000000E+00  0.00000000000E+00 -0.23965660209E+04  0.23965660209E+04  0.25500000920E-02 0.  1.
    10030    2    1    2    0    0  0.00000000000E+00  0.00000000000E+00 -0.10539704121E+04  0.37391616298E+04  0.35875445732E+04 0.  0.
        2    1    3    3  502    0 -0.71415559452E+03  0.99018159899E+02 -0.22388974681E+04  0.23521234410E+04  0.25500000920E-02 0.  1.
       -2    1    3    3    0  502  0.71415559452E+03 -0.99018159899E+02  0.11849270560E+04  0.13870381888E+04  0.25500000920E-02 0. -1.
</event>
<event>
 5   0  0.2086250E-07  0.3649575E+04  0.7818609E-02  0.8079229E-01
        1   -1    0    0  501    0  0.00000000000E+00  0.00000000000E+00  0.17048984613E+04  0.17048984613E+04  0.50400001928E-02 0. -1.
       -1   -1    0    0    0  501  0.00000000000E+00  0.00000000000E+00 -0.19531073531E+04  0.19531073531E+04  0.50400001928E-02 0.  1.
    10030    2    1    2    0    0  0.00000000000E+00  0.00000000000E+00 -0.24820889183E+03  0.36580058144E+04  0.36495751649E+04 0.  0.
        2    1    3    3  502    0 -0.94075114513E+03 -0.15634646062E+04 -0.14453360984E+03  0.18303890997E+04  0.25500000920E-02 0.  1.
       -2    1    3    3    0  502  0.94075114513E+03  0.15634646062E+04 -0.10367528198E+03  0.18276167147E+04  0.25500000920E-02 0. -1.
</event>
<event>
 5   0  0.6848661E-07  0.3606754E+04  0.7818609E-02  0.8088946E-01
       -2   -1    0    0    0  501  0.00000000000E+00  0.00000000000E+00  0.17692857506E+04  0.17692857506E+04  0.25500000920E-02 0.  1.
        2   -1    0    0  501    0  0.00000000000E+00  0.00000000000E+00 -0.18381249534E+04  0.18381249534E+04  0.25500000920E-02 0. -1.
    10030    2    1    2    0    0  0.00000000000E+00  0.00000000000E+00 -0.68839202760E+02  0.36074107040E+04  0.36067538246E+04 0.  0.
        1    1    3    3  502    0 -0.16513533925E+04  0.49294663305E+03  0.49690579789E+03  0.17935662190E+04  0.50400001928E-02 0. -1.
       -1    1    3    3    0  502  0.16513533925E+04 -0.49294663305E+03 -0.56574500065E+03  0.18138444850E+04  0.50400001928E-02 0.  1.
</event>
<event>
 5   0  0.2086250E-07  0.3623643E+04  0.7818609E-02  0.8085097E-01
        1   -1    0    0  501    0  0.00000000000E+00  0.00000000000E+00  0.22008165149E+04  0.22008165149E+04  0.50400001928E-02 0. -1.
       -1   -1    0    0    0  501  0.00000000000E+00  0.00000000000E+00 -0.14915816001E+04  0.14915816001E+04  0.50400001928E-02 0.  1.
    10030    2    1    2    0    0  0.00000000000E+00  0.00000000000E+00  0.70923491484E+03  0.36923981150E+04  0.36236431495E+04 0.  0.
        3    1    3    3  502    0 -0.11096834440E+04  0.14035769844E+04  0.64510853745E+03  0.19019965121E+04  0.10100000352E+00 0. -1.
       -3    1    3    3    0  502  0.11096834440E+04 -0.14035769844E+04  0.64126377385E+02  0.17904016028E+04  0.10100000352E+00 0.  1.
</event>
<event>
 5   0  0.2086250E-07  0.3628543E+04  0.7818609E-02  0.8083985E-01
        1   -1    0    0  501    0  0.00000000000E+00  0.00000000000E+00  0.10192791571E+04  0.10192791572E+04  0.50400001928E-02 0. -1.
       -1   -1    0    0    0  501  0.00000000000E+00  0.00000000000E+00 -0.32293233286E+04  0.32293233286E+04  0.50400001928E-02 0.  1.
    10030    2    1    2    0    0  0.00000000000E+00  0.00000000000E+00 -0.22100441714E+04  0.42486024857E+04  0.36285434877E+04 0.  0.
        3    1    3    3  502    0 -0.11042594452E+04 -0.11124963716E+04 -0.21746644801E+04  0.26807093670E+04  0.10100000352E+00 0.  1.
       -3    1    3    3    0  502  0.11042594452E+04  0.11124963716E+04 -0.35379691302E+02  0.15678931187E+04  0.10100000352E+00 0. -1.
</event>
<event>
 5   0  0.6541476E-07  0.3564808E+04  0.7818609E-02  0.8098601E-01
        2   -1    0    0  501    0  0.00000000000E+00  0.00000000000E+00  0.29065540203E+04  0.29065540203E+04  0.25500000920E-02 0.  1.
       -2   -1    0    0    0  501  0.00000000000E+00  0.00000000000E+00 -0.10930347176E+04  0.10930347176E+04  0.25500000920E-02 0. -1.
    10030    2    1    2    0    0  0.00000000000E+00  0.00000000000E+00  0.18135193027E+04  0.39995887379E+04  0.35648082432E+04 0.  0.
        4    1    3    3  502    0 -0.15664461799E+04  0.66380010925E+03  0.15031750028E+04  0.22702248615E+04  0.12699999809E+01 0.  1.
       -4    1    3    3    0  502  0.15664461799E+04 -0.66380010925E+03  0.31034429988E+03  0.17293638764E+04  0.12699999809E+01 0. -1.
</event>
<event>
 5   0  0.6848661E-07  0.3554058E+04  0.7818609E-02  0.8101097E-01
        2   -1    0    0  501    0  0.00000000000E+00  0.00000000000E+00  0.17704838315E+04  0.17704838315E+04  0.25500000920E-02 0. -1.
       -2   -1    0    0    0  501  0.00000000000E+00  0.00000000000E+00 -0.17835978852E+04  0.17835978852E+04  0.25500000920E-02 0.  1.
    10030    2    1    2    0    0  0.00000000000E+00  0.00000000000E+00 -0.13114053712E+02  0.35540817167E+04  0.35540575221E+04 0.  0.
        1    1    3    3  502    0  0.17585465171E+04  0.14024282780E+03  0.20716694471E+03  0.17762522474E+04  0.50400001928E-02 0. -1.
       -1    1    3    3    0  502 -0.17585465171E+04 -0.14024282780E+03 -0.22028099843E+03  0.17778294693E+04  0.50400001928E-02 0.  1.
</event>
<event>
 5   0  0.2086250E-07  0.3599251E+04  0.7818609E-02  0.8090663E-01
        1   -1    0    0  501    0  0.00000000000E+00  0.00000000000E+00  0.19260090756E+04  0.19260090756E+04  0.50400001928E-02 0.  1.
       -1   -1    0    0    0  501  0.00000000000E+00  0.00000000000E+00 -0.16815353500E+04  0.16815353500E+04  0.50400001928E-02 0. -1.
    10030    2    1    2    0    0  0.00000000000E+00  0.00000000000E+00  0.24447372563E+03  0.36075444256E+04  0.35992512250E+04 0.  0.
        2    1    3    3  502    0 -0.30555663017E+03 -0.16813303284E+03 -0.16473392039E+04  0.16838527322E+04  0.25500000920E-02 0. -1.
       -2    1    3    3    0  502  0.30555663017E+03  0.16813303284E+03  0.18918129295E+04  0.19236916934E+04  0.25500000920E-02 0.  1.
</event>
<event>
 5   0  0.2086250E-07  0.3170201E+04  0.7818609E-02  0.8196732E-01
        1   -1    0    0  501    0  0.00000000000E+00  0.00000000000E+00  0.11389010859E+04  0.11389010859E+04  0.50400001928E-02 0. -1.
       -1   -1    0    0    0  501  0.00000000000E+00  0.00000000000E+00 -0.22061127732E+04  0.22061127733E+04  0.50400001928E-02 0.  1.
    10030    2    1    2    0    0  0.00000000000E+00  0.00000000000E+00 -0.10672116873E+04  0.33450138592E+04  0.31702014025E+04 0.  0.
        4    1    3    3  502    0 -0.12423788183E+04  0.25515533582E+03  0.46957503989E+03  0.13524465626E+04  0.12699999809E+01 0. -1.
       -4    1    3    3    0  502  0.12423788183E+04 -0.25515533582E+03 -0.15367867272E+04  0.19925672966E+04  0.12699999809E+01 0.  1.
</event>
<event>
 5   0  0.2108068E-07  0.3516902E+04  0.7818609E-02  0.8109796E-01
        1   -1    0    0  501    0  0.00000000000E+00  0.00000000000E+00  0.12446881757E+04  0.12446881757E+04  0.50400001928E-02 0.  1.
       -1   -1    0    0    0  501  0.00000000000E+00  0.00000000000E+00 -0.24842772238E+04  0.24842772238E+04  0.50400001928E-02 0. -1.
    10030    2    1    2    0    0  0.00000000000E+00  0.00000000000E+00 -0.12395890481E+04  0.37289653995E+04  0.35169023220E+04 0.  0.
        5    1    3    3  502    0 -0.40335931673E+03 -0.66490194980E+03 -0.22920213742E+04  0.24203672059E+04  0.46999998093E+01 0. -1.
       -5    1    3    3    0  502  0.40335931673E+03  0.66490194980E+03  0.10524323261E+04  0.13085981936E+04  0.46999998093E+01 0.  1.
</event>
<event>
 5   0  0.6324216E-07  0.2978013E+04  0.7818609E-02  0.8250037E-01
       -2   -1    0    0    0  501  0.00000000000E+00  0.00000000000E+00  0.10177635927E+04  0.10177635927E+04  0.25500000920E-02 0. -1.
        2   -1    0    0  501    0  0.00000000000E+00  0.00000000000E+00 -0.21784436234E+04  0.21784436234E+04  0.25500000920E-02 0.  1.
    10030    2    1    2    0    0  0.00000000000E+00  0.00000000000E+00 -0.11606800307E+04  0.31962072162E+04  0.29780131691E+04 0.  0.
        2    1    3    3  502    0  0.10667875905E+04  0.42310185526E+03  0.43790244138E+03  0.12283360661E+04  0.25500000920E-02 0. -1.
       -2    1    3    3    0  502 -0.10667875905E+04 -0.42310185526E+03 -0.15985824721E+04  0.19678711501E+04  0.25500000920E-02 0.  1.
</event>
<event>
 5   0  0.2086250E-07  0.3526129E+04  0.7818609E-02  0.8107625E-01
       -1   -1    0    0    0  501  0.00000000000E+00  0.00000000000E+00  0.17928124202E+04  0.17928124203E+04  0.50400001928E-02 0. -1.
        1   -1    0    0  501    0  0.00000000000E+00  0.00000000000E+00 -0.17338101351E+04  0.17338101351E+04  0.50400001928E-02 0.  1.
    10030    2    1    2    0    0  0.00000000000E+00  0.00000000000E+00  0.59002285152E+02  0.35266225553E+04  0.35261289509E+04 0.  0.
        4    1    3    3  502    0  0.25764174797E+03 -0.13199691100E+04 -0.11107009936E+04  0.17442350849E+04  0.12699999809E+01 0.  1.
       -4    1    3    3    0  502 -0.25764174797E+03  0.13199691100E+04  0.11697032787E+04  0.17823874704E+04  0.12699999809E+01 0. -1.
</event>
<event>
 5   0  0.6669864E-07  0.3624824E+04  0.7818609E-02  0.8084829E-01
       -2   -1    0    0    0  501  0.00000000000E+00  0.00000000000E+00  0.23824078227E+04  0.23824078227E+04  0.25500000920E-02 0.  1.
        2   -1    0    0  501    0  0.00000000000E+00  0.00000000000E+00 -0.13787886758E+04  0.13787886758E+04  0.25500000920E-02 0. -1.
    10030    2    1    2    0    0  0.00000000000E+00  0.00000000000E+00  0.10036191469E+04  0.37611964985E+04  0.36248238175E+04 0.  0.
        5    1    3    3  502    0 -0.84577954769E+03 -0.11771391536E+04  0.16307761315E+04  0.21818461246E+04  0.46999998093E+01 0.  1.
       -5    1    3    3    0  502  0.84577954769E+03  0.11771391536E+04 -0.62715698461E+03  0.15793503739E+04  0.46999998093E+01 0. -1.
</event>
<event>
 5   0  0.2108068E-07  0.3622094E+04  0.7818609E-02  0.8085449E-01
        1   -1    0    0  501    0  0.00000000000E+00  0.00000000000E+00  0.23376668260E+04  0.23376668260E+04  0.50400001928E-02 0.  1.
       -1   -1    0    0    0  501  0.00000000000E+00  0.00000000000E+00 -0.14030621162E+04  0.14030621162E+04  0.50400001928E-02 0. -1.
    10030    2    1    2    0    0  0.00000000000E+00  0.00000000000E+00  0.93460470977E+03  0.37407289422E+04  0.36220942914E+04 0.  0.
        5    1    3    3  502    0  0.61995891900E+03 -0.12245139757E+04  0.16875629725E+04  0.21752412312E+04  0.46999998093E+01 0.  1.
       -5    1    3    3    0  502 -0.61995891900E+03  0.12245139757E+04 -0.75295826271E+03  0.15654877110E+04  0.46999998093E+01 0. -1.
</event>
<event>
 5   0  0.2193129E-07  0.3461296E+04  0.7818609E-02  0.8123024E-01
        1   -1    0    0  501    0  0.00000000000E+00  0.00000000000E+00  0.18102354028E+04  0.18102354028E+04  0.50400001928E-02 0.  1.
       -1   -1    0    0    0  501  0.00000000000E+00  0.00000000000E+00 -0.16545597674E+04  0.16545597675E+04  0.50400001928E-02 0. -1.
    10030    2    1    2    0    0  0.00000000000E+00  0.00000000000E+00  0.15567563533E+03  0.34647951702E+04  0.34612960966E+04 0.  0.
        1    1    3    3  502    0  0.17252934577E+04  0.18891887081E+02 -0.57013803850E+02  0.17263386088E+04  0.50400001928E-02 0. -1.
       -1    1    3    3    0  502 -0.17252934577E+04 -0.18891887081E+02  0.21268943918E+03  0.17384565614E+04  0.50400001928E-02 0.  1.
</event>
<event>
 5   0  0.6324216E-07  0.3599342E+04  0.7818609E-02  0.8090642E-01
        2   -1    0    0  501    0  0.00000000000E+00  0.00000000000E+00  0.21276228081E+04  0.21276228081E+04  0.25500000920E-02 0. -1.
       -2   -1    0    0    0  501  0.00000000000E+00  0.00000000000E+00 -0.15222699418E+04  0.15222699418E+04  0.25500000920E-02 0.  1.
    10030    2    1    2    0    0  0.00000000000E+00  0.00000000000E+00  0.60535286630E+03  0.36498927499E+04  0.35993423001E+04 0.  0.
        2    1    3    3  502    0  0.97816607500E+03 -0.14658563349E+04  0.67286871604E+03  0.18863446063E+04  0.25500000920E-02 0.  1.
       -2    1    3    3    0  502 -0.97816607500E+03  0.14658563349E+04 -0.67515849744E+02  0.17635481436E+04  0.25500000920E-02 0. -1.
</event>
<event>
 5   0  0.2108068E-07  0.3528124E+04  0.7818609E-02  0.8107157E-01
       -1   -1    0    0    0  501  0.00000000000E+00  0.00000000000E+00  0.20079165678E+04  0.20079165678E+04  0.50400001928E-02 0.  1.
        1   -1    0    0  501    0  0.00000000000E+00  0.00000000000E+00 -0.15498223383E+04  0.15498223383E+04  0.50400001928E-02 0. -1.
    10030    2    1    2    0    0  0.00000000000E+00  0.00000000000E+00  0.45809422955E+03  0.35577389061E+04  0.35281235524E+04 0.  0.
        5    1    3    3  502    0  0.67257968504E+03 -0.12692705366E+04  0.12615957445E+04  0.19118203473E+04  0.46999998093E+01 0.  1.
       -5    1    3    3    0  502 -0.67257968504E+03  0.12692705366E+04 -0.80350151497E+03  0.16459185588E+04  0.46999998093E+01 0. -1.
</event>
<event>
 5   0  0.6848661E-07  0.3659179E+04  0.7818609E-02  0.8077069E-01
       -2   -1    0    0    0  501  0.00000000000E+00  0.00000000000E+00  0.15234142213E+04  0.15234142213E+04  0.25500000920E-02 0. -1.
        2   -1    0    0  501    0  0.00000000000E+00  0.00000000000E+00 -0.21972996848E+04  0.21972996848E+04  0.25500000920E-02 0.  1.
    10030    2    1    2    0    0  0.00000000000E+00  0.00000000000E+00 -0.67388546345E+03  0.37207139061E+04  0.36591789179E+04 0.  0.
        1    1    3    3  502    0  0.13075058406E+04  0.89450846306E+03  0.59369762273E+03  0.16918019331E+04  0.50400001928E-02 0. -1.
       -1    1    3    3    0  502 -0.13075058406E+04 -0.89450846306E+03 -0.12675830862E+04  0.20289119730E+04  0.50400001928E-02 0.  1.
</event>
<event>
 5   0  0.2193129E-07  0.3599055E+04  0.7818609E-02  0.8090708E-01
        1   -1    0    0  501    0  0.00000000000E+00  0.00000000000E+00  0.17212428894E+04  0.17212428894E+04  0.50400001928E-02 0.  1.
       -1   -1    0    0    0  501  0.00000000000E+00  0.00000000000E+00 -0.18813727034E+04  0.18813727034E+04  0.50400001928E-02 0. -1.
    10030    2    1    2    0    0  0.00000000000E+00  0.00000000000E+00 -0.16012981402E+03  0.36026155928E+04  0.35990550915E+04 0.  0.
        1    1    3    3  502    0  0.10380363990E+03  0.53543036330E+03 -0.17966487435E+04  0.18776068750E+04  0.50400001928E-02 0. -1.
       -1    1    3    3    0  502 -0.10380363990E+03 -0.53543036330E+03  0.16365189295E+04  0.17250087177E+04  0.50400001928E-02 0.  1.
</event>
<event>
 5   0  0.2086250E-07  0.3786287E+04  0.7818609E-02  0.8049104E-01
       -1   -1    0    0    0  501  0.00000000000E+00  0.00000000000E+00  0.15076446203E+04  0.15076446203E+04  0.50400001928E-02 0.  1.
        1   -1    0    0  501    0  0.00000000000E+00  0.00000000000E+00 -0.23772135705E+04  0.23772135705E+04  0.50400001928E-02 0. -1.
    10030    2    1    2    0    0  0.00000000000E+00  0.00000000000E+00 -0.86956895026E+03  0.38848581908E+04  0.37862874961E+04 0.  0.
        2    1    3    3  502    0 -0.72154103030E+03 -0.11156588744E+04 -0.18184763110E+04  0.22521483691E+04  0.25500000920E-02 0. -1.
       -2    1    3    3    0  502  0.72154103030E+03  0.11156588744E+04  0.94890736079E+03  0.16327098217E+04  0.25500000920E-02 0.  1.
</event>
<event>
 5   0  0.6541476E-07  0.3619099E+04  0.7818609E-02  0.8086131E-01
        2   -1    0    0  501    0  0.00000000000E+00  0.00000000000E+00  0.16819444861E+04  0.16819444861E+04  0.25500000920E-02 0. -1.
       -2   -1    0    0    0  501  0.00000000000E+00  0.00000000000E+00 -0.19468355722E+04  0.19468355722E+04  0.25500000920E-02 0.  1.
    10030    2    1    2    0    0  0.00000000000E+00  0.00000000000E+00 -0.26489108605E+03  0.36287800583E+04  0.36190989796E+04 0.  0.
        4    1    3    3  502    0 -0.21639264543E+03  0.15622156361E+04  0.75712795868E+03  0.17494535802E+04  0.12699999809E+01 0.  1.
       -4    1    3    3    0  502  0.21639264543E+03 -0.15622156361E+04 -0.10220190447E+04  0.18793264781E+04  0.12699999809E+01 0. -1.
</event>
<event>
 5   0  0.6324216E-07  0.3628553E+04  0.7818609E-02  0.8083982E-01
        2   -1    0    0  501    0  0.00000000000E+00  0.00000000000E+00  0.10090149370E+04  0.10090149370E+04  0.25500000920E-02 0. -1.
       -2   -1    0    0    0  501  0.00000000000E+00  0.00000000000E+00 -0.32621912306E+04  0.32621912306E+04  0.25500000920E-02 0.  1.
    10030    2    1    2    0    0  0.00000000000E+00  0.00000000000E+00 -0.22531762936E+04  0.42712061676E+04  0.36285532539E+04 0.  0.
        2    1    3    3  502    0  0.91160295423E+03  0.14111787923E+04 -0.19328475902E+04  0.25609266559E+04  0.25500000920E-02 0.  1.
       -2    1    3    3    0  502 -0.91160295423E+03 -0.14111787923E+04 -0.32032870347E+03  0.17102795118E+04  0.25500000920E-02 0. -1.
</event>
<event>
 5   0  0.6541476E-07  0.3701668E+04  0.7818609E-02  0.8067592E-01
        2   -1    0    0  501    0  0.00000000000E+00  0.00000000000E+00  0.29471554046E+04  0.29471554046E+04  0.25500000920E-02 0. -1.
       -2   -1    0    0    0  501  0.00000000000E+00  0.00000000000E+00 -0.11623367700E+04  0.11623367700E+04  0.25500000920E-02 0.  1.
    10030    2    1    2    0    0  0.00000000000E+00  0.00000000000E+00  0.17848186346E+04  0.41094921746E+04  0.37016683231E+04 0.  0.
        4    1    3    3  502    0  0.49055599276E+03  0.16935746948E+04  0.15172158689E+04  0.23261096351E+04  0.12699999809E+01 0. -1.
       -4    1    3    3    0  502 -0.49055599276E+03 -0.16935746948E+04  0.26760276575E+03  0.17833825395E+04  0.12699999809E+01 0.  1.
</event>
<event>
 5   0  0.2086250E-07  0.3626586E+04  0.7818609E-02  0.8084429E-01
        1   -1    0    0  501    0  0.00000000000E+00  0.00000000000E+00  0.24333880998E+04  0.24333880998E+04  0.50400001928E-02 0.  1.
       -1   -1    0    0    0  501  0.00000000000E+00  0.00000000000E+00 -0.13512150843E+04  0.13512150843E+04  0.50400001928E-02 0. -1.
    10030    2    1    2    0    0  0.00000000000E+00  0.00000000000E+00  0.10821730156E+04  0.37846031841E+04  0.36265855602E+04 0.  0.
        2    1    3    3  502    0 -0.66897826899E+03  0.77262790262E+03 -0.10220244433E+04  0.14453441677E+04  0.25500000920E-02 0. -1.
       -2    1    3    3    0  502  0.66897826899E+03 -0.77262790262E+03  0.21041974589E+04  0.23392590165E+04  0.25500000920E-02 0.  1.
</event>
<event>
 5   0  0.6848661E-07  0.3624205E+04  0.7818609E-02  0.8084970E-01
        2   -1    0    0  501    0  0.00000000000E+00  0.00000000000E+00  0.14192545484E+04  0.14192545484E+04  0.25500000920E-02 0. -1.
       -2   -1    0    0    0  501  0.00000000000E+00  0.00000000000E+00 -0.23136909218E+04  0.23136909218E+04  0.25500000920E-02 0.  1.
    10030    2    1    2    0    0  0.00000000000E+00  0.00000000000E+00 -0.89443637336E+03  0.37329454702E+04  0.36242054933E+04 0.  0.
        1    1    3    3  502    0  0.16941195373E+04 -0.15667850261E+02  0.21505894662E+03  0.17077871175E+04  0.50400001928E-02 0. -1.
       -1    1    3    3    0  502 -0.16941195373E+04  0.15667850261E+02 -0.11094953200E+04  0.20251583527E+04  0.50400001928E-02 0.  1.
</event>
<event>
 5   0  0.2086250E-07  0.3588372E+04  0.7818609E-02  0.8093160E-01
        1   -1    0    0  501    0  0.00000000000E+00  0.00000000000E+00  0.13512241779E+04  0.13512241780E+04  0.50400001928E-02 0.  1.
       -1   -1    0    0    0  501  0.00000000000E+00  0.00000000000E+00 -0.23823610535E+04  0.23823610535E+04  0.50400001928E-02 0. -1.
    10030    2    1    2    0    0  0.00000000000E+00  0.00000000000E+00 -0.10311368756E+04  0.37335852315E+04  0.35883722528E+04 0.  0.
        4    1    3    3  502    0  0.16981073311E+04 -0.43304151735E+03 -0.11528067001E+03  0.17562416433E+04  0.12699999809E+01 0.  1.
       -4    1    3    3    0  502 -0.16981073311E+04  0.43304151735E+03 -0.91585620556E+03  0.19773435882E+04  0.12699999809E+01 0. -1.
</event>
<event>
 5   0  0.2086250E-07  0.3575776E+04  0.7818609E-02  0.8096063E-01
        1   -1    0    0  501    0  0.00000000000E+00  0.00000000000E+00  0.15988931966E+04  0.15988931966E+04  0.50400001928E-02 0.  1.
       -1   -1    0    0    0  501  0.00000000000E+00  0.00000000000E+00 -0.19992225053E+04  0.19992225053E+04  0.50400001928E-02 0. -1.
    10030    2    1    2    0    0  0.00000000000E+00  0.00000000000E+00 -0.40032930878E+03  0.35981157019E+04  0.35757758667E+04 0.  0.
        2    1    3    3  502    0  0.85120532992E+02 -0.24512996271E+03  0.15798440455E+04  0.16010126208E+04  0.25500000920E-02 0.  1.
       -2    1    3    3    0  502 -0.85120532992E+02  0.24512996271E+03 -0.19801733543E+04  0.19971030811E+04  0.25500000920E-02 0. -1.
</event>
<event>
 5   0  0.2193129E-07  0.3495421E+04  0.7818609E-02  0.8114876E-01
        1   -1    0    0  501    0  0.00000000000E+00  0.00000000000E+00  0.17247249339E+04  0.17247249339E+04  0.50400001928E-02 0.  1.
       -1   -1    0    0    0  501  0.00000000000E+00  0.00000000000E+00 -0.17710024042E+04  0.17710024042E+04  0.50400001928E-02 0. -1.
    10030    2    1    2    0    0  0.00000000000E+00  0.00000000000E+00 -0.46277470229E+02  0.34957273381E+04  0.34954210073E+04 0.  0.
        1    1    3    3  502    0  0.13036937563E+04 -0.62208100523E+03 -0.10070388682E+04  0.17608888294E+04  0.50400001928E-02 0. -1.
       -1    1    3    3    0  502 -0.13036937563E+04  0.62208100523E+03  0.96076139796E+03  0.17348385087E+04  0.50400001928E-02 0.  1.
</event>
<event>
 5   0  0.6848661E-07  0.3543408E+04  0.7818609E-02  0.8103579E-01
       -2   -1    0    0    0  501  0.00000000000E+00  0.00000000000E+00  0.15489678955E+04  0.15489678955E+04  0.25500000920E-02 0.  1.
        2   -1    0    0  501    0  0.00000000000E+00  0.00000000000E+00 -0.20264686018E+04  0.20264686018E+04  0.25500000920E-02 0. -1.
    10030    2    1    2    0    0  0.00000000000E+00  0.00000000000E+00 -0.47750070631E+03  0.35754364973E+04  0.35434078543E+04 0.  0.
        1    1    3    3  502    0  0.50490392423E+03 -0.17023959383E+03 -0.19437052992E+04  0.20154155359E+04  0.50400001928E-02 0. -1.
       -1    1    3    3    0  502 -0.50490392423E+03  0.17023959383E+03  0.14662045929E+04  0.15600209615E+04  0.50400001928E-02 0.  1.
</event>
<event>
 5   0  0.2086250E-07  0.3610988E+04  0.7818609E-02  0.8087979E-01
        1   -1    0    0  501    0  0.00000000000E+00  0.00000000000E+00  0.20249312598E+04  0.20249312598E+04  0.50400001928E-02 0. -1.
       -1   -1    0    0    0  501  0.00000000000E+00  0.00000000000E+00 -0.16098367536E+04  0.16098367536E+04  0.50400001928E-02 0.  1.
    10030    2    1    2    0    0  0.00000000000E+00  0.00000000000E+00  0.41509450621E+03  0.36347680134E+04  0.36109881005E+04 0.  0.
        3    1    3    3  502    0  0.98285051035E+03  0.13569589907E+04 -0.46954583365E+03  0.17400592312E+04  0.10100000352E+00 0. -1.
       -3    1    3    3    0  502 -0.98285051035E+03 -0.13569589907E+04  0.88464033986E+03  0.18947087821E+04  0.10100000352E+00 0.  1.
</event>
<event>
 5   0  0.2108068E-07  0.3589294E+04  0.7818609E-02  0.8092949E-01
        1   -1    0    0  501    0  0.00000000000E+00  0.00000000000E+00  0.20045855644E+04  0.20045855645E+04  0.50400001928E-02 0. -1.
       -1   -1    0    0    0  501  0.00000000000E+00  0.00000000000E+00 -0.16066947886E+04  0.16066947886E+04  0.50400001928E-02 0.  1.
    10030    2    1    2    0    0  0.00000000000E+00  0.00000000000E+00  0.39789077586E+03  0.36112803530E+04  0.35892936239E+04 0.  0.
        5    1    3    3  502    0 -0.11234082936E+04  0.88501202241E+02  0.16042318830E+04  0.19604746062E+04  0.46999998093E+01 0. -1.
       -5    1    3    3    0  502  0.11234082936E+04 -0.88501202241E+02 -0.12063411072E+04  0.16508057469E+04  0.46999998093E+01 0.  1.
</event>
<event>
 5   0  0.2086250E-07  0.3603490E+04  0.7818609E-02  0.8089693E-01
       -1   -1    0    0    0  501  0.00000000000E+00  0.00000000000E+00  0.13106296307E+04  0.13106296307E+04  0.50400001928E-02 0.  1.
        1   -1    0    0  501    0  0.00000000000E+00  0.00000000000E+00 -0.24768891292E+04  0.24768891292E+04  0.50400001928E-02 0. -1.
    10030    2    1    2    0    0  0.00000000000E+00  0.00000000000E+00 -0.11662594985E+04  0.37875187598E+04  0.36034895779E+04 0.  0.
        3    1    3    3  502    0 -0.71076271418E+02 -0.92484745772E+03 -0.22066462089E+04  0.23936754495E+04  0.10100000352E+00 0. -1.
       -3    1    3    3    0  502  0.71076271418E+02  0.92484745772E+03  0.10403867103E+04  0.13938433103E+04  0.10100000352E+00 0.  1.
</event>
<event>
 5   0  0.6324216E-07  0.3622647E+04  0.7818609E-02  0.8085324E-01
       -2   -1    0    0    0  501  0.00000000000E+00  0.00000000000E+00  0.15821854046E+04  0.15821854046E+04  0.25500000920E-02 0. -1.
        2   -1    0    0  501    0  0.00000000000E+00  0.00000000000E+00 -0.20736468087E+04  0.20736468087E+04  0.25500000920E-02 0.  1.
    10030    2    1    2    0    0  0.00000000000E+00  0.00000000000E+00 -0.49146140407E+03  0.36558322133E+04  0.36226474933E+04 0.  0.
        2    1    3    3  502    0 -0.18346187978E+03 -0.17624706915E+04 -0.62457938394E+03  0.18788455515E+04  0.25500000920E-02 0.  1.
       -2    1    3    3    0  502  0.18346187978E+03  0.17624706915E+04  0.13311797988E+03  0.17769866618E+04  0.25500000920E-02 0. -1.
</event>
<event>
 5   0  0.6324216E-07  0.3592215E+04  0.7818609E-02  0.8092277E-01
        2   -1    0    0  501    0  0.00000000000E+00  0.00000000000E+00  0.20948873865E+04  0.20948873865E+04  0.25500000920E-02 0.  1.
       -2   -1    0    0    0  501  0.00000000000E+00  0.00000000000E+00 -0.15399402759E+04  0.15399402759E+04  0.25500000920E-02 0. -1.
    10030    2    1    2    0    0  0.00000000000E+00  0.00000000000E+00  0.55494711058E+03  0.36348276624E+04  0.35922146149E+04 0.  0.
        2    1    3    3  502    0  0.14641782517E+04  0.10643572818E+03 -0.76962334013E+03  0.16575483711E+04  0.25500000920E-02 0. -1.
       -2    1    3    3    0  502 -0.14641782517E+04 -0.10643572818E+03  0.13245704507E+04  0.19772792913E+04  0.25500000920E-02 0.  1.
</event>
<event>
 5   0  0.6541476E-07  0.3582428E+04  0.7818609E-02  0.8094529E-01
        2   -1    0    0  501    0  0.00000000000E+00  0.00000000000E+00  0.23137188844E+04  0.23137188844E+04  0.25500000920E-02 0.  1.
       -2   -1    0    0    0  501  0.00000000000E+00  0.00000000000E+00 -0.13867060135E+04  0.13867060135E+04  0.25500000920E-02 0. -1.
    10030    2    1    2    0    0  0.00000000000E+00  0.00000000000E+00  0.92701287091E+03  0.37004248980E+04  0.35824281658E+04 0.  0.
        4    1    3    3  502    0 -0.56928008174E+03  0.56250463450E+03  0.21187724883E+04  0.22648818391E+04  0.12699999809E+01 0.  1.
       -4    1    3    3    0  502  0.56928008174E+03 -0.56250463450E+03 -0.11917596174E+04  0.14355430588E+04  0.12699999809E+01 0. -1.
</event>
<event>
 5   0  0.2086250E-07  0.3594978E+04  0.7818609E-02  0.8091643E-01
        1   -1    0    0  501    0  0.00000000000E+00  0.00000000000E+00  0.11142185210E+04  0.11142185210E+04  0.50400001928E-02 0.  1.
       -1   -1    0    0    0  501  0.00000000000E+00  0.00000000000E+00 -0.28997596174E+04  0.28997596174E+04  0.50400001928E-02 0. -1.
    10030    2    1    2    0    0  0.00000000000E+00  0.00000000000E+00 -0.17855410964E+04  0.40139781384E+04  0.35949775366E+04 0.  0.
        3    1    3    3  502    0  0.37841295810E+03 -0.70608295072E+03  0.90387743072E+03  0.12077847160E+04  0.10100000352E+00 0.  1.
       -3    1    3    3    0  502 -0.37841295810E+03  0.70608295072E+03 -0.26894185271E+04  0.28061934225E+04  0.10100000352E+00 0. -1.
</event>
<event>
 5   0  0.2086250E-07  0.3623003E+04  0.7818609E-02  0.8085243E-01
       -1   -1    0    0    0  501  0.00000000000E+00  0.00000000000E+00  0.16194861298E+04  0.16194861298E+04  0.50400001928E-02 0. -1.
        1   -1    0    0  501    0  0.00000000000E+00  0.00000000000E+00 -0.20262835510E+04  0.20262835510E+04  0.50400001928E-02 0.  1.
    10030    2    1    2    0    0  0.00000000000E+00  0.00000000000E+00 -0.40679742114E+03  0.36457696808E+04  0.36230032326E+04 0.  0.
        4    1    3    3  502    0 -0.29637010909E+03  0.17866308318E+04 -0.16250441763E+03  0.18183218278E+04  0.12699999809E+01 0. -1.
       -4    1    3    3    0  502  0.29637010909E+03 -0.17866308318E+04 -0.24429300352E+03  0.18274478530E+04  0.12699999809E+01 0.  1.
</event>
<event>
 5   0  0.6669864E-07  0.3608173E+04  0.7818609E-02  0.8088622E-01
        2   -1    0    0  501    0  0.00000000000E+00  0.00000000000E+00  0.16970678207E+04  0.16970678207E+04  0.25500000920E-02 0.  1.
       -2   -1    0    0    0  501  0.00000000000E+00  0.00000000000E+00 -0.19178535623E+04  0.19178535623E+04  0.25500000920E-02 0. -1.
    10030    2    1    2    0    0  0.00000000000E+00  0.00000000000E+00 -0.22078574154E+03  0.36149213830E+04  0.36081727040E+04 0.  0.
        5    1    3    3  502    0  0.15937640163E+03 -0.80591532066E+03 -0.17195742237E+04  0.19057434093E+04  0.46999998093E+01 0. -1.
       -5    1    3    3    0  502 -0.15937640163E+03  0.80591532066E+03  0.14987884822E+04  0.17091779737E+04  0.46999998093E+01 0.  1.
</event>
<event>
 5   0  0.2108068E-07  0.3527653E+04  0.7818609E-02  0.8107268E-01
       -1   -1    0    0    0  501  0.00000000000E+00  0.00000000000E+00  0.19401211537E+04  0.19401211537E+04  0.50400001928E-02 0. -1.
        1   -1    0    0  501    0  0.00000000000E+00  0.00000000000E+00 -0.16035516389E+04  0.16035516389E+04  0.50400001928E-02 0.  1.
    10030    2    1    2    0    0  0.00000000000E+00  0.00000000000E+00  0.33656951480E+03  0.35436727925E+04  0.35276533024E+04 0.  0.
        5    1    3    3  502    0 -0.15978757791E+04 -0.43463421727E+03  0.77845435907E+03  0.18297888368E+04  0.46999998093E+01 0. -1.
       -5    1    3    3    0  502  0.15978757791E+04  0.43463421727E+03 -0.44188484427E+03  0.17138839557E+04  0.46999998093E+01 0.  1.
</event>
<event>
 5   0  0.2086250E-07  0.3663706E+04  0.7818609E-02  0.8076053E-01
       -1   -1    0    0    0  501  0.00000000000E+00  0.00000000000E+00  0.18163895123E+04  0.18163895123E+04  0.50400001928E-02 0. -1.
        1   -1    0    0  501    0  0.00000000000E+00  0.00000000000E+00 -0.18474482616E+04  0.18474482616E+04  0.50400001928E-02 0.  1.
    10030    2    1    2    0    0  0.00000000000E+00  0.00000000000E+00 -0.31058749314E+02  0.36638377739E+04  0.36637061273E+04 0.  0.
        2    1    3    3  502    0 -0.70753644320E+03 -0.14383940705E+04 -0.90218422336E+03  0.18394351560E+04  0.25500000920E-02 0.  1.
       -2    1    3    3    0  502  0.70753644320E+03  0.14383940705E+04  0.87112547405E+03  0.18244026178E+04  0.25500000920E-02 0. -1.
</event>
<event>
 5   0  0.6729577E-07  0.3613333E+04  0.7818609E-02  0.8087444E-01
        2   -1    0    0  501    0  0.00000000000E+00  0.00000000000E+00  0.17524685842E+04  0.17524685842E+04  0.25500000920E-02 0. -1.
       -2   -1    0    0    0  501  0.00000000000E+00  0.00000000000E+00 -0.18625405427E+04  0.18625405427E+04  0.25500000920E-02 0.  1.
    10030    2    1    2    0    0  0.00000000000E+00  0.00000000000E+00 -0.11007195850E+03  0.36150091269E+04  0.36133329700E+04 0.  0.
        3    1    3    3  502    0  0.13014421476E+04  0.87572927560E+03  0.84170025738E+03  0.17802002026E+04  0.10100000352E+00 0. -1.
       -3    1    3    3    0  502 -0.13014421476E+04 -0.87572927560E+03 -0.95177221588E+03  0.18348089244E+04  0.10100000352E+00 0.  1.
</event>
<event>
 5   0  0.2086250E-07  0.3517044E+04  0.7818609E-02  0.8109763E-01
       -1   -1    0    0    0  501  0.00000000000E+00  0.00000000000E+00  0.15459169953E+04  0.15459169953E+04  0.50400001928E-02 0.  1.
        1   -1    0    0  501    0  0.00000000000E+00  0.00000000000E+00 -0.20003658195E+04  0.20003658195E+04  0.50400001928E-02 0. -1.
    10030    2    1    2    0    0  0.00000000000E+00  0.00000000000E+00 -0.45444882418E+03  0.35462828148E+04  0.35170439390E+04 0.  0.
        3    1    3    3  502    0  0.96920271771E+03  0.71960630686E+03  0.10621607088E+04  0.16079093651E+04  0.10100000352E+00 0.  1.
       -3    1    3    3    0  502 -0.96920271771E+03 -0.71960630686E+03 -0.15166095330E+04  0.19383734497E+04  0.10100000352E+00 0. -1.
</event>
<event>
 5   0  0.2086250E-07  0.3589991E+04  0.7818609E-02  0.8092788E-01
        1   -1    0    0  501    0  0.00000000000E+00  0.00000000000E+00  0.15614007237E+04  0.15614007237E+04  0.50400001928E-02 0.  1.
       -1   -1    0    0    0  501  0.00000000000E+00  0.00000000000E+00 -0.20635370001E+04  0.20635370001E+04  0.50400001928E-02 0. -1.
    10030    2    1    2    0    0  0.00000000000E+00  0.00000000000E+00 -0.50213627642E+03  0.36249377238E+04  0.35899906213E+04 0.  0.
        3    1    3    3  502    0  0.13401269498E+04 -0.60584579111E+03  0.78803598682E+03  0.16685293198E+04  0.10100000352E+00 0.  1.
       -3    1    3    3    0  502 -0.13401269498E+04  0.60584579111E+03 -0.12901722632E+04  0.19564084040E+04  0.10100000352E+00 0. -1.
</event>
<event>
 5   0  0.2086250E-07  0.3544426E+04  0.7818609E-02  0.8103342E-01
       -1   -1    0    0    0  501  0.00000000000E+00  0.00000000000E+00  0.14486971931E+04  0.14486971931E+04  0.50400001928E-02 0.  1.
        1   -1    0    0  501    0  0.00000000000E+00  0.00000000000E+00 -0.21679742910E+04  0.21679742910E+04  0.50400001928E-02 0. -1.
    10030    2    1    2    0    0  0.00000000000E+00  0.00000000000E+00 -0.71927709788E+03  0.36166714841E+04  0.35444256348E+04 0.  0.
        3    1    3    3  502    0 -0.12173933680E+04 -0.12048879818E+04  0.10453655822E+03  0.17160214344E+04  0.10100000352E+00 0. -1.
       -3    1    3    3    0  502  0.12173933680E+04  0.12048879818E+04 -0.82381365610E+03  0.19006500497E+04  0.10100000352E+00 0.  1.
</event>
<event>
 5   0  0.2086250E-07  0.3635349E+04  0.7818609E-02  0.8082442E-01
        1   -1    0    0  501    0  0.00000000000E+00  0.00000000000E+00  0.23343147939E+04  0.23343147939E+04  0.50400001928E-02 0. -1.
       -1   -1    0    0    0  501  0.00000000000E+00  0.00000000000E+00 -0.14153793222E+04  0.14153793222E+04  0.50400001928E-02 0.  1.
    10030    2    1    2    0    0  0.00000000000E+00  0.00000000000E+00  0.91893547177E+03  0.37496941161E+04  0.36353491666E+04 0.  0.
        2    1    3    3  502    0  0.17040463271E+03 -0.66734223879E+03  0.21945056607E+04  0.23000518467E+04  0.25500000920E-02 0. -1.
       -2    1    3    3    0  502 -0.17040463271E+03  0.66734223879E+03 -0.12755701889E+04  0.14496422695E+04  0.25500000920E-02 0.  1.
</event>
<event>
 5   0  0.2086250E-07  0.3596770E+04  0.7818609E-02  0.8091232E-01
        1   -1    0    0  501    0  0.00000000000E+00  0.00000000000E+00  0.18764379288E+04  0.18764379288E+04  0.50400001928E-02 0. -1.
       -1   -1    0    0    0  501  0.00000000000E+00  0.00000000000E+00 -0.17235789150E+04  0.17235789150E+04  0.50400001928E-02 0.  1.
    10030    2    1    2    0    0  0.00000000000E+00  0.00000000000E+00  0.15285901382E+03  0.36000168438E+04  0.35967701341E+04 0.  0.
        4    1    3    3  502    0  0.64091658433E+03  0.44927375544E+03  0.16970162016E+04  0.18688195677E+04  0.12699999809E+01 0. -1.
       -4    1    3    3    0  502 -0.64091658433E+03 -0.44927375544E+03 -0.15441571877E+04  0.17311972761E+04  0.12699999809E+01 0.  1.
</event>
<event>
 5   0  0.2086250E-07  0.3589293E+04  0.7818609E-02  0.8092949E-01
        1   -1    0    0  501    0  0.00000000000E+00  0.00000000000E+00  0.16658714675E+04  0.16658714675E+04  0.50400001928E-02 0. -1.
       -1   -1    0    0    0  501  0.00000000000E+00  0.00000000000E+00 -0.19333757124E+04  0.19333757124E+04  0.50400001928E-02 0.  1.
    10030    2    1    2    0    0  0.00000000000E+00  0.00000000000E+00 -0.26750424487E+03  0.35992471800E+04  0.35892926520E+04 0.  0.
        4    1    3    3  502    0  0.82588772043E+03  0.97715044669E+03  0.11282453870E+04  0.17058290619E+04  0.12699999809E+01 0. -1.
       -4    1    3    3    0  502 -0.82588772043E+03 -0.97715044669E+03 -0.13957496318E+04  0.18934181181E+04  0.12699999809E+01 0.  1.
</event>
<event>
 5   0  0.6729577E-07  0.3481423E+04  0.7818609E-02  0.8118207E-01
       -2   -1    0    0    0  501  0.00000000000E+00  0.00000000000E+00  0.99255107095E+03  0.99255107095E+03  0.25500000920E-02 0. -1.
        2   -1    0    0  501    0  0.00000000000E+00  0.00000000000E+00 -0.30528159078E+04  0.30528159078E+04  0.25500000920E-02 0.  1.
    10030    2    1    2    0    0  0.00000000000E+00  0.00000000000E+00 -0.20602648369E+04  0.40453669788E+04  0.34814225246E+04 0.  0.
        3    1    3    3  502    0  0.62348841066E+03  0.11318048606E+04  0.32514256610E+03  0.13324555299E+04  0.10100000352E+00 0. -1.
       -3    1    3    3    0  502 -0.62348841066E+03 -0.11318048606E+04 -0.23854074030E+04  0.27129114488E+04  0.10100000352E+00 0.  1.
</event>
<event>
 5   0  0.6541476E-07  0.3518380E+04  0.7818609E-02  0.8109448E-01
        2   -1    0    0  501    0  0.00000000000E+00  0.00000000000E+00  0.25878644250E+04  0.25878644250E+04  0.25500000920E-02 0. -1.
       -2   -1    0    0    0  501  0.00000000000E+00  0.00000000000E+00 -0.11958701236E+04  0.11958701236E+04  0.25500000920E-02 0.  1.
    10030    2    1    2    0    0  0.00000000000E+00  0.00000000000E+00  0.13919943014E+04  0.37837345486E+04  0.35183801669E+04 0.  0.
        4    1    3    3  502    0 -0.20197741581E+03  0.11901950505E+04  0.20721093062E+04  0.23981237925E+04  0.12699999809E+01 0. -1.
       -4    1    3    3    0  502  0.20197741581E+03 -0.11901950505E+04 -0.68011500472E+03  0.13856107560E+04  0.12699999809E+01 0.  1.
</event>
<event>
 5   0  0.6541476E-07  0.3592325E+04  0.7818609E-02  0.8092252E-01
       -2   -1    0    0    0  501  0.00000000000E+00  0.00000000000E+00  0.14348005799E+04  0.14348005799E+04  0.25500000920E-02 0. -1.
        2   -1    0    0  501    0  0.00000000000E+00  0.00000000000E+00 -0.22485348955E+04  0.22485348955E+04  0.25500000920E-02 0.  1.
    10030    2    1    2    0    0  0.00000000000E+00  0.00000000000E+00 -0.81373431552E+03  0.36833354754E+04  0.35923246913E+04 0.  0.
        4    1    3    3  502    0  0.10626915907E+03  0.28266789258E+03  0.14085845162E+04  0.14405923170E+04  0.12699999809E+01 0. -1.
       -4    1    3    3    0  502 -0.10626915907E+03 -0.28266789258E+03 -0.22223188317E+04  0.22427431584E+04  0.12699999809E+01 0.  1.
</event>
<event>
 5   0  0.2108068E-07  0.3589849E+04  0.7818609E-02  0.8092821E-01
       -1   -1    0    0    0  501  0.00000000000E+00  0.00000000000E+00  0.19316409837E+04  0.19316409837E+04  0.50400001928E-02 0.  1.
        1   -1    0    0  501    0  0.00000000000E+00  0.00000000000E+00 -0.16678841714E+04  0.16678841714E+04  0.50400001928E-02 0. -1.
    10030    2    1    2    0    0  0.00000000000E+00  0.00000000000E+00  0.26375681222E+03  0.35995251551E+04  0.35898486996E+04 0.  0.
        5    1    3    3  502    0  0.75440617019E+03  0.15778801155E+04 -0.27281452199E+03  0.17701085226E+04  0.46999998093E+01 0. -1.
       -5    1    3    3    0  502 -0.75440617019E+03 -0.15778801155E+04  0.53657133421E+03  0.18294166325E+04  0.46999998093E+01 0.  1.
</event>
<event>
 5   0  0.2086250E-07  0.3593172E+04  0.7818609E-02  0.8092058E-01
       -1   -1    0    0    0  501  0.00000000000E+00  0.00000000000E+00  0.23306847885E+04  0.23306847885E+04  0.50400001928E-02 0.  1.
        1   -1    0    0  501    0  0.00000000000E+00  0.00000000000E+00 -0.13848811046E+04  0.13848811046E+04  0.50400001928E-02 0. -1.
    10030    2    1    2    0    0  0.00000000000E+00  0.00000000000E+00  0.94580368388E+03  0.37155658931E+04  0.35931720384E+04 0.  0.
        3    1    3    3  502    0  0.14483474082E+04 -0.96371698786E+03  0.89996661206E+01  0.17396958504E+04  0.10100000352E+00 0.  1.
       -3    1    3    3    0  502 -0.14483474082E+04  0.96371698786E+03  0.93680401776E+03  0.19758700427E+04  0.10100000352E+00 0. -1.
</event>
<event>
 5   0  0.6541476E-07  0.3594815E+04  0.7818609E-02  0.8091681E-01
       -2   -1    0    0    0  501  0.00000000000E+00  0.00000000000E+00  0.34189155884E+04  0.34189155884E+04  0.25500000920E-02 0. -1.
        2   -1    0    0  501    0  0.00000000000E+00  0.00000000000E+00 -0.94494079988E+03  0.94494079988E+03  0.25500000920E-02 0.  1.
    10030    2    1    2    0    0  0.00000000000E+00  0.00000000000E+00  0.24739747886E+04  0.43638563883E+04  0.35948145047E+04 0.  0.
        4    1    3    3  502    0  0.17379682740E+04 -0.44586018396E+03  0.11076812854E+04  0.21086214615E+04  0.12699999809E+01 0. -1.
       -4    1    3    3    0  502 -0.17379682740E+04  0.44586018396E+03  0.13662935032E+04  0.22552349268E+04  0.12699999809E+01 0.  1.
</event>
<event>
 5   0  0.6669864E-07  0.3628361E+04  0.7818609E-02  0.8084026E-01
       -2   -1    0    0    0  501  0.00000000000E+00  0.00000000000E+00  0.19716064332E+04  0.19716064332E+04  0.25500000920E-02 0.  1.
        2   -1    0    0  501    0  0.00000000000E+00  0.00000000000E+00 -0.16693246875E+04  0.16693246875E+04  0.25500000920E-02 0. -1.
    10030    2    1    2    0    0  0.00000000000E+00  0.00000000000E+00  0.30228174571E+03  0.36409311207E+04  0.36283612240E+04 0.  0.
        5    1    3    3  502    0  0.27606671359E+03  0.48490284181E+02 -0.16474594678E+04  0.16711400079E+04  0.46999998093E+01 0. -1.
       -5    1    3    3    0  502 -0.27606671359E+03 -0.48490284181E+02  0.19497412135E+04  0.19697911127E+04  0.46999998093E+01 0.  1.
</event>
<event>
 5   0  0.2108068E-07  0.3314896E+04  0.7818609E-02  0.8159115E-01
        1   -1    0    0  501    0  0.00000000000E+00  0.00000000000E+00  0.15863991051E+04  0.15863991051E+04  0.50400001928E-02 0. -1.
       -1   -1    0    0    0  501  0.00000000000E+00  0.00000000000E+00 -0.17316793515E+04  0.17316793515E+04  0.50400001928E-02 0.  1.
    10030    2    1    2    0    0  0.00000000000E+00  0.00000000000E+00 -0.14528024637E+03  0.33180784567E+04  0.33148964229E+04 0.  0.
        5    1    3    3  502    0 -0.11584181348E+04  0.11836112342E+04 -0.13785137561E+03  0.16618944673E+04  0.46999998093E+01 0.  1.
       -5    1    3    3    0  502  0.11584181348E+04 -0.11836112342E+04 -0.74288707603E+01  0.16561839894E+04  0.46999998093E+01 0. -1.
</event>
<event>
 5   0  0.2086250E-07  0.3589826E+04  0.7818609E-02  0.8092826E-01
        1   -1    0    0  501    0  0.00000000000E+00  0.00000000000E+00  0.26023556628E+04  0.26023556628E+04  0.50400001928E-02 0. -1.
       -1   -1    0    0    0  501  0.00000000000E+00  0.00000000000E+00 -0.12379986987E+04  0.12379986987E+04  0.50400001928E-02 0.  1.
    10030    2    1    2    0    0  0.00000000000E+00  0.00000000000E+00  0.13643569641E+04  0.38403543614E+04  0.35898261373E+04 0.  0.
        3    1    3    3  502    0  0.14324535061E+04  0.93006701042E+03  0.91595962404E+02  0.17103618101E+04  0.10100000352E+00 0.  1.
       -3    1    3    3    0  502 -0.14324535061E+04 -0.93006701042E+03  0.12727610017E+04  0.21299925513E+04  0.10100000352E+00 0. -1.
</event>
<event>
 5   0  0.6324216E-07  0.3596110E+04  0.7818609E-02  0.8091383E-01
       -2   -1    0    0    0  501  0.00000000000E+00  0.00000000000E+00  0.18750216091E+04  0.18750216091E+04  0.25500000920E-02 0. -1.
        2   -1    0    0  501    0  0.00000000000E+00  0.00000000000E+00 -0.17242473905E+04  0.17242473905E+04  0.25500000920E-02 0.  1.
    10030    2    1    2    0    0  0.00000000000E+00  0.00000000000E+00  0.15077421854E+03  0.35992689996E+04  0.35961096293E+04 0.  0.
        2    1    3    3  502    0 -0.62559118857E+03  0.24085118721E+03  0.17452735605E+04  0.18695864330E+04  0.25500000920E-02 0. -1.
       -2    1    3    3    0  502  0.62559118857E+03 -0.24085118721E+03 -0.15944993419E+04  0.17296825666E+04  0.25500000920E-02 0.  1.
</event>
<event>
 5   0  0.6669864E-07  0.3597126E+04  0.7818609E-02  0.8091150E-01
       -2   -1    0    0    0  501  0.00000000000E+00  0.00000000000E+00  0.14787993329E+04  0.14787993329E+04  0.25500000920E-02 0.  1.
        2   -1    0    0  501    0  0.00000000000E+00  0.00000000000E+00 -0.21874703154E+04  0.21874703154E+04  0.25500000920E-02 0. -1.
    10030    2    1    2    0    0  0.00000000000E+00  0.00000000000E+00 -0.70867098249E+03  0.36662696483E+04  0.35971264327E+04 0.  0.
        5    1    3    3  502    0  0.85081835232E+03 -0.13228480318E+04 -0.12434502604E+04  0.20049961157E+04  0.46999998093E+01 0. -1.
       -5    1    3    3    0  502 -0.85081835232E+03  0.13228480318E+04  0.53477927795E+03  0.16612735326E+04  0.46999998093E+01 0.  1.
</event>
<event>
 5   0  0.6848661E-07  0.3533942E+04  0.7818609E-02  0.8105793E-01
       -2   -1    0    0    0  501  0.00000000000E+00  0.00000000000E+00  0.21711872634E+04  0.21711872634E+04  0.25500000920E-02 0.  1.
        2   -1    0    0  501    0  0.00000000000E+00  0.00000000000E+00 -0.14380084672E+04  0.14380084672E+04  0.25500000920E-02 0. -1.
    10030    2    1    2    0    0  0.00000000000E+00  0.00000000000E+00  0.73317879623E+03  0.36091957305E+04  0.35339415210E+04 0.  0.
        1    1    3    3  502    0  0.91116161207E+03  0.67013956698E+03  0.17530258731E+04  0.20862411735E+04  0.50400001928E-02 0.  1.
       -1    1    3    3    0  502 -0.91116161207E+03 -0.67013956698E+03 -0.10198470768E+04  0.15229545570E+04  0.50400001928E-02 0. -1.
</event>
<event>
 5   0  0.6541476E-07  0.3688733E+04  0.7818609E-02  0.8070463E-01
        2   -1    0    0  501    0  0.00000000000E+00  0.00000000000E+00  0.21268289945E+04  0.21268289945E+04  0.25500000920E-02 0.  1.
       -2   -1    0    0    0  501  0.00000000000E+00  0.00000000000E+00 -0.15994180610E+04  0.15994180610E+04  0.25500000920E-02 0. -1.
    10030    2    1    2    0    0  0.00000000000E+00  0.00000000000E+00  0.52741093347E+03  0.37262470555E+04  0.36887334989E+04 0.  0.
        4    1    3    3  502    0  0.13925423806E+04 -0.11054210576E+04 -0.23174866363E+03  0.17929972260E+04  0.12699999809E+01 0. -1.
       -4    1    3    3    0  502 -0.13925423806E+04  0.11054210576E+04  0.75915959710E+03  0.19332498295E+04  0.12699999809E+01 0.  1.
</event>
<event>
 5   0  0.6669864E-07  0.3582815E+04  0.7818609E-02  0.8094439E-01
       -2   -1    0    0    0  501  0.00000000000E+00  0.00000000000E+00  0.12505752659E+04  0.12505752659E+04  0.25500000920E-02 0. -1.
        2   -1    0    0  501    0  0.00000000000E+00  0.00000000000E+00 -0.25661320928E+04  0.25661320928E+04  0.25500000920E-02 0.  1.
    10030    2    1    2    0    0  0.00000000000E+00  0.00000000000E+00 -0.13155568268E+04  0.38167073587E+04  0.35828152754E+04 0.  0.
        5    1    3    3  502    0  0.15650283842E+03  0.12608898201E+04 -0.20030663197E+04  0.23720524969E+04  0.46999998093E+01 0.  1.
       -5    1    3    3    0  502 -0.15650283842E+03 -0.12608898201E+04  0.68750949290E+03  0.14446548618E+04  0.46999998093E+01 0. -1.
</event>
<event>
 5   0  0.6729577E-07  0.3632441E+04  0.7818609E-02  0.8083101E-01
       -2   -1    0    0    0  501  0.00000000000E+00  0.00000000000E+00  0.13342204153E+04  0.13342204153E+04  0.25500000920E-02 0. -1.
        2   -1    0    0  501    0  0.00000000000E+00  0.00000000000E+00 -0.24723471807E+04  0.24723471807E+04  0.25500000920E-02 0.  1.
    10030    2    1    2    0    0  0.00000000000E+00  0.00000000000E+00 -0.11381267654E+04  0.38065675959E+04  0.36324405471E+04 0.  0.
        3    1    3    3  502    0 -0.15809170440E+04 -0.56462407826E+03  0.15738957327E+03  0.16860814149E+04  0.10100000352E+00 0. -1.
       -3    1    3    3    0  502  0.15809170440E+04  0.56462407826E+03 -0.12955163387E+04  0.21204861810E+04  0.10100000352E+00 0.  1.
</event>
<event>
 5   0  0.2086250E-07  0.3546079E+04  0.7818609E-02  0.8102956E-01
       -1   -1    0    0    0  501  0.00000000000E+00  0.00000000000E+00  0.12667103895E+04  0.12667103896E+04  0.50400001928E-02 0.  1.
        1   -1    0    0  501    0  0.00000000000E+00  0.00000000000E+00 -0.24817583139E+04  0.24817583139E+04  0.50400001928E-02 0. -1.
    10030    2    1    2    0    0  0.00000000000E+00  0.00000000000E+00 -0.12150479243E+04  0.37484687034E+04  0.35460789842E+04 0.  0.
        4    1    3    3  502    0  0.73504334645E+03 -0.15283164219E+04 -0.11543774059E+04  0.20514942395E+04  0.12699999809E+01 0. -1.
       -4    1    3    3    0  502 -0.73504334645E+03  0.15283164219E+04 -0.60670518410E+02  0.16969744639E+04  0.12699999809E+01 0.  1.
</event>
<event>
 5   0  0.6669864E-07  0.3468262E+04  0.7818609E-02  0.8121353E-01
        2   -1    0    0  501    0  0.00000000000E+00  0.00000000000E+00  0.28586744809E+04  0.28586744809E+04  0.25500000920E-02 0.  1.
       -2   -1    0    0    0  501  0.00000000000E+00  0.00000000000E+00 -0.10519597472E+04  0.10519597472E+04  0.25500000920E-02 0. -1.
    10030    2    1    2    0    0  0.00000000000E+00  0.00000000000E+00  0.18067147337E+04  0.39106342281E+04  0.34682620917E+04 0.  0.
        5    1    3    3  502    0 -0.56093759721E+02 -0.12157157507E+02 -0.10508812734E+04  0.10524580026E+04  0.46999998093E+01 0. -1.
       -5    1    3    3    0  502  0.56093759721E+02  0.12157157507E+02  0.28575960071E+04  0.28581762255E+04  0.46999998093E+01 0.  1.
</event>
<event>
 5   0  0.2108068E-07  0.3577183E+04  0.7818609E-02  0.8095738E-01
       -1   -1    0    0    0  501  0.00000000000E+00  0.00000000000E+00  0.19478498336E+04  0.19478498337E+04  0.50400001928E-02 0.  1.
        1   -1    0    0  501    0  0.00000000000E+00  0.00000000000E+00 -0.16423543882E+04  0.16423543882E+04  0.50400001928E-02 0. -1.
    10030    2    1    2    0    0  0.00000000000E+00  0.00000000000E+00  0.30549544542E+03  0.35902042219E+04  0.35771830940E+04 0.  0.
        5    1    3    3  502    0  0.31766071312E+03  0.16301438675E+04 -0.51356668814E+03  0.17384044957E+04  0.46999998093E+01 0. -1.
       -5    1    3    3    0  502 -0.31766071312E+03 -0.16301438675E+04  0.81906213356E+03  0.18517997262E+04  0.46999998093E+01 0.  1.
</event>
<event>
 5   0  0.2108068E-07  0.3650652E+04  0.7818609E-02  0.8078987E-01
        1   -1    0    0  501    0  0.00000000000E+00  0.00000000000E+00  0.19531475083E+04  0.19531475083E+04  0.50400001928E-02 0. -1.
       -1   -1    0    0    0  501  0.00000000000E+00  0.00000000000E+00 -0.17058693388E+04  0.17058693388E+04  0.50400001928E-02 0.  1.
    10030    2    1    2    0    0  0.00000000000E+00  0.00000000000E+00  0.24727816950E+03  0.36590168471E+04  0.36506516945E+04 0.  0.
        5    1    3    3  502    0  0.28279258696E+03  0.13631247022E+04 -0.10596217551E+04  0.17495430704E+04  0.46999998093E+01 0.  1.
       -5    1    3    3    0  502 -0.28279258696E+03 -0.13631247022E+04  0.13068999246E+04  0.19094737767E+04  0.46999998093E+01 0. -1.
</event>
<event>
 5   0  0.2108068E-07  0.3608708E+04  0.7818609E-02  0.8088500E-01
       -1   -1    0    0    0  501  0.00000000000E+00  0.00000000000E+00  0.12984157693E+04  0.12984157693E+04  0.50400001928E-02 0. -1.
        1   -1    0    0  501    0  0.00000000000E+00  0.00000000000E+00 -0.25074346074E+04  0.25074346074E+04  0.50400001928E-02 0.  1.
    10030    2    1    2    0    0  0.00000000000E+00  0.00000000000E+00 -0.12090188381E+04  0.38058503767E+04  0.36087075995E+04 0.  0.
        5    1    3    3  502    0 -0.24496966085E+03  0.15841727045E+04 -0.14780441887E+04  0.21804242720E+04  0.46999998093E+01 0.  1.
       -5    1    3    3    0  502  0.24496966085E+03 -0.15841727045E+04  0.26902535066E+03  0.16254261046E+04  0.46999998093E+01 0. -1.
</event>
<event>
 5   0  0.2193129E-07  0.3532713E+04  0.7818609E-02  0.8106081E-01
       -1   -1    0    0    0  501  0.00000000000E+00  0.00000000000E+00  0.15544003164E+04  0.15544003164E+04  0.50400001928E-02 0.  1.
        1   -1    0    0  501    0  0.00000000000E+00  0.00000000000E+00 -0.20072145872E+04  0.20072145872E+04  0.50400001928E-02 0. -1.
    10030    2    1    2    0    0  0.00000000000E+00  0.00000000000E+00 -0.45281427084E+03  0.35616149036E+04  0.35327128326E+04 0.  0.
        1    1    3    3  502    0  0.13299489404E+04 -0.11621638745E+04 -0.25163049262E+03  0.17840142825E+04  0.50400001928E-02 0. -1.
       -1    1    3    3    0  502 -0.13299489404E+04  0.11621638745E+04 -0.20118377822E+03  0.17776006211E+04  0.50400001928E-02 0.  1.
</event>
<event>
 5   0  0.6729577E-07  0.3600596E+04  0.7818609E-02  0.8090355E-01
        2   -1    0    0  501    0  0.00000000000E+00  0.00000000000E+00  0.20258823414E+04  0.20258823414E+04  0.25500000920E-02 0.  1.
       -2   -1    0    0    0  501  0.00000000000E+00  0.00000000000E+00 -0.15998331137E+04  0.15998331137E+04  0.25500000920E-02 0. -1.
    10030    2    1    2    0    0  0.00000000000E+00  0.00000000000E+00  0.42604922766E+03  0.36257154550E+04  0.36005964251E+04 0.  0.
        3    1    3    3  502    0  0.92209928364E+03  0.10557749152E+04  0.13505718348E+04  0.19465282047E+04  0.10100000352E+00 0.  1.
       -3    1    3    3    0  502 -0.92209928364E+03 -0.10557749152E+04 -0.92452260718E+03  0.16791872504E+04  0.10100000352E+00 0. -1.
</event>
<event>
 5   0  0.2086250E-07  0.3137582E+04  0.7818609E-02  0.8205499E-01
        1   -1    0    0  501    0  0.00000000000E+00  0.00000000000E+00  0.19461408200E+04  0.19461408200E+04  0.50400001928E-02 0. -1.
       -1   -1    0    0    0  501  0.00000000000E+00  0.00000000000E+00 -0.12646083087E+04  0.12646083087E+04  0.50400001928E-02 0.  1.
    10030    2    1    2    0    0  0.00000000000E+00  0.00000000000E+00  0.68153251128E+03  0.32107491287E+04  0.31375824138E+04 0.  0.
        2    1    3    3  502    0 -0.28688115397E+01  0.78138033255E+03  0.17328352194E+04  0.19008633175E+04  0.25500000920E-02 0. -1.
       -2    1    3    3    0  502  0.28688115397E+01 -0.78138033255E+03 -0.10513027081E+04  0.13098858112E+04  0.25500000920E-02 0.  1.
</event>
<event>
 5   0  0.2086250E-07  0.3602764E+04  0.7818609E-02  0.8089859E-01
       -1   -1    0    0    0  501  0.00000000000E+00  0.00000000000E+00  0.19035516499E+04  0.19035516499E+04  0.50400001928E-02 0. -1.
        1   -1    0    0  501    0  0.00000000000E+00  0.00000000000E+00 -0.17046959553E+04  0.17046959553E+04  0.50400001928E-02 0.  1.
    10030    2    1    2    0    0  0.00000000000E+00  0.00000000000E+00  0.19885569457E+03  0.36082476052E+04  0.36027638270E+04 0.  0.
        4    1    3    3  502    0  0.17086032333E+03 -0.12479886268E+04 -0.11902846754E+04  0.17330458979E+04  0.12699999809E+01 0.  1.
       -4    1    3    3    0  502 -0.17086032333E+03  0.12479886268E+04  0.13891403700E+04  0.18752017073E+04  0.12699999809E+01 0. -1.
</event>
<event>
 5   0  0.6324216E-07  0.3584349E+04  0.7818609E-02  0.8094086E-01
       -2   -1    0    0    0  501  0.00000000000E+00  0.00000000000E+00  0.11198955561E+04  0.11198955561E+04  0.25500000920E-02 0. -1.
        2   -1    0    0  501    0  0.00000000000E+00  0.00000000000E+00 -0.28680258112E+04  0.28680258112E+04  0.25500000920E-02 0.  1.
    10030    2    1    2    0    0  0.00000000000E+00  0.00000000000E+00 -0.17481302550E+04  0.39879213673E+04  0.35843489567E+04 0.  0.
        2    1    3    3  502    0 -0.35534931859E+03 -0.38615239899E+03  0.10324993332E+04  0.11582062367E+04  0.25500000920E-02 0. -1.
       -2    1    3    3    0  502  0.35534931859E+03  0.38615239899E+03 -0.27806295883E+04  0.28297151306E+04  0.25500000920E-02 0.  1.
</event>
<event>
 5   0  0.6324216E-07  0.3323432E+04  0.7818609E-02  0.8156958E-01
        2   -1    0    0  501    0  0.00000000000E+00  0.00000000000E+00  0.19323669977E+04  0.19323669977E+04  0.25500000920E-02 0. -1.
       -2   -1    0    0    0  501  0.00000000000E+00  0.00000000000E+00 -0.14289733110E+04  0.14289733110E+04  0.25500000920E-02 0.  1.
    10030    2    1    2    0    0  0.00000000000E+00  0.00000000000E+00  0.50339368669E+03  0.33613403087E+04  0.33234324827E+04 0.  0.
        2    1    3    3  502    0 -0.29673376403E+02  0.48451476752E+03 -0.13556646678E+04  0.14399519995E+04  0.25500000920E-02 0.  1.
       -2    1    3    3    0  502  0.29673376403E+02 -0.48451476752E+03  0.18590583545E+04  0.19213883092E+04  0.25500000920E-02 0. -1.
</event>
<event>
 5   0  0.2193129E-07  0.3585131E+04  0.7818609E-02  0.8093906E-01
        1   -1    0    0  501    0  0.00000000000E+00  0.00000000000E+00  0.14716459345E+04  0.14716459346E+04  0.50400001928E-02 0. -1.
       -1   -1    0    0    0  501  0.00000000000E+00  0.00000000000E+00 -0.21834674782E+04  0.21834674782E+04  0.50400001928E-02 0.  1.
    10030    2    1    2    0    0  0.00000000000E+00  0.00000000000E+00 -0.71182154361E+03  0.36551134127E+04  0.35851309809E+04 0.  0.
        1    1    3    3  502    0  0.17565309208E+04  0.35746616374E+03 -0.34531053355E+03  0.18254923442E+04  0.50400001928E-02 0.  1.
       -1    1    3    3    0  502 -0.17565309208E+04 -0.35746616374E+03 -0.36651101007E+03  0.18296210686E+04  0.50400001928E-02 0. -1.
</event>
<event>
 5   0  0.6669864E-07  0.3604633E+04  0.7818609E-02  0.8089431E-01
       -2   -1    0    0    0  501  0.00000000000E+00  0.00000000000E+00  0.14674494791E+04  0.14674494791E+04  0.25500000920E-02 0. -1.
        2   -1    0    0  501    0  0.00000000000E+00  0.00000000000E+00 -0.22135991429E+04  0.22135991429E+04  0.25500000920E-02 0.  1.
    10030    2    1    2    0    0  0.00000000000E+00  0.00000000000E+00 -0.74614966381E+03  0.36810486219E+04  0.36046330793E+04 0.  0.
        5    1    3    3  502    0  0.12213552041E+04  0.12917420144E+04 -0.70109170352E+02  0.17791130802E+04  0.46999998093E+01 0. -1.
       -5    1    3    3    0  502 -0.12213552041E+04 -0.12917420144E+04 -0.67604049346E+03  0.19019355418E+04  0.46999998093E+01 0.  1.
</event>
<event>
 5   0  0.2086250E-07  0.3276347E+04  0.7818609E-02  0.8168940E-01
        1   -1    0    0  501    0  0.00000000000E+00  0.00000000000E+00  0.18182679089E+04  0.18182679089E+04  0.50400001928E-02 0.  1.
       -1   -1    0    0    0  501  0.00000000000E+00  0.00000000000E+00 -0.14759169301E+04  0.14759169301E+04  0.50400001928E-02 0. -1.
    10030    2    1    2    0    0  0.00000000000E+00  0.00000000000E+00  0.34235097882E+03  0.32941848390E+04  0.32763469842E+04 0.  0.
        3    1    3    3  502    0  0.21335436255E+03 -0.15872929409E+03  0.17964220098E+04  0.18159975551E+04  0.10100000352E+00 0.  1.
       -3    1    3    3    0  502 -0.21335436255E+03  0.15872929409E+03 -0.14540710310E+04  0.14781872838E+04  0.10100000352E+00 0. -1.
</event>
<event>
 5   0  0.6541476E-07  0.3573645E+04  0.7818609E-02  0.8096555E-01
       -2   -1    0    0    0  501  0.00000000000E+00  0.00000000000E+00  0.18287973970E+04  0.18287973970E+04  0.25500000920E-02 0.  1.
        2   -1    0    0  501    0  0.00000000000E+00  0.00000000000E+00 -0.17458108393E+04  0.17458108393E+04  0.25500000920E-02 0. -1.
    10030    2    1    2    0    0  0.00000000000E+00  0.00000000000E+00  0.82986557740E+02  0.35746082362E+04  0.35736448164E+04 0.  0.
        4    1    3    3  502    0  0.16965663086E+04  0.74702681523E+02 -0.51436776939E+03  0.17743994886E+04  0.12699999809E+01 0. -1.
       -4    1    3    3    0  502 -0.16965663086E+04 -0.74702681523E+02  0.59735432713E+03  0.18002087476E+04  0.12699999809E+01 0.  1.
</event>
<event>
 5   0  0.2086250E-07  0.3591993E+04  0.7818609E-02  0.8092328E-01
        1   -1    0    0  501    0  0.00000000000E+00  0.00000000000E+00  0.21485777644E+04  0.21485777644E+04  0.50400001928E-02 0.  1.
       -1   -1    0    0    0  501  0.00000000000E+00  0.00000000000E+00 -0.15012741666E+04  0.15012741666E+04  0.50400001928E-02 0. -1.
    10030    2    1    2    0    0  0.00000000000E+00  0.00000000000E+00  0.64730359785E+03  0.36498519310E+04  0.35919934814E+04 0.  0.
        2    1    3    3  502    0  0.30148028341E+03 -0.11415747197E+04 -0.10514842537E+04  0.15810446982E+04  0.25500000920E-02 0. -1.
       -2    1    3    3    0  502 -0.30148028341E+03  0.11415747197E+04  0.16987878515E+04  0.20688072328E+04  0.25500000920E-02 0.  1.
</event>
<event>
 5   0  0.2086250E-07  0.3618847E+04  0.7818609E-02  0.8086188E-01
        1   -1    0    0  501    0  0.00000000000E+00  0.00000000000E+00  0.24149008759E+04  0.24149008759E+04  0.50400001928E-02 0.  1.
       -1   -1    0    0    0  501  0.00000000000E+00  0.00000000000E+00 -0.13557546866E+04  0.13557546866E+04  0.50400001928E-02 0. -1.
    10030    2    1    2    0    0  0.00000000000E+00  0.00000000000E+00  0.10591461893E+04  0.37706555626E+04  0.36188468773E+04 0.  0.
        3    1    3    3  502    0  0.68714057665E+02 -0.13193487507E+04  0.18178080036E+04  0.22471823904E+04  0.10100000352E+00 0.  1.
       -3    1    3    3    0  502 -0.68714057665E+02  0.13193487507E+04 -0.75866181430E+03  0.15234731722E+04  0.10100000352E+00 0. -1.
</event>
<event>
 5   0  0.2193129E-07  0.3586014E+04  0.7818609E-02  0.8093703E-01
       -1   -1    0    0    0  501  0.00000000000E+00  0.00000000000E+00  0.25172642200E+04  0.25172642200E+04  0.50400001928E-02 0.  1.
        1   -1    0    0  501    0  0.00000000000E+00  0.00000000000E+00 -0.12771300612E+04  0.12771300612E+04  0.50400001928E-02 0. -1.
    10030    2    1    2    0    0  0.00000000000E+00  0.00000000000E+00  0.12401341588E+04  0.37943942812E+04  0.35860138356E+04 0.  0.
        1    1    3    3  502    0  0.12429611788E+04 -0.16783009032E+02  0.19872979966E+04  0.23440536446E+04  0.50400001928E-02 0.  1.
       -1    1    3    3    0  502 -0.12429611788E+04  0.16783009032E+02 -0.74716383787E+03  0.14503406366E+04  0.50400001928E-02 0. -1.
</event>
<event>
 5   0  0.2086250E-07  0.3584636E+04  0.7818609E-02  0.8094020E-01
        1   -1    0    0  501    0  0.00000000000E+00  0.00000000000E+00  0.19950162622E+04  0.19950162622E+04  0.50400001928E-02 0. -1.
       -1   -1    0    0    0  501  0.00000000000E+00  0.00000000000E+00 -0.16102141366E+04  0.16102141366E+04  0.50400001928E-02 0.  1.
    10030    2    1    2    0    0  0.00000000000E+00  0.00000000000E+00  0.38480212565E+03  0.36052303989E+04  0.35846357629E+04 0.  0.
        3    1    3    3  502    0 -0.24233846043E+02  0.72269603000E+03  0.18418007531E+04  0.19786628959E+04  0.10100000352E+00 0. -1.
       -3    1    3    3    0  502  0.24233846043E+02 -0.72269603000E+03 -0.14569986275E+04  0.16265675030E+04  0.10100000352E+00 0.  1.
</event>
<event>
 5   0  0.6541476E-07  0.3208928E+04  0.7818609E-02  0.8186463E-01
       -2   -1    0    0    0  501  0.00000000000E+00  0.00000000000E+00  0.15942587583E+04  0.15942587583E+04  0.25500000920E-02 0.  1.
        2   -1    0    0  501    0  0.00000000000E+00  0.00000000000E+00 -0.16147343286E+04  0.16147343287E+04  0.25500000920E-02 0. -1.
    10030    2    1    2    0    0  0.00000000000E+00  0.00000000000E+00 -0.20475570314E+02  0.32089930870E+04  0.32089277623E+04 0.  0.
        4    1    3    3  502    0  0.15597934731E+04  0.37225470640E+03  0.42427199420E+02  0.16041605049E+04  0.12699999809E+01 0.  1.
       -4    1    3    3    0  502 -0.15597934731E+04 -0.37225470640E+03 -0.62902769735E+02  0.16048325821E+04  0.12699999809E+01 0. -1.
</event>
<event>
 5   0  0.6848661E-07  0.3607010E+04  0.7818609E-02  0.8088888E-01
        2   -1    0    0  501    0  0.00000000000E+00  0.00000000000E+00  0.18288299482E+04  0.18288299482E+04  0.25500000920E-02 0.  1.
       -2   -1    0    0    0  501  0.00000000000E+00  0.00000000000E+00 -0.17785305269E+04  0.17785305269E+04  0.25500000920E-02 0. -1.
    10030    2    1    2    0    0  0.00000000000E+00  0.00000000000E+00  0.50299421352E+02  0.36073604751E+04  0.36070097817E+04 0.  0.
        1    1    3    3  502    0  0.82152043049E+03 -0.15030852008E+04  0.58953511315E+03  0.18115497752E+04  0.50400001928E-02 0.  1.
       -1    1    3    3    0  502 -0.82152043049E+03  0.15030852008E+04 -0.53923569180E+03  0.17958106999E+04  0.50400001928E-02 0. -1.
</event>
<event>
 5   0  0.2086250E-07  0.3598240E+04  0.7818609E-02  0.8090895E-01
        1   -1    0    0  501    0  0.00000000000E+00  0.00000000000E+00  0.16121726491E+04  0.16121726491E+04  0.50400001928E-02 0. -1.
       -1   -1    0    0    0  501  0.00000000000E+00  0.00000000000E+00 -0.20077453132E+04  0.20077453132E+04  0.50400001928E-02 0.  1.
    10030    2    1    2    0    0  0.00000000000E+00  0.00000000000E+00 -0.39557266411E+03  0.36199179622E+04  0.35982396141E+04 0.  0.
        2    1    3    3  502    0  0.31888890883E+03  0.17651191168E+04 -0.57315423882E+02  0.17946087848E+04  0.25500000920E-02 0.  1.
       -2    1    3    3    0  502 -0.31888890883E+03 -0.17651191168E+04 -0.33825724022E+03  0.18253091774E+04  0.25500000920E-02 0. -1.
</event>
<event>
 5   0  0.2086250E-07  0.3600874E+04  0.7818609E-02  0.8090292E-01
       -1   -1    0    0    0  501  0.00000000000E+00  0.00000000000E+00  0.22106771050E+04  0.22106771050E+04  0.50400001928E-02 0. -1.
        1   -1    0    0  501    0  0.00000000000E+00  0.00000000000E+00 -0.14663258562E+04  0.14663258562E+04  0.50400001928E-02 0.  1.
    10030    2    1    2    0    0  0.00000000000E+00  0.00000000000E+00  0.74435124882E+03  0.36770029613E+04  0.36008737822E+04 0.  0.
        2    1    3    3  502    0  0.86523931753E+03  0.38414460490E+03 -0.11916613302E+04  0.15219273570E+04  0.25500000920E-02 0.  1.
       -2    1    3    3    0  502 -0.86523931753E+03 -0.38414460490E+03  0.19360125790E+04  0.21550756043E+04  0.25500000920E-02 0. -1.
</event>
<event>
 5   0  0.2086250E-07  0.3627623E+04  0.7818609E-02  0.8084193E-01
        3   -1    0    0  501    0  0.00000000000E+00  0.00000000000E+00  0.26387880446E+04  0.26387880465E+04  0.10100000352E+00 0.  1.
       -3   -1    0    0    0  501  0.00000000000E+00  0.00000000000E+00 -0.12467513474E+04  0.12467513515E+04  0.10100000352E+00 0. -1.
    10030    2    1    2    0    0  0.00000000000E+00  0.00000000000E+00  0.13920366972E+04  0.38855393980E+04  0.36276232229E+04 0.  0.
        1    1    3    3  502    0  0.12257916954E+04  0.11511356885E+04  0.14242340585E+04  0.22036608875E+04  0.50400001928E-02 0. -1.
       -1    1    3    3    0  502 -0.12257916954E+04 -0.11511356885E+04 -0.32197361355E+02  0.16818785105E+04  0.50400001928E-02 0.  1.
</event>
<event>
 5   0  0.6541476E-07  0.3593090E+04  0.7818609E-02  0.8092076E-01
        2   -1    0    0  501    0  0.00000000000E+00  0.00000000000E+00  0.28722654681E+04  0.28722654681E+04  0.25500000920E-02 0.  1.
       -2   -1    0    0    0  501  0.00000000000E+00  0.00000000000E+00 -0.11237034421E+04  0.11237034421E+04  0.25500000920E-02 0. -1.
    10030    2    1    2    0    0  0.00000000000E+00  0.00000000000E+00  0.17485620260E+04  0.39959689102E+04  0.35930903652E+04 0.  0.
        4    1    3    3  502    0 -0.34327204793E+03 -0.10444494029E+04 -0.70590187989E+03  0.13065256718E+04  0.12699999809E+01 0. -1.
       -4    1    3    3    0  502  0.34327204793E+03  0.10444494029E+04  0.24544639059E+04  0.26894432384E+04  0.12699999809E+01 0.  1.
</event>
<event>
 5   0  0.2086250E-07  0.3611792E+04  0.7818609E-02  0.8087796E-01
       -1   -1    0    0    0  501  0.00000000000E+00  0.00000000000E+00  0.28836286457E+04  0.28836286458E+04  0.50400001928E-02 0. -1.
        1   -1    0    0  501    0  0.00000000000E+00  0.00000000000E+00 -0.11309573595E+04  0.11309573595E+04  0.50400001928E-02 0.  1.
    10030    2    1    2    0    0  0.00000000000E+00  0.00000000000E+00  0.17526712863E+04  0.40145860052E+04  0.36117923744E+04 0.  0.
        3    1    3    3  502    0 -0.11738731887E+04 -0.89138308053E+03  0.20361163623E+04  0.25136252526E+04  0.10100000352E+00 0. -1.
       -3    1    3    3    0  502  0.11738731887E+04  0.89138308053E+03 -0.28344507605E+03  0.15009607526E+04  0.10100000352E+00 0.  1.
</event>
<event>
 5   0  0.6541476E-07  0.3651950E+04  0.7818609E-02  0.8078694E-01
       -2   -1    0    0    0  501  0.00000000000E+00  0.00000000000E+00  0.17630876388E+04  0.17630876388E+04  0.25500000920E-02 0.  1.
        2   -1    0    0  501    0  0.00000000000E+00  0.00000000000E+00 -0.18911059599E+04  0.18911059599E+04  0.25500000920E-02 0. -1.
    10030    2    1    2    0    0  0.00000000000E+00  0.00000000000E+00 -0.12801832106E+03  0.36541935987E+04  0.36519504605E+04 0.  0.
        4    1    3    3  502    0 -0.11590822368E+04  0.11325642292E+04 -0.90595963042E+03  0.18565930706E+04  0.12699999809E+01 0. -1.
       -4    1    3    3    0  502  0.11590822368E+04 -0.11325642292E+04  0.77794130937E+03  0.17976005281E+04  0.12699999809E+01 0.  1.
</event>
<event>
 5   0  0.2086250E-07  0.3574288E+04  0.7818609E-02  0.8096407E-01
        1   -1    0    0  501    0  0.00000000000E+00  0.00000000000E+00  0.16492324369E+04  0.16492324369E+04  0.50400001928E-02 0.  1.
       -1   -1    0    0    0  501  0.00000000000E+00  0.00000000000E+00 -0.19365884796E+04  0.19365884796E+04  0.50400001928E-02 0. -1.
    10030    2    1    2    0    0  0.00000000000E+00  0.00000000000E+00 -0.28735604278E+03  0.35858209165E+04  0.35742884816E+04 0.  0.
        3    1    3    3  502    0  0.11772792080E+04 -0.12210704701E+04  0.42106374079E+03  0.17476538875E+04  0.10100000352E+00 0. -1.
       -3    1    3    3    0  502 -0.11772792080E+04  0.12210704701E+04 -0.70841978356E+03  0.18381670290E+04  0.10100000352E+00 0.  1.
</event>
<event>
 5   0  0.2086250E-07  0.3555393E+04  0.7818609E-02  0.8100787E-01
        1   -1    0    0  501    0  0.00000000000E+00  0.00000000000E+00  0.19830639470E+04  0.19830639470E+04  0.50400001928E-02 0.  1.
       -1   -1    0    0    0  501  0.00000000000E+00  0.00000000000E+00 -0.15935968946E+04  0.15935968946E+04  0.50400001928E-02 0. -1.
    10030    2    1    2    0    0  0.00000000000E+00  0.00000000000E+00  0.38946705233E+03  0.35766608416E+04  0.35553928321E+04 0.  0.
        3    1    3    3  502    0  0.16407393702E+04  0.54340565326E+03  0.61302021119E+03  0.18338781787E+04  0.10100000352E+00 0. -1.
       -3    1    3    3    0  502 -0.16407393702E+04 -0.54340565326E+03 -0.22355315885E+03  0.17427826629E+04  0.10100000352E+00 0.  1.
</event>
<event>
 5   0  0.6541476E-07  0.3599554E+04  0.7818609E-02  0.8090594E-01
        2   -1    0    0  501    0  0.00000000000E+00  0.00000000000E+00  0.12069400575E+04  0.12069400575E+04  0.25500000920E-02 0. -1.
       -2   -1    0    0    0  501  0.00000000000E+00  0.00000000000E+00 -0.26838096788E+04  0.26838096788E+04  0.25500000920E-02 0.  1.
    10030    2    1    2    0    0  0.00000000000E+00  0.00000000000E+00 -0.14768696213E+04  0.38907497363E+04  0.35995540880E+04 0.  0.
        4    1    3    3  502    0 -0.74116965327E+03 -0.11186147655E+04 -0.20348653089E+04  0.24374802331E+04  0.12699999809E+01 0.  1.
       -4    1    3    3    0  502  0.74116965327E+03  0.11186147655E+04  0.55799568765E+03  0.14532695032E+04  0.12699999809E+01 0. -1.
</event>
<event>
 5   0  0.6848661E-07  0.3605400E+04  0.7818609E-02  0.8089256E-01
       -2   -1    0    0    0  501  0.00000000000E+00  0.00000000000E+00  0.18872750516E+04  0.18872750516E+04  0.25500000920E-02 0. -1.
        2   -1    0    0  501    0  0.00000000000E+00  0.00000000000E+00 -0.17219147552E+04  0.17219147552E+04  0.25500000920E-02 0.  1.
    10030    2    1    2    0    0  0.00000000000E+00  0.00000000000E+00  0.16536029643E+03  0.36091898068E+04  0.36053997051E+04 0.  0.
        1    1    3    3  502    0  0.11697618182E+03  0.48387106704E+03  0.18171042125E+04  0.18840600722E+04  0.50400001928E-02 0. -1.
       -1    1    3    3    0  502 -0.11697618182E+03 -0.48387106704E+03 -0.16517439161E+04  0.17251297345E+04  0.50400001928E-02 0.  1.
</event>
<event>
 5   0  0.6324216E-07  0.3565277E+04  0.7818609E-02  0.8098492E-01
        2   -1    0    0  501    0  0.00000000000E+00  0.00000000000E+00  0.29131539331E+04  0.29131539331E+04  0.25500000920E-02 0.  1.
       -2   -1    0    0    0  501  0.00000000000E+00  0.00000000000E+00 -0.10908452048E+04  0.10908452048E+04  0.25500000920E-02 0. -1.
    10030    2    1    2    0    0  0.00000000000E+00  0.00000000000E+00  0.18223087283E+04  0.40039991379E+04  0.35652769871E+04 0.  0.
        2    1    3    3  502    0 -0.17528127448E+04  0.32286063665E+03  0.87211325029E+03  0.19842310930E+04  0.25500000920E-02 0.  1.
       -2    1    3    3    0  502  0.17528127448E+04 -0.32286063665E+03  0.95019547799E+03  0.20197680449E+04  0.25500000920E-02 0. -1.
</event>
<event>
 5   0  0.6541476E-07  0.3457271E+04  0.7818609E-02  0.8123991E-01
        2   -1    0    0  501    0  0.00000000000E+00  0.00000000000E+00  0.20049352316E+04  0.20049352316E+04  0.25500000920E-02 0.  1.
       -2   -1    0    0    0  501  0.00000000000E+00  0.00000000000E+00 -0.14904128518E+04  0.14904128518E+04  0.25500000920E-02 0. -1.
    10030    2    1    2    0    0  0.00000000000E+00  0.00000000000E+00  0.51452237982E+03  0.34953480833E+04  0.34572713148E+04 0.  0.
        4    1    3    3  502    0 -0.13062854858E+03  0.15877044404E+04  0.93570356287E+03  0.18475421452E+04  0.12699999809E+01 0.  1.
       -4    1    3    3    0  502  0.13062854858E+03 -0.15877044404E+04 -0.42118118306E+03  0.16478059381E+04  0.12699999809E+01 0. -1.
</event>
<event>
 5   0  0.2193129E-07  0.3613389E+04  0.7818609E-02  0.8087432E-01
       -1   -1    0    0    0  501  0.00000000000E+00  0.00000000000E+00  0.22922313529E+04  0.22922313529E+04  0.50400001928E-02 0.  1.
        1   -1    0    0  501    0  0.00000000000E+00  0.00000000000E+00 -0.14240035812E+04  0.14240035812E+04  0.50400001928E-02 0. -1.
    10030    2    1    2    0    0  0.00000000000E+00  0.00000000000E+00  0.86822777175E+03  0.37162349341E+04  0.36133893538E+04 0.  0.
        1    1    3    3  502    0  0.15663347948E+04  0.86579888236E+03  0.68840265704E+03  0.19175272130E+04  0.50400001928E-02 0. -1.
       -1    1    3    3    0  502 -0.15663347948E+04 -0.86579888236E+03  0.17982511471E+03  0.17987077211E+04  0.50400001928E-02 0.  1.
</event>
<event>
 5   0  0.2086250E-07  0.3567651E+04  0.7818609E-02  0.8097942E-01
        1   -1    0    0  501    0  0.00000000000E+00  0.00000000000E+00  0.15632340681E+04  0.15632340682E+04  0.50400001928E-02 0.  1.
       -1   -1    0    0    0  501  0.00000000000E+00  0.00000000000E+00 -0.20355449805E+04  0.20355449806E+04  0.50400001928E-02 0. -1.
    10030    2    1    2    0    0  0.00000000000E+00  0.00000000000E+00 -0.47231091240E+03  0.35987790487E+04  0.35676509139E+04 0.  0.
        3    1    3    3  502    0 -0.11434896571E+04  0.13610804495E+04 -0.86793734225E+02  0.17797869952E+04  0.10100000352E+00 0. -1.
       -3    1    3    3    0  502  0.11434896571E+04 -0.13610804495E+04 -0.38551717818E+03  0.18189920535E+04  0.10100000352E+00 0.  1.
</event>
<event>
 5   0  0.6324216E-07  0.3590927E+04  0.7818609E-02  0.8092573E-01
        2   -1    0    0  501    0  0.00000000000E+00  0.00000000000E+00  0.21099257519E+04  0.21099257519E+04  0.25500000920E-02 0.  1.
       -2   -1    0    0    0  501  0.00000000000E+00  0.00000000000E+00 -0.15278687756E+04  0.15278687756E+04  0.25500000920E-02 0. -1.
    10030    2    1    2    0    0  0.00000000000E+00  0.00000000000E+00  0.58205697632E+03  0.36377945274E+04  0.35909272758E+04 0.  0.
        2    1    3    3  502    0  0.89910962442E+03 -0.63572401921E+02 -0.12820583071E+04  0.15671991162E+04  0.25500000920E-02 0. -1.
       -2    1    3    3    0  502 -0.89910962442E+03  0.63572401921E+02  0.18641152834E+04  0.20705954112E+04  0.25500000920E-02 0.  1.
</event>
<event>
 5   0  0.2086250E-07  0.3639287E+04  0.7818609E-02  0.8081551E-01
       -1   -1    0    0    0  501  0.00000000000E+00  0.00000000000E+00  0.11740454491E+04  0.11740454491E+04  0.50400001928E-02 0.  1.
        1   -1    0    0  501    0  0.00000000000E+00  0.00000000000E+00 -0.28202500334E+04  0.28202500334E+04  0.50400001928E-02 0. -1.
    10030    2    1    2    0    0  0.00000000000E+00  0.00000000000E+00 -0.16462045843E+04  0.39942954826E+04  0.36392865879E+04 0.  0.
        2    1    3    3  502    0  0.14811955957E+04 -0.10122997518E+04 -0.48945724745E+03  0.18596396364E+04  0.25500000920E-02 0.  1.
       -2    1    3    3    0  502 -0.14811955957E+04  0.10122997518E+04 -0.11567473368E+04  0.21346558462E+04  0.25500000920E-02 0. -1.
</event>
<event>
 5   0  0.2086250E-07  0.3538823E+04  0.7818609E-02  0.8104651E-01
        1   -1    0    0  501    0  0.00000000000E+00  0.00000000000E+00  0.11422536330E+04  0.11422536330E+04  0.50400001928E-02 0.  1.
       -1   -1    0    0    0  501  0.00000000000E+00  0.00000000000E+00 -0.27409117167E+04  0.27409117167E+04  0.50400001928E-02 0. -1.
    10030    2    1    2    0    0  0.00000000000E+00  0.00000000000E+00 -0.15986580837E+04  0.38831653496E+04  0.35388226099E+04 0.  0.
        4    1    3    3  502    0  0.95652251311E+03  0.24267136729E+03  0.81224832862E+03  0.12781133247E+04  0.12699999809E+01 0.  1.
       -4    1    3    3    0  502 -0.95652251311E+03 -0.24267136729E+03 -0.24109064123E+04  0.26050520249E+04  0.12699999809E+01 0. -1.
</event>
<event>
 5   0  0.2086250E-07  0.3667385E+04  0.7818609E-02  0.8075228E-01
       -1   -1    0    0    0  501  0.00000000000E+00  0.00000000000E+00  0.22071006290E+04  0.22071006290E+04  0.50400001928E-02 0. -1.
        1   -1    0    0  501    0  0.00000000000E+00  0.00000000000E+00 -0.15234595574E+04  0.15234595574E+04  0.50400001928E-02 0.  1.
    10030    2    1    2    0    0  0.00000000000E+00  0.00000000000E+00  0.68364107158E+03  0.37305601864E+04  0.36673851979E+04 0.  0.
        4    1    3    3  502    0 -0.81546981973E+03 -0.14433625356E+02 -0.13287942430E+04  0.15591328069E+04  0.12699999809E+01 0.  1.
       -4    1    3    3    0  502  0.81546981973E+03  0.14433625356E+02  0.20124353145E+04  0.21714273795E+04  0.12699999809E+01 0. -1.
</event>
<event>
 5   0  0.6324216E-07  0.3610250E+04  0.7818609E-02  0.8088148E-01
       -2   -1    0    0    0  501  0.00000000000E+00  0.00000000000E+00  0.11766551287E+04  0.11766551287E+04  0.25500000920E-02 0.  1.
        2   -1    0    0  501    0  0.00000000000E+00  0.00000000000E+00 -0.27692711257E+04  0.27692711257E+04  0.25500000920E-02 0. -1.
    10030    2    1    2    0    0  0.00000000000E+00  0.00000000000E+00 -0.15926159970E+04  0.39459262544E+04  0.36102504472E+04 0.  0.
        2    1    3    3  502    0 -0.11111761384E+04  0.11805393671E+04  0.71279793651E+02  0.16227958642E+04  0.25500000920E-02 0. -1.
       -2    1    3    3    0  502  0.11111761384E+04 -0.11805393671E+04 -0.16638957906E+04  0.23231303902E+04  0.25500000920E-02 0.  1.
</event>
<event>
 5   0  0.2193129E-07  0.3612687E+04  0.7818609E-02  0.8087592E-01
       -1   -1    0    0    0  501  0.00000000000E+00  0.00000000000E+00  0.16627724817E+04  0.16627724817E+04  0.50400001928E-02 0. -1.
        1   -1    0    0  501    0  0.00000000000E+00  0.00000000000E+00 -0.19623109778E+04  0.19623109778E+04  0.50400001928E-02 0.  1.
    10030    2    1    2    0    0  0.00000000000E+00  0.00000000000E+00 -0.29953849607E+03  0.36250834596E+04  0.36126869195E+04 0.  0.
        1    1    3    3  502    0 -0.49342210464E+03  0.87281010187E+03  0.13579223449E+04  0.16879620677E+04  0.50400001928E-02 0. -1.
       -1    1    3    3    0  502  0.49342210464E+03 -0.87281010187E+03 -0.16574608410E+04  0.19371213918E+04  0.50400001928E-02 0.  1.
</event>
<event>
 5   0  0.6324216E-07  0.3597134E+04  0.7818609E-02  0.8091148E-01
       -2   -1    0    0    0  501  0.00000000000E+00  0.00000000000E+00  0.17888968983E+04  0.17888968983E+04  0.25500000920E-02 0.  1.
        2   -1    0    0  501    0  0.00000000000E+00  0.00000000000E+00 -0.18082896573E+04  0.18082896573E+04  0.25500000920E-02 0. -1.
    10030    2    1    2    0    0  0.00000000000E+00  0.00000000000E+00 -0.19392759058E+02  0.35971865556E+04  0.35971342812E+04 0.  0.
        2    1    3    3  502    0  0.14528938040E+03  0.16449144603E+04 -0.72244173235E+03  0.18024357527E+04  0.25500000920E-02 0. -1.
       -2    1    3    3    0  502 -0.14528938040E+03 -0.16449144603E+04  0.70304897329E+03  0.17947508029E+04  0.25500000920E-02 0.  1.
</event>
<event>
 5   0  0.6324216E-07  0.3654205E+04  0.7818609E-02  0.8078187E-01
        2   -1    0    0  501    0  0.00000000000E+00  0.00000000000E+00  0.23951809819E+04  0.23951809819E+04  0.25500000920E-02 0. -1.
       -2   -1    0    0    0  501  0.00000000000E+00  0.00000000000E+00 -0.13937580069E+04  0.13937580069E+04  0.25500000920E-02 0.  1.
    10030    2    1    2    0    0  0.00000000000E+00  0.00000000000E+00  0.10014229750E+04  0.37889389888E+04  0.36542045216E+04 0.  0.
        2    1    3    3  502    0  0.45862683594E+02  0.16474653571E+04 -0.31707497307E+03  0.16783271514E+04  0.25500000920E-02 0.  1.
       -2    1    3    3    0  502 -0.45862683594E+02 -0.16474653571E+04  0.13184979481E+04  0.21106118373E+04  0.25500000920E-02 0. -1.
</event>
<event>
 5   0  0.6324216E-07  0.3626958E+04  0.7818609E-02  0.8084344E-01
        2   -1    0    0  501    0  0.00000000000E+00  0.00000000000E+00  0.15722350183E+04  0.15722350183E+04  0.25500000920E-02 0. -1.
       -2   -1    0    0    0  501  0.00000000000E+00  0.00000000000E+00 -0.20917395871E+04  0.20917395871E+04  0.25500000920E-02 0.  1.
    10030    2    1    2    0    0  0.00000000000E+00  0.00000000000E+00 -0.51950456881E+03  0.36639746054E+04  0.36269580797E+04 0.  0.
        2    1    3    3  502    0 -0.48877090694E+03  0.16031800615E+04 -0.95936852557E+03  0.19311839055E+04  0.25500000920E-02 0.  1.
       -2    1    3    3    0  502  0.48877090694E+03 -0.16031800615E+04  0.43986395676E+03  0.17327906999E+04  0.25500000920E-02 0. -1.
</event>
<event>
 5   0  0.6848661E-07  0.3612747E+04  0.7818609E-02  0.8087578E-01
        2   -1    0    0  501    0  0.00000000000E+00  0.00000000000E+00  0.26740307775E+04  0.26740307775E+04  0.25500000920E-02 0.  1.
       -2   -1    0    0    0  501  0.00000000000E+00  0.00000000000E+00 -0.12202496060E+04  0.12202496060E+04  0.25500000920E-02 0. -1.
    10030    2    1    2    0    0  0.00000000000E+00  0.00000000000E+00  0.14537811714E+04  0.38942803835E+04  0.36127468789E+04 0.  0.
        1    1    3    3  502    0 -0.10332899041E+04  0.99198702234E+03 -0.45944659448E+03  0.15042664164E+04  0.50400001928E-02 0. -1.
       -1    1    3    3    0  502  0.10332899041E+04 -0.99198702234E+03  0.19132277659E+04  0.23900139671E+04  0.50400001928E-02 0.  1.
</event>
<event>
 5   0  0.2086250E-07  0.3623848E+04  0.7818609E-02  0.8085051E-01
        1   -1    0    0  501    0  0.00000000000E+00  0.00000000000E+00  0.26366159164E+04  0.26366159164E+04  0.50400001928E-02 0. -1.
       -1   -1    0    0    0  501  0.00000000000E+00  0.00000000000E+00 -0.12451828758E+04  0.12451828758E+04  0.50400001928E-02 0.  1.
    10030    2    1    2    0    0  0.00000000000E+00  0.00000000000E+00  0.13914330407E+04  0.38817987922E+04  0.36238482249E+04 0.  0.
        2    1    3    3  502    0 -0.11035831485E+04 -0.77423876637E+03 -0.60113318249E+03  0.14760428639E+04  0.25500000920E-02 0.  1.
       -2    1    3    3    0  502  0.11035831485E+04  0.77423876637E+03  0.19925662231E+04  0.24057559283E+04  0.25500000920E-02 0. -1.
</event>
<event>
 5   0  0.6541476E-07  0.3614726E+04  0.7818609E-02  0.8087127E-01
        2   -1    0    0  501    0  0.00000000000E+00  0.00000000000E+00  0.22860642094E+04  0.22860642094E+04  0.25500000920E-02 0.  1.
       -2   -1    0    0    0  501  0.00000000000E+00  0.00000000000E+00 -0.14289015924E+04  0.14289015924E+04  0.25500000920E-02 0. -1.
    10030    2    1    2    0    0  0.00000000000E+00  0.00000000000E+00  0.85716261705E+03  0.37149658018E+04  0.36147258757E+04 0.  0.
        4    1    3    3  502    0  0.57407384880E+03  0.14237929923E+04  0.14088728617E+04  0.20836678291E+04  0.12699999809E+01 0.  1.
       -4    1    3    3    0  502 -0.57407384880E+03 -0.14237929923E+04 -0.55171024463E+03  0.16312979727E+04  0.12699999809E+01 0. -1.
</event>
<event>
 5   0  0.6669864E-07  0.3607798E+04  0.7818609E-02  0.8088708E-01
        2   -1    0    0  501    0  0.00000000000E+00  0.00000000000E+00  0.26624493572E+04  0.26624493572E+04  0.25500000920E-02 0.  1.
       -2   -1    0    0    0  501  0.00000000000E+00  0.00000000000E+00 -0.12222022860E+04  0.12222022860E+04  0.25500000920E-02 0. -1.
    10030    2    1    2    0    0  0.00000000000E+00  0.00000000000E+00  0.14402470712E+04  0.38846516432E+04  0.36077980490E+04 0.  0.
        5    1    3    3  502    0  0.17958609228E+04 -0.10242809911E+03  0.57398192038E+03  0.18881433484E+04  0.46999998093E+01 0. -1.
       -5    1    3    3    0  502 -0.17958609228E+04  0.10242809911E+03  0.86626515086E+03  0.19965082947E+04  0.46999998093E+01 0.  1.
</event>
<event>
 5   0  0.2108068E-07  0.3460065E+04  0.7818609E-02  0.8123320E-01
       -1   -1    0    0    0  501  0.00000000000E+00  0.00000000000E+00  0.33065040056E+04  0.33065040056E+04  0.50400001928E-02 0. -1.
        1   -1    0    0  501    0  0.00000000000E+00  0.00000000000E+00 -0.90518932121E+03  0.90518932122E+03  0.50400001928E-02 0.  1.
    10030    2    1    2    0    0  0.00000000000E+00  0.00000000000E+00  0.24013146844E+04  0.42116933268E+04  0.34600648066E+04 0.  0.
        5    1    3    3  502    0  0.14962251893E+04 -0.86578686085E+03  0.11170901122E+04  0.20582004553E+04  0.46999998093E+01 0.  1.
       -5    1    3    3    0  502 -0.14962251893E+04  0.86578686085E+03  0.12842245722E+04  0.21534928715E+04  0.46999998093E+01 0. -1.
</event>
<event>
 5   0  0.6669864E-07  0.3617616E+04  0.7818609E-02  0.8086468E-01
       -2   -1    0    0    0  501  0.00000000000E+00  0.00000000000E+00  0.19203020384E+04  0.19203020384E+04  0.25500000920E-02 0.  1.
        2   -1    0    0  501    0  0.00000000000E+00  0.00000000000E+00 -0.17037875851E+04  0.17037875851E+04  0.25500000920E-02 0. -1.
    10030    2    1    2    0    0  0.00000000000E+00  0.00000000000E+00  0.21651445330E+03  0.36240896236E+04  0.36176162167E+04 0.  0.
        5    1    3    3  502    0 -0.78130405857E+03  0.39859068548E+03 -0.14764881704E+04  0.17173671634E+04  0.46999998093E+01 0. -1.
       -5    1    3    3    0  502  0.78130405857E+03 -0.39859068548E+03  0.16930026237E+04  0.19067224602E+04  0.46999998093E+01 0.  1.
</event>
<event>
 5   0  0.2108068E-07  0.3599100E+04  0.7818609E-02  0.8090698E-01
       -1   -1    0    0    0  501  0.00000000000E+00  0.00000000000E+00  0.13875201445E+04  0.13875201445E+04  0.50400001928E-02 0.  1.
        1   -1    0    0  501    0  0.00000000000E+00  0.00000000000E+00 -0.23339336045E+04  0.23339336045E+04  0.50400001928E-02 0. -1.
    10030    2    1    2    0    0  0.00000000000E+00  0.00000000000E+00 -0.94641346003E+03  0.37214537490E+04  0.35990998275E+04 0.  0.
        5    1    3    3  502    0 -0.97861763283E+03  0.12357384443E+04  0.42441578777E+03  0.16324499456E+04  0.46999998093E+01 0.  1.
       -5    1    3    3    0  502  0.97861763283E+03 -0.12357384443E+04 -0.13708292478E+04  0.20890038034E+04  0.46999998093E+01 0. -1.
</event>
<event>
 5   0  0.6669864E-07  0.3509386E+04  0.7818609E-02  0.8111569E-01
       -2   -1    0    0    0  501  0.00000000000E+00  0.00000000000E+00  0.15897770514E+04  0.15897770514E+04  0.25500000920E-02 0.  1.
        2   -1    0    0  501    0  0.00000000000E+00  0.00000000000E+00 -0.19367165097E+04  0.19367165097E+04  0.25500000920E-02 0. -1.
    10030    2    1    2    0    0  0.00000000000E+00  0.00000000000E+00 -0.34693945820E+03  0.35264935611E+04  0.35093859646E+04 0.  0.
        5    1    3    3  502    0  0.31696732756E+03 -0.12003481605E+04 -0.14195231585E+04  0.18858345846E+04  0.46999998093E+01 0. -1.
       -5    1    3    3    0  502 -0.31696732756E+03  0.12003481605E+04  0.10725837003E+04  0.16406589765E+04  0.46999998093E+01 0.  1.
</event>
<event>
 5   0  0.6324216E-07  0.3596867E+04  0.7818609E-02  0.8091210E-01
        2   -1    0    0  501    0  0.00000000000E+00  0.00000000000E+00  0.21549961981E+04  0.21549961981E+04  0.25500000920E-02 0.  1.
       -2   -1    0    0    0  501  0.00000000000E+00  0.00000000000E+00 -0.15008669110E+04  0.15008669110E+04  0.25500000920E-02 0. -1.
    10030    2    1    2    0    0  0.00000000000E+00  0.00000000000E+00  0.65412928704E+03  0.36558631091E+04  0.35968666848E+04 0.  0.
        2    1    3    3  502    0 -0.88669140335E+03 -0.15442295134E+04  0.58318196249E+03  0.18737576247E+04  0.25500000920E-02 0. -1.
       -2    1    3    3    0  502  0.88669140335E+03  0.15442295134E+04  0.70947324550E+02  0.17821054844E+04  0.25500000920E-02 0.  1.
</event>
<event>
 5   0  0.2193129E-07  0.3639663E+04  0.7818609E-02  0.8081466E-01
        1   -1    0    0  501    0  0.00000000000E+00  0.00000000000E+00  0.24886918430E+04  0.24886918430E+04  0.50400001928E-02 0. -1.
       -1   -1    0    0    0  501  0.00000000000E+00  0.00000000000E+00 -0.13307336663E+04  0.13307336663E+04  0.50400001928E-02 0.  1.
    10030    2    1    2    0    0  0.00000000000E+00  0.00000000000E+00  0.11579581767E+04  0.38194255093E+04  0.36396626331E+04 0.  0.
        1    1    3    3  502    0  0.16990224844E+04 -0.62191676576E+03  0.78442422731E+03  0.19719987917E+04  0.50400001928E-02 0. -1.
       -1    1    3    3    0  502 -0.16990224844E+04  0.62191676576E+03  0.37353394935E+03  0.18474267177E+04  0.50400001928E-02 0.  1.
</event>
<event>
 5   0  0.2086250E-07  0.3608329E+04  0.7818609E-02  0.8088586E-01
        1   -1    0    0  501    0  0.00000000000E+00  0.00000000000E+00  0.19534461516E+04  0.19534461516E+04  0.50400001928E-02 0.  1.
       -1   -1    0    0    0  501  0.00000000000E+00  0.00000000000E+00 -0.16662911099E+04  0.16662911099E+04  0.50400001928E-02 0. -1.
    10030    2    1    2    0    0  0.00000000000E+00  0.00000000000E+00  0.28715504168E+03  0.36197372614E+04  0.36083292289E+04 0.  0.
        3    1    3    3  502    0 -0.67136703250E+03  0.14212786448E+03  0.18174078368E+04  0.19426541838E+04  0.10100000352E+00 0.  1.
       -3    1    3    3    0  502  0.67136703250E+03 -0.14212786448E+03 -0.15302527951E+04  0.16770830777E+04  0.10100000352E+00 0. -1.
</event>
<event>
 5   0  0.6541476E-07  0.3564611E+04  0.7818609E-02  0.8098646E-01
        2   -1    0    0  501    0  0.00000000000E+00  0.00000000000E+00  0.19208248915E+04  0.19208248915E+04  0.25500000920E-02 0. -1.
       -2   -1    0    0    0  501  0.00000000000E+00  0.00000000000E+00 -0.16537751868E+04  0.16537751868E+04  0.25500000920E-02 0.  1.
    10030    2    1    2    0    0  0.00000000000E+00  0.00000000000E+00  0.26704970470E+03  0.35746000783E+04  0.35646108027E+04 0.  0.
        4    1    3    3  502    0 -0.43392656936E+03 -0.43170870509E+03  0.18121172124E+04  0.19127036044E+04  0.12699999809E+01 0. -1.
       -4    1    3    3    0  502  0.43392656936E+03  0.43170870509E+03 -0.15450675077E+04  0.16618964739E+04  0.12699999809E+01 0.  1.
</event>
<event>
 5   0  0.6541476E-07  0.3013427E+04  0.7818609E-02  0.8239907E-01
        2   -1    0    0  501    0  0.00000000000E+00  0.00000000000E+00  0.26307584602E+04  0.26307584602E+04  0.25500000920E-02 0. -1.
       -2   -1    0    0    0  501  0.00000000000E+00  0.00000000000E+00 -0.86293966807E+03  0.86293966807E+03  0.25500000920E-02 0.  1.
    10030    2    1    2    0    0  0.00000000000E+00  0.00000000000E+00  0.17678187921E+04  0.34936981283E+04  0.30134271735E+04 0.  0.
        4    1    3    3  502    0 -0.73564075277E+03 -0.12647773938E+04  0.46692830129E+03  0.15358557304E+04  0.12699999809E+01 0.  1.
       -4    1    3    3    0  502  0.73564075277E+03  0.12647773938E+04  0.13008904909E+04  0.19578423979E+04  0.12699999809E+01 0. -1.
</event>
<event>
 5   0  0.6848661E-07  0.3615704E+04  0.7818609E-02  0.8086904E-01
        2   -1    0    0  501    0  0.00000000000E+00  0.00000000000E+00  0.23868470708E+04  0.23868470708E+04  0.25500000920E-02 0.  1.
       -2   -1    0    0    0  501  0.00000000000E+00  0.00000000000E+00 -0.13693078453E+04  0.13693078453E+04  0.25500000920E-02 0. -1.
    10030    2    1    2    0    0  0.00000000000E+00  0.00000000000E+00  0.10175392255E+04  0.37561549162E+04  0.36157037599E+04 0.  0.
        1    1    3    3  502    0  0.10914931052E+03 -0.16490889692E+04 -0.25244236829E+03  0.16718657690E+04  0.50400001928E-02 0. -1.
       -1    1    3    3    0  502 -0.10914931052E+03  0.16490889692E+04  0.12699815938E+04  0.20842891472E+04  0.50400001928E-02 0.  1.
</event>
<event>
 5   0  0.6669864E-07  0.3507908E+04  0.7818609E-02  0.8111918E-01
       -2   -1    0    0    0  501  0.00000000000E+00  0.00000000000E+00  0.24530032711E+04  0.24530032711E+04  0.25500000920E-02 0. -1.
        2   -1    0    0  501    0  0.00000000000E+00  0.00000000000E+00 -0.12541179652E+04  0.12541179652E+04  0.25500000920E-02 0.  1.
    10030    2    1    2    0    0  0.00000000000E+00  0.00000000000E+00  0.11988853059E+04  0.37071212363E+04  0.35079084771E+04 0.  0.
        5    1    3    3  502    0  0.14457372631E+04  0.77440190246E+03  0.12564215142E+04  0.20660279891E+04  0.46999998093E+01 0. -1.
       -5    1    3    3    0  502 -0.14457372631E+04 -0.77440190246E+03 -0.57536208348E+02  0.16410932471E+04  0.46999998093E+01 0.  1.
</event>
<event>
 5   0  0.2086250E-07  0.3538147E+04  0.7818609E-02  0.8104809E-01
       -1   -1    0    0    0  501  0.00000000000E+00  0.00000000000E+00  0.88860237741E+03  0.88860237742E+03  0.50400001928E-02 0. -1.
        1   -1    0    0  501    0  0.00000000000E+00  0.00000000000E+00 -0.35219583620E+04  0.35219583620E+04  0.50400001928E-02 0.  1.
    10030    2    1    2    0    0  0.00000000000E+00  0.00000000000E+00 -0.26333559846E+04  0.44105607395E+04  0.35381467317E+04 0.  0.
        3    1    3    3  502    0  0.12199991539E+04 -0.11214120278E+04 -0.20888070956E+04  0.26662854245E+04  0.10100000352E+00 0.  1.
       -3    1    3    3    0  502 -0.12199991539E+04  0.11214120278E+04 -0.54454888902E+03  0.17442753150E+04  0.10100000352E+00 0. -1.
</event>
<event>
 5   0  0.2193129E-07  0.3655632E+04  0.7818609E-02  0.8077866E-01
       -1   -1    0    0    0  501  0.00000000000E+00  0.00000000000E+00  0.14799837367E+04  0.14799837367E+04  0.50400001928E-02 0.  1.
        1   -1    0    0  501    0  0.00000000000E+00  0.00000000000E+00 -0.22573974951E+04  0.22573974951E+04  0.50400001928E-02 0. -1.
    10030    2    1    2    0    0  0.00000000000E+00  0.00000000000E+00 -0.77741375846E+03  0.37373812318E+04  0.36556321369E+04 0.  0.
        1    1    3    3  502    0 -0.13458050559E+04  0.48809982003E+03  0.77313913075E+03  0.16270146890E+04  0.50400001928E-02 0.  1.
       -1    1    3    3    0  502  0.13458050559E+04 -0.48809982003E+03 -0.15505528892E+04  0.21103665428E+04  0.50400001928E-02 0. -1.
</event>
<event>
 5   0  0.6324216E-07  0.3626143E+04  0.7818609E-02  0.8084529E-01
        2   -1    0    0  501    0  0.00000000000E+00  0.00000000000E+00  0.17654639630E+04  0.17654639630E+04  0.25500000920E-02 0.  1.
       -2   -1    0    0    0  501  0.00000000000E+00  0.00000000000E+00 -0.18619628292E+04  0.18619628292E+04  0.25500000920E-02 0. -1.
    10030    2    1    2    0    0  0.00000000000E+00  0.00000000000E+00 -0.96498866164E+02  0.36274267922E+04  0.36261430063E+04 0.  0.
        2    1    3    3  502    0 -0.79454550750E+02  0.17227211872E+02  0.17636395811E+04  0.17655124963E+04  0.25500000920E-02 0.  1.
       -2    1    3    3    0  502  0.79454550750E+02 -0.17227211872E+02 -0.18601384473E+04  0.18619142960E+04  0.25500000920E-02 0. -1.
</event>
<event>
 5   0  0.2108068E-07  0.3752118E+04  0.7818609E-02  0.8056509E-01
       -1   -1    0    0    0  501  0.00000000000E+00  0.00000000000E+00  0.13734044720E+04  0.13734044721E+04  0.50400001928E-02 0. -1.
        1   -1    0    0  501    0  0.00000000000E+00  0.00000000000E+00 -0.25626808890E+04  0.25626808890E+04  0.50400001928E-02 0.  1.
    10030    2    1    2    0    0  0.00000000000E+00  0.00000000000E+00 -0.11892764169E+04  0.39360853610E+04  0.37521180117E+04 0.  0.
        5    1    3    3  502    0 -0.18489459643E+04  0.16383202528E+03 -0.30901442388E+03  0.18817423085E+04  0.46999998093E+01 0.  1.
       -5    1    3    3    0  502  0.18489459643E+04 -0.16383202528E+03 -0.88026199303E+03  0.20543430526E+04  0.46999998093E+01 0. -1.
</event>
<event>
 5   0  0.2086250E-07  0.3590879E+04  0.7818609E-02  0.8092584E-01
       -1   -1    0    0    0  501  0.00000000000E+00  0.00000000000E+00  0.19775884878E+04  0.19775884878E+04  0.50400001928E-02 0.  1.
        1   -1    0    0  501    0  0.00000000000E+00  0.00000000000E+00 -0.16300676432E+04  0.16300676432E+04  0.50400001928E-02 0. -1.
    10030    2    1    2    0    0  0.00000000000E+00  0.00000000000E+00  0.34752084457E+03  0.36076561310E+04  0.35908790041E+04 0.  0.
        3    1    3    3  502    0  0.16402020221E+04 -0.60526042707E+03 -0.23680538532E+03  0.17642787928E+04  0.10100000352E+00 0. -1.
       -3    1    3    3    0  502 -0.16402020221E+04  0.60526042707E+03  0.58432622990E+03  0.18433773382E+04  0.10100000352E+00 0.  1.
</event>
<event>
 5   0  0.2086250E-07  0.3581220E+04  0.7818609E-02  0.8094807E-01
        1   -1    0    0  501    0  0.00000000000E+00  0.00000000000E+00  0.21483402949E+04  0.21483402949E+04  0.50400001928E-02 0.  1.
       -1   -1    0    0    0  501  0.00000000000E+00  0.00000000000E+00 -0.14924472981E+04  0.14924472981E+04  0.50400001928E-02 0. -1.
    10030    2    1    2    0    0  0.00000000000E+00  0.00000000000E+00  0.65589299683E+03  0.36407875930E+04  0.35812202772E+04 0.  0.
        2    1    3    3  502    0  0.61539421152E+03  0.14598740827E+04 -0.52040473402E+03  0.16675621308E+04  0.25500000920E-02 0. -1.
       -2    1    3    3    0  502 -0.61539421152E+03 -0.14598740827E+04  0.11762977309E+04  0.19732254622E+04  0.25500000920E-02 0.  1.
</event>
<event>
 5   0  0.6324216E-07  0.3619494E+04  0.7818609E-02  0.8086041E-01
       -2   -1    0    0    0  501  0.00000000000E+00  0.00000000000E+00  0.15584344262E+04  0.15584344262E+04  0.25500000920E-02 0. -1.
        2   -1    0    0  501    0  0.00000000000E+00  0.00000000000E+00 -0.21015863206E+04  0.21015863206E+04  0.25500000920E-02 0.  1.
    10030    2    1    2    0    0  0.00000000000E+00  0.00000000000E+00 -0.54315189440E+03  0.36600207468E+04  0.36194941478E+04 0.  0.
        2    1    3    3  502    0 -0.17064489958E+04 -0.60266825913E+03 -0.26885025118E+03  0.18296058765E+04  0.25500000920E-02 0.  1.
       -2    1    3    3    0  502  0.17064489958E+04  0.60266825913E+03 -0.27430164322E+03  0.18304148703E+04  0.25500000920E-02 0. -1.
</event>
<event>
 5   0  0.6729577E-07  0.3605674E+04  0.7818609E-02  0.8089193E-01
        2   -1    0    0  501    0  0.00000000000E+00  0.00000000000E+00  0.23716879902E+04  0.23716879902E+04  0.25500000920E-02 0. -1.
       -2   -1    0    0    0  501  0.00000000000E+00  0.00000000000E+00 -0.13704252881E+04  0.13704252881E+04  0.25500000920E-02 0.  1.
    10030    2    1    2    0    0  0.00000000000E+00  0.00000000000E+00  0.10012627021E+04  0.37421132783E+04  0.36056739715E+04 0.  0.
        3    1    3    3  502    0 -0.43093657678E+03  0.14533353906E+04  0.15134331355E+04  0.21420480753E+04  0.10100000352E+00 0.  1.
       -3    1    3    3    0  502  0.43093657678E+03 -0.14533353906E+04 -0.51217043343E+03  0.16000652030E+04  0.10100000352E+00 0. -1.
</event>
<event>
 5   0  0.2108068E-07  0.3594148E+04  0.7818609E-02  0.8091833E-01
        1   -1    0    0  501    0  0.00000000000E+00  0.00000000000E+00  0.22841306119E+04  0.22841306119E+04  0.50400001928E-02 0.  1.
       -1   -1    0    0    0  501  0.00000000000E+00  0.00000000000E+00 -0.14138750092E+04  0.14138750092E+04  0.50400001928E-02 0. -1.
    10030    2    1    2    0    0  0.00000000000E+00  0.00000000000E+00  0.87025560276E+03  0.36980056211E+04  0.35941481271E+04 0.  0.
        5    1    3    3  502    0  0.62833556125E+03  0.60283469978E+03 -0.11823147652E+04  0.14683683281E+04  0.46999998093E+01 0. -1.
       -5    1    3    3    0  502 -0.62833556125E+03 -0.60283469978E+03  0.20525703680E+04  0.22296372930E+04  0.46999998093E+01 0.  1.
</event>
<event>
 5   0  0.2193129E-07  0.3602044E+04  0.7818609E-02  0.8090024E-01
        1   -1    0    0  501    0  0.00000000000E+00  0.00000000000E+00  0.21486425488E+04  0.21486425488E+04  0.50400001928E-02 0. -1.
       -1   -1    0    0    0  501  0.00000000000E+00  0.00000000000E+00 -0.15096414458E+04  0.15096414458E+04  0.50400001928E-02 0.  1.
    10030    2    1    2    0    0  0.00000000000E+00  0.00000000000E+00  0.63900110304E+03  0.36582839946E+04  0.36020437776E+04 0.  0.
        1    1    3    3  502    0  0.85626181853E+03  0.80657174400E+03 -0.10655882342E+04  0.15872052687E+04  0.50400001928E-02 0.  1.
       -1    1    3    3    0  502 -0.85626181853E+03 -0.80657174400E+03  0.17045893373E+04  0.20710787259E+04  0.50400001928E-02 0. -1.
</event>
<event>
 5   0  0.2108068E-07  0.3650282E+04  0.7818609E-02  0.8079070E-01
       -1   -1    0    0    0  501  0.00000000000E+00  0.00000000000E+00  0.21522130811E+04  0.21522130811E+04  0.50400001928E-02 0.  1.
        1   -1    0    0  501    0  0.00000000000E+00  0.00000000000E+00 -0.15477742969E+04  0.15477742969E+04  0.50400001928E-02 0. -1.
    10030    2    1    2    0    0  0.00000000000E+00  0.00000000000E+00  0.60443878424E+03  0.36999873780E+04  0.36502822293E+04 0.  0.
        5    1    3    3  502    0  0.51928000869E+03  0.14740802240E+04  0.12576863084E+04  0.20060810489E+04  0.46999998093E+01 0.  1.
       -5    1    3    3    0  502 -0.51928000869E+03 -0.14740802240E+04 -0.65324752417E+03  0.16939063292E+04  0.46999998093E+01 0. -1.
</event>
<event>
 5   0  0.6669864E-07  0.3604770E+04  0.7818609E-02  0.8089400E-01
        2   -1    0    0  501    0  0.00000000000E+00  0.00000000000E+00  0.24809860814E+04  0.24809860814E+04  0.25500000920E-02 0. -1.
       -2   -1    0    0    0  501  0.00000000000E+00  0.00000000000E+00 -0.13093954258E+04  0.13093954258E+04  0.25500000920E-02 0.  1.
    10030    2    1    2    0    0  0.00000000000E+00  0.00000000000E+00  0.11715906555E+04  0.37903815072E+04  0.36047700767E+04 0.  0.
        5    1    3    3  502    0  0.16839547448E+04 -0.29091998146E+03  0.11882101213E+04  0.20813945807E+04  0.46999998093E+01 0.  1.
       -5    1    3    3    0  502 -0.16839547448E+04  0.29091998146E+03 -0.16619465778E+02  0.17089869265E+04  0.46999998093E+01 0. -1.
</event>
<event>
 5   0  0.6324216E-07  0.3596045E+04  0.7818609E-02  0.8091398E-01
        2   -1    0    0  501    0  0.00000000000E+00  0.00000000000E+00  0.19759427773E+04  0.19759427773E+04  0.25500000920E-02 0. -1.
       -2   -1    0    0    0  501  0.00000000000E+00  0.00000000000E+00 -0.16361226688E+04  0.16361226688E+04  0.25500000920E-02 0.  1.
    10030    2    1    2    0    0  0.00000000000E+00  0.00000000000E+00  0.33982010851E+03  0.36120654462E+04  0.35960449220E+04 0.  0.
        2    1    3    3  502    0 -0.14634122419E+04 -0.69505735070E+03  0.95325919939E+03  0.18797295582E+04  0.25500000920E-02 0. -1.
       -2    1    3    3    0  502  0.14634122419E+04  0.69505735070E+03 -0.61343909088E+03  0.17323358880E+04  0.25500000920E-02 0.  1.
</event>
<event>
 5   0  0.6324216E-07  0.3581826E+04  0.7818609E-02  0.8094667E-01
       -2   -1    0    0    0  501  0.00000000000E+00  0.00000000000E+00  0.22077596884E+04  0.22077596884E+04  0.25500000920E-02 0. -1.
        2   -1    0    0  501    0  0.00000000000E+00  0.00000000000E+00 -0.14527710322E+04  0.14527710322E+04  0.25500000920E-02 0.  1.
    10030    2    1    2    0    0  0.00000000000E+00  0.00000000000E+00  0.75498865616E+03  0.36605307206E+04  0.35818259709E+04 0.  0.
        2    1    3    3  502    0  0.27282228531E+03  0.17453914991E+04  0.67814533727E+03  0.18922749755E+04  0.25500000920E-02 0.  1.
       -2    1    3    3    0  502 -0.27282228531E+03 -0.17453914991E+04  0.76843318890E+02  0.17682557451E+04  0.25500000920E-02 0. -1.
</event>
<event>
 5   0  0.6669864E-07  0.3603097E+04  0.7818609E-02  0.8089783E-01
        2   -1    0    0  501    0  0.00000000000E+00  0.00000000000E+00  0.23615170018E+04  0.23615170018E+04  0.25500000920E-02 0. -1.
       -2   -1    0    0    0  501  0.00000000000E+00  0.00000000000E+00 -0.13743610926E+04  0.13743610926E+04  0.25500000920E-02 0.  1.
    10030    2    1    2    0    0  0.00000000000E+00  0.00000000000E+00  0.98715590922E+03  0.37358780943E+04  0.36030970493E+04 0.  0.
        5    1    3    3  502    0  0.96067655892E+03 -0.78123896499E+03 -0.86320180559E+03  0.15094281097E+04  0.46999998093E+01 0.  1.
       -5    1    3    3    0  502 -0.96067655892E+03  0.78123896499E+03  0.18503577148E+04  0.22264499846E+04  0.46999998093E+01 0. -1.
</event>
<event>
 5   0  0.6848661E-07  0.3604250E+04  0.7818609E-02  0.8089519E-01
       -2   -1    0    0    0  501  0.00000000000E+00  0.00000000000E+00  0.33441316940E+04  0.33441316940E+04  0.25500000920E-02 0.  1.
        2   -1    0    0  501    0  0.00000000000E+00  0.00000000000E+00 -0.97115004231E+03  0.97115004231E+03  0.25500000920E-02 0. -1.
    10030    2    1    2    0    0  0.00000000000E+00  0.00000000000E+00  0.23729816517E+04  0.43152817363E+04  0.36042495120E+04 0.  0.
        1    1    3    3  502    0  0.16533131063E+02  0.51859887692E+03  0.32527671831E+04  0.32938901753E+04  0.50400001928E-02 0.  1.
       -1    1    3    3    0  502 -0.16533131063E+02 -0.51859887692E+03 -0.87978553141E+03  0.10213915610E+04  0.50400001928E-02 0. -1.
</event>
<event>
 5   0  0.6324216E-07  0.3645070E+04  0.7818609E-02  0.8080245E-01
       -2   -1    0    0    0  501  0.00000000000E+00  0.00000000000E+00  0.19112923096E+04  0.19112923096E+04  0.25500000920E-02 0. -1.
        2   -1    0    0  501    0  0.00000000000E+00  0.00000000000E+00 -0.17378994809E+04  0.17378994809E+04  0.25500000920E-02 0.  1.
    10030    2    1    2    0    0  0.00000000000E+00  0.00000000000E+00  0.17339282872E+03  0.36491917904E+04  0.36450700474E+04 0.  0.
        2    1    3    3  502    0 -0.44163542109E+03 -0.17036224201E+04 -0.38740292528E+03  0.18020688727E+04  0.25500000920E-02 0.  1.
       -2    1    3    3    0  502  0.44163542109E+03  0.17036224201E+04  0.56079575400E+03  0.18471229177E+04  0.25500000920E-02 0. -1.
</event>
<event>
 5   0  0.6848661E-07  0.3655011E+04  0.7818609E-02  0.8078006E-01
       -2   -1    0    0    0  501  0.00000000000E+00  0.00000000000E+00  0.16819061430E+04  0.16819061430E+04  0.25500000920E-02 0. -1.
        2   -1    0    0  501    0  0.00000000000E+00  0.00000000000E+00 -0.19857091371E+04  0.19857091371E+04  0.25500000920E-02 0.  1.
    10030    2    1    2    0    0  0.00000000000E+00  0.00000000000E+00 -0.30380299407E+03  0.36676152802E+04  0.36550110238E+04 0.  0.
        1    1    3    3  502    0  0.37238435702E+03 -0.10893376397E+03 -0.19439042172E+04  0.19822462712E+04  0.50400001928E-02 0.  1.
       -1    1    3    3    0  502 -0.37238435702E+03  0.10893376397E+03  0.16401012231E+04  0.16853690089E+04  0.50400001928E-02 0. -1.
</event>
<event>
 5   0  0.2086250E-07  0.3594431E+04  0.7818609E-02  0.8091769E-01
        1   -1    0    0  501    0  0.00000000000E+00  0.00000000000E+00  0.24617308592E+04  0.24617308592E+04  0.50400001928E-02 0.  1.
       -1   -1    0    0    0  501  0.00000000000E+00  0.00000000000E+00 -0.13120781720E+04  0.13120781721E+04  0.50400001928E-02 0. -1.
    10030    2    1    2    0    0  0.00000000000E+00  0.00000000000E+00  0.11496526871E+04  0.37738090312E+04  0.35944308733E+04 0.  0.
        4    1    3    3  502    0 -0.16627352263E+04 -0.57848889960E+03  0.19534161181E+03  0.17712983368E+04  0.12699999809E+01 0.  1.
       -4    1    3    3    0  502  0.16627352263E+04  0.57848889960E+03  0.95431107531E+03  0.20025106944E+04  0.12699999809E+01 0. -1.
</event>
<event>
 5   0  0.2193129E-07  0.3699243E+04  0.7818609E-02  0.8068130E-01
        1   -1    0    0  501    0  0.00000000000E+00  0.00000000000E+00  0.26750321083E+04  0.26750321083E+04  0.50400001928E-02 0.  1.
       -1   -1    0    0    0  501  0.00000000000E+00  0.00000000000E+00 -0.12789000786E+04  0.12789000786E+04  0.50400001928E-02 0. -1.
    10030    2    1    2    0    0  0.00000000000E+00  0.00000000000E+00  0.13961320297E+04  0.39539321869E+04  0.36992425027E+04 0.  0.
        1    1    3    3  502    0  0.42497072491E+03 -0.49495790603E+02 -0.12252830499E+04  0.12978322321E+04  0.50400001928E-02 0. -1.
       -1    1    3    3    0  502 -0.42497072491E+03  0.49495790603E+02  0.26214150796E+04  0.26560999548E+04  0.50400001928E-02 0.  1.
</event>
<event>
 5   0  0.2086250E-07  0.3603829E+04  0.7818609E-02  0.8089615E-01
        1   -1    0    0  501    0  0.00000000000E+00  0.00000000000E+00  0.28522971446E+04  0.28522971446E+04  0.50400001928E-02 0.  1.
       -1   -1    0    0    0  501  0.00000000000E+00  0.00000000000E+00 -0.11383439890E+04  0.11383439890E+04  0.50400001928E-02 0. -1.
    10030    2    1    2    0    0  0.00000000000E+00  0.00000000000E+00  0.17139531556E+04  0.39906411336E+04  0.36038286916E+04 0.  0.
        4    1    3    3  502    0 -0.32154874421E+03  0.17536020528E+04  0.56741368905E+03  0.18709552806E+04  0.12699999809E+01 0. -1.
       -4    1    3    3    0  502  0.32154874421E+03 -0.17536020528E+04  0.11465394665E+04  0.21196858531E+04  0.12699999809E+01 0.  1.
</event>
<event>
 5   0  0.6541476E-07  0.3576169E+04  0.7818609E-02  0.8095972E-01
        2   -1    0    0  501    0  0.00000000000E+00  0.00000000000E+00  0.23440710031E+04  0.23440710031E+04  0.25500000920E-02 0. -1.
       -2   -1    0    0    0  501  0.00000000000E+00  0.00000000000E+00 -0.13639713442E+04  0.13639713442E+04  0.25500000920E-02 0.  1.
    10030    2    1    2    0    0  0.00000000000E+00  0.00000000000E+00  0.98009965892E+03  0.37080423473E+04  0.35761687192E+04 0.  0.
        4    1    3    3  502    0 -0.56409617665E+03 -0.14983135764E+04  0.13157154282E+04  0.20722588570E+04  0.12699999809E+01 0. -1.
       -4    1    3    3    0  502  0.56409617665E+03  0.14983135764E+04 -0.33561576924E+03  0.16357834903E+04  0.12699999809E+01 0.  1.
</event>
<event>
 5   0  0.2108068E-07  0.3556555E+04  0.7818609E-02  0.8100516E-01
       -1   -1    0    0    0  501  0.00000000000E+00  0.00000000000E+00  0.17190595847E+04  0.17190595847E+04  0.50400001928E-02 0. -1.
        1   -1    0    0  501    0  0.00000000000E+00  0.00000000000E+00 -0.18395354389E+04  0.18395354389E+04  0.50400001928E-02 0.  1.
    10030    2    1    2    0    0  0.00000000000E+00  0.00000000000E+00 -0.12047585414E+03  0.35585950236E+04  0.35565550903E+04 0.  0.
        5    1    3    3  502    0 -0.67817575201E+02  0.50278117850E+03  0.16451048649E+04  0.17215633139E+04  0.46999998093E+01 0. -1.
       -5    1    3    3    0  502  0.67817575201E+02 -0.50278117850E+03 -0.17655807191E+04  0.18370317097E+04  0.46999998093E+01 0.  1.
</event>
<event>
 5   0  0.2086250E-07  0.3675834E+04  0.7818609E-02  0.8073339E-01
       -1   -1    0    0    0  501  0.00000000000E+00  0.00000000000E+00  0.16283399008E+04  0.16283399008E+04  0.50400001928E-02 0. -1.
        1   -1    0    0  501    0  0.00000000000E+00  0.00000000000E+00 -0.20744676688E+04  0.20744676689E+04  0.50400001928E-02 0.  1.
    10030    2    1    2    0    0  0.00000000000E+00  0.00000000000E+00 -0.44612776805E+03  0.37028075697E+04  0.36758337711E+04 0.  0.
        2    1    3    3  502    0  0.12224224711E+04 -0.13518923514E+04  0.15334665567E+02  0.18226806576E+04  0.25500000920E-02 0. -1.
       -2    1    3    3    0  502 -0.12224224711E+04  0.13518923514E+04 -0.46146243362E+03  0.18801269120E+04  0.25500000920E-02 0.  1.
</event>
<event>
 5   0  0.2086250E-07  0.3586636E+04  0.7818609E-02  0.8093560E-01
       -1   -1    0    0    0  501  0.00000000000E+00  0.00000000000E+00  0.12234346866E+04  0.12234346866E+04  0.50400001928E-02 0.  1.
        1   -1    0    0  501    0  0.00000000000E+00  0.00000000000E+00 -0.26286560324E+04  0.26286560324E+04  0.50400001928E-02 0. -1.
    10030    2    1    2    0    0  0.00000000000E+00  0.00000000000E+00 -0.14052213458E+04  0.38520907190E+04  0.35866357324E+04 0.  0.
        4    1    3    3  502    0  0.28442447302E+03  0.59954519410E+03 -0.24919407532E+04  0.25787830562E+04  0.12699999809E+01 0. -1.
       -4    1    3    3    0  502 -0.28442447302E+03 -0.59954519410E+03  0.10867194075E+04  0.12733076628E+04  0.12699999809E+01 0.  1.
</event>
<event>
 5   0  0.2086250E-07  0.3574463E+04  0.7818609E-02  0.8096366E-01
        1   -1    0    0  501    0  0.00000000000E+00  0.00000000000E+00  0.15811112333E+04  0.15811112333E+04  0.50400001928E-02 0.  1.
       -1   -1    0    0    0  501  0.00000000000E+00  0.00000000000E+00 -0.20202224357E+04  0.20202224357E+04  0.50400001928E-02 0. -1.
    10030    2    1    2    0    0  0.00000000000E+00  0.00000000000E+00 -0.43911120245E+03  0.36013336690E+04  0.35744629733E+04 0.  0.
        4    1    3    3  502    0  0.13317444152E+04 -0.92026452374E+03 -0.98272246700E+03  0.18937198951E+04  0.12699999809E+01 0. -1.
       -4    1    3    3    0  502 -0.13317444152E+04  0.92026452374E+03  0.54361126454E+03  0.17076137739E+04  0.12699999809E+01 0.  1.
</event>
<event>
 5   0  0.6729577E-07  0.3364879E+04  0.7818609E-02  0.8146580E-01
       -2   -1    0    0    0  501  0.00000000000E+00  0.00000000000E+00  0.21966897594E+04  0.21966897594E+04  0.25500000920E-02 0. -1.
        2   -1    0    0  501    0  0.00000000000E+00  0.00000000000E+00 -0.12885763697E+04  0.12885763697E+04  0.25500000920E-02 0.  1.
    10030    2    1    2    0    0  0.00000000000E+00  0.00000000000E+00  0.90811338966E+03  0.34852661291E+04  0.33648789075E+04 0.  0.
        3    1    3    3  502    0 -0.15561798503E+04 -0.32139148373E+03  0.10266593226E+04  0.18918291643E+04  0.10100000352E+00 0. -1.
       -3    1    3    3    0  502  0.15561798503E+04  0.32139148373E+03 -0.11854593292E+03  0.15934369648E+04  0.10100000352E+00 0.  1.
</event>
<event>
 5   0  0.2086250E-07  0.3592361E+04  0.7818609E-02  0.8092244E-01
       -1   -1    0    0    0  501  0.00000000000E+00  0.00000000000E+00  0.18706254691E+04  0.18706254692E+04  0.50400001928E-02 0.  1.
        1   -1    0    0  501    0  0.00000000000E+00  0.00000000000E+00 -0.17246977679E+04  0.17246977679E+04  0.50400001928E-02 0. -1.
    10030    2    1    2    0    0  0.00000000000E+00  0.00000000000E+00  0.14592770123E+03  0.35953232371E+04  0.35923605450E+04 0.  0.
        2    1    3    3  502    0 -0.24206947342E+03  0.20062514067E+03  0.18428723529E+04  0.18694990201E+04  0.25500000920E-02 0.  1.
       -2    1    3    3    0  502  0.24206947342E+03 -0.20062514067E+03 -0.16969446517E+04  0.17258242170E+04  0.25500000920E-02 0. -1.
</event>
<event>
 5   0  0.6729577E-07  0.3631559E+04  0.7818609E-02  0.8083301E-01
        2   -1    0    0  501    0  0.00000000000E+00  0.00000000000E+00  0.24409014111E+04  0.24409014111E+04  0.25500000920E-02 0. -1.
       -2   -1    0    0    0  501  0.00000000000E+00  0.00000000000E+00 -0.13507530173E+04  0.13507530173E+04  0.25500000920E-02 0.  1.
    10030    2    1    2    0    0  0.00000000000E+00  0.00000000000E+00  0.10901483939E+04  0.37916544284E+04  0.36315588641E+04 0.  0.
        3    1    3    3  502    0 -0.47197604757E+03  0.50217282927E+02  0.23749858942E+04  0.24219498700E+04  0.10100000352E+00 0. -1.
       -3    1    3    3    0  502  0.47197604757E+03 -0.50217282927E+02 -0.12848375003E+04  0.13697045584E+04  0.10100000352E+00 0.  1.
</event>
<event>
 5   0  0.2108068E-07  0.3551725E+04  0.7818609E-02  0.8101640E-01
        1   -1    0    0  501    0  0.00000000000E+00  0.00000000000E+00  0.11293611855E+04  0.11293611855E+04  0.50400001928E-02 0. -1.
       -1   -1    0    0    0  501  0.00000000000E+00  0.00000000000E+00 -0.27924532012E+04  0.27924532012E+04  0.50400001928E-02 0.  1.
    10030    2    1    2    0    0  0.00000000000E+00  0.00000000000E+00 -0.16630920158E+04  0.39218143867E+04  0.35517253598E+04 0.  0.
        5    1    3    3  502    0  0.63369838761E+03 -0.96222564913E+03  0.66064195142E+03  0.13281271491E+04  0.46999998093E+01 0. -1.
       -5    1    3    3    0  502 -0.63369838761E+03  0.96222564913E+03 -0.23237339672E+04  0.25936872376E+04  0.46999998093E+01 0.  1.
</event>
<event>
 5   0  0.6729577E-07  0.3614131E+04  0.7818609E-02  0.8087262E-01
       -2   -1    0    0    0  501  0.00000000000E+00  0.00000000000E+00  0.24210437017E+04  0.24210437017E+04  0.25500000920E-02 0. -1.
        2   -1    0    0  501    0  0.00000000000E+00  0.00000000000E+00 -0.13487926589E+04  0.13487926589E+04  0.25500000920E-02 0.  1.
    10030    2    1    2    0    0  0.00000000000E+00  0.00000000000E+00  0.10722510428E+04  0.37698363607E+04  0.36141311386E+04 0.  0.
        3    1    3    3  502    0  0.73588578523E+03  0.43948315709E+03  0.21955159794E+04  0.23568970618E+04  0.10100000352E+00 0. -1.
       -3    1    3    3    0  502 -0.73588578523E+03 -0.43948315709E+03 -0.11232649365E+04  0.14129392988E+04  0.10100000352E+00 0.  1.
</event>
<event>
 5   0  0.2086250E-07  0.3629245E+04  0.7818609E-02  0.8083825E-01
       -1   -1    0    0    0  501  0.00000000000E+00  0.00000000000E+00  0.19690407546E+04  0.19690407546E+04  0.50400001928E-02 0. -1.
        1   -1    0    0  501    0  0.00000000000E+00  0.00000000000E+00 -0.16723140237E+04  0.16723140237E+04  0.50400001928E-02 0.  1.
    10030    2    1    2    0    0  0.00000000000E+00  0.00000000000E+00  0.29672673088E+03  0.36413547784E+04  0.36292448070E+04 0.  0.
        3    1    3    3  502    0  0.81965500414E+03  0.62056276626E+03  0.16486528089E+04  0.19429329806E+04  0.10100000352E+00 0. -1.
       -3    1    3    3    0  502 -0.81965500414E+03 -0.62056276626E+03 -0.13519260780E+04  0.16984217978E+04  0.10100000352E+00 0.  1.
</event>
<event>
 5   0  0.2108068E-07  0.3580845E+04  0.7818609E-02  0.8094894E-01
       -1   -1    0    0    0  501  0.00000000000E+00  0.00000000000E+00  0.19988617338E+04  0.19988617338E+04  0.50400001928E-02 0. -1.
        1   -1    0    0  501    0  0.00000000000E+00  0.00000000000E+00 -0.16037187299E+04  0.16037187299E+04  0.50400001928E-02 0.  1.
    10030    2    1    2    0    0  0.00000000000E+00  0.00000000000E+00  0.39514300391E+03  0.36025804637E+04  0.35808445937E+04 0.  0.
        5    1    3    3  502    0  0.45361578458E+03 -0.97564421195E+03  0.16373210037E+04  0.19592067444E+04  0.46999998093E+01 0. -1.
       -5    1    3    3    0  502 -0.45361578458E+03  0.97564421195E+03 -0.12421779997E+04  0.16433737193E+04  0.46999998093E+01 0.  1.
</event>
<event>
 5   0  0.6669864E-07  0.3595160E+04  0.7818609E-02  0.8091601E-01
        2   -1    0    0  501    0  0.00000000000E+00  0.00000000000E+00  0.30294883699E+04  0.30294883699E+04  0.25500000920E-02 0.  1.
       -2   -1    0    0    0  501  0.00000000000E+00  0.00000000000E+00 -0.10666135452E+04  0.10666135453E+04  0.25500000920E-02 0. -1.
    10030    2    1    2    0    0  0.00000000000E+00  0.00000000000E+00  0.19628748247E+04  0.40961019152E+04  0.35951597075E+04 0.  0.
        5    1    3    3  502    0 -0.15767220867E+04 -0.19556646797E+03  0.19394116142E+04  0.25071175244E+04  0.46999998093E+01 0.  1.
       -5    1    3    3    0  502  0.15767220867E+04  0.19556646797E+03  0.23463210524E+02  0.15889843908E+04  0.46999998093E+01 0. -1.
</event>
<event>
 5   0  0.2086250E-07  0.3557311E+04  0.7818609E-02  0.8100341E-01
       -1   -1    0    0    0  501  0.00000000000E+00  0.00000000000E+00  0.17490287935E+04  0.17490287935E+04  0.50400001928E-02 0. -1.
        1   -1    0    0  501    0  0.00000000000E+00  0.00000000000E+00 -0.18087842725E+04  0.18087842725E+04  0.50400001928E-02 0.  1.
    10030    2    1    2    0    0  0.00000000000E+00  0.00000000000E+00 -0.59755479044E+02  0.35578130660E+04  0.35573112171E+04 0.  0.
        3    1    3    3  502    0  0.37645900136E+03 -0.13036805951E+04 -0.11799579138E+04  0.17982227788E+04  0.10100000352E+00 0.  1.
       -3    1    3    3    0  502 -0.37645900136E+03  0.13036805951E+04  0.11202024348E+04  0.17595902872E+04  0.10100000352E+00 0. -1.
</event>
<event>
 5   0  0.2086250E-07  0.3601308E+04  0.7818609E-02  0.8090192E-01
        1   -1    0    0  501    0  0.00000000000E+00  0.00000000000E+00  0.19887777818E+04  0.19887777818E+04  0.50400001928E-02 0. -1.
       -1   -1    0    0    0  501  0.00000000000E+00  0.00000000000E+00 -0.16303250607E+04  0.16303250607E+04  0.50400001928E-02 0.  1.
    10030    2    1    2    0    0  0.00000000000E+00  0.00000000000E+00  0.35845272115E+03  0.36191028425E+04  0.36013076835E+04 0.  0.
        2    1    3    3  502    0 -0.18001098608E+04  0.44235866859E+02  0.17782843750E+03  0.18094129645E+04  0.25500000920E-02 0. -1.
       -2    1    3    3    0  502  0.18001098608E+04 -0.44235866859E+02  0.18062428366E+03  0.18096898780E+04  0.25500000920E-02 0.  1.
</event>
<event>
 5   0  0.6324216E-07  0.3579330E+04  0.7818609E-02  0.8095243E-01
       -2   -1    0    0    0  501  0.00000000000E+00  0.00000000000E+00  0.11522766896E+04  0.11522766896E+04  0.25500000920E-02 0. -1.
        2   -1    0    0  501    0  0.00000000000E+00  0.00000000000E+00 -0.27796279947E+04  0.27796279947E+04  0.25500000920E-02 0.  1.
    10030    2    1    2    0    0  0.00000000000E+00  0.00000000000E+00 -0.16273513051E+04  0.39319046843E+04  0.35793298502E+04 0.  0.
        2    1    3    3  502    0 -0.10958645366E+04 -0.12662782713E+04 -0.15071441810E+04  0.22529676707E+04  0.25500000920E-02 0.  1.
       -2    1    3    3    0  502  0.10958645366E+04  0.12662782713E+04 -0.12020712412E+03  0.16789370136E+04  0.25500000920E-02 0. -1.
</event>
<event>
 5   0  0.6324216E-07  0.3581992E+04  0.7818609E-02  0.8094629E-01
       -2   -1    0    0    0  501  0.00000000000E+00  0.00000000000E+00  0.24114311314E+04  0.24114311314E+04  0.25500000920E-02 0. -1.
        2   -1    0    0  501    0  0.00000000000E+00  0.00000000000E+00 -0.13301918105E+04  0.13301918105E+04  0.25500000920E-02 0.  1.
    10030    2    1    2    0    0  0.00000000000E+00  0.00000000000E+00  0.10812393209E+04  0.37416229420E+04  0.35819915928E+04 0.  0.
        2    1    3    3  502    0  0.73494536642E+03  0.70950189565E+03 -0.99603741817E+03  0.14267544182E+04  0.25500000920E-02 0.  1.
       -2    1    3    3    0  502 -0.73494536642E+03 -0.70950189565E+03  0.20772767391E+04  0.23148685238E+04  0.25500000920E-02 0. -1.
</event>
<event>
 5   0  0.6541476E-07  0.3251372E+04  0.7818609E-02  0.8175380E-01
        2   -1    0    0  501    0  0.00000000000E+00  0.00000000000E+00  0.20306137103E+04  0.20306137103E+04  0.25500000920E-02 0. -1.
       -2   -1    0    0    0  501  0.00000000000E+00  0.00000000000E+00 -0.13015055769E+04  0.13015055769E+04  0.25500000920E-02 0.  1.
    10030    2    1    2    0    0  0.00000000000E+00  0.00000000000E+00  0.72910813347E+03  0.33321192872E+04  0.32513720602E+04 0.  0.
        4    1    3    3  502    0 -0.71060549182E+03 -0.83035081949E+03 -0.86883402005E+03  0.13961793637E+04  0.12699999809E+01 0.  1.
       -4    1    3    3    0  502  0.71060549182E+03  0.83035081949E+03  0.15979421535E+04  0.19359399235E+04  0.12699999809E+01 0. -1.
</event>
<event>
 5   0  0.6848661E-07  0.3508620E+04  0.7818609E-02  0.8111750E-01
        2   -1    0    0  501    0  0.00000000000E+00  0.00000000000E+00  0.21556142469E+04  0.21556142469E+04  0.25500000920E-02 0. -1.
       -2   -1    0    0    0  501  0.00000000000E+00  0.00000000000E+00 -0.14277150603E+04  0.14277150603E+04  0.25500000920E-02 0.  1.
    10030    2    1    2    0    0  0.00000000000E+00  0.00000000000E+00  0.72789918654E+03  0.35833293072E+04  0.35086196286E+04 0.  0.
        1    1    3    3  502    0  0.95381190379E+03  0.13436820682E+04 -0.25083520614E+03  0.16667804141E+04  0.50400001928E-02 0.  1.
       -1    1    3    3    0  502 -0.95381190379E+03 -0.13436820682E+04  0.97873439268E+03  0.19165488931E+04  0.50400001928E-02 0. -1.
</event>
<event>
 5   0  0.2086250E-07  0.3592891E+04  0.7818609E-02  0.8092122E-01
       -1   -1    0    0    0  501  0.00000000000E+00  0.00000000000E+00  0.14947863323E+04  0.14947863323E+04  0.50400001928E-02 0.  1.
        1   -1    0    0  501    0  0.00000000000E+00  0.00000000000E+00 -0.21589813557E+04  0.21589813557E+04  0.50400001928E-02 0. -1.
    10030    2    1    2    0    0  0.00000000000E+00  0.00000000000E+00 -0.66419502338E+03  0.36537676880E+04  0.35928906592E+04 0.  0.
        2    1    3    3  502    0 -0.14517154760E+04 -0.10257026259E+04 -0.59664389471E+03  0.18749740364E+04  0.25500000920E-02 0. -1.
       -2    1    3    3    0  502  0.14517154760E+04  0.10257026259E+04 -0.67551128670E+02  0.17787936516E+04  0.25500000920E-02 0.  1.
</event>
<event>
 5   0  0.6324216E-07  0.3606102E+04  0.7818609E-02  0.8089095E-01
        2   -1    0    0  501    0  0.00000000000E+00  0.00000000000E+00  0.16632064995E+04  0.16632064995E+04  0.25500000920E-02 0. -1.
       -2   -1    0    0    0  501  0.00000000000E+00  0.00000000000E+00 -0.19546536657E+04  0.19546536657E+04  0.25500000920E-02 0.  1.
    10030    2    1    2    0    0  0.00000000000E+00  0.00000000000E+00 -0.29144716617E+03  0.36178601652E+04  0.36061018738E+04 0.  0.
        2    1    3    3  502    0  0.87315945525E+03  0.87502228242E+03  0.11711573186E+04  0.17028449413E+04  0.25500000920E-02 0. -1.
       -2    1    3    3    0  502 -0.87315945525E+03 -0.87502228242E+03 -0.14626044848E+04  0.19150152239E+04  0.25500000920E-02 0.  1.
</event>
<event>
 5   0  0.6729577E-07  0.3618958E+04  0.7818609E-02  0.8086163E-01
       -2   -1    0    0    0  501  0.00000000000E+00  0.00000000000E+00  0.19946500190E+04  0.19946500190E+04  0.25500000920E-02 0.  1.
        2   -1    0    0  501    0  0.00000000000E+00  0.00000000000E+00 -0.16414983979E+04  0.16414983979E+04  0.25500000920E-02 0. -1.
    10030    2    1    2    0    0  0.00000000000E+00  0.00000000000E+00  0.35315162106E+03  0.36361484169E+04  0.36189583090E+04 0.  0.
        3    1    3    3  502    0 -0.14102414182E+04 -0.60322272757E+03 -0.78796132694E+03  0.17243960043E+04  0.10100000352E+00 0. -1.
       -3    1    3    3    0  502  0.14102414182E+04  0.60322272757E+03  0.11411129480E+04  0.19117524126E+04  0.10100000352E+00 0.  1.
</event>
<event>
 5   0  0.2086250E-07  0.3626627E+04  0.7818609E-02  0.8084419E-01
       -1   -1    0    0    0  501  0.00000000000E+00  0.00000000000E+00  0.13501383015E+04  0.13501383015E+04  0.50400001928E-02 0. -1.
        1   -1    0    0  501    0  0.00000000000E+00  0.00000000000E+00 -0.24353848449E+04  0.24353848449E+04  0.50400001928E-02 0.  1.
    10030    2    1    2    0    0  0.00000000000E+00  0.00000000000E+00 -0.10852465434E+04  0.37855231464E+04  0.36266272806E+04 0.  0.
        3    1    3    3  502    0 -0.12168106339E+04 -0.70828610232E+03  0.65016350277E+03  0.15508094377E+04  0.10100000352E+00 0. -1.
       -3    1    3    3    0  502  0.12168106339E+04  0.70828610232E+03 -0.17354100462E+04  0.22347137088E+04  0.10100000352E+00 0.  1.
</event>
<event>
 5   0  0.6669864E-07  0.3605854E+04  0.7818609E-02  0.8089152E-01
       -2   -1    0    0    0  501  0.00000000000E+00  0.00000000000E+00  0.14702870515E+04  0.14702870515E+04  0.25500000920E-02 0.  1.
        2   -1    0    0  501    0  0.00000000000E+00  0.00000000000E+00 -0.22108237016E+04  0.22108237016E+04  0.25500000920E-02 0. -1.
    10030    2    1    2    0    0  0.00000000000E+00  0.00000000000E+00 -0.74053665015E+03  0.36811107531E+04  0.36058538304E+04 0.  0.
        5    1    3    3  502    0  0.16383439764E+04 -0.63578289923E+03  0.40792220782E+02  0.17578614779E+04  0.46999998093E+01 0.  1.
       -5    1    3    3    0  502 -0.16383439764E+04  0.63578289923E+03 -0.78132887094E+03  0.19232492752E+04  0.46999998093E+01 0. -1.
</event>
<event>
 5   0  0.2086250E-07  0.3632453E+04  0.7818609E-02  0.8083098E-01
        1   -1    0    0  501    0  0.00000000000E+00  0.00000000000E+00  0.17262131036E+04  0.17262131036E+04  0.50400001928E-02 0. -1.
       -1   -1    0    0    0  501  0.00000000000E+00  0.00000000000E+00 -0.19109336695E+04  0.19109336695E+04  0.50400001928E-02 0.  1.
    10030    2    1    2    0    0  0.00000000000E+00  0.00000000000E+00 -0.18472056588E+03  0.36371467732E+04  0.36324530227E+04 0.  0.
        4    1    3    3  502    0  0.14628385214E+04 -0.73665114808E+03 -0.87831128781E+03  0.18584896516E+04  0.12699999809E+01 0.  1.
       -4    1    3    3    0  502 -0.14628385214E+04  0.73665114808E+03  0.69359072194E+03  0.17786571216E+04  0.12699999809E+01 0. -1.
</event>
<event>
 5   0  0.6848661E-07  0.3408421E+04  0.7818609E-02  0.8135843E-01
       -2   -1    0    0    0  501  0.00000000000E+00  0.00000000000E+00  0.13736719002E+04  0.13736719002E+04  0.25500000920E-02 0.  1.
        2   -1    0    0  501    0  0.00000000000E+00  0.00000000000E+00 -0.21142841032E+04  0.21142841033E+04  0.25500000920E-02 0. -1.
    10030    2    1    2    0    0  0.00000000000E+00  0.00000000000E+00 -0.74061220300E+03  0.34879560035E+04  0.34084205502E+04 0.  0.
        1    1    3    3  502    0 -0.15140784776E+04  0.42380325742E+03 -0.10431360738E+04  0.18868427877E+04  0.50400001928E-02 0. -1.
       -1    1    3    3    0  502  0.15140784776E+04 -0.42380325742E+03  0.30252387075E+03  0.16011132158E+04  0.50400001928E-02 0.  1.
</event>
<event>
 5   0  0.6324216E-07  0.3646859E+04  0.7818609E-02  0.8079842E-01
       -2   -1    0    0    0  501  0.00000000000E+00  0.00000000000E+00  0.14717549824E+04  0.14717549824E+04  0.25500000920E-02 0. -1.
        2   -1    0    0  501    0  0.00000000000E+00  0.00000000000E+00 -0.22591367536E+04  0.22591367536E+04  0.25500000920E-02 0.  1.
    10030    2    1    2    0    0  0.00000000000E+00  0.00000000000E+00 -0.78738177121E+03  0.37308917360E+04  0.36468593464E+04 0.  0.
        2    1    3    3  502    0 -0.94962974090E+02  0.16283749080E+04  0.44011877417E+03  0.16894754638E+04  0.25500000920E-02 0. -1.
       -2    1    3    3    0  502  0.94962974090E+02 -0.16283749080E+04 -0.12275005454E+04  0.20414162722E+04  0.25500000920E-02 0.  1.
</event>
<event>
 5   0  0.2108068E-07  0.3586870E+04  0.7818609E-02  0.8093506E-01
        1   -1    0    0  501    0  0.00000000000E+00  0.00000000000E+00  0.23538776470E+04  0.23538776470E+04  0.50400001928E-02 0. -1.
       -1   -1    0    0    0  501  0.00000000000E+00  0.00000000000E+00 -0.13664298577E+04  0.13664298578E+04  0.50400001928E-02 0.  1.
    10030    2    1    2    0    0  0.00000000000E+00  0.00000000000E+00  0.98744778926E+03  0.37203075048E+04  0.35868697765E+04 0.  0.
        5    1    3    3  502    0 -0.79272381648E+03 -0.15352807155E+04 -0.46606345505E+01  0.17278720254E+04  0.46999998093E+01 0.  1.
       -5    1    3    3    0  502  0.79272381648E+03  0.15352807155E+04  0.99210842381E+03  0.19924354793E+04  0.46999998093E+01 0. -1.
</event>
<event>
 5   0  0.6324216E-07  0.3576905E+04  0.7818609E-02  0.8095802E-01
       -2   -1    0    0    0  501  0.00000000000E+00  0.00000000000E+00  0.13407634681E+04  0.13407634681E+04  0.25500000920E-02 0. -1.
        2   -1    0    0  501    0  0.00000000000E+00  0.00000000000E+00 -0.23856280143E+04  0.23856280143E+04  0.25500000920E-02 0.  1.
    10030    2    1    2    0    0  0.00000000000E+00  0.00000000000E+00 -0.10448645462E+04  0.37263914825E+04  0.35769053050E+04 0.  0.
        2    1    3    3  502    0  0.17437027449E+04  0.36804822331E+03 -0.36580226798E+03  0.18192773446E+04  0.25500000920E-02 0.  1.
       -2    1    3    3    0  502 -0.17437027449E+04 -0.36804822331E+03 -0.67906227822E+03  0.19071141379E+04  0.25500000920E-02 0. -1.
</event>
<event>
 5   0  0.6669864E-07  0.3665264E+04  0.7818609E-02  0.8075704E-01
        2   -1    0    0  501    0  0.00000000000E+00  0.00000000000E+00  0.15156749839E+04  0.15156749839E+04  0.25500000920E-02 0. -1.
       -2   -1    0    0    0  501  0.00000000000E+00  0.00000000000E+00 -0.22158705415E+04  0.22158705415E+04  0.25500000920E-02 0.  1.
    10030    2    1    2    0    0  0.00000000000E+00  0.00000000000E+00 -0.70019555764E+03  0.37315455255E+04  0.36652637272E+04 0.  0.
        5    1    3    3  502    0  0.36290414176E+03  0.95042385127E+03 -0.19019702395E+04  0.21569695860E+04  0.46999998093E+01 0.  1.
       -5    1    3    3    0  502 -0.36290414176E+03 -0.95042385127E+03  0.12017746818E+04  0.15745759394E+04  0.46999998093E+01 0. -1.
</event>
<event>
 5   0  0.2086250E-07  0.3535105E+04  0.7818609E-02  0.8105520E-01
        1   -1    0    0  501    0  0.00000000000E+00  0.00000000000E+00  0.22197866274E+04  0.22197866274E+04  0.50400001928E-02 0. -1.
       -1   -1    0    0    0  501  0.00000000000E+00  0.00000000000E+00 -0.14074516165E+04  0.14074516166E+04  0.50400001928E-02 0.  1.
    10030    2    1    2    0    0  0.00000000000E+00  0.00000000000E+00  0.81233501084E+03  0.36272382439E+04  0.35351052472E+04 0.  0.
        4    1    3    3  502    0 -0.15648945375E+04 -0.75952521412E+03  0.72814055987E+03  0.18857263195E+04  0.12699999809E+01 0.  1.
       -4    1    3    3    0  502  0.15648945375E+04  0.75952521412E+03  0.84194450962E+02  0.17415119244E+04  0.12699999809E+01 0. -1.
</event>
<event>
 5   0  0.6729577E-07  0.3619171E+04  0.7818609E-02  0.8086114E-01
       -2   -1    0    0    0  501  0.00000000000E+00  0.00000000000E+00  0.14949866643E+04  0.14949866643E+04  0.25500000920E-02 0. -1.
        2   -1    0    0  501    0  0.00000000000E+00  0.00000000000E+00 -0.21903872091E+04  0.21903872091E+04  0.25500000920E-02 0.  1.
    10030    2    1    2    0    0  0.00000000000E+00  0.00000000000E+00 -0.69540054482E+03  0.36853738734E+04  0.36191709919E+04 0.  0.
        3    1    3    3  502    0 -0.45303847287E+03  0.12111610664E+04 -0.16367330830E+04  0.20859171081E+04  0.10100000352E+00 0.  1.
       -3    1    3    3    0  502  0.45303847287E+03 -0.12111610664E+04  0.94133253815E+03  0.15994567653E+04  0.10100000352E+00 0. -1.
</event>
<event>
 5   0  0.2086250E-07  0.3566578E+04  0.7818609E-02  0.8098191E-01
       -3   -1    0    0    0  501  0.00000000000E+00  0.00000000000E+00  0.15585310349E+04  0.15585310382E+04  0.10100000352E+00 0. -1.
        3   -1    0    0  501    0  0.00000000000E+00  0.00000000000E+00 -0.20404593384E+04  0.20404593409E+04  0.10100000352E+00 0.  1.
    10030    2    1    2    0    0  0.00000000000E+00  0.00000000000E+00 -0.48192830341E+03  0.35989903791E+04  0.35665777517E+04 0.  0.
        4    1    3    3  502    0 -0.14359484555E+04 -0.90785198094E+02 -0.13040695691E+04  0.19418519441E+04  0.12699999809E+01 0.  1.
       -4    1    3    3    0  502  0.14359484555E+04  0.90785198094E+02  0.82214126565E+03  0.16571384350E+04  0.12699999809E+01 0. -1.
</event>
<event>
 5   0  0.2086250E-07  0.3592773E+04  0.7818609E-02  0.8092149E-01
        1   -1    0    0  501    0  0.00000000000E+00  0.00000000000E+00  0.13247493417E+04  0.13247493417E+04  0.50400001928E-02 0.  1.
       -1   -1    0    0    0  501  0.00000000000E+00  0.00000000000E+00 -0.24359355624E+04  0.24359355624E+04  0.50400001928E-02 0. -1.
    10030    2    1    2    0    0  0.00000000000E+00  0.00000000000E+00 -0.11111862207E+04  0.37606849041E+04  0.35927727636E+04 0.  0.
        3    1    3    3  502    0 -0.78306883721E+03 -0.10065207956E+03  0.11334109690E+04  0.13812849379E+04  0.10100000352E+00 0.  1.
       -3    1    3    3    0  502  0.78306883721E+03  0.10065207956E+03 -0.22445971897E+04  0.23793999662E+04  0.10100000352E+00 0. -1.
</event>
<event>
 5   0  0.2086250E-07  0.3483730E+04  0.7818609E-02  0.8117657E-01
       -1   -1    0    0    0  501  0.00000000000E+00  0.00000000000E+00  0.18666645820E+04  0.18666645820E+04  0.50400001928E-02 0.  1.
        1   -1    0    0  501    0  0.00000000000E+00  0.00000000000E+00 -0.16254086914E+04  0.16254086914E+04  0.50400001928E-02 0. -1.
    10030    2    1    2    0    0  0.00000000000E+00  0.00000000000E+00  0.24125589064E+03  0.34920732734E+04  0.34837295162E+04 0.  0.
        3    1    3    3  502    0 -0.30163156438E+03 -0.17017594643E+04 -0.96977109642E+02  0.17310030171E+04  0.10100000352E+00 0.  1.
       -3    1    3    3    0  502  0.30163156438E+03  0.17017594643E+04  0.33823300028E+03  0.17610702563E+04  0.10100000352E+00 0. -1.
</event>
<event>
 5   0  0.2193129E-07  0.3597406E+04  0.7818609E-02  0.8091086E-01
        1   -1    0    0  501    0  0.00000000000E+00  0.00000000000E+00  0.23383613787E+04  0.23383613787E+04  0.50400001928E-02 0.  1.
       -1   -1    0    0    0  501  0.00000000000E+00  0.00000000000E+00 -0.13835899016E+04  0.13835899016E+04  0.50400001928E-02 0. -1.
    10030    2    1    2    0    0  0.00000000000E+00  0.00000000000E+00  0.95477147715E+03  0.37219512803E+04  0.35974063934E+04 0.  0.
        1    1    3    3  502    0  0.94112926190E+03  0.10989819026E+04 -0.62818177500E+03  0.15773705501E+04  0.50400001928E-02 0. -1.
       -1    1    3    3    0  502 -0.94112926190E+03 -0.10989819026E+04  0.15829532522E+04  0.21445807302E+04  0.50400001928E-02 0.  1.
</event>
<event>
 5   0  0.6729577E-07  0.3595824E+04  0.7818609E-02  0.8091449E-01
       -2   -1    0    0    0  501  0.00000000000E+00  0.00000000000E+00  0.18879098717E+04  0.18879098717E+04  0.25500000920E-02 0.  1.
        2   -1    0    0  501    0  0.00000000000E+00  0.00000000000E+00 -0.17122040471E+04  0.17122040471E+04  0.25500000920E-02 0. -1.
    10030    2    1    2    0    0  0.00000000000E+00  0.00000000000E+00  0.17570582459E+03  0.36001139187E+04  0.35958236457E+04 0.  0.
        3    1    3    3  502    0 -0.61003437775E+03  0.15123734360E+04  0.84577102816E+03  0.18370476298E+04  0.10100000352E+00 0.  1.
       -3    1    3    3    0  502  0.61003437775E+03 -0.15123734360E+04 -0.67006520356E+03  0.17630662889E+04  0.10100000352E+00 0. -1.
</event>
<event>
 5   0  0.6729577E-07  0.3620241E+04  0.7818609E-02  0.8085871E-01
        2   -1    0    0  501    0  0.00000000000E+00  0.00000000000E+00  0.17765151765E+04  0.17765151765E+04  0.25500000920E-02 0. -1.
       -2   -1    0    0    0  501  0.00000000000E+00  0.00000000000E+00 -0.18443614797E+04  0.18443614797E+04  0.25500000920E-02 0.  1.
    10030    2    1    2    0    0  0.00000000000E+00  0.00000000000E+00 -0.67846303211E+02  0.36208766561E+04  0.36202409641E+04 0.  0.
        3    1    3    3  502    0 -0.90072229905E+03  0.10738640203E+04  0.11117261717E+04  0.17889716837E+04  0.10100000352E+00 0. -1.
       -3    1    3    3    0  502  0.90072229905E+03 -0.10738640203E+04 -0.11795724749E+04  0.18319049724E+04  0.10100000352E+00 0.  1.
</event>
<event>
 5   0  0.6669864E-07  0.3597538E+04  0.7818609E-02  0.8091056E-01
        2   -1    0    0  501    0  0.00000000000E+00  0.00000000000E+00  0.90719920837E+03  0.90719920838E+03  0.25500000920E-02 0.  1.
       -2   -1    0    0    0  501  0.00000000000E+00  0.00000000000E+00 -0.35665490812E+04  0.35665490812E+04  0.25500000920E-02 0. -1.
    10030    2    1    2    0    0  0.00000000000E+00  0.00000000000E+00 -0.26593498728E+04  0.44737482896E+04  0.35975383267E+04 0.  0.
        5    1    3    3  502    0 -0.90071488494E+02 -0.39194446670E+03 -0.35099183542E+04  0.35328858291E+04  0.46999998093E+01 0. -1.
       -5    1    3    3    0  502  0.90071488494E+02  0.39194446670E+03  0.85056848140E+03  0.94086246049E+03  0.46999998093E+01 0.  1.
</event>
<event>
 5   0  0.2086250E-07  0.3558625E+04  0.7818609E-02  0.8100035E-01
       -1   -1    0    0    0  501  0.00000000000E+00  0.00000000000E+00  0.14181732547E+04  0.14181732547E+04  0.50400001928E-02 0.  1.
        1   -1    0    0  501    0  0.00000000000E+00  0.00000000000E+00 -0.22324163919E+04  0.22324163919E+04  0.50400001928E-02 0. -1.
    10030    2    1    2    0    0  0.00000000000E+00  0.00000000000E+00 -0.81424313720E+03  0.36505896467E+04  0.35586251393E+04 0.  0.
        4    1    3    3  502    0 -0.38075519102E+03  0.12632862396E+04  0.81749788766E+03  0.15521504591E+04  0.12699999809E+01 0.  1.
       -4    1    3    3    0  502  0.38075519102E+03 -0.12632862396E+04 -0.16317410249E+04  0.20984391875E+04  0.12699999809E+01 0. -1.
</event>
<event>
 5   0  0.2086250E-07  0.3647852E+04  0.7818609E-02  0.8079618E-01
       -1   -1    0    0    0  501  0.00000000000E+00  0.00000000000E+00  0.21186211334E+04  0.21186211334E+04  0.50400001928E-02 0.  1.
        1   -1    0    0  501    0  0.00000000000E+00  0.00000000000E+00 -0.15702224626E+04  0.15702224626E+04  0.50400001928E-02 0. -1.
    10030    2    1    2    0    0  0.00000000000E+00  0.00000000000E+00  0.54839867080E+03  0.36888435960E+04  0.36478522412E+04 0.  0.
        4    1    3    3  502    0  0.53133347757E+03 -0.12039768557E+04  0.15512558375E+04  0.20342742735E+04  0.12699999809E+01 0.  1.
       -4    1    3    3    0  502 -0.53133347757E+03  0.12039768557E+04 -0.10028571667E+04  0.16545693226E+04  0.12699999809E+01 0. -1.
</event>
<event>
 5   0  0.6324216E-07  0.3599352E+04  0.7818609E-02  0.8090640E-01
        2   -1    0    0  501    0  0.00000000000E+00  0.00000000000E+00  0.23641243404E+04  0.23641243404E+04  0.25500000920E-02 0.  1.
       -2   -1    0    0    0  501  0.00000000000E+00  0.00000000000E+00 -0.13699932281E+04  0.13699932281E+04  0.25500000920E-02 0. -1.
    10030    2    1    2    0    0  0.00000000000E+00  0.00000000000E+00  0.99413111236E+03  0.37341175685E+04  0.35993523510E+04 0.  0.
        2    1    3    3  502    0 -0.10038069807E+04  0.91809051045E+03  0.17194497947E+04  0.21924931554E+04  0.25500000920E-02 0.  1.
       -2    1    3    3    0  502  0.10038069807E+04 -0.91809051045E+03 -0.72531868237E+03  0.15416244131E+04  0.25500000920E-02 0. -1.
</event>
<event>
 5   0  0.6729577E-07  0.3573224E+04  0.7818609E-02  0.8096653E-01
       -2   -1    0    0    0  501  0.00000000000E+00  0.00000000000E+00  0.14494899470E+04  0.14494899470E+04  0.25500000920E-02 0. -1.
        2   -1    0    0  501    0  0.00000000000E+00  0.00000000000E+00 -0.22021412262E+04  0.22021412262E+04  0.25500000920E-02 0.  1.
    10030    2    1    2    0    0  0.00000000000E+00  0.00000000000E+00 -0.75265127920E+03  0.36516311731E+04  0.35732235134E+04 0.  0.
        3    1    3    3  502    0  0.33827461554E+03 -0.54052889852E+03 -0.20818933943E+04  0.21773564984E+04  0.10100000352E+00 0.  1.
       -3    1    3    3    0  502 -0.33827461554E+03  0.54052889852E+03  0.13292421151E+04  0.14742746747E+04  0.10100000352E+00 0. -1.
</event>
<event>
 5   0  0.2193129E-07  0.3511164E+04  0.7818609E-02  0.8111149E-01
       -1   -1    0    0    0  501  0.00000000000E+00  0.00000000000E+00  0.15732052724E+04  0.15732052724E+04  0.50400001928E-02 0.  1.
        1   -1    0    0  501    0  0.00000000000E+00  0.00000000000E+00 -0.19591010880E+04  0.19591010880E+04  0.50400001928E-02 0. -1.
    10030    2    1    2    0    0  0.00000000000E+00  0.00000000000E+00 -0.38589581558E+03  0.35323063604E+04  0.35111640011E+04 0.  0.
        1    1    3    3  502    0 -0.10249221015E+04  0.40133290544E+03 -0.15688582592E+04  0.19164680150E+04  0.50400001928E-02 0. -1.
       -1    1    3    3    0  502  0.10249221015E+04 -0.40133290544E+03  0.11829624436E+04  0.16158383453E+04  0.50400001928E-02 0.  1.
</event>
<event>
 5   0  0.6669864E-07  0.3589751E+04  0.7818609E-02  0.8092843E-01
        2   -1    0    0  501    0  0.00000000000E+00  0.00000000000E+00  0.28221309859E+04  0.28221309859E+04  0.25500000920E-02 0.  1.
       -2   -1    0    0    0  501  0.00000000000E+00  0.00000000000E+00 -0.11415410586E+04  0.11415410586E+04  0.25500000920E-02 0. -1.
    10030    2    1    2    0    0  0.00000000000E+00  0.00000000000E+00  0.16805899273E+04  0.39636720445E+04  0.35897511853E+04 0.  0.
        5    1    3    3  502    0 -0.38018077733E+02  0.41519604044E+03 -0.10873237103E+04  0.11645291183E+04  0.46999998093E+01 0. -1.
       -5    1    3    3    0  502  0.38018077733E+02 -0.41519604044E+03  0.27679136376E+04  0.27991429262E+04  0.46999998093E+01 0.  1.
</event>
<event>
 5   0  0.2086250E-07  0.3609769E+04  0.7818609E-02  0.8088258E-01
        1   -1    0    0  501    0  0.00000000000E+00  0.00000000000E+00  0.14339752583E+04  0.14339752583E+04  0.50400001928E-02 0.  1.
       -1   -1    0    0    0  501  0.00000000000E+00  0.00000000000E+00 -0.22717319577E+04  0.22717319577E+04  0.50400001928E-02 0. -1.
    10030    2    1    2    0    0  0.00000000000E+00  0.00000000000E+00 -0.83775669937E+03  0.37057072160E+04  0.36097686468E+04 0.  0.
        4    1    3    3  502    0  0.15850400001E+04  0.54586975643E+03 -0.11054432211E+04  0.20080667123E+04  0.12699999809E+01 0.  1.
       -4    1    3    3    0  502 -0.15850400001E+04 -0.54586975643E+03  0.26768652176E+03  0.16976405037E+04  0.12699999809E+01 0. -1.
</event>
<event>
 5   0  0.2108068E-07  0.3669543E+04  0.7818609E-02  0.8074745E-01
       -1   -1    0    0    0  501  0.00000000000E+00  0.00000000000E+00  0.32113370228E+04  0.32113370228E+04  0.50400001928E-02 0. -1.
        1   -1    0    0  501    0  0.00000000000E+00  0.00000000000E+00 -0.10482816831E+04  0.10482816831E+04  0.50400001928E-02 0.  1.
    10030    2    1    2    0    0  0.00000000000E+00  0.00000000000E+00  0.21630553397E+04  0.42596187060E+04  0.36695426306E+04 0.  0.
        5    1    3    3  502    0 -0.13993120615E+04  0.52896544876E+03  0.23146514788E+04  0.27559956911E+04  0.46999998093E+01 0. -1.
       -5    1    3    3    0  502  0.13993120615E+04 -0.52896544876E+03 -0.15159613909E+03  0.15036230148E+04  0.46999998093E+01 0.  1.
</event>
<event>
 5   0  0.6324216E-07  0.3905238E+04  0.7818609E-02  0.8023941E-01
        2   -1    0    0  501    0  0.00000000000E+00  0.00000000000E+00  0.14667525041E+04  0.14667525041E+04  0.25500000920E-02 0.  1.
       -2   -1    0    0    0  501  0.00000000000E+00  0.00000000000E+00 -0.25994304580E+04  0.25994304580E+04  0.25500000920E-02 0. -1.
    10030    2    1    2    0    0  0.00000000000E+00  0.00000000000E+00 -0.11326779539E+04  0.40661829621E+04  0.39052380893E+04 0.  0.
        2    1    3    3  502    0 -0.11929384386E+03  0.11529419164E+04  0.10697949769E+04  0.15773291909E+04  0.25500000920E-02 0.  1.
       -2    1    3    3    0  502  0.11929384386E+03 -0.11529419164E+04 -0.22024729308E+04  0.24888537712E+04  0.25500000920E-02 0. -1.
</event>
<event>
 5   0  0.2193129E-07  0.3595741E+04  0.7818609E-02  0.8091468E-01
       -1   -1    0    0    0  501  0.00000000000E+00  0.00000000000E+00  0.16457700750E+04  0.16457700750E+04  0.50400001928E-02 0. -1.
        1   -1    0    0  501    0  0.00000000000E+00  0.00000000000E+00 -0.19640281432E+04  0.19640281432E+04  0.50400001928E-02 0.  1.
    10030    2    1    2    0    0  0.00000000000E+00  0.00000000000E+00 -0.31825806815E+03  0.36097982182E+04  0.35957412280E+04 0.  0.
        1    1    3    3  502    0  0.28087512674E+03  0.83343921323E+03  0.14150657970E+04  0.16661101310E+04  0.50400001928E-02 0. -1.
       -1    1    3    3    0  502 -0.28087512674E+03 -0.83343921323E+03 -0.17333238651E+04  0.19436880872E+04  0.50400001928E-02 0.  1.
</event>
<event>
 5   0  0.2086250E-07  0.3803474E+04  0.7818609E-02  0.8045410E-01
       -1   -1    0    0    0  501  0.00000000000E+00  0.00000000000E+00  0.24465742570E+04  0.24465742570E+04  0.50400001928E-02 0. -1.
        1   -1    0    0  501    0  0.00000000000E+00  0.00000000000E+00 -0.14782313841E+04  0.14782313841E+04  0.50400001928E-02 0.  1.
    10030    2    1    2    0    0  0.00000000000E+00  0.00000000000E+00  0.96834287290E+03  0.39248056410E+04  0.38034735967E+04 0.  0.
        2    1    3    3  502    0 -0.67197220653E+03  0.62475288576E+03  0.22030646603E+04  0.23864946495E+04  0.25500000920E-02 0. -1.
       -2    1    3    3    0  502  0.67197220653E+03 -0.62475288576E+03 -0.12347217874E+04  0.15383109916E+04  0.25500000920E-02 0.  1.
</event>
<event>
 5   0  0.6669864E-07  0.3649032E+04  0.7818609E-02  0.8079352E-01
        2   -1    0    0  501    0  0.00000000000E+00  0.00000000000E+00  0.16181712549E+04  0.16181712549E+04  0.25500000920E-02 0. -1.
       -2   -1    0    0    0  501  0.00000000000E+00  0.00000000000E+00 -0.20571736132E+04  0.20571736132E+04  0.25500000920E-02 0.  1.
    10030    2    1    2    0    0  0.00000000000E+00  0.00000000000E+00 -0.43900235825E+03  0.36753448681E+04  0.36490323140E+04 0.  0.
        5    1    3    3  502    0 -0.69565294072E+03  0.98098597480E+03 -0.16014629379E+04  0.20027411536E+04  0.46999998093E+01 0.  1.
       -5    1    3    3    0  502  0.69565294072E+03 -0.98098597480E+03  0.11624605796E+04  0.16726037145E+04  0.46999998093E+01 0. -1.
</event>
<event>
 5   0  0.6541476E-07  0.3761772E+04  0.7818609E-02  0.8054409E-01
       -2   -1    0    0    0  501  0.00000000000E+00  0.00000000000E+00  0.16991791813E+04  0.16991791813E+04  0.25500000920E-02 0. -1.
        2   -1    0    0  501    0  0.00000000000E+00  0.00000000000E+00 -0.20820242695E+04  0.20820242695E+04  0.25500000920E-02 0.  1.
    10030    2    1    2    0    0  0.00000000000E+00  0.00000000000E+00 -0.38284508817E+03  0.37812034508E+04  0.37617720790E+04 0.  0.
        4    1    3    3  502    0  0.55398673571E+03  0.97851434818E+03  0.13241253754E+04  0.17371532044E+04  0.12699999809E+01 0. -1.
       -4    1    3    3    0  502 -0.55398673571E+03 -0.97851434818E+03 -0.17069704636E+04  0.20440502463E+04  0.12699999809E+01 0.  1.
</event>
<event>
 5   0  0.2086250E-07  0.3600190E+04  0.7818609E-02  0.8090448E-01
       -1   -1    0    0    0  501  0.00000000000E+00  0.00000000000E+00  0.15268460971E+04  0.15268460971E+04  0.50400001928E-02 0.  1.
        1   -1    0    0  501    0  0.00000000000E+00  0.00000000000E+00 -0.21222455262E+04  0.21222455262E+04  0.50400001928E-02 0. -1.
    10030    2    1    2    0    0  0.00000000000E+00  0.00000000000E+00 -0.59539942911E+03  0.36490916234E+04  0.36001901610E+04 0.  0.
        2    1    3    3  502    0 -0.10063614394E+04  0.11824187362E+04  0.62542064551E+03  0.16739260432E+04  0.25500000920E-02 0.  1.
       -2    1    3    3    0  502  0.10063614394E+04 -0.11824187362E+04 -0.12208200746E+04  0.19751655801E+04  0.25500000920E-02 0. -1.
</event>
<event>
 5   0  0.2086250E-07  0.3353882E+04  0.7818609E-02  0.8149319E-01
       -1   -1    0    0    0  501  0.00000000000E+00  0.00000000000E+00  0.13784216446E+04  0.13784216446E+04  0.50400001928E-02 0. -1.
        1   -1    0    0  501    0  0.00000000000E+00  0.00000000000E+00 -0.20401090834E+04  0.20401090834E+04  0.50400001928E-02 0.  1.
    10030    2    1    2    0    0  0.00000000000E+00  0.00000000000E+00 -0.66168743883E+03  0.34185307280E+04  0.33538816424E+04 0.  0.
        3    1    3    3  502    0 -0.53396385143E+03  0.75544788077E+03 -0.17564866734E+04  0.19852114092E+04  0.10100000352E+00 0.  1.
       -3    1    3    3    0  502  0.53396385143E+03 -0.75544788077E+03  0.10947992346E+04  0.14333193188E+04  0.10100000352E+00 0. -1.
</event>
<event>
 5   0  0.2086250E-07  0.3589636E+04  0.7818609E-02  0.8092870E-01
       -1   -1    0    0    0  501  0.00000000000E+00  0.00000000000E+00  0.14054927370E+04  0.14054927370E+04  0.50400001928E-02 0. -1.
        1   -1    0    0  501    0  0.00000000000E+00  0.00000000000E+00 -0.22919869624E+04  0.22919869624E+04  0.50400001928E-02 0.  1.
    10030    2    1    2    0    0  0.00000000000E+00  0.00000000000E+00 -0.88649422538E+03  0.36974796994E+04  0.35896356523E+04 0.  0.
        2    1    3    3  502    0 -0.31595185701E+02 -0.45928962180E+03  0.13436405463E+04  0.14203221923E+04  0.25500000920E-02 0. -1.
       -2    1    3    3    0  502  0.31595185701E+02  0.45928962180E+03 -0.22301347716E+04  0.22771575071E+04  0.25500000920E-02 0.  1.
</event>
<event>
 5   0  0.6729577E-07  0.3615106E+04  0.7818609E-02  0.8087040E-01
        2   -1    0    0  501    0  0.00000000000E+00  0.00000000000E+00  0.20598186001E+04  0.20598186001E+04  0.25500000920E-02 0. -1.
       -2   -1    0    0    0  501  0.00000000000E+00  0.00000000000E+00 -0.15861818962E+04  0.15861818962E+04  0.25500000920E-02 0.  1.
    10030    2    1    2    0    0  0.00000000000E+00  0.00000000000E+00  0.47363670390E+03  0.36460004963E+04  0.36151055160E+04 0.  0.
        3    1    3    3  502    0  0.94377851289E+03  0.13294907463E+04  0.10238613980E+04  0.19252417247E+04  0.10100000352E+00 0. -1.
       -3    1    3    3    0  502 -0.94377851289E+03 -0.13294907463E+04 -0.55022469406E+03  0.17207587716E+04  0.10100000352E+00 0.  1.
</event>
<event>
 5   0  0.2086250E-07  0.3596558E+04  0.7818609E-02  0.8091281E-01
        3   -1    0    0  501    0  0.00000000000E+00  0.00000000000E+00  0.13380455103E+04  0.13380455141E+04  0.10100000352E+00 0. -1.
       -3   -1    0    0    0  501  0.00000000000E+00  0.00000000000E+00 -0.24168145681E+04  0.24168145702E+04  0.10100000352E+00 0.  1.
    10030    2    1    2    0    0  0.00000000000E+00  0.00000000000E+00 -0.10787690578E+04  0.37548600844E+04  0.35965582955E+04 0.  0.
        3    1    3    3  502    0  0.15559736786E+03 -0.17470002504E+04 -0.95383008982E+03  0.19965000041E+04  0.10100000352E+00 0.  1.
       -3    1    3    3    0  502 -0.15559736786E+03  0.17470002504E+04 -0.12493896797E+03  0.17583600803E+04  0.10100000352E+00 0. -1.
</event>
<event>
 5   0  0.2086250E-07  0.3590032E+04  0.7818609E-02  0.8092779E-01
       -1   -1    0    0    0  501  0.00000000000E+00  0.00000000000E+00  0.15739793211E+04  0.15739793211E+04  0.50400001928E-02 0. -1.
        1   -1    0    0  501    0  0.00000000000E+00  0.00000000000E+00 -0.20470929653E+04  0.20470929653E+04  0.50400001928E-02 0.  1.
    10030    2    1    2    0    0  0.00000000000E+00  0.00000000000E+00 -0.47311364416E+03  0.36210722865E+04  0.35900317524E+04 0.  0.
        4    1    3    3  502    0 -0.97587838926E+03  0.88440709399E+03  0.99364680710E+03  0.16498030575E+04  0.12699999809E+01 0. -1.
       -4    1    3    3    0  502  0.97587838926E+03 -0.88440709399E+03 -0.14667604513E+04  0.19712692289E+04  0.12699999809E+01 0.  1.
</event>
<event>
 5   0  0.2086250E-07  0.3630300E+04  0.7818609E-02  0.8083586E-01
       -1   -1    0    0    0  501  0.00000000000E+00  0.00000000000E+00  0.16881012778E+04  0.16881012778E+04  0.50400001928E-02 0.  1.
        1   -1    0    0  501    0  0.00000000000E+00  0.00000000000E+00 -0.19517611067E+04  0.19517611067E+04  0.50400001928E-02 0. -1.
    10030    2    1    2    0    0  0.00000000000E+00  0.00000000000E+00 -0.26365982889E+03  0.36398623845E+04  0.36303004935E+04 0.  0.
        3    1    3    3  502    0  0.72204524116E+03 -0.16572855128E+04 -0.29604716828E+03  0.18318265577E+04  0.10100000352E+00 0. -1.
       -3    1    3    3    0  502 -0.72204524116E+03  0.16572855128E+04  0.32387339398E+02  0.18080358269E+04  0.10100000352E+00 0.  1.
</event>
<event>
 5   0  0.6848661E-07  0.3566701E+04  0.7818609E-02  0.8098162E-01
       -2   -1    0    0    0  501  0.00000000000E+00  0.00000000000E+00  0.17387316758E+04  0.17387316758E+04  0.25500000920E-02 0.  1.
        2   -1    0    0  501    0  0.00000000000E+00  0.00000000000E+00 -0.18291140176E+04  0.18291140176E+04  0.25500000920E-02 0. -1.
    10030    2    1    2    0    0  0.00000000000E+00  0.00000000000E+00 -0.90382341803E+02  0.35678456934E+04  0.35667007057E+04 0.  0.
        1    1    3    3  502    0  0.11179838399E+04  0.12159373949E+04  0.62729457783E+03  0.17668871221E+04  0.50400001928E-02 0.  1.
       -1    1    3    3    0  502 -0.11179838399E+04 -0.12159373949E+04 -0.71767691963E+03  0.18009585713E+04  0.50400001928E-02 0. -1.
</event>
<event>
 5   0  0.2193129E-07  0.3622134E+04  0.7818609E-02  0.8085440E-01
        1   -1    0    0  501    0  0.00000000000E+00  0.00000000000E+00  0.26225263781E+04  0.26225263781E+04  0.50400001928E-02 0.  1.
       -1   -1    0    0    0  501  0.00000000000E+00  0.00000000000E+00 -0.12506885183E+04  0.12506885183E+04  0.50400001928E-02 0. -1.
    10030    2    1    2    0    0  0.00000000000E+00  0.00000000000E+00  0.13718378599E+04  0.38732148964E+04  0.36221339732E+04 0.  0.
        1    1    3    3  502    0  0.90884158824E+03 -0.14836279903E+04  0.14825415942E+03  0.17461742014E+04  0.50400001928E-02 0. -1.
       -1    1    3    3    0  502 -0.90884158824E+03  0.14836279903E+04  0.12235837005E+04  0.21270406950E+04  0.50400001928E-02 0.  1.
</event>
<event>
 5   0  0.6729577E-07  0.3578308E+04  0.7818609E-02  0.8095479E-01
       -2   -1    0    0    0  501  0.00000000000E+00  0.00000000000E+00  0.19347532938E+04  0.19347532938E+04  0.25500000920E-02 0. -1.
        2   -1    0    0  501    0  0.00000000000E+00  0.00000000000E+00 -0.16545117978E+04  0.16545117978E+04  0.25500000920E-02 0.  1.
    10030    2    1    2    0    0  0.00000000000E+00  0.00000000000E+00  0.28024149604E+03  0.35892650916E+04  0.35783080641E+04 0.  0.
        3    1    3    3  502    0 -0.58940225335E+03 -0.55938238923E+02  0.18336472216E+04  0.19268591661E+04  0.10100000352E+00 0. -1.
       -3    1    3    3    0  502  0.58940225335E+03  0.55938238923E+02 -0.15534057255E+04  0.16624059255E+04  0.10100000352E+00 0.  1.
</event>
<event>
 5   0  0.6729577E-07  0.3591003E+04  0.7818609E-02  0.8092556E-01
       -2   -1    0    0    0  501  0.00000000000E+00  0.00000000000E+00  0.12548254280E+04  0.12548254280E+04  0.25500000920E-02 0.  1.
        2   -1    0    0  501    0  0.00000000000E+00  0.00000000000E+00 -0.25691421168E+04  0.25691421168E+04  0.25500000920E-02 0. -1.
    10030    2    1    2    0    0  0.00000000000E+00  0.00000000000E+00 -0.13143166888E+04  0.38239675448E+04  0.35910025654E+04 0.  0.
        3    1    3    3  502    0  0.50932820207E+03 -0.16601135787E+04 -0.11433205983E+04  0.20790801602E+04  0.10100000352E+00 0.  1.
       -3    1    3    3    0  502 -0.50932820207E+03  0.16601135787E+04 -0.17099609048E+03  0.17448873846E+04  0.10100000352E+00 0. -1.
</event>
<event>
 5   0  0.6541476E-07  0.3649829E+04  0.7818609E-02  0.8079172E-01
       -2   -1    0    0    0  501  0.00000000000E+00  0.00000000000E+00  0.18417461294E+04  0.18417461294E+04  0.25500000920E-02 0. -1.
        2   -1    0    0  501    0  0.00000000000E+00  0.00000000000E+00 -0.18082370378E+04  0.18082370378E+04  0.25500000920E-02 0.  1.
    10030    2    1    2    0    0  0.00000000000E+00  0.00000000000E+00  0.33509091656E+02  0.36499831672E+04  0.36498293470E+04 0.  0.
        4    1    3    3  502    0  0.10444808550E+04  0.14034476006E+04 -0.50260011356E+03  0.18202235882E+04  0.12699999809E+01 0.  1.
       -4    1    3    3    0  502 -0.10444808550E+04 -0.14034476006E+04  0.53610920522E+03  0.18297595790E+04  0.12699999809E+01 0. -1.
</event>
<event>
 5   0  0.2108068E-07  0.3509125E+04  0.7818609E-02  0.8111631E-01
        1   -1    0    0  501    0  0.00000000000E+00  0.00000000000E+00  0.15007802494E+04  0.15007802494E+04  0.50400001928E-02 0. -1.
       -1   -1    0    0    0  501  0.00000000000E+00  0.00000000000E+00 -0.20512589786E+04  0.20512589786E+04  0.50400001928E-02 0.  1.
    10030    2    1    2    0    0  0.00000000000E+00  0.00000000000E+00 -0.55047872918E+03  0.35520392280E+04  0.35091246553E+04 0.  0.
        5    1    3    3  502    0 -0.14589683241E+04  0.46939783524E+03 -0.11398183881E+04  0.19100081011E+04  0.46999998093E+01 0. -1.
       -5    1    3    3    0  502  0.14589683241E+04 -0.46939783524E+03  0.58933965891E+03  0.16420311270E+04  0.46999998093E+01 0.  1.
</event>
<event>
 5   0  0.6541476E-07  0.3604364E+04  0.7818609E-02  0.8089493E-01
        2   -1    0    0  501    0  0.00000000000E+00  0.00000000000E+00  0.25772045970E+04  0.25772045970E+04  0.25500000920E-02 0.  1.
       -2   -1    0    0    0  501  0.00000000000E+00  0.00000000000E+00 -0.12602262237E+04  0.12602262237E+04  0.25500000920E-02 0. -1.
    10030    2    1    2    0    0  0.00000000000E+00  0.00000000000E+00  0.13169783733E+04  0.38374308207E+04  0.36043644749E+04 0.  0.
        4    1    3    3  502    0 -0.12760864993E+03 -0.27946312092E+02  0.25721568076E+04  0.25754722324E+04  0.12699999809E+01 0.  1.
       -4    1    3    3    0  502  0.12760864993E+03  0.27946312092E+02 -0.12551784343E+04  0.12619585884E+04  0.12699999809E+01 0. -1.
</event>
<event>
 5   0  0.2108068E-07  0.3576399E+04  0.7818609E-02  0.8095919E-01
       -1   -1    0    0    0  501  0.00000000000E+00  0.00000000000E+00  0.12526910717E+04  0.12526910717E+04  0.50400001928E-02 0.  1.
        1   -1    0    0  501    0  0.00000000000E+00  0.00000000000E+00 -0.25526300451E+04  0.25526300451E+04  0.50400001928E-02 0. -1.
    10030    2    1    2    0    0  0.00000000000E+00  0.00000000000E+00 -0.12999389734E+04  0.38053211169E+04  0.35763986730E+04 0.  0.
        5    1    3    3  502    0 -0.25747242325E+03  0.17485182285E+04 -0.93946356020E+03  0.20015548744E+04  0.46999998093E+01 0.  1.
       -5    1    3    3    0  502  0.25747242325E+03 -0.17485182285E+04 -0.36047541322E+03  0.18037662425E+04  0.46999998093E+01 0. -1.
</event>
<event>
 5   0  0.6848661E-07  0.3604428E+04  0.7818609E-02  0.8089478E-01
       -2   -1    0    0    0  501  0.00000000000E+00  0.00000000000E+00  0.12344931639E+04  0.12344931639E+04  0.25500000920E-02 0. -1.
        2   -1    0    0  501    0  0.00000000000E+00  0.00000000000E+00 -0.26310191630E+04  0.26310191630E+04  0.25500000920E-02 0.  1.
    10030    2    1    2    0    0  0.00000000000E+00  0.00000000000E+00 -0.13965259991E+04  0.38655123269E+04  0.36044279273E+04 0.  0.
        1    1    3    3  502    0 -0.12063225120E+03  0.67802533606E+02  0.12287871956E+04  0.12365546068E+04  0.50400001928E-02 0. -1.
       -1    1    3    3    0  502  0.12063225120E+03 -0.67802533606E+02 -0.26253131947E+04  0.26289577201E+04  0.50400001928E-02 0.  1.
</event>
<event>
 5   0  0.2086250E-07  0.3583962E+04  0.7818609E-02  0.8094175E-01
        1   -1    0    0  501    0  0.00000000000E+00  0.00000000000E+00  0.24038852664E+04  0.24038852664E+04  0.50400001928E-02 0. -1.
       -1   -1    0    0    0  501  0.00000000000E+00  0.00000000000E+00 -0.13358359142E+04  0.13358359142E+04  0.50400001928E-02 0.  1.
    10030    2    1    2    0    0  0.00000000000E+00  0.00000000000E+00  0.10680493522E+04  0.37397211805E+04  0.35839622054E+04 0.  0.
        2    1    3    3  502    0 -0.39067657397E+03 -0.89219994395E+03 -0.10355234653E+04  0.14216039436E+04  0.25500000920E-02 0.  1.
       -2    1    3    3    0  502  0.39067657397E+03  0.89219994395E+03  0.21035728175E+04  0.23181172369E+04  0.25500000920E-02 0. -1.
</event>
<event>
 5   0  0.6669864E-07  0.2962374E+04  0.7818609E-02  0.8254557E-01
        2   -1    0    0  501    0  0.00000000000E+00  0.00000000000E+00  0.21181396881E+04  0.21181396881E+04  0.25500000920E-02 0.  1.
       -2   -1    0    0    0  501  0.00000000000E+00  0.00000000000E+00 -0.10357746488E+04  0.10357746488E+04  0.25500000920E-02 0. -1.
    10030    2    1    2    0    0  0.00000000000E+00  0.00000000000E+00  0.10823650392E+04  0.31539143369E+04  0.29623743123E+04 0.  0.
        5    1    3    3  502    0 -0.10976955287E+04  0.13612354365E+03 -0.50761503558E+03  0.12170292549E+04  0.46999998093E+01 0. -1.
       -5    1    3    3    0  502  0.10976955287E+04 -0.13612354365E+03  0.15899800748E+04  0.19368850821E+04  0.46999998093E+01 0.  1.
</event>
<event>
 5   0  0.2086250E-07  0.3501145E+04  0.7818609E-02  0.8113519E-01
       -1   -1    0    0    0  501  0.00000000000E+00  0.00000000000E+00  0.15282310801E+04  0.15282310801E+04  0.50400001928E-02 0. -1.
        1   -1    0    0  501    0  0.00000000000E+00  0.00000000000E+00 -0.20052618260E+04  0.20052618260E+04  0.50400001928E-02 0.  1.
    10030    2    1    2    0    0  0.00000000000E+00  0.00000000000E+00 -0.47703074594E+03  0.35334929061E+04  0.35011446393E+04 0.  0.
        3    1    3    3  502    0 -0.12394477525E+04  0.97335589076E+03 -0.10076928296E+04  0.18705874132E+04  0.10100000352E+00 0.  1.
       -3    1    3    3    0  502  0.12394477525E+04 -0.97335589076E+03  0.53066208370E+03  0.16629054929E+04  0.10100000352E+00 0. -1.
</event>
<event>
 5   0  0.2086250E-07  0.3639800E+04  0.7818609E-02  0.8081435E-01
        1   -1    0    0  501    0  0.00000000000E+00  0.00000000000E+00  0.14912821726E+04  0.14912821727E+04  0.50400001928E-02 0.  1.
       -1   -1    0    0    0  501  0.00000000000E+00  0.00000000000E+00 -0.22209315321E+04  0.22209315321E+04  0.50400001928E-02 0. -1.
    10030    2    1    2    0    0  0.00000000000E+00  0.00000000000E+00 -0.72964935941E+03  0.37122137047E+04  0.36397997750E+04 0.  0.
        3    1    3    3  502    0 -0.34498168456E+03 -0.11694156355E+03 -0.21833715650E+04  0.22135489813E+04  0.10100000352E+00 0. -1.
       -3    1    3    3    0  502  0.34498168456E+03  0.11694156355E+03  0.14537222055E+04  0.14986647234E+04  0.10100000352E+00 0.  1.
</event>
<event>
 5   0  0.2086250E-07  0.3554277E+04  0.7818609E-02  0.8101046E-01
        1   -1    0    0  501    0  0.00000000000E+00  0.00000000000E+00  0.21614155495E+04  0.21614155495E+04  0.50400001928E-02 0. -1.
       -1   -1    0    0    0  501  0.00000000000E+00  0.00000000000E+00 -0.14611815497E+04  0.14611815497E+04  0.50400001928E-02 0.  1.
    10030    2    1    2    0    0  0.00000000000E+00  0.00000000000E+00  0.70023399983E+03  0.36225970992E+04  0.35542765914E+04 0.  0.
        3    1    3    3  502    0  0.59018299783E+03  0.78818218920E+03 -0.11577369965E+04  0.15198362075E+04  0.10100000352E+00 0.  1.
       -3    1    3    3    0  502 -0.59018299783E+03 -0.78818218920E+03  0.18579709963E+04  0.21027608917E+04  0.10100000352E+00 0. -1.
</event>
<event>
 5   0  0.2086250E-07  0.3647713E+04  0.7818609E-02  0.8079649E-01
       -1   -1    0    0    0  501  0.00000000000E+00  0.00000000000E+00  0.23856454639E+04  0.23856454639E+04  0.50400001928E-02 0.  1.
        1   -1    0    0  501    0  0.00000000000E+00  0.00000000000E+00 -0.13943619473E+04  0.13943619473E+04  0.50400001928E-02 0. -1.
    10030    2    1    2    0    0  0.00000000000E+00  0.00000000000E+00  0.99128351659E+03  0.37800074112E+04  0.36477133958E+04 0.  0.
        2    1    3    3  502    0  0.16014802818E+04  0.13238259709E+03 -0.39830894250E+03  0.16555706746E+04  0.25500000920E-02 0. -1.
       -2    1    3    3    0  502 -0.16014802818E+04 -0.13238259709E+03  0.13895924591E+04  0.21244367365E+04  0.25500000920E-02 0.  1.
</event>
<event>
 5   0  0.2108068E-07  0.3340196E+04  0.7818609E-02  0.8152742E-01
       -1   -1    0    0    0  501  0.00000000000E+00  0.00000000000E+00  0.16013601547E+04  0.16013601547E+04  0.50400001928E-02 0.  1.
        1   -1    0    0  501    0  0.00000000000E+00  0.00000000000E+00 -0.17417859359E+04  0.17417859360E+04  0.50400001928E-02 0. -1.
    10030    2    1    2    0    0  0.00000000000E+00  0.00000000000E+00 -0.14042578128E+03  0.33431460906E+04  0.33401955606E+04 0.  0.
        5    1    3    3  502    0  0.15471291133E+04 -0.70965671293E+02 -0.69571283926E+03  0.16978465962E+04  0.46999998093E+01 0. -1.
       -5    1    3    3    0  502 -0.15471291133E+04  0.70965671293E+02  0.55528705799E+03  0.16452994944E+04  0.46999998093E+01 0.  1.
</event>
<event>
 5   0  0.6669864E-07  0.3588925E+04  0.7818609E-02  0.8093033E-01
       -2   -1    0    0    0  501  0.00000000000E+00  0.00000000000E+00  0.11952393136E+04  0.11952393137E+04  0.25500000920E-02 0.  1.
        2   -1    0    0  501    0  0.00000000000E+00  0.00000000000E+00 -0.26941018169E+04  0.26941018169E+04  0.25500000920E-02 0. -1.
    10030    2    1    2    0    0  0.00000000000E+00  0.00000000000E+00 -0.14988625033E+04  0.38893411306E+04  0.35889254139E+04 0.  0.
        5    1    3    3  502    0 -0.13941156324E+04  0.96071175308E+03 -0.13938027411E+04  0.21929964980E+04  0.46999998093E+01 0. -1.
       -5    1    3    3    0  502  0.13941156324E+04 -0.96071175308E+03 -0.10505976221E+03  0.16963446326E+04  0.46999998093E+01 0.  1.
</event>
<event>
 5   0  0.2086250E-07  0.3572571E+04  0.7818609E-02  0.8096804E-01
        3   -1    0    0  501    0  0.00000000000E+00  0.00000000000E+00  0.22028119259E+04  0.22028119282E+04  0.10100000352E+00 0. -1.
       -3   -1    0    0    0  501  0.00000000000E+00  0.00000000000E+00 -0.14485192768E+04  0.14485192803E+04  0.10100000352E+00 0.  1.
    10030    2    1    2    0    0  0.00000000000E+00  0.00000000000E+00  0.75429264910E+03  0.36513312085E+04  0.35725708101E+04 0.  0.
        1    1    3    3  502    0 -0.93961186857E+02 -0.14086919926E+04 -0.74131639043E+03  0.15946133781E+04  0.50400001928E-02 0.  1.
       -1    1    3    3    0  502  0.93961186857E+02  0.14086919926E+04  0.14956090395E+04  0.20567178304E+04  0.50400001928E-02 0. -1.
</event>
<event>
 5   0  0.6848661E-07  0.3593172E+04  0.7818609E-02  0.8092058E-01
        2   -1    0    0  501    0  0.00000000000E+00  0.00000000000E+00  0.21103850604E+04  0.21103850604E+04  0.25500000920E-02 0.  1.
       -2   -1    0    0    0  501  0.00000000000E+00  0.00000000000E+00 -0.15294463600E+04  0.15294463600E+04  0.25500000920E-02 0. -1.
    10030    2    1    2    0    0  0.00000000000E+00  0.00000000000E+00  0.58093870045E+03  0.36398314204E+04  0.35931717180E+04 0.  0.
        1    1    3    3  502    0 -0.76661026524E+03 -0.37971340323E+03 -0.13098707667E+04  0.15644919280E+04  0.50400001928E-02 0. -1.
       -1    1    3    3    0  502  0.76661026524E+03  0.37971340323E+03  0.18908094672E+04  0.20753394924E+04  0.50400001928E-02 0.  1.
</event>
<event>
 5   0  0.2193129E-07  0.3608606E+04  0.7818609E-02  0.8088523E-01
        1   -1    0    0  501    0  0.00000000000E+00  0.00000000000E+00  0.25189778153E+04  0.25189778153E+04  0.50400001928E-02 0. -1.
       -1   -1    0    0    0  501  0.00000000000E+00  0.00000000000E+00 -0.12923927717E+04  0.12923927717E+04  0.50400001928E-02 0.  1.
    10030    2    1    2    0    0  0.00000000000E+00  0.00000000000E+00  0.12265850437E+04  0.38113705870E+04  0.36086056701E+04 0.  0.
        1    1    3    3  502    0 -0.61057846019E+03 -0.16967962732E+04  0.67653234776E+03  0.19260372962E+04  0.50400001928E-02 0. -1.
       -1    1    3    3    0  502  0.61057846019E+03  0.16967962732E+04  0.55005269591E+03  0.18853332908E+04  0.50400001928E-02 0.  1.
</event>
<event>
 5   0  0.6541476E-07  0.3551103E+04  0.7818609E-02  0.8101785E-01
        2   -1    0    0  501    0  0.00000000000E+00  0.00000000000E+00  0.19105283571E+04  0.19105283572E+04  0.25500000920E-02 0.  1.
       -2   -1    0    0    0  501  0.00000000000E+00  0.00000000000E+00 -0.16501110186E+04  0.16501110186E+04  0.25500000920E-02 0. -1.
    10030    2    1    2    0    0  0.00000000000E+00  0.00000000000E+00  0.26041733853E+03  0.35606393758E+04  0.35511034305E+04 0.  0.
        4    1    3    3  502    0 -0.87575770210E+03 -0.43096226142E+02  0.16783020614E+04  0.18935438363E+04  0.12699999809E+01 0.  1.
       -4    1    3    3    0  502  0.87575770210E+03  0.43096226142E+02 -0.14178847229E+04  0.16670955395E+04  0.12699999809E+01 0. -1.
</event>
<event>
 5   0  0.6729577E-07  0.3648245E+04  0.7818609E-02  0.8079529E-01
       -2   -1    0    0    0  501  0.00000000000E+00  0.00000000000E+00  0.17597152823E+04  0.17597152823E+04  0.25500000920E-02 0.  1.
        2   -1    0    0  501    0  0.00000000000E+00  0.00000000000E+00 -0.18908870970E+04  0.18908870970E+04  0.25500000920E-02 0. -1.
    10030    2    1    2    0    0  0.00000000000E+00  0.00000000000E+00 -0.13117181472E+03  0.36506023793E+04  0.36482450146E+04 0.  0.
        3    1    3    3  502    0  0.45388965378E+03  0.64775758920E+03 -0.17103685561E+04  0.18844007854E+04  0.10100000352E+00 0. -1.
       -3    1    3    3    0  502 -0.45388965378E+03 -0.64775758920E+03  0.15791967414E+04  0.17662015939E+04  0.10100000352E+00 0.  1.
</event>
<event>
 5   0  0.2086250E-07  0.3598890E+04  0.7818609E-02  0.8090746E-01
        1   -1    0    0  501    0  0.00000000000E+00  0.00000000000E+00  0.12250212021E+04  0.12250212021E+04  0.50400001928E-02 0.  1.
       -1   -1    0    0    0  501  0.00000000000E+00  0.00000000000E+00 -0.26432211172E+04  0.26432211172E+04  0.50400001928E-02 0. -1.
    10030    2    1    2    0    0  0.00000000000E+00  0.00000000000E+00 -0.14181999151E+04  0.38682423194E+04  0.35988897791E+04 0.  0.
        3    1    3    3  502    0 -0.46941410527E+03  0.10510107683E+04  0.77754021554E+03  0.13890795637E+04  0.10100000352E+00 0.  1.
       -3    1    3    3    0  502  0.46941410527E+03 -0.10510107683E+04 -0.21957401307E+04  0.24791627556E+04  0.10100000352E+00 0. -1.
</event>
<event>
 5   0  0.2108068E-07  0.3437678E+04  0.7818609E-02  0.8128720E-01
        1   -1    0    0  501    0  0.00000000000E+00  0.00000000000E+00  0.21643038983E+04  0.21643038983E+04  0.50400001928E-02 0.  1.
       -1   -1    0    0    0  501  0.00000000000E+00  0.00000000000E+00 -0.13650612899E+04  0.13650612899E+04  0.50400001928E-02 0. -1.
    10030    2    1    2    0    0  0.00000000000E+00  0.00000000000E+00  0.79924260835E+03  0.35293651882E+04  0.34376779787E+04 0.  0.
        5    1    3    3  502    0  0.13097662284E+03  0.17122763438E+04  0.47464721967E+03  0.17816725924E+04  0.46999998093E+01 0.  1.
       -5    1    3    3    0  502 -0.13097662284E+03 -0.17122763438E+04  0.32459538867E+03  0.17476925959E+04  0.46999998093E+01 0. -1.
</event>
<event>
 5   0  0.2086250E-07  0.3592569E+04  0.7818609E-02  0.8092196E-01
        1   -1    0    0  501    0  0.00000000000E+00  0.00000000000E+00  0.14461994294E+04  0.14461994294E+04  0.50400001928E-02 0.  1.
       -1   -1    0    0    0  501  0.00000000000E+00  0.00000000000E+00 -0.22311150115E+04  0.22311150115E+04  0.50400001928E-02 0. -1.
    10030    2    1    2    0    0  0.00000000000E+00  0.00000000000E+00 -0.78491558211E+03  0.36773144409E+04  0.35925685834E+04 0.  0.
        4    1    3    3  502    0  0.15619944260E+04  0.42075311278E+03 -0.11917596418E+04  0.20092666387E+04  0.12699999809E+01 0. -1.
       -4    1    3    3    0  502 -0.15619944260E+04 -0.42075311278E+03  0.40684405969E+03  0.16680478022E+04  0.12699999809E+01 0.  1.
</event>
<event>
 5   0  0.6669864E-07  0.3781231E+04  0.7818609E-02  0.8050195E-01
       -2   -1    0    0    0  501  0.00000000000E+00  0.00000000000E+00  0.15334194471E+04  0.15334194471E+04  0.25500000920E-02 0.  1.
        2   -1    0    0  501    0  0.00000000000E+00  0.00000000000E+00 -0.23310173946E+04  0.23310173946E+04  0.25500000920E-02 0. -1.
    10030    2    1    2    0    0  0.00000000000E+00  0.00000000000E+00 -0.79759794752E+03  0.38644368418E+04  0.37812312305E+04 0.  0.
        5    1    3    3  502    0  0.10391781810E+04 -0.14976985391E+04  0.11364564464E+03  0.18264527446E+04  0.46999998093E+01 0. -1.
       -5    1    3    3    0  502 -0.10391781810E+04  0.14976985391E+04 -0.91124359217E+03  0.20379840971E+04  0.46999998093E+01 0.  1.
</event>
<event>
 5   0  0.6324216E-07  0.3646668E+04  0.7818609E-02  0.8079885E-01
        2   -1    0    0  501    0  0.00000000000E+00  0.00000000000E+00  0.17817981724E+04  0.17817981724E+04  0.25500000920E-02 0. -1.
       -2   -1    0    0    0  501  0.00000000000E+00  0.00000000000E+00 -0.18658385613E+04  0.18658385613E+04  0.25500000920E-02 0.  1.
    10030    2    1    2    0    0  0.00000000000E+00  0.00000000000E+00 -0.84040388958E+02  0.36476367337E+04  0.36466684733E+04 0.  0.
        2    1    3    3  502    0 -0.52257797927E+03 -0.32138515077E+03 -0.17595001446E+04  0.18633885581E+04  0.25500000920E-02 0.  1.
       -2    1    3    3    0  502  0.52257797927E+03  0.32138515077E+03  0.16754597556E+04  0.17842481756E+04  0.25500000920E-02 0. -1.
</event>
<event>
 5   0  0.6729577E-07  0.3621711E+04  0.7818609E-02  0.8085537E-01
       -2   -1    0    0    0  501  0.00000000000E+00  0.00000000000E+00  0.25627719865E+04  0.25627719865E+04  0.25500000920E-02 0. -1.
        2   -1    0    0  501    0  0.00000000000E+00  0.00000000000E+00 -0.12795507481E+04  0.12795507481E+04  0.25500000920E-02 0.  1.
    10030    2    1    2    0    0  0.00000000000E+00  0.00000000000E+00  0.12832212384E+04  0.38423227347E+04  0.36217105421E+04 0.  0.
        3    1    3    3  502    0  0.17939476500E+04  0.23197800343E+03  0.73122385285E+03  0.19510895156E+04  0.10100000352E+00 0. -1.
       -3    1    3    3    0  502 -0.17939476500E+04 -0.23197800343E+03  0.55199738557E+03  0.18912332190E+04  0.10100000352E+00 0.  1.
</event>
<event>
 5   0  0.6324216E-07  0.3501402E+04  0.7818609E-02  0.8113458E-01
       -2   -1    0    0    0  501  0.00000000000E+00  0.00000000000E+00  0.16455494373E+04  0.16455494373E+04  0.25500000920E-02 0. -1.
        2   -1    0    0  501    0  0.00000000000E+00  0.00000000000E+00 -0.18625722240E+04  0.18625722240E+04  0.25500000920E-02 0.  1.
    10030    2    1    2    0    0  0.00000000000E+00  0.00000000000E+00 -0.21702278667E+03  0.35081216613E+04  0.35014023905E+04 0.  0.
        2    1    3    3  502    0  0.11514226513E+04 -0.12269197914E+04  0.37599532548E+03  0.17240878113E+04  0.25500000920E-02 0. -1.
       -2    1    3    3    0  502 -0.11514226513E+04  0.12269197914E+04 -0.59301811215E+03  0.17840338499E+04  0.25500000920E-02 0.  1.
</event>
<event>
 5   0  0.6729577E-07  0.4048680E+04  0.7818609E-02  0.7994798E-01
        2   -1    0    0  501    0  0.00000000000E+00  0.00000000000E+00  0.16152938881E+04  0.16152938881E+04  0.25500000920E-02 0. -1.
       -2   -1    0    0    0  501  0.00000000000E+00  0.00000000000E+00 -0.25369707331E+04  0.25369707331E+04  0.25500000920E-02 0.  1.
    10030    2    1    2    0    0  0.00000000000E+00  0.00000000000E+00 -0.92167684498E+03  0.41522646212E+04  0.40486804366E+04 0.  0.
        3    1    3    3  502    0 -0.63635005275E+03 -0.19215662072E+04 -0.43581687036E+03  0.20705782847E+04  0.10100000352E+00 0. -1.
       -3    1    3    3    0  502  0.63635005275E+03  0.19215662072E+04 -0.48585997462E+03  0.20816863365E+04  0.10100000352E+00 0.  1.
</event>
<event>
 5   0  0.6669864E-07  0.3562455E+04  0.7818609E-02  0.8099146E-01
        2   -1    0    0  501    0  0.00000000000E+00  0.00000000000E+00  0.16678551670E+04  0.16678551670E+04  0.25500000920E-02 0. -1.
       -2   -1    0    0    0  501  0.00000000000E+00  0.00000000000E+00 -0.19023061686E+04  0.19023061686E+04  0.25500000920E-02 0.  1.
    10030    2    1    2    0    0  0.00000000000E+00  0.00000000000E+00 -0.23445100157E+03  0.35701613356E+04  0.35624548685E+04 0.  0.
        5    1    3    3  502    0  0.12365540033E+03 -0.74092971512E+03  0.15013477488E+04  0.16787896395E+04  0.46999998093E+01 0. -1.
       -5    1    3    3    0  502 -0.12365540033E+03  0.74092971512E+03 -0.17357987504E+04  0.18913716961E+04  0.46999998093E+01 0.  1.
</event>
<event>
 5   0  0.6541476E-07  0.3541991E+04  0.7818609E-02  0.8103910E-01
        2   -1    0    0  501    0  0.00000000000E+00  0.00000000000E+00  0.25156909048E+04  0.25156909048E+04  0.25500000920E-02 0. -1.
       -2   -1    0    0    0  501  0.00000000000E+00  0.00000000000E+00 -0.12467449846E+04  0.12467449846E+04  0.25500000920E-02 0.  1.
    10030    2    1    2    0    0  0.00000000000E+00  0.00000000000E+00  0.12689459202E+04  0.37624358894E+04  0.35419909760E+04 0.  0.
        4    1    3    3  502    0  0.97090034204E+03  0.94236309250E+03  0.18482753054E+04  0.22905935671E+04  0.12699999809E+01 0. -1.
       -4    1    3    3    0  502 -0.97090034204E+03 -0.94236309250E+03 -0.57932938522E+03  0.14718423223E+04  0.12699999809E+01 0.  1.
</event>
<event>
 5   0  0.6541476E-07  0.3653176E+04  0.7818609E-02  0.8078419E-01
        2   -1    0    0  501    0  0.00000000000E+00  0.00000000000E+00  0.18492217077E+04  0.18492217077E+04  0.25500000920E-02 0.  1.
       -2   -1    0    0    0  501  0.00000000000E+00  0.00000000000E+00 -0.18042314575E+04  0.18042314575E+04  0.25500000920E-02 0. -1.
    10030    2    1    2    0    0  0.00000000000E+00  0.00000000000E+00  0.44990250160E+02  0.36534531652E+04  0.36531761397E+04 0.  0.
        4    1    3    3  502    0  0.41675445293E+03  0.13229117325E+04 -0.11661414433E+04  0.18120891823E+04  0.12699999809E+01 0. -1.
       -4    1    3    3    0  502 -0.41675445293E+03 -0.13229117325E+04  0.12111316934E+04  0.18413639829E+04  0.12699999809E+01 0.  1.
</event>
<event>
 5   0  0.2193129E-07  0.3586499E+04  0.7818609E-02  0.8093591E-01
        1   -1    0    0  501    0  0.00000000000E+00  0.00000000000E+00  0.20602803721E+04  0.20602803721E+04  0.50400001928E-02 0. -1.
       -1   -1    0    0    0  501  0.00000000000E+00  0.00000000000E+00 -0.15608279253E+04  0.15608279253E+04  0.50400001928E-02 0.  1.
    10030    2    1    2    0    0  0.00000000000E+00  0.00000000000E+00  0.49945244682E+03  0.36211082974E+04  0.35864986484E+04 0.  0.
        1    1    3    3  502    0 -0.94016392655E+03 -0.21703610834E+03 -0.12763924582E+04  0.16000595578E+04  0.50400001928E-02 0.  1.
       -1    1    3    3    0  502  0.94016392655E+03  0.21703610834E+03  0.17758449050E+04  0.20210487396E+04  0.50400001928E-02 0. -1.
</event>
<event>
 5   0  0.6324216E-07  0.3650907E+04  0.7818609E-02  0.8078929E-01
        2   -1    0    0  501    0  0.00000000000E+00  0.00000000000E+00  0.17737478724E+04  0.17737478724E+04  0.25500000920E-02 0.  1.
       -2   -1    0    0    0  501  0.00000000000E+00  0.00000000000E+00 -0.18786665124E+04  0.18786665124E+04  0.25500000920E-02 0. -1.
    10030    2    1    2    0    0  0.00000000000E+00  0.00000000000E+00 -0.10491864006E+03  0.36524143848E+04  0.36509071362E+04 0.  0.
        2    1    3    3  502    0  0.85254246225E+02 -0.97401570246E+03 -0.15946228451E+04  0.18705071219E+04  0.25500000920E-02 0. -1.
       -2    1    3    3    0  502 -0.85254246225E+02  0.97401570246E+03  0.14897042050E+04  0.17819072629E+04  0.25500000920E-02 0.  1.
</event>
<event>
 5   0  0.2108068E-07  0.3583651E+04  0.7818609E-02  0.8094247E-01
       -1   -1    0    0    0  501  0.00000000000E+00  0.00000000000E+00  0.13231760152E+04  0.13231760152E+04  0.50400001928E-02 0.  1.
        1   -1    0    0  501    0  0.00000000000E+00  0.00000000000E+00 -0.24264632693E+04  0.24264632693E+04  0.50400001928E-02 0. -1.
    10030    2    1    2    0    0  0.00000000000E+00  0.00000000000E+00 -0.11032872541E+04  0.37496392845E+04  0.35836506524E+04 0.  0.
        5    1    3    3  502    0  0.14696134175E+04 -0.56545253565E+03  0.34301404770E+03  0.16115771449E+04  0.46999998093E+01 0.  1.
       -5    1    3    3    0  502 -0.14696134175E+04  0.56545253565E+03 -0.14463013018E+04  0.21380621396E+04  0.46999998093E+01 0. -1.
</event>
<event>
 5   0  0.2193129E-07  0.3603825E+04  0.7818609E-02  0.8089616E-01
        1   -1    0    0  501    0  0.00000000000E+00  0.00000000000E+00  0.23747656821E+04  0.23747656821E+04  0.50400001928E-02 0. -1.
       -1   -1    0    0    0  501  0.00000000000E+00  0.00000000000E+00 -0.13672462024E+04  0.13672462024E+04  0.50400001928E-02 0.  1.
    10030    2    1    2    0    0  0.00000000000E+00  0.00000000000E+00  0.10075194797E+04  0.37420118845E+04  0.36038253901E+04 0.  0.
        1    1    3    3  502    0  0.10738061772E+04  0.88414098489E+02  0.20034441804E+04  0.22747890765E+04  0.50400001928E-02 0. -1.
       -1    1    3    3    0  502 -0.10738061772E+04 -0.88414098489E+02 -0.99592470066E+03  0.14672228080E+04  0.50400001928E-02 0.  1.
</event>
<event>
 5   0  0.2108068E-07  0.3547662E+04  0.7818609E-02  0.8102587E-01
       -1   -1    0    0    0  501  0.00000000000E+00  0.00000000000E+00  0.18082890470E+04  0.18082890470E+04  0.50400001928E-02 0. -1.
        1   -1    0    0  501    0  0.00000000000E+00  0.00000000000E+00 -0.17400300085E+04  0.17400300085E+04  0.50400001928E-02 0.  1.
    10030    2    1    2    0    0  0.00000000000E+00  0.00000000000E+00  0.68259038519E+02  0.35483190555E+04  0.35476624449E+04 0.  0.
        5    1    3    3  502    0 -0.34566836269E+03  0.25848350907E+03  0.17549579889E+04  0.18072631171E+04  0.46999998093E+01 0. -1.
       -5    1    3    3    0  502  0.34566836269E+03 -0.25848350907E+03 -0.16866989504E+04  0.17410559384E+04  0.46999998093E+01 0.  1.
</event>
<event>
 5   0  0.6848661E-07  0.3599173E+04  0.7818609E-02  0.8090681E-01
       -2   -1    0    0    0  501  0.00000000000E+00  0.00000000000E+00  0.12228399993E+04  0.12228399993E+04  0.25500000920E-02 0.  1.
        2   -1    0    0  501    0  0.00000000000E+00  0.00000000000E+00 -0.26483519480E+04  0.26483519480E+04  0.25500000920E-02 0. -1.
    10030    2    1    2    0    0  0.00000000000E+00  0.00000000000E+00 -0.14255119487E+04  0.38711919473E+04  0.35991725128E+04 0.  0.
        1    1    3    3  502    0  0.73859491596E+02 -0.11806817191E+04  0.74585123548E+03  0.13984843981E+04  0.50400001928E-02 0.  1.
       -1    1    3    3    0  502 -0.73859491596E+02  0.11806817191E+04 -0.21713631842E+04  0.24727075492E+04  0.50400001928E-02 0. -1.
</event>
<event>
 5   0  0.6729577E-07  0.3619337E+04  0.7818609E-02  0.8086077E-01
       -2   -1    0    0    0  501  0.00000000000E+00  0.00000000000E+00  0.12749579570E+04  0.12749579570E+04  0.25500000920E-02 0. -1.
        2   -1    0    0  501    0  0.00000000000E+00  0.00000000000E+00 -0.25686341847E+04  0.25686341847E+04  0.25500000920E-02 0.  1.
    10030    2    1    2    0    0  0.00000000000E+00  0.00000000000E+00 -0.12936762276E+04  0.38435921417E+04  0.36193372832E+04 0.  0.
        3    1    3    3  502    0 -0.10150110241E+03 -0.10887964232E+04  0.88441881211E+03  0.14064056208E+04  0.10100000352E+00 0. -1.
       -3    1    3    3    0  502  0.10150110241E+03  0.10887964232E+04 -0.21780950398E+04  0.24371865208E+04  0.10100000352E+00 0.  1.
</event>
<event>
 5   0  0.6669864E-07  0.3528069E+04  0.7818609E-02  0.8107170E-01
       -2   -1    0    0    0  501  0.00000000000E+00  0.00000000000E+00  0.21818786736E+04  0.21818786736E+04  0.25500000920E-02 0. -1.
        2   -1    0    0  501    0  0.00000000000E+00  0.00000000000E+00 -0.14262100322E+04  0.14262100322E+04  0.25500000920E-02 0.  1.
    10030    2    1    2    0    0  0.00000000000E+00  0.00000000000E+00  0.75566864144E+03  0.36080887058E+04  0.35280687370E+04 0.  0.
        5    1    3    3  502    0 -0.60794566372E+03 -0.12432178959E+04 -0.74087136811E+03  0.15697455656E+04  0.46999998093E+01 0. -1.
       -5    1    3    3    0  502  0.60794566372E+03  0.12432178959E+04  0.14965400095E+04  0.20383431401E+04  0.46999998093E+01 0.  1.
</event>
<event>
 5   0  0.2108068E-07  0.3609034E+04  0.7818609E-02  0.8088426E-01
        1   -1    0    0  501    0  0.00000000000E+00  0.00000000000E+00  0.24635304516E+04  0.24635304516E+04  0.50400001928E-02 0. -1.
       -1   -1    0    0    0  501  0.00000000000E+00  0.00000000000E+00 -0.13217946667E+04  0.13217946667E+04  0.50400001928E-02 0.  1.
    10030    2    1    2    0    0  0.00000000000E+00  0.00000000000E+00  0.11417357849E+04  0.37853251183E+04  0.36090338941E+04 0.  0.
        5    1    3    3  502    0 -0.27015961621E+03 -0.34999838243E+03  0.24058332704E+04  0.24461277360E+04  0.46999998093E+01 0. -1.
       -5    1    3    3    0  502  0.27015961621E+03  0.34999838243E+03 -0.12640974855E+04  0.13391973823E+04  0.46999998093E+01 0.  1.
</event>
<event>
 5   0  0.6729577E-07  0.3580489E+04  0.7818609E-02  0.8094976E-01
       -2   -1    0    0    0  501  0.00000000000E+00  0.00000000000E+00  0.13578247987E+04  0.13578247987E+04  0.25500000920E-02 0.  1.
        2   -1    0    0  501    0  0.00000000000E+00  0.00000000000E+00 -0.23603749912E+04  0.23603749912E+04  0.25500000920E-02 0. -1.
    10030    2    1    2    0    0  0.00000000000E+00  0.00000000000E+00 -0.10025501925E+04  0.37181997899E+04  0.35804891829E+04 0.  0.
        3    1    3    3  502    0  0.24659011120E+03 -0.33344255596E+03  0.13072539654E+04  0.13714603755E+04  0.10100000352E+00 0.  1.
       -3    1    3    3    0  502 -0.24659011120E+03  0.33344255596E+03 -0.23098041579E+04  0.23467394144E+04  0.10100000352E+00 0. -1.
</event>
<event>
 5   0  0.6541476E-07  0.3649766E+04  0.7818609E-02  0.8079186E-01
       -2   -1    0    0    0  501  0.00000000000E+00  0.00000000000E+00  0.11834783632E+04  0.11834783632E+04  0.25500000920E-02 0.  1.
        2   -1    0    0  501    0  0.00000000000E+00  0.00000000000E+00 -0.28139063400E+04  0.28139063400E+04  0.25500000920E-02 0. -1.
    10030    2    1    2    0    0  0.00000000000E+00  0.00000000000E+00 -0.16304279768E+04  0.39973847031E+04  0.36497656195E+04 0.  0.
        4    1    3    3  502    0 -0.44746461496E+03  0.13557565884E+04  0.42965773961E+03  0.14909419488E+04  0.12699999809E+01 0.  1.
       -4    1    3    3    0  502  0.44746461496E+03 -0.13557565884E+04 -0.20600857164E+04  0.25064427543E+04  0.12699999809E+01 0. -1.
</event>
<event>
 5   0  0.6669864E-07  0.3147889E+04  0.7818609E-02  0.8202717E-01
        2   -1    0    0  501    0  0.00000000000E+00  0.00000000000E+00  0.13672206254E+04  0.13672206255E+04  0.25500000920E-02 0. -1.
       -2   -1    0    0    0  501  0.00000000000E+00  0.00000000000E+00 -0.18119247067E+04  0.18119247067E+04  0.25500000920E-02 0.  1.
    10030    2    1    2    0    0  0.00000000000E+00  0.00000000000E+00 -0.44470408125E+03  0.31791453322E+04  0.31478887088E+04 0.  0.
        5    1    3    3  502    0  0.14797526966E+04 -0.26301748054E+03 -0.69436034842E+03  0.16555979650E+04  0.46999998093E+01 0.  1.
       -5    1    3    3    0  502 -0.14797526966E+04  0.26301748054E+03  0.24965626717E+03  0.15235473672E+04  0.46999998093E+01 0. -1.
</event>
<event>
 5   0  0.2108068E-07  0.3608661E+04  0.7818609E-02  0.8088511E-01
        1   -1    0    0  501    0  0.00000000000E+00  0.00000000000E+00  0.16066007557E+04  0.16066007557E+04  0.50400001928E-02 0. -1.
       -1   -1    0    0    0  501  0.00000000000E+00  0.00000000000E+00 -0.20263950301E+04  0.20263950301E+04  0.50400001928E-02 0.  1.
    10030    2    1    2    0    0  0.00000000000E+00  0.00000000000E+00 -0.41979427442E+03  0.36329957858E+04  0.36086605752E+04 0.  0.
        5    1    3    3  502    0 -0.10634726160E+04 -0.11300363846E+04 -0.11367736575E+04  0.19235988859E+04  0.46999998093E+01 0.  1.
       -5    1    3    3    0  502  0.10634726160E+04  0.11300363846E+04  0.71697938310E+03  0.17093968999E+04  0.46999998093E+01 0. -1.
</event>
<event>
 5   0  0.6729577E-07  0.3630646E+04  0.7818609E-02  0.8083508E-01
        2   -1    0    0  501    0  0.00000000000E+00  0.00000000000E+00  0.16875580491E+04  0.16875580491E+04  0.25500000920E-02 0. -1.
       -2   -1    0    0    0  501  0.00000000000E+00  0.00000000000E+00 -0.19527604957E+04  0.19527604957E+04  0.25500000920E-02 0.  1.
    10030    2    1    2    0    0  0.00000000000E+00  0.00000000000E+00 -0.26520244653E+03  0.36403185448E+04  0.36306455032E+04 0.  0.
        3    1    3    3  502    0 -0.87751464254E+03 -0.15212710339E+04  0.32807819593E+03  0.17865981135E+04  0.10100000352E+00 0. -1.
       -3    1    3    3    0  502  0.87751464254E+03  0.15212710339E+04 -0.59328064246E+03  0.18537204313E+04  0.10100000352E+00 0.  1.
</event>
<event>
 5   0  0.6848661E-07  0.3547523E+04  0.7818609E-02  0.8102619E-01
        2   -1    0    0  501    0  0.00000000000E+00  0.00000000000E+00  0.27404597601E+04  0.27404597601E+04  0.25500000920E-02 0.  1.
       -2   -1    0    0    0  501  0.00000000000E+00  0.00000000000E+00 -0.11480662465E+04  0.11480662465E+04  0.25500000920E-02 0. -1.
    10030    2    1    2    0    0  0.00000000000E+00  0.00000000000E+00  0.15923935136E+04  0.38885260066E+04  0.35475227134E+04 0.  0.
        1    1    3    3  502    0 -0.54490527233E+03  0.14896281686E+04 -0.74042802345E+02  0.15878904789E+04  0.50400001928E-02 0. -1.
       -1    1    3    3    0  502  0.54490527233E+03 -0.14896281686E+04  0.16664363159E+04  0.23006355277E+04  0.50400001928E-02 0.  1.
</event>
<event>
 5   0  0.6541476E-07  0.3600322E+04  0.7818609E-02  0.8090418E-01
        2   -1    0    0  501    0  0.00000000000E+00  0.00000000000E+00  0.21232244698E+04  0.21232244698E+04  0.25500000920E-02 0.  1.
       -2   -1    0    0    0  501  0.00000000000E+00  0.00000000000E+00 -0.15262539417E+04  0.15262539417E+04  0.25500000920E-02 0. -1.
    10030    2    1    2    0    0  0.00000000000E+00  0.00000000000E+00  0.59697052813E+03  0.36494784115E+04  0.36003220501E+04 0.  0.
        4    1    3    3  502    0 -0.17808495705E+04 -0.14989387361E+03  0.51750180113E+03  0.18605652617E+04  0.12699999809E+01 0.  1.
       -4    1    3    3    0  502  0.17808495705E+04  0.14989387361E+03  0.79468726995E+02  0.17889131498E+04  0.12699999809E+01 0. -1.
</event>
<event>
 5   0  0.6848661E-07  0.3676678E+04  0.7818609E-02  0.8073150E-01
        2   -1    0    0  501    0  0.00000000000E+00  0.00000000000E+00  0.13459590346E+04  0.13459590346E+04  0.25500000920E-02 0. -1.
       -2   -1    0    0    0  501  0.00000000000E+00  0.00000000000E+00 -0.25108418263E+04  0.25108418263E+04  0.25500000920E-02 0.  1.
    10030    2    1    2    0    0  0.00000000000E+00  0.00000000000E+00 -0.11648827917E+04  0.38568008609E+04  0.36766779792E+04 0.  0.
        1    1    3    3  502    0  0.76651809997E+03  0.33065674852E+03  0.11356651648E+04  0.14094748133E+04  0.50400001928E-02 0. -1.
       -1    1    3    3    0  502 -0.76651809997E+03 -0.33065674852E+03 -0.23005479565E+04  0.24473260476E+04  0.50400001928E-02 0.  1.
</event>
<event>
 5   0  0.6729577E-07  0.3009892E+04  0.7818609E-02  0.8240912E-01
        2   -1    0    0  501    0  0.00000000000E+00  0.00000000000E+00  0.15648033418E+04  0.15648033418E+04  0.25500000920E-02 0. -1.
       -2   -1    0    0    0  501  0.00000000000E+00  0.00000000000E+00 -0.14473785615E+04  0.14473785615E+04  0.25500000920E-02 0.  1.
    10030    2    1    2    0    0  0.00000000000E+00  0.00000000000E+00  0.11742478021E+03  0.30121819033E+04  0.30098922306E+04 0.  0.
        3    1    3    3  502    0 -0.94769540912E+03 -0.11019946874E+04 -0.33189711979E+03  0.14908637053E+04  0.10100000352E+00 0.  1.
       -3    1    3    3    0  502  0.94769540912E+03  0.11019946874E+04  0.44932189999E+03  0.15213181980E+04  0.10100000352E+00 0. -1.
</event>
<event>
 5   0  0.6324216E-07  0.3569449E+04  0.7818609E-02  0.8097526E-01
        2   -1    0    0  501    0  0.00000000000E+00  0.00000000000E+00  0.23044308535E+04  0.23044308535E+04  0.25500000920E-02 0.  1.
       -2   -1    0    0    0  501  0.00000000000E+00  0.00000000000E+00 -0.13822251064E+04  0.13822251064E+04  0.25500000920E-02 0. -1.
    10030    2    1    2    0    0  0.00000000000E+00  0.00000000000E+00  0.92220574711E+03  0.36866559598E+04  0.35694493590E+04 0.  0.
        2    1    3    3  502    0 -0.15625472803E+04 -0.47494151357E+03  0.12045430637E+04  0.20292972766E+04  0.25500000920E-02 0.  1.
       -2    1    3    3    0  502  0.15625472803E+04  0.47494151357E+03 -0.28233731657E+03  0.16573586832E+04  0.25500000920E-02 0. -1.
</event>
<event>
 5   0  0.6848661E-07  0.3583194E+04  0.7818609E-02  0.8094352E-01
       -2   -1    0    0    0  501  0.00000000000E+00  0.00000000000E+00  0.18331005130E+04  0.18331005130E+04  0.25500000920E-02 0. -1.
        2   -1    0    0  501    0  0.00000000000E+00  0.00000000000E+00 -0.17510329468E+04  0.17510329468E+04  0.25500000920E-02 0.  1.
    10030    2    1    2    0    0  0.00000000000E+00  0.00000000000E+00  0.82067566177E+02  0.35841334599E+04  0.35831937671E+04 0.  0.
        1    1    3    3  502    0  0.12192625372E+04  0.22556233696E+03 -0.12524951683E+04  0.17624481976E+04  0.50400001928E-02 0.  1.
       -1    1    3    3    0  502 -0.12192625372E+04 -0.22556233696E+03  0.13345627345E+04  0.18216852623E+04  0.50400001928E-02 0. -1.
</event>
<event>
 5   0  0.6324216E-07  0.3631185E+04  0.7818609E-02  0.8083385E-01
        2   -1    0    0  501    0  0.00000000000E+00  0.00000000000E+00  0.11204737471E+04  0.11204737471E+04  0.25500000920E-02 0.  1.
       -2   -1    0    0    0  501  0.00000000000E+00  0.00000000000E+00 -0.29419487344E+04  0.29419487344E+04  0.25500000920E-02 0. -1.
    10030    2    1    2    0    0  0.00000000000E+00  0.00000000000E+00 -0.18214749873E+04  0.40624224816E+04  0.36311851081E+04 0.  0.
        2    1    3    3  502    0  0.80232774244E+03  0.89663826150E+03  0.61039945264E+03  0.13491765897E+04  0.25500000920E-02 0.  1.
       -2    1    3    3    0  502 -0.80232774244E+03 -0.89663826150E+03 -0.24318744400E+04  0.27132458919E+04  0.25500000920E-02 0. -1.
</event>
<event>
 5   0  0.2193129E-07  0.3588256E+04  0.7818609E-02  0.8093187E-01
        1   -1    0    0  501    0  0.00000000000E+00  0.00000000000E+00  0.24765247368E+04  0.24765247368E+04  0.50400001928E-02 0.  1.
       -1   -1    0    0    0  501  0.00000000000E+00  0.00000000000E+00 -0.12997628389E+04  0.12997628389E+04  0.50400001928E-02 0. -1.
    10030    2    1    2    0    0  0.00000000000E+00  0.00000000000E+00  0.11767618978E+04  0.37762875757E+04  0.35882557448E+04 0.  0.
        1    1    3    3  502    0  0.13011837060E+04  0.17186419905E+03 -0.69894311095E+03  0.14869895131E+04  0.50400001928E-02 0. -1.
       -1    1    3    3    0  502 -0.13011837060E+04 -0.17186419905E+03  0.18757050088E+04  0.22892980626E+04  0.50400001928E-02 0.  1.
</event>
<event>
 5   0  0.2086250E-07  0.3583460E+04  0.7818609E-02  0.8094291E-01
       -1   -1    0    0    0  501  0.00000000000E+00  0.00000000000E+00  0.20770365393E+04  0.20770365393E+04  0.50400001928E-02 0. -1.
        1   -1    0    0  501    0  0.00000000000E+00  0.00000000000E+00 -0.15456141340E+04  0.15456141340E+04  0.50400001928E-02 0.  1.
    10030    2    1    2    0    0  0.00000000000E+00  0.00000000000E+00  0.53142240525E+03  0.36226506733E+04  0.35834603567E+04 0.  0.
        2    1    3    3  502    0  0.10947307543E+03  0.10087474533E+04 -0.12271723144E+04  0.15923277515E+04  0.25500000920E-02 0.  1.
       -2    1    3    3    0  502 -0.10947307543E+03 -0.10087474533E+04  0.17585947197E+04  0.20303229218E+04  0.25500000920E-02 0. -1.
</event>
<event>
 5   0  0.2086250E-07  0.3285628E+04  0.7818609E-02  0.8166562E-01
       -1   -1    0    0    0  501  0.00000000000E+00  0.00000000000E+00  0.15022597008E+04  0.15022597008E+04  0.50400001928E-02 0.  1.
        1   -1    0    0  501    0  0.00000000000E+00  0.00000000000E+00 -0.17965190311E+04  0.17965190311E+04  0.50400001928E-02 0. -1.
    10030    2    1    2    0    0  0.00000000000E+00  0.00000000000E+00 -0.29425933035E+03  0.32987787319E+04  0.32856281847E+04 0.  0.
        4    1    3    3  502    0 -0.36141694544E+03 -0.63148343145E+03 -0.16259277934E+04  0.17813018652E+04  0.12699999809E+01 0. -1.
       -4    1    3    3    0  502  0.36141694544E+03  0.63148343145E+03  0.13316684630E+04  0.15174768667E+04  0.12699999809E+01 0.  1.
</event>
<event>
 5   0  0.2086250E-07  0.3591229E+04  0.7818609E-02  0.8092504E-01
        3   -1    0    0  501    0  0.00000000000E+00  0.00000000000E+00  0.14976186638E+04  0.14976186672E+04  0.10100000352E+00 0.  1.
       -3   -1    0    0    0  501  0.00000000000E+00  0.00000000000E+00 -0.21529055803E+04  0.21529055827E+04  0.10100000352E+00 0. -1.
    10030    2    1    2    0    0  0.00000000000E+00  0.00000000000E+00 -0.65528691650E+03  0.36505242499E+04  0.35912290872E+04 0.  0.
        2    1    3    3  502    0  0.35170002391E+03  0.11862115881E+04 -0.16504524274E+04  0.20627127899E+04  0.25500000920E-02 0. -1.
       -2    1    3    3    0  502 -0.35170002391E+03 -0.11862115881E+04  0.99516551086E+03  0.15878114600E+04  0.25500000920E-02 0.  1.
</event>
<event>
 5   0  0.6729577E-07  0.3654583E+04  0.7818609E-02  0.8078102E-01
        2   -1    0    0  501    0  0.00000000000E+00  0.00000000000E+00  0.20546437299E+04  0.20546437299E+04  0.25500000920E-02 0. -1.
       -2   -1    0    0    0  501  0.00000000000E+00  0.00000000000E+00 -0.16250964190E+04  0.16250964191E+04  0.25500000920E-02 0.  1.
    10030    2    1    2    0    0  0.00000000000E+00  0.00000000000E+00  0.42954731088E+03  0.36797401490E+04  0.36545829682E+04 0.  0.
        3    1    3    3  502    0 -0.12256235953E+04 -0.48480720381E+03  0.14891094087E+04  0.19886271806E+04  0.10100000352E+00 0. -1.
       -3    1    3    3    0  502  0.12256235953E+04  0.48480720381E+03 -0.10595620978E+04  0.16911129683E+04  0.10100000352E+00 0.  1.
</event>
<event>
 5   0  0.6729577E-07  0.3597561E+04  0.7818609E-02  0.8091051E-01
       -2   -1    0    0    0  501  0.00000000000E+00  0.00000000000E+00  0.18185783525E+04  0.18185783525E+04  0.25500000920E-02 0.  1.
        2   -1    0    0  501    0  0.00000000000E+00  0.00000000000E+00 -0.17791983241E+04  0.17791983241E+04  0.25500000920E-02 0. -1.
    10030    2    1    2    0    0  0.00000000000E+00  0.00000000000E+00  0.39380028415E+02  0.35977766765E+04  0.35975611499E+04 0.  0.
        3    1    3    3  502    0  0.11349338009E+04 -0.13916367368E+04  0.12402270856E+03  0.18000303281E+04  0.10100000352E+00 0. -1.
       -3    1    3    3    0  502 -0.11349338009E+04  0.13916367368E+04 -0.84642680148E+02  0.17977463484E+04  0.10100000352E+00 0.  1.
</event>
<event>
 5   0  0.2086250E-07  0.3629402E+04  0.7818609E-02  0.8083790E-01
       -1   -1    0    0    0  501  0.00000000000E+00  0.00000000000E+00  0.17175310375E+04  0.17175310376E+04  0.50400001928E-02 0.  1.
        1   -1    0    0  501    0  0.00000000000E+00  0.00000000000E+00 -0.19173680321E+04  0.19173680321E+04  0.50400001928E-02 0. -1.
    10030    2    1    2    0    0  0.00000000000E+00  0.00000000000E+00 -0.19983699459E+03  0.36348990697E+04  0.36294016618E+04 0.  0.
        3    1    3    3  502    0 -0.16741105087E+04 -0.56284442274E+03 -0.51732220398E+03  0.18403972703E+04  0.10100000352E+00 0. -1.
       -3    1    3    3    0  502  0.16741105087E+04  0.56284442274E+03  0.31748520939E+03  0.17945017994E+04  0.10100000352E+00 0.  1.
</event>
<event>
 5   0  0.2086250E-07  0.3596445E+04  0.7818609E-02  0.8091306E-01
       -1   -1    0    0    0  501  0.00000000000E+00  0.00000000000E+00  0.16796047290E+04  0.16796047290E+04  0.50400001928E-02 0. -1.
        1   -1    0    0  501    0  0.00000000000E+00  0.00000000000E+00 -0.19252176731E+04  0.19252176731E+04  0.50400001928E-02 0.  1.
    10030    2    1    2    0    0  0.00000000000E+00  0.00000000000E+00 -0.24561294407E+03  0.36048224021E+04  0.35964453050E+04 0.  0.
        4    1    3    3  502    0  0.62648843435E+03  0.51473409671E+03  0.14859754567E+04  0.16927975719E+04  0.12699999809E+01 0. -1.
       -4    1    3    3    0  502 -0.62648843435E+03 -0.51473409671E+03 -0.17315884007E+04  0.19120248302E+04  0.12699999809E+01 0.  1.
</event>
<event>
 5   0  0.2108068E-07  0.3604226E+04  0.7818609E-02  0.8089524E-01
        1   -1    0    0  501    0  0.00000000000E+00  0.00000000000E+00  0.23601657501E+04  0.23601657501E+04  0.50400001928E-02 0. -1.
       -1   -1    0    0    0  501  0.00000000000E+00  0.00000000000E+00 -0.13760095879E+04  0.13760095879E+04  0.50400001928E-02 0.  1.
    10030    2    1    2    0    0  0.00000000000E+00  0.00000000000E+00  0.98415616225E+03  0.37361753380E+04  0.36042256873E+04 0.  0.
        5    1    3    3  502    0  0.17696088010E+04  0.11139280503E+03  0.15832042708E+03  0.17801716527E+04  0.46999998093E+01 0.  1.
       -5    1    3    3    0  502 -0.17696088010E+04 -0.11139280503E+03  0.82583573517E+03  0.19560036853E+04  0.46999998093E+01 0. -1.
</event>
<event>
 5   0  0.6541476E-07  0.3582290E+04  0.7818609E-02  0.8094560E-01
        2   -1    0    0  501    0  0.00000000000E+00  0.00000000000E+00  0.11529779192E+04  0.11529779192E+04  0.25500000920E-02 0. -1.
       -2   -1    0    0    0  501  0.00000000000E+00  0.00000000000E+00 -0.27825345261E+04  0.27825345261E+04  0.25500000920E-02 0.  1.
    10030    2    1    2    0    0  0.00000000000E+00  0.00000000000E+00 -0.16295566068E+04  0.39355124453E+04  0.35822902552E+04 0.  0.
        4    1    3    3  502    0 -0.21576510635E+03  0.10643564039E+04 -0.23795791738E+04  0.26156849568E+04  0.12699999809E+01 0.  1.
       -4    1    3    3    0  502  0.21576510635E+03 -0.10643564039E+04  0.75002256701E+03  0.13198274885E+04  0.12699999809E+01 0. -1.
</event>
<event>
 5   0  0.6541476E-07  0.3651257E+04  0.7818609E-02  0.8078851E-01
       -2   -1    0    0    0  501  0.00000000000E+00  0.00000000000E+00  0.22618144011E+04  0.22618144011E+04  0.25500000920E-02 0.  1.
        2   -1    0    0  501    0  0.00000000000E+00  0.00000000000E+00 -0.14735597167E+04  0.14735597167E+04  0.25500000920E-02 0. -1.
    10030    2    1    2    0    0  0.00000000000E+00  0.00000000000E+00  0.78825468433E+03  0.37353741178E+04  0.36512565443E+04 0.  0.
        4    1    3    3  502    0  0.14950428280E+03 -0.14033478383E+04 -0.79064617497E+03  0.16176710644E+04  0.12699999809E+01 0. -1.
       -4    1    3    3    0  502 -0.14950428280E+03  0.14033478383E+04  0.15789008593E+04  0.21177030534E+04  0.12699999809E+01 0.  1.
</event>
<event>
 5   0  0.6729577E-07  0.3595032E+04  0.7818609E-02  0.8091631E-01
       -2   -1    0    0    0  501  0.00000000000E+00  0.00000000000E+00  0.14432847153E+04  0.14432847153E+04  0.25500000920E-02 0. -1.
        2   -1    0    0  501    0  0.00000000000E+00  0.00000000000E+00 -0.22386872144E+04  0.22386872144E+04  0.25500000920E-02 0.  1.
    10030    2    1    2    0    0  0.00000000000E+00  0.00000000000E+00 -0.79540249913E+03  0.36819719297E+04  0.35950315931E+04 0.  0.
        3    1    3    3  502    0  0.80789170703E+03 -0.12198021056E+04  0.67180173957E+03  0.16099452707E+04  0.10100000352E+00 0. -1.
       -3    1    3    3    0  502 -0.80789170703E+03  0.12198021056E+04 -0.14672042387E+04  0.20720266590E+04  0.10100000352E+00 0.  1.
</event>
<event>
 5   0  0.2193129E-07  0.3593394E+04  0.7818609E-02  0.8092007E-01
        1   -1    0    0  501    0  0.00000000000E+00  0.00000000000E+00  0.27703673842E+04  0.27703673843E+04  0.50400001928E-02 0.  1.
       -1   -1    0    0    0  501  0.00000000000E+00  0.00000000000E+00 -0.11652314685E+04  0.11652314685E+04  0.50400001928E-02 0. -1.
    10030    2    1    2    0    0  0.00000000000E+00  0.00000000000E+00  0.16051359158E+04  0.39355988527E+04  0.35933935245E+04 0.  0.
        1    1    3    3  502    0 -0.12969221890E+04  0.38354739362E+03  0.20980024104E+04  0.24961430010E+04  0.50400001928E-02 0.  1.
       -1    1    3    3    0  502  0.12969221890E+04 -0.38354739362E+03 -0.49286649460E+03  0.14394558517E+04  0.50400001928E-02 0. -1.
</event>
<event>
 5   0  0.6541476E-07  0.3476430E+04  0.7818609E-02  0.8119398E-01
       -2   -1    0    0    0  501  0.00000000000E+00  0.00000000000E+00  0.14849331642E+04  0.14849331643E+04  0.25500000920E-02 0.  1.
        2   -1    0    0  501    0  0.00000000000E+00  0.00000000000E+00 -0.20346991479E+04  0.20346991479E+04  0.25500000920E-02 0. -1.
    10030    2    1    2    0    0  0.00000000000E+00  0.00000000000E+00 -0.54976598367E+03  0.35196323122E+04  0.34764304935E+04 0.  0.
        4    1    3    3  502    0  0.61046476637E+03  0.15564180000E+04 -0.75649020314E+03  0.18350431226E+04  0.12699999809E+01 0. -1.
       -4    1    3    3    0  502 -0.61046476637E+03 -0.15564180000E+04  0.20672421947E+03  0.16845891895E+04  0.12699999809E+01 0.  1.
</event>
<event>
 5   0  0.2086250E-07  0.3583882E+04  0.7818609E-02  0.8094194E-01
       -1   -1    0    0    0  501  0.00000000000E+00  0.00000000000E+00  0.23028575886E+04  0.23028575886E+04  0.50400001928E-02 0. -1.
        1   -1    0    0  501    0  0.00000000000E+00  0.00000000000E+00 -0.13943777513E+04  0.13943777514E+04  0.50400001928E-02 0.  1.
    10030    2    1    2    0    0  0.00000000000E+00  0.00000000000E+00  0.90847983729E+03  0.36972353400E+04  0.35838824680E+04 0.  0.
        4    1    3    3  502    0  0.63339312231E+03 -0.10839160549E+04 -0.86487006822E+03  0.15244876875E+04  0.12699999809E+01 0.  1.
       -4    1    3    3    0  502 -0.63339312231E+03  0.10839160549E+04  0.17733499055E+04  0.21727476525E+04  0.12699999809E+01 0. -1.
</event>
<event>
 5   0  0.6848661E-07  0.3520212E+04  0.7818609E-02  0.8109017E-01
       -2   -1    0    0    0  501  0.00000000000E+00  0.00000000000E+00  0.12969681247E+04  0.12969681247E+04  0.25500000920E-02 0. -1.
        2   -1    0    0  501    0  0.00000000000E+00  0.00000000000E+00 -0.23886264214E+04  0.23886264214E+04  0.25500000920E-02 0.  1.
    10030    2    1    2    0    0  0.00000000000E+00  0.00000000000E+00 -0.10916582967E+04  0.36855945460E+04  0.35202115449E+04 0.  0.
        1    1    3    3  502    0 -0.11973760963E+04 -0.54494940612E+03 -0.17700776534E+04  0.22054147615E+04  0.50400001928E-02 0.  1.
       -1    1    3    3    0  502  0.11973760963E+04  0.54494940612E+03  0.67841935667E+03  0.14801797846E+04  0.50400001928E-02 0. -1.
</event>
<event>
 5   0  0.6669864E-07  0.3608852E+04  0.7818609E-02  0.8088467E-01
        2   -1    0    0  501    0  0.00000000000E+00  0.00000000000E+00  0.23983641574E+04  0.23983641575E+04  0.25500000920E-02 0.  1.
       -2   -1    0    0    0  501  0.00000000000E+00  0.00000000000E+00 -0.13575725079E+04  0.13575725079E+04  0.25500000920E-02 0. -1.
    10030    2    1    2    0    0  0.00000000000E+00  0.00000000000E+00  0.10407916496E+04  0.37559366653E+04  0.36088520302E+04 0.  0.
        5    1    3    3  502    0 -0.31703548791E+03 -0.11042116630E+04 -0.92776616307E+03  0.14766743177E+04  0.46999998093E+01 0. -1.
       -5    1    3    3    0  502  0.31703548791E+03  0.11042116630E+04  0.19685578126E+04  0.22792623476E+04  0.46999998093E+01 0.  1.
</event>
<event>
 5   0  0.2193129E-07  0.3605874E+04  0.7818609E-02  0.8089148E-01
        1   -1    0    0  501    0  0.00000000000E+00  0.00000000000E+00  0.22693436080E+04  0.22693436080E+04  0.50400001928E-02 0. -1.
       -1   -1    0    0    0  501  0.00000000000E+00  0.00000000000E+00 -0.14323884419E+04  0.14323884419E+04  0.50400001928E-02 0.  1.
    10030    2    1    2    0    0  0.00000000000E+00  0.00000000000E+00  0.83695516617E+03  0.37017320499E+04  0.36058738496E+04 0.  0.
        1    1    3    3  502    0 -0.17792246480E+04  0.27753726745E+03  0.50980473874E+03  0.18715149357E+04  0.50400001928E-02 0. -1.
       -1    1    3    3    0  502  0.17792246480E+04 -0.27753726745E+03  0.32715042743E+03  0.18302171142E+04  0.50400001928E-02 0.  1.
</event>
<event>
 5   0  0.2193129E-07  0.3570033E+04  0.7818609E-02  0.8097391E-01
       -1   -1    0    0    0  501  0.00000000000E+00  0.00000000000E+00  0.14793443853E+04  0.14793443853E+04  0.50400001928E-02 0.  1.
        1   -1    0    0  501    0  0.00000000000E+00  0.00000000000E+00 -0.21538487668E+04  0.21538487668E+04  0.50400001928E-02 0. -1.
    10030    2    1    2    0    0  0.00000000000E+00  0.00000000000E+00 -0.67450438155E+03  0.36331931521E+04  0.35700330978E+04 0.  0.
        1    1    3    3  502    0 -0.69002442370E+02 -0.60594874800E+03 -0.20445339864E+04  0.21335544155E+04  0.50400001928E-02 0. -1.
       -1    1    3    3    0  502  0.69002442370E+02  0.60594874800E+03  0.13700296048E+04  0.14996387366E+04  0.50400001928E-02 0.  1.
</event>
<event>
 5   0  0.2086250E-07  0.3675165E+04  0.7818609E-02  0.8073488E-01
        1   -1    0    0  501    0  0.00000000000E+00  0.00000000000E+00  0.14208458265E+04  0.14208458265E+04  0.50400001928E-02 0. -1.
       -1   -1    0    0    0  501  0.00000000000E+00  0.00000000000E+00 -0.23765492559E+04  0.23765492559E+04  0.50400001928E-02 0.  1.
    10030    2    1    2    0    0  0.00000000000E+00  0.00000000000E+00 -0.95570342935E+03  0.37973950824E+04  0.36751653524E+04 0.  0.
        4    1    3    3  502    0 -0.12736729977E+04 -0.46794742008E+03 -0.17582129223E+04  0.22209304325E+04  0.12699999809E+01 0.  1.
       -4    1    3    3    0  502  0.12736729977E+04  0.46794742008E+03  0.80250949295E+03  0.15764646499E+04  0.12699999809E+01 0. -1.
</event>
<event>
 5   0  0.6541476E-07  0.3642560E+04  0.7818609E-02  0.8080812E-01
       -2   -1    0    0    0  501  0.00000000000E+00  0.00000000000E+00  0.17652343501E+04  0.17652343501E+04  0.25500000920E-02 0. -1.
        2   -1    0    0  501    0  0.00000000000E+00  0.00000000000E+00 -0.18791047414E+04  0.18791047414E+04  0.25500000920E-02 0.  1.
    10030    2    1    2    0    0  0.00000000000E+00  0.00000000000E+00 -0.11387039131E+03  0.36443390915E+04  0.36425596698E+04 0.  0.
        4    1    3    3  502    0  0.26488294512E+02  0.10279518141E+04 -0.15608900952E+04  0.18691618614E+04  0.12699999809E+01 0.  1.
       -4    1    3    3    0  502 -0.26488294512E+02 -0.10279518141E+04  0.14470197039E+04  0.17751772301E+04  0.12699999809E+01 0. -1.
</event>
<event>
 5   0  0.2193129E-07  0.3572888E+04  0.7818609E-02  0.8096730E-01
        1   -1    0    0  501    0  0.00000000000E+00  0.00000000000E+00  0.15378494637E+04  0.15378494637E+04  0.50400001928E-02 0.  1.
       -1   -1    0    0    0  501  0.00000000000E+00  0.00000000000E+00 -0.20752238914E+04  0.20752238914E+04  0.50400001928E-02 0. -1.
    10030    2    1    2    0    0  0.00000000000E+00  0.00000000000E+00 -0.53737442773E+03  0.36130733551E+04  0.35728878787E+04 0.  0.
        1    1    3    3  502    0 -0.14289716179E+04 -0.67623062475E+03 -0.11099904273E+04  0.19316641766E+04  0.50400001928E-02 0. -1.
       -1    1    3    3    0  502  0.14289716179E+04  0.67623062475E+03  0.57261599953E+03  0.16814091785E+04  0.50400001928E-02 0.  1.
</event>
<event>
 5   0  0.6848661E-07  0.3564183E+04  0.7818609E-02  0.8098746E-01
        2   -1    0    0  501    0  0.00000000000E+00  0.00000000000E+00  0.12568274680E+04  0.12568274680E+04  0.25500000920E-02 0. -1.
       -2   -1    0    0    0  501  0.00000000000E+00  0.00000000000E+00 -0.25268776691E+04  0.25268776691E+04  0.25500000920E-02 0.  1.
    10030    2    1    2    0    0  0.00000000000E+00  0.00000000000E+00 -0.12700502011E+04  0.37837051370E+04  0.35641825221E+04 0.  0.
        1    1    3    3  502    0  0.81587261178E+03 -0.11714965756E+04 -0.17673986721E+04  0.22719485935E+04  0.50400001928E-02 0.  1.
       -1    1    3    3    0  502 -0.81587261178E+03  0.11714965756E+04  0.49734847100E+03  0.15117565435E+04  0.50400001928E-02 0. -1.
</event>
<event>
 5   0  0.2086250E-07  0.3577749E+04  0.7818609E-02  0.8095608E-01
        3   -1    0    0  501    0  0.00000000000E+00  0.00000000000E+00  0.19914661653E+04  0.19914661678E+04  0.10100000352E+00 0.  1.
       -3   -1    0    0    0  501  0.00000000000E+00  0.00000000000E+00 -0.16068924591E+04  0.16068924623E+04  0.10100000352E+00 0. -1.
    10030    2    1    2    0    0  0.00000000000E+00  0.00000000000E+00  0.38457370613E+03  0.35983586301E+04  0.35777489984E+04 0.  0.
        4    1    3    3  502    0  0.30720104561E+03 -0.14942854713E+04  0.11319109301E+04  0.18996014105E+04  0.12699999809E+01 0.  1.
       -4    1    3    3    0  502 -0.30720104561E+03  0.14942854713E+04 -0.74733722395E+03  0.16987572196E+04  0.12699999809E+01 0. -1.
</event>
<event>
 5   0  0.6729577E-07  0.3591342E+04  0.7818609E-02  0.8092478E-01
        2   -1    0    0  501    0  0.00000000000E+00  0.00000000000E+00  0.15430757605E+04  0.15430757605E+04  0.25500000920E-02 0. -1.
       -2   -1    0    0    0  501  0.00000000000E+00  0.00000000000E+00 -0.20896145096E+04  0.20896145096E+04  0.25500000920E-02 0.  1.
    10030    2    1    2    0    0  0.00000000000E+00  0.00000000000E+00 -0.54653874902E+03  0.36326902701E+04  0.35913415313E+04 0.  0.
        3    1    3    3  502    0  0.51186958497E+03  0.14332757555E+04 -0.12372069993E+04  0.19613696828E+04  0.10100000352E+00 0.  1.
       -3    1    3    3    0  502 -0.51186958497E+03 -0.14332757555E+04  0.69066825029E+03  0.16713205873E+04  0.10100000352E+00 0. -1.
</event>
<event>
 5   0  0.2193129E-07  0.3619241E+04  0.7818609E-02  0.8086099E-01
       -1   -1    0    0    0  501  0.00000000000E+00  0.00000000000E+00  0.19036611290E+04  0.19036611290E+04  0.50400001928E-02 0. -1.
        1   -1    0    0  501    0  0.00000000000E+00  0.00000000000E+00 -0.17202252718E+04  0.17202252718E+04  0.50400001928E-02 0.  1.
    10030    2    1    2    0    0  0.00000000000E+00  0.00000000000E+00  0.18343585720E+03  0.36238864009E+04  0.36192407951E+04 0.  0.
        1    1    3    3  502    0  0.17695599724E+04 -0.37865995637E+03  0.92071267078E+02  0.18119610859E+04  0.50400001928E-02 0. -1.
       -1    1    3    3    0  502 -0.17695599724E+04  0.37865995637E+03  0.91364590126E+02  0.18119253150E+04  0.50400001928E-02 0.  1.
</event>
<event>
 5   0  0.2086250E-07  0.3641022E+04  0.7818609E-02  0.8081159E-01
        3   -1    0    0  501    0  0.00000000000E+00  0.00000000000E+00  0.15272779177E+04  0.15272779211E+04  0.10100000352E+00 0. -1.
       -3   -1    0    0    0  501  0.00000000000E+00  0.00000000000E+00 -0.21700437105E+04  0.21700437129E+04  0.10100000352E+00 0.  1.
    10030    2    1    2    0    0  0.00000000000E+00  0.00000000000E+00 -0.64276579278E+03  0.36973216339E+04  0.36410217522E+04 0.  0.
        4    1    3    3  502    0  0.12038177869E+04  0.13061851275E+04 -0.72624747179E+03  0.19190450371E+04  0.12699999809E+01 0.  1.
       -4    1    3    3    0  502 -0.12038177869E+04 -0.13061851275E+04  0.83481679008E+02  0.17782765968E+04  0.12699999809E+01 0. -1.
</event>
<event>
 5   0  0.6669864E-07  0.3541217E+04  0.7818609E-02  0.8104091E-01
        2   -1    0    0  501    0  0.00000000000E+00  0.00000000000E+00  0.10757148025E+04  0.10757148025E+04  0.25500000920E-02 0.  1.
       -2   -1    0    0    0  501  0.00000000000E+00  0.00000000000E+00 -0.29143917985E+04  0.29143917985E+04  0.25500000920E-02 0. -1.
    10030    2    1    2    0    0  0.00000000000E+00  0.00000000000E+00 -0.18386769959E+04  0.39901066010E+04  0.35412169648E+04 0.  0.
        5    1    3    3  502    0  0.15440394836E+04  0.35053300369E+03 -0.26348277084E+02  0.15835553780E+04  0.46999998093E+01 0.  1.
       -5    1    3    3    0  502 -0.15440394836E+04 -0.35053300369E+03 -0.18123287189E+04  0.24065512230E+04  0.46999998093E+01 0. -1.
</event>
<event>
 5   0  0.2193129E-07  0.3567499E+04  0.7818609E-02  0.8097977E-01
        1   -1    0    0  501    0  0.00000000000E+00  0.00000000000E+00  0.12262985716E+04  0.12262985717E+04  0.50400001928E-02 0.  1.
       -1   -1    0    0    0  501  0.00000000000E+00  0.00000000000E+00 -0.25946059693E+04  0.25946059693E+04  0.50400001928E-02 0. -1.
    10030    2    1    2    0    0  0.00000000000E+00  0.00000000000E+00 -0.13683073976E+04  0.38209045409E+04  0.35674986162E+04 0.  0.
        1    1    3    3  502    0  0.15406575076E+03 -0.82501555348E+03 -0.23699233121E+04  0.25141446705E+04  0.50400001928E-02 0. -1.
       -1    1    3    3    0  502 -0.15406575076E+03  0.82501555348E+03  0.10016159144E+04  0.13067598705E+04  0.50400001928E-02 0.  1.
</event>
<event>
 5   0  0.2108068E-07  0.3597061E+04  0.7818609E-02  0.8091165E-01
        1   -1    0    0  501    0  0.00000000000E+00  0.00000000000E+00  0.19654898309E+04  0.19654898309E+04  0.50400001928E-02 0. -1.
       -1   -1    0    0    0  501  0.00000000000E+00  0.00000000000E+00 -0.16457536896E+04  0.16457536896E+04  0.50400001928E-02 0.  1.
    10030    2    1    2    0    0  0.00000000000E+00  0.00000000000E+00  0.31973614129E+03  0.36112435204E+04  0.35970611009E+04 0.  0.
        5    1    3    3  502    0  0.15728159690E+04  0.83003911259E+02  0.10316525394E+04  0.18828087459E+04  0.46999998093E+01 0. -1.
       -5    1    3    3    0  502 -0.15728159690E+04 -0.83003911259E+02 -0.71191639814E+03  0.17284347745E+04  0.46999998093E+01 0.  1.
</event>
<event>
 5   0  0.2086250E-07  0.3675903E+04  0.7818609E-02  0.8073323E-01
        1   -1    0    0  501    0  0.00000000000E+00  0.00000000000E+00  0.13502937458E+04  0.13502937458E+04  0.50400001928E-02 0. -1.
       -1   -1    0    0    0  501  0.00000000000E+00  0.00000000000E+00 -0.25017264810E+04  0.25017264810E+04  0.50400001928E-02 0.  1.
    10030    2    1    2    0    0  0.00000000000E+00  0.00000000000E+00 -0.11514327352E+04  0.38520202268E+04  0.36759029481E+04 0.  0.
        3    1    3    3  502    0  0.88128281493E+03  0.10714894716E+04 -0.18390109334E+04  0.23036298121E+04  0.10100000352E+00 0.  1.
       -3    1    3    3    0  502 -0.88128281493E+03 -0.10714894716E+04  0.68757819817E+03  0.15483904147E+04  0.10100000352E+00 0. -1.
</event>
<event>
 5   0  0.6541476E-07  0.3324990E+04  0.7818609E-02  0.8156566E-01
       -2   -1    0    0    0  501  0.00000000000E+00  0.00000000000E+00  0.15200936833E+04  0.15200936833E+04  0.25500000920E-02 0.  1.
        2   -1    0    0  501    0  0.00000000000E+00  0.00000000000E+00 -0.18182359970E+04  0.18182359970E+04  0.25500000920E-02 0. -1.
    10030    2    1    2    0    0  0.00000000000E+00  0.00000000000E+00 -0.29814231369E+03  0.33383296803E+04  0.33249896564E+04 0.  0.
        4    1    3    3  502    0 -0.49355684012E+03  0.12047618328E+04  0.88892290849E+03  0.15764628059E+04  0.12699999809E+01 0.  1.
       -4    1    3    3    0  502  0.49355684012E+03 -0.12047618328E+04 -0.11870652222E+04  0.17618668743E+04  0.12699999809E+01 0. -1.
</event>
<event>
 5   0  0.2086250E-07  0.3488719E+04  0.7818609E-02  0.8116469E-01
        1   -1    0    0  501    0  0.00000000000E+00  0.00000000000E+00  0.25988193807E+04  0.25988193807E+04  0.50400001928E-02 0.  1.
       -1   -1    0    0    0  501  0.00000000000E+00  0.00000000000E+00 -0.11708356598E+04  0.11708356598E+04  0.50400001928E-02 0. -1.
    10030    2    1    2    0    0  0.00000000000E+00  0.00000000000E+00  0.14279837209E+04  0.37696550405E+04  0.34887191943E+04 0.  0.
        2    1    3    3  502    0  0.11084573859E+04 -0.66664404120E+03 -0.55059324297E+03  0.14057898040E+04  0.25500000920E-02 0. -1.
       -2    1    3    3    0  502 -0.11084573859E+04  0.66664404120E+03  0.19785769639E+04  0.23638652364E+04  0.25500000920E-02 0.  1.
</event>
<event>
 5   0  0.6848661E-07  0.3599021E+04  0.7818609E-02  0.8090716E-01
        2   -1    0    0  501    0  0.00000000000E+00  0.00000000000E+00  0.18563488112E+04  0.18563488112E+04  0.25500000920E-02 0. -1.
       -2   -1    0    0    0  501  0.00000000000E+00  0.00000000000E+00 -0.17444126168E+04  0.17444126168E+04  0.25500000920E-02 0.  1.
    10030    2    1    2    0    0  0.00000000000E+00  0.00000000000E+00  0.11193619445E+03  0.36007614280E+04  0.35990211377E+04 0.  0.
        1    1    3    3  502    0  0.97910381853E+03 -0.13635711763E+04  0.70456210157E+03  0.18205434340E+04  0.50400001928E-02 0. -1.
       -1    1    3    3    0  502 -0.97910381853E+03  0.13635711763E+04 -0.59262590712E+03  0.17802179940E+04  0.50400001928E-02 0.  1.
</event>
<event>
 5   0  0.6541476E-07  0.3762952E+04  0.7818609E-02  0.8054152E-01
        2   -1    0    0  501    0  0.00000000000E+00  0.00000000000E+00  0.16584657879E+04  0.16584657879E+04  0.25500000920E-02 0. -1.
       -2   -1    0    0    0  501  0.00000000000E+00  0.00000000000E+00 -0.21344735161E+04  0.21344735161E+04  0.25500000920E-02 0.  1.
    10030    2    1    2    0    0  0.00000000000E+00  0.00000000000E+00 -0.47600772819E+03  0.37929393040E+04  0.37629516615E+04 0.  0.
        4    1    3    3  502    0  0.79352403633E+03  0.46557988389E+03  0.14162650907E+04  0.16888615824E+04  0.12699999809E+01 0. -1.
       -4    1    3    3    0  502 -0.79352403633E+03 -0.46557988389E+03 -0.18922728189E+04  0.21040777216E+04  0.12699999809E+01 0.  1.
</event>
<event>
 5   0  0.6541476E-07  0.3579444E+04  0.7818609E-02  0.8095217E-01
        2   -1    0    0  501    0  0.00000000000E+00  0.00000000000E+00  0.18578479629E+04  0.18578479629E+04  0.25500000920E-02 0.  1.
       -2   -1    0    0    0  501  0.00000000000E+00  0.00000000000E+00 -0.17240944204E+04  0.17240944204E+04  0.25500000920E-02 0. -1.
    10030    2    1    2    0    0  0.00000000000E+00  0.00000000000E+00  0.13375354254E+03  0.35819423834E+04  0.35794442624E+04 0.  0.
        4    1    3    3  502    0  0.48364121788E+03  0.15157702898E+04  0.88698231372E+03  0.18215948059E+04  0.12699999809E+01 0. -1.
       -4    1    3    3    0  502 -0.48364121788E+03 -0.15157702898E+04 -0.75322877118E+03  0.17603475775E+04  0.12699999809E+01 0.  1.
</event>
<event>
 5   0  0.6324216E-07  0.3563178E+04  0.7818609E-02  0.8098979E-01
       -2   -1    0    0    0  501  0.00000000000E+00  0.00000000000E+00  0.16444581395E+04  0.16444581395E+04  0.25500000920E-02 0.  1.
        2   -1    0    0  501    0  0.00000000000E+00  0.00000000000E+00 -0.19301550108E+04  0.19301550108E+04  0.25500000920E-02 0. -1.
    10030    2    1    2    0    0  0.00000000000E+00  0.00000000000E+00 -0.28569687135E+03  0.35746131503E+04  0.35631778614E+04 0.  0.
        2    1    3    3  502    0  0.92676344370E+03 -0.62284158046E+03 -0.15355533566E+04  0.18986169245E+04  0.25500000920E-02 0.  1.
       -2    1    3    3    0  502 -0.92676344370E+03  0.62284158046E+03  0.12498564853E+04  0.16759962258E+04  0.25500000920E-02 0. -1.
</event>
<event>
 5   0  0.6729577E-07  0.3375109E+04  0.7818609E-02  0.8144043E-01
       -2   -1    0    0    0  501  0.00000000000E+00  0.00000000000E+00  0.14691459297E+04  0.14691459297E+04  0.25500000920E-02 0. -1.
        2   -1    0    0  501    0  0.00000000000E+00  0.00000000000E+00 -0.19384326173E+04  0.19384326173E+04  0.25500000920E-02 0.  1.
    10030    2    1    2    0    0  0.00000000000E+00  0.00000000000E+00 -0.46928668754E+03  0.34075785470E+04  0.33751091181E+04 0.  0.
        3    1    3    3  502    0 -0.18934319436E+03 -0.25579099044E+03  0.14385750972E+04  0.14733560997E+04  0.10100000352E+00 0. -1.
       -3    1    3    3    0  502  0.18934319436E+03  0.25579099044E+03 -0.19078617847E+04  0.19342224474E+04  0.10100000352E+00 0.  1.
</event>
<event>
 5   0  0.2086250E-07  0.3613414E+04  0.7818609E-02  0.8087426E-01
       -1   -1    0    0    0  501  0.00000000000E+00  0.00000000000E+00  0.15525972625E+04  0.15525972625E+04  0.50400001928E-02 0. -1.
        1   -1    0    0  501    0  0.00000000000E+00  0.00000000000E+00 -0.21024062660E+04  0.21024062660E+04  0.50400001928E-02 0.  1.
    10030    2    1    2    0    0  0.00000000000E+00  0.00000000000E+00 -0.54980900343E+03  0.36550035285E+04  0.36134140163E+04 0.  0.
        3    1    3    3  502    0 -0.10707842307E+04  0.41764710939E+03 -0.16849295913E+04  0.20396067549E+04  0.10100000352E+00 0.  1.
       -3    1    3    3    0  502  0.10707842307E+04 -0.41764710939E+03  0.11351205879E+04  0.16153967736E+04  0.10100000352E+00 0. -1.
</event>
<event>
 5   0  0.2086250E-07  0.3599033E+04  0.7818609E-02  0.8090713E-01
       -1   -1    0    0    0  501  0.00000000000E+00  0.00000000000E+00  0.11263597112E+04  0.11263597113E+04  0.50400001928E-02 0.  1.
        1   -1    0    0  501    0  0.00000000000E+00  0.00000000000E+00 -0.28749784907E+04  0.28749784907E+04  0.50400001928E-02 0. -1.
    10030    2    1    2    0    0  0.00000000000E+00  0.00000000000E+00 -0.17486187794E+04  0.40013382019E+04  0.35990331716E+04 0.  0.
        4    1    3    3  502    0  0.95389540309E+03  0.10984826817E+04  0.30317037252E+03  0.14861004440E+04  0.12699999809E+01 0.  1.
       -4    1    3    3    0  502 -0.95389540309E+03 -0.10984826817E+04 -0.20517891519E+04  0.25152377579E+04  0.12699999809E+01 0. -1.
</event>
<event>
 5   0  0.6729577E-07  0.3597539E+04  0.7818609E-02  0.8091056E-01
       -2   -1    0    0    0  501  0.00000000000E+00  0.00000000000E+00  0.24449611973E+04  0.24449611973E+04  0.25500000920E-02 0.  1.
        2   -1    0    0  501    0  0.00000000000E+00  0.00000000000E+00 -0.13233629658E+04  0.13233629658E+04  0.25500000920E-02 0. -1.
    10030    2    1    2    0    0  0.00000000000E+00  0.00000000000E+00  0.11215982315E+04  0.37683241631E+04  0.35975386594E+04 0.  0.
        3    1    3    3  502    0  0.99217873360E+03 -0.15001839950E+04  0.53513212042E+03  0.18765225964E+04  0.10100000352E+00 0.  1.
       -3    1    3    3    0  502 -0.99217873360E+03  0.15001839950E+04  0.58646611104E+03  0.18918015667E+04  0.10100000352E+00 0. -1.
</event>
<event>
 5   0  0.6324216E-07  0.3365354E+04  0.7818609E-02  0.8146462E-01
        2   -1    0    0  501    0  0.00000000000E+00  0.00000000000E+00  0.19497313350E+04  0.19497313350E+04  0.25500000920E-02 0.  1.
       -2   -1    0    0    0  501  0.00000000000E+00  0.00000000000E+00 -0.14522010360E+04  0.14522010360E+04  0.25500000920E-02 0. -1.
    10030    2    1    2    0    0  0.00000000000E+00  0.00000000000E+00  0.49753029899E+03  0.34019323710E+04  0.33653539871E+04 0.  0.
        2    1    3    3  502    0 -0.11468808463E+03  0.15483991556E+04 -0.40690528215E+03  0.16050748302E+04  0.25500000920E-02 0.  1.
       -2    1    3    3    0  502  0.11468808463E+03 -0.15483991556E+04  0.90443558114E+03  0.17968575409E+04  0.25500000920E-02 0. -1.
</event>
<event>
 5   0  0.2193129E-07  0.3852252E+04  0.7818609E-02  0.8035034E-01
       -1   -1    0    0    0  501  0.00000000000E+00  0.00000000000E+00  0.15315597078E+04  0.15315597078E+04  0.50400001928E-02 0. -1.
        1   -1    0    0  501    0  0.00000000000E+00  0.00000000000E+00 -0.24223424588E+04  0.24223424588E+04  0.50400001928E-02 0.  1.
    10030    2    1    2    0    0  0.00000000000E+00  0.00000000000E+00 -0.89078275098E+03  0.39539021666E+04  0.38522523844E+04 0.  0.
        1    1    3    3  502    0  0.81933004312E+03  0.49119906291E+03 -0.21620629646E+04  0.23637035562E+04  0.50400001928E-02 0.  1.
       -1    1    3    3    0  502 -0.81933004312E+03 -0.49119906291E+03  0.12712802136E+04  0.15901986104E+04  0.50400001928E-02 0. -1.
</event>
<event>
 5   0  0.6848661E-07  0.3612671E+04  0.7818609E-02  0.8087595E-01
        2   -1    0    0  501    0  0.00000000000E+00  0.00000000000E+00  0.22891587283E+04  0.22891587283E+04  0.25500000920E-02 0.  1.
       -2   -1    0    0    0  501  0.00000000000E+00  0.00000000000E+00 -0.14253480212E+04  0.14253480212E+04  0.25500000920E-02 0. -1.
    10030    2    1    2    0    0  0.00000000000E+00  0.00000000000E+00  0.86381070713E+03  0.37145067495E+04  0.36126709585E+04 0.  0.
        1    1    3    3  502    0 -0.85332964968E+03  0.13594213138E+04 -0.42009637600E+03  0.16591198765E+04  0.50400001928E-02 0. -1.
       -1    1    3    3    0  502  0.85332964968E+03 -0.13594213138E+04  0.12839070831E+04  0.20553868730E+04  0.50400001928E-02 0.  1.
</event>
<event>
 5   0  0.2086250E-07  0.3592456E+04  0.7818609E-02  0.8092222E-01
        1   -1    0    0  501    0  0.00000000000E+00  0.00000000000E+00  0.25677598910E+04  0.25677598910E+04  0.50400001928E-02 0.  1.
       -1   -1    0    0    0  501  0.00000000000E+00  0.00000000000E+00 -0.12565170825E+04  0.12565170825E+04  0.50400001928E-02 0. -1.
    10030    2    1    2    0    0  0.00000000000E+00  0.00000000000E+00  0.13112428085E+04  0.38242769734E+04  0.35924555205E+04 0.  0.
        2    1    3    3  502    0 -0.91221757932E+03 -0.41790070408E+03  0.22416112746E+04  0.24559322094E+04  0.25500000920E-02 0.  1.
       -2    1    3    3    0  502  0.91221757932E+03  0.41790070408E+03 -0.93036846614E+03  0.13683447640E+04  0.25500000920E-02 0. -1.
</event>
<event>
 5   0  0.6669864E-07  0.3725050E+04  0.7818609E-02  0.8062433E-01
       -2   -1    0    0    0  501  0.00000000000E+00  0.00000000000E+00  0.15657190197E+04  0.15657190197E+04  0.25500000920E-02 0.  1.
        2   -1    0    0  501    0  0.00000000000E+00  0.00000000000E+00 -0.22155952884E+04  0.22155952884E+04  0.25500000920E-02 0. -1.
    10030    2    1    2    0    0  0.00000000000E+00  0.00000000000E+00 -0.64987626867E+03  0.37813143082E+04  0.37250501651E+04 0.  0.
        5    1    3    3  502    0 -0.60157327477E+03 -0.74929446462E+03 -0.19445448596E+04  0.21690111574E+04  0.46999998093E+01 0. -1.
       -5    1    3    3    0  502  0.60157327477E+03  0.74929446462E+03  0.12946685910E+04  0.16123031508E+04  0.46999998093E+01 0.  1.
</event>
<event>
 5   0  0.2086250E-07  0.3582913E+04  0.7818609E-02  0.8094417E-01
       -1   -1    0    0    0  501  0.00000000000E+00  0.00000000000E+00  0.14001744958E+04  0.14001744958E+04  0.50400001928E-02 0. -1.
        1   -1    0    0  501    0  0.00000000000E+00  0.00000000000E+00 -0.22920825345E+04  0.22920825345E+04  0.50400001928E-02 0.  1.
    10030    2    1    2    0    0  0.00000000000E+00  0.00000000000E+00 -0.89190803869E+03  0.36922570303E+04  0.35829125063E+04 0.  0.
        2    1    3    3  502    0  0.55639164408E+03 -0.15796628418E+04 -0.11012933160E+04  0.20044334170E+04  0.25500000920E-02 0.  1.
       -2    1    3    3    0  502 -0.55639164408E+03  0.15796628418E+04  0.20938527731E+03  0.16878236133E+04  0.25500000920E-02 0. -1.
</event>
<event>
 5   0  0.2086250E-07  0.3563484E+04  0.7818609E-02  0.8098908E-01
       -1   -1    0    0    0  501  0.00000000000E+00  0.00000000000E+00  0.25332333024E+04  0.25332333024E+04  0.50400001928E-02 0.  1.
        1   -1    0    0  501    0  0.00000000000E+00  0.00000000000E+00 -0.12531829449E+04  0.12531829450E+04  0.50400001928E-02 0. -1.
    10030    2    1    2    0    0  0.00000000000E+00  0.00000000000E+00  0.12800503574E+04  0.37864162473E+04  0.35634841210E+04 0.  0.
        3    1    3    3  502    0 -0.12085624384E+04  0.33566405853E+03 -0.70456954303E+03  0.14386492897E+04  0.10100000352E+00 0. -1.
       -3    1    3    3    0  502  0.12085624384E+04 -0.33566405853E+03  0.19846199004E+04  0.23477669576E+04  0.10100000352E+00 0.  1.
</event>
<event>
 5   0  0.2108068E-07  0.3625442E+04  0.7818609E-02  0.8084689E-01
        1   -1    0    0  501    0  0.00000000000E+00  0.00000000000E+00  0.25051380623E+04  0.25051380623E+04  0.50400001928E-02 0.  1.
       -1   -1    0    0    0  501  0.00000000000E+00  0.00000000000E+00 -0.13116873890E+04  0.13116873890E+04  0.50400001928E-02 0. -1.
    10030    2    1    2    0    0  0.00000000000E+00  0.00000000000E+00  0.11934506733E+04  0.38168254514E+04  0.36254423201E+04 0.  0.
        5    1    3    3  502    0 -0.68685710891E+03 -0.77574071298E+03 -0.96920378559E+03  0.14187756728E+04  0.46999998093E+01 0. -1.
       -5    1    3    3    0  502  0.68685710891E+03  0.77574071298E+03  0.21626544589E+04  0.23980497785E+04  0.46999998093E+01 0.  1.
</event>
<event>
 5   0  0.6848661E-07  0.3590689E+04  0.7818609E-02  0.8092628E-01
       -2   -1    0    0    0  501  0.00000000000E+00  0.00000000000E+00  0.22208770013E+04  0.22208770013E+04  0.25500000920E-02 0.  1.
        2   -1    0    0  501    0  0.00000000000E+00  0.00000000000E+00 -0.14513466658E+04  0.14513466658E+04  0.25500000920E-02 0. -1.
    10030    2    1    2    0    0  0.00000000000E+00  0.00000000000E+00  0.76953033545E+03  0.36722236671E+04  0.35906893104E+04 0.  0.
        1    1    3    3  502    0 -0.15513572901E+04 -0.86000275991E+03  0.10107084241E+03  0.17766624620E+04  0.50400001928E-02 0. -1.
       -1    1    3    3    0  502  0.15513572901E+04  0.86000275991E+03  0.66845949304E+03  0.18955612051E+04  0.50400001928E-02 0.  1.
</event>
<event>
 5   0  0.2086250E-07  0.3463092E+04  0.7818609E-02  0.8122593E-01
       -1   -1    0    0    0  501  0.00000000000E+00  0.00000000000E+00  0.12715256411E+04  0.12715256411E+04  0.50400001928E-02 0. -1.
        1   -1    0    0  501    0  0.00000000000E+00  0.00000000000E+00 -0.23579958760E+04  0.23579958760E+04  0.50400001928E-02 0.  1.
    10030    2    1    2    0    0  0.00000000000E+00  0.00000000000E+00 -0.10864702349E+04  0.36295215171E+04  0.34630923857E+04 0.  0.
        3    1    3    3  502    0  0.11940987480E+04  0.31107736822E+03  0.72989056172E+03  0.14336600682E+04  0.10100000352E+00 0. -1.
       -3    1    3    3    0  502 -0.11940987480E+04 -0.31107736822E+03 -0.18163607966E+04  0.21958614489E+04  0.10100000352E+00 0.  1.
</event>
<event>
 5   0  0.6324216E-07  0.3589698E+04  0.7818609E-02  0.8092856E-01
       -2   -1    0    0    0  501  0.00000000000E+00  0.00000000000E+00  0.20380893262E+04  0.20380893262E+04  0.25500000920E-02 0.  1.
        2   -1    0    0  501    0  0.00000000000E+00  0.00000000000E+00 -0.15806384471E+04  0.15806384471E+04  0.25500000920E-02 0. -1.
    10030    2    1    2    0    0  0.00000000000E+00  0.00000000000E+00  0.45745087910E+03  0.36187277733E+04  0.35896976740E+04 0.  0.
        2    1    3    3  502    0  0.99996975076E+03  0.51947222801E+03 -0.11796019307E+04  0.16313343045E+04  0.25500000920E-02 0. -1.
       -2    1    3    3    0  502 -0.99996975076E+03 -0.51947222801E+03  0.16370528098E+04  0.19873934689E+04  0.25500000920E-02 0.  1.
</event>
<event>
 5   0  0.2086250E-07  0.3477440E+04  0.7818609E-02  0.8119157E-01
       -1   -1    0    0    0  501  0.00000000000E+00  0.00000000000E+00  0.16834585284E+04  0.16834585284E+04  0.50400001928E-02 0. -1.
        1   -1    0    0  501    0  0.00000000000E+00  0.00000000000E+00 -0.17957950532E+04  0.17957950532E+04  0.50400001928E-02 0.  1.
    10030    2    1    2    0    0  0.00000000000E+00  0.00000000000E+00 -0.11233652481E+03  0.34792535816E+04  0.34774395740E+04 0.  0.
        4    1    3    3  502    0  0.99376161743E+03 -0.95350262649E+03 -0.11180491269E+04  0.17739123073E+04  0.12699999809E+01 0.  1.
       -4    1    3    3    0  502 -0.99376161743E+03  0.95350262649E+03  0.10057126021E+04  0.17053412743E+04  0.12699999809E+01 0. -1.
</event>
<event>
 5   0  0.2108068E-07  0.3603016E+04  0.7818609E-02  0.8089801E-01
        1   -1    0    0  501    0  0.00000000000E+00  0.00000000000E+00  0.14287761358E+04  0.14287761358E+04  0.50400001928E-02 0.  1.
       -1   -1    0    0    0  501  0.00000000000E+00  0.00000000000E+00 -0.22714757411E+04  0.22714757411E+04  0.50400001928E-02 0. -1.
    10030    2    1    2    0    0  0.00000000000E+00  0.00000000000E+00 -0.84269960525E+03  0.37002518769E+04  0.36030155880E+04 0.  0.
        5    1    3    3  502    0  0.67229515655E+03  0.12188596747E+04  0.75310750360E+03  0.15826536849E+04  0.46999998093E+01 0.  1.
       -5    1    3    3    0  502 -0.67229515655E+03 -0.12188596747E+04 -0.15958071088E+04  0.21175981920E+04  0.46999998093E+01 0. -1.
</event>
<event>
 5   0  0.6669864E-07  0.3616735E+04  0.7818609E-02  0.8086669E-01
       -2   -1    0    0    0  501  0.00000000000E+00  0.00000000000E+00  0.24197290184E+04  0.24197290184E+04  0.25500000920E-02 0.  1.
        2   -1    0    0  501    0  0.00000000000E+00  0.00000000000E+00 -0.13514705545E+04  0.13514705545E+04  0.25500000920E-02 0. -1.
    10030    2    1    2    0    0  0.00000000000E+00  0.00000000000E+00  0.10682584639E+04  0.37711995728E+04  0.36167347252E+04 0.  0.
        5    1    3    3  502    0 -0.82769688013E+03  0.11143077726E+04  0.17426846820E+04  0.22279443279E+04  0.46999998093E+01 0.  1.
       -5    1    3    3    0  502  0.82769688013E+03 -0.11143077726E+04 -0.67442621806E+03  0.15432552449E+04  0.46999998093E+01 0. -1.
</event>
<event>
 5   0  0.2108068E-07  0.3632441E+04  0.7818609E-02  0.8083101E-01
       -1   -1    0    0    0  501  0.00000000000E+00  0.00000000000E+00  0.13905730745E+04  0.13905730745E+04  0.50400001928E-02 0.  1.
        1   -1    0    0  501    0  0.00000000000E+00  0.00000000000E+00 -0.23721558833E+04  0.23721558833E+04  0.50400001928E-02 0. -1.
    10030    2    1    2    0    0  0.00000000000E+00  0.00000000000E+00 -0.98158280885E+03  0.37627289578E+04  0.36324405569E+04 0.  0.
        5    1    3    3  502    0 -0.23782216464E+03  0.11426041955E+04 -0.19322977742E+04  0.22574101328E+04  0.46999998093E+01 0. -1.
       -5    1    3    3    0  502  0.23782216464E+03 -0.11426041955E+04  0.95071496534E+03  0.15053188250E+04  0.46999998093E+01 0.  1.
</event>
<event>
 5   0  0.2086250E-07  0.3593220E+04  0.7818609E-02  0.8092046E-01
        1   -1    0    0  501    0  0.00000000000E+00  0.00000000000E+00  0.17328985463E+04  0.17328985463E+04  0.50400001928E-02 0.  1.
       -1   -1    0    0    0  501  0.00000000000E+00  0.00000000000E+00 -0.18626642883E+04  0.18626642883E+04  0.50400001928E-02 0. -1.
    10030    2    1    2    0    0  0.00000000000E+00  0.00000000000E+00 -0.12976574197E+03  0.35955628346E+04  0.35932204149E+04 0.  0.
        2    1    3    3  502    0  0.28554551446E+03 -0.16908938532E+04  0.47133022268E+03  0.17784292065E+04  0.25500000920E-02 0. -1.
       -2    1    3    3    0  502 -0.28554551446E+03  0.16908938532E+04 -0.60109596465E+03  0.18171336281E+04  0.25500000920E-02 0.  1.
</event>
<event>
 5   0  0.6848661E-07  0.3718815E+04  0.7818609E-02  0.8063805E-01
       -2   -1    0    0    0  501  0.00000000000E+00  0.00000000000E+00  0.13573591123E+04  0.13573591123E+04  0.25500000920E-02 0.  1.
        2   -1    0    0  501    0  0.00000000000E+00  0.00000000000E+00 -0.25471497559E+04  0.25471497559E+04  0.25500000920E-02 0. -1.
    10030    2    1    2    0    0  0.00000000000E+00  0.00000000000E+00 -0.11897906436E+04  0.39045088682E+04  0.37188153659E+04 0.  0.
        1    1    3    3  502    0 -0.96529514449E+03 -0.14577830152E+04  0.69531684581E+02  0.17497887560E+04  0.50400001928E-02 0. -1.
       -1    1    3    3    0  502  0.96529514449E+03  0.14577830152E+04 -0.12593223282E+04  0.21547201122E+04  0.50400001928E-02 0.  1.
</event>
<event>
 5   0  0.2086250E-07  0.3465925E+04  0.7818609E-02  0.8121913E-01
       -1   -1    0    0    0  501  0.00000000000E+00  0.00000000000E+00  0.14351766331E+04  0.14351766331E+04  0.50400001928E-02 0. -1.
        1   -1    0    0  501    0  0.00000000000E+00  0.00000000000E+00 -0.20925362248E+04  0.20925362248E+04  0.50400001928E-02 0.  1.
    10030    2    1    2    0    0  0.00000000000E+00  0.00000000000E+00 -0.65735959163E+03  0.35277128579E+04  0.34659250389E+04 0.  0.
        4    1    3    3  502    0 -0.13228009852E+04  0.42386682054E+03 -0.13833432847E+04  0.19603840910E+04  0.12699999809E+01 0.  1.
       -4    1    3    3    0  502  0.13228009852E+04 -0.42386682054E+03  0.72598369303E+03  0.15673287669E+04  0.12699999809E+01 0. -1.
</event>
<event>
 5   0  0.6848661E-07  0.3655394E+04  0.7818609E-02  0.8077920E-01
        2   -1    0    0  501    0  0.00000000000E+00  0.00000000000E+00  0.15833700220E+04  0.15833700220E+04  0.25500000920E-02 0. -1.
       -2   -1    0    0    0  501  0.00000000000E+00  0.00000000000E+00 -0.21097257686E+04  0.21097257686E+04  0.25500000920E-02 0.  1.
    10030    2    1    2    0    0  0.00000000000E+00  0.00000000000E+00 -0.52635574653E+03  0.36930957906E+04  0.36553941165E+04 0.  0.
        1    1    3    3  502    0  0.72304994384E+03 -0.61560887905E+03 -0.18409186288E+04  0.20714142298E+04  0.50400001928E-02 0.  1.
       -1    1    3    3    0  502 -0.72304994384E+03  0.61560887905E+03  0.13145628823E+04  0.16216815608E+04  0.50400001928E-02 0. -1.
</event>
<event>
 5   0  0.6848661E-07  0.3553940E+04  0.7818609E-02  0.8101124E-01
       -2   -1    0    0    0  501  0.00000000000E+00  0.00000000000E+00  0.12165259325E+04  0.12165259325E+04  0.25500000920E-02 0.  1.
        2   -1    0    0  501    0  0.00000000000E+00  0.00000000000E+00 -0.25956066104E+04  0.25956066104E+04  0.25500000920E-02 0. -1.
    10030    2    1    2    0    0  0.00000000000E+00  0.00000000000E+00 -0.13790806778E+04  0.38121325429E+04  0.35539402089E+04 0.  0.
        1    1    3    3  502    0 -0.14057910379E+04 -0.10196064831E+04 -0.28565260996E+03  0.17599554642E+04  0.50400001928E-02 0.  1.
       -1    1    3    3    0  502  0.14057910379E+04  0.10196064831E+04 -0.10934280679E+04  0.20521770786E+04  0.50400001928E-02 0. -1.
</event>
<event>
 5   0  0.2086250E-07  0.3581060E+04  0.7818609E-02  0.8094844E-01
        1   -1    0    0  501    0  0.00000000000E+00  0.00000000000E+00  0.28397894158E+04  0.28397894158E+04  0.50400001928E-02 0.  1.
       -1   -1    0    0    0  501  0.00000000000E+00  0.00000000000E+00 -0.11289562151E+04  0.11289562151E+04  0.50400001928E-02 0. -1.
    10030    2    1    2    0    0  0.00000000000E+00  0.00000000000E+00  0.17108332008E+04  0.39687456309E+04  0.35810601283E+04 0.  0.
        4    1    3    3  502    0 -0.86495200284E+03 -0.46422323848E+02  0.25921343562E+04  0.27330311255E+04  0.12699999809E+01 0.  1.
       -4    1    3    3    0  502  0.86495200284E+03  0.46422323848E+02 -0.88130115546E+03  0.12357145054E+04  0.12699999809E+01 0. -1.
</event>
<event>
 5   0  0.2108068E-07  0.3582001E+04  0.7818609E-02  0.8094627E-01
       -1   -1    0    0    0  501  0.00000000000E+00  0.00000000000E+00  0.19332383969E+04  0.19332383969E+04  0.50400001928E-02 0. -1.
        1   -1    0    0  501    0  0.00000000000E+00  0.00000000000E+00 -0.16592273208E+04  0.16592273208E+04  0.50400001928E-02 0.  1.
    10030    2    1    2    0    0  0.00000000000E+00  0.00000000000E+00  0.27401107611E+03  0.35924657177E+04  0.35820005392E+04 0.  0.
        5    1    3    3  502    0 -0.11954654145E+04  0.12376290721E+04  0.63524321989E+03  0.18342353491E+04  0.46999998093E+01 0. -1.
       -5    1    3    3    0  502  0.11954654145E+04 -0.12376290721E+04 -0.36123214378E+03  0.17582303686E+04  0.46999998093E+01 0.  1.
</event>
<event>
 5   0  0.6541476E-07  0.3172513E+04  0.7818609E-02  0.8196114E-01
        2   -1    0    0  501    0  0.00000000000E+00  0.00000000000E+00  0.13430616038E+04  0.13430616038E+04  0.25500000920E-02 0. -1.
       -2   -1    0    0    0  501  0.00000000000E+00  0.00000000000E+00 -0.18734883471E+04  0.18734883471E+04  0.25500000920E-02 0.  1.
    10030    2    1    2    0    0  0.00000000000E+00  0.00000000000E+00 -0.53042674332E+03  0.32165499508E+04  0.31725133658E+04 0.  0.
        4    1    3    3  502    0  0.67585564967E+03 -0.95490642677E+03 -0.13513353709E+04  0.17873824551E+04  0.12699999809E+01 0.  1.
       -4    1    3    3    0  502 -0.67585564967E+03  0.95490642677E+03  0.82090862763E+03  0.14291674957E+04  0.12699999809E+01 0. -1.
</event>
<event>
 5   0  0.2086250E-07  0.3630544E+04  0.7818609E-02  0.8083531E-01
       -1   -1    0    0    0  501  0.00000000000E+00  0.00000000000E+00  0.13942488767E+04  0.13942488767E+04  0.50400001928E-02 0. -1.
        1   -1    0    0  501    0  0.00000000000E+00  0.00000000000E+00 -0.23634319911E+04  0.23634319911E+04  0.50400001928E-02 0.  1.
    10030    2    1    2    0    0  0.00000000000E+00  0.00000000000E+00 -0.96918311435E+03  0.37576808678E+04  0.36305439806E+04 0.  0.
        4    1    3    3  502    0 -0.17590792284E+04 -0.54898840498E+02 -0.94495638750E+03  0.19975779839E+04  0.12699999809E+01 0.  1.
       -4    1    3    3    0  502  0.17590792284E+04  0.54898840498E+02 -0.24226726855E+02  0.17601028839E+04  0.12699999809E+01 0. -1.
</event>
<event>
 5   0  0.2193129E-07  0.3733194E+04  0.7818609E-02  0.8060645E-01
        1   -1    0    0  501    0  0.00000000000E+00  0.00000000000E+00  0.18554097737E+04  0.18554097737E+04  0.50400001928E-02 0. -1.
       -1   -1    0    0    0  501  0.00000000000E+00  0.00000000000E+00 -0.18778516185E+04  0.18778516185E+04  0.50400001928E-02 0.  1.
    10030    2    1    2    0    0  0.00000000000E+00  0.00000000000E+00 -0.22441844844E+02  0.37332613922E+04  0.37331939390E+04 0.  0.
        1    1    3    3  502    0  0.50933471961E+03 -0.17949259533E+04  0.43581638211E+02  0.18663012601E+04  0.50400001928E-02 0. -1.
       -1    1    3    3    0  502 -0.50933471961E+03  0.17949259533E+04 -0.66023483055E+02  0.18669601321E+04  0.50400001928E-02 0.  1.
</event>
<event>
 5   0  0.2108068E-07  0.3512090E+04  0.7818609E-02  0.8110931E-01
       -1   -1    0    0    0  501  0.00000000000E+00  0.00000000000E+00  0.20911833038E+04  0.20911833038E+04  0.50400001928E-02 0. -1.
        1   -1    0    0  501    0  0.00000000000E+00  0.00000000000E+00 -0.14746168196E+04  0.14746168196E+04  0.50400001928E-02 0.  1.
    10030    2    1    2    0    0  0.00000000000E+00  0.00000000000E+00  0.61656648427E+03  0.35658001234E+04  0.35120900175E+04 0.  0.
        5    1    3    3  502    0 -0.35253235507E+03 -0.81964180661E+03 -0.12273217819E+04  0.15173768809E+04  0.46999998093E+01 0.  1.
       -5    1    3    3    0  502  0.35253235507E+03  0.81964180661E+03  0.18438882661E+04  0.20484232425E+04  0.46999998093E+01 0. -1.
</event>
<event>
 5   0  0.6541476E-07  0.3599743E+04  0.7818609E-02  0.8090551E-01
       -2   -1    0    0    0  501  0.00000000000E+00  0.00000000000E+00  0.23004836132E+04  0.23004836132E+04  0.25500000920E-02 0. -1.
        2   -1    0    0  501    0  0.00000000000E+00  0.00000000000E+00 -0.14081980902E+04  0.14081980902E+04  0.25500000920E-02 0.  1.
    10030    2    1    2    0    0  0.00000000000E+00  0.00000000000E+00  0.89228552299E+03  0.37086817034E+04  0.35997425634E+04 0.  0.
        4    1    3    3  502    0  0.15802810886E+04  0.37636058759E+03 -0.35229408014E+03  0.16622419627E+04  0.12699999809E+01 0.  1.
       -4    1    3    3    0  502 -0.15802810886E+04 -0.37636058759E+03  0.12445796031E+04  0.20464397407E+04  0.12699999809E+01 0. -1.
</event>
<event>
 5   0  0.6324216E-07  0.3621084E+04  0.7818609E-02  0.8085679E-01
        2   -1    0    0  501    0  0.00000000000E+00  0.00000000000E+00  0.16898385565E+04  0.16898385565E+04  0.25500000920E-02 0. -1.
       -2   -1    0    0    0  501  0.00000000000E+00  0.00000000000E+00 -0.19398674304E+04  0.19398674304E+04  0.25500000920E-02 0.  1.
    10030    2    1    2    0    0  0.00000000000E+00  0.00000000000E+00 -0.25002887394E+03  0.36297059869E+04  0.36210842456E+04 0.  0.
        2    1    3    3  502    0 -0.16961473729E+04  0.63196472857E+03 -0.82873291440E+02  0.18119501404E+04  0.25500000920E-02 0.  1.
       -2    1    3    3    0  502  0.16961473729E+04 -0.63196472857E+03 -0.16715558250E+03  0.18177558465E+04  0.25500000920E-02 0. -1.
</event>
<event>
 5   0  0.2108068E-07  0.3609195E+04  0.7818609E-02  0.8088389E-01
       -1   -1    0    0    0  501  0.00000000000E+00  0.00000000000E+00  0.11285358430E+04  0.11285358430E+04  0.50400001928E-02 0.  1.
        1   -1    0    0  501    0  0.00000000000E+00  0.00000000000E+00 -0.28856610395E+04  0.28856610395E+04  0.50400001928E-02 0. -1.
    10030    2    1    2    0    0  0.00000000000E+00  0.00000000000E+00 -0.17571251965E+04  0.40141968825E+04  0.36091948763E+04 0.  0.
        5    1    3    3  502    0  0.13880775950E+04  0.70202263520E+03 -0.18960740276E+04  0.24524913860E+04  0.46999998093E+01 0. -1.
       -5    1    3    3    0  502 -0.13880775950E+04 -0.70202263520E+03  0.13894883110E+03  0.15617054965E+04  0.46999998093E+01 0.  1.
</event>
<event>
 5   0  0.2193129E-07  0.3628979E+04  0.7818609E-02  0.8083886E-01
       -1   -1    0    0    0  501  0.00000000000E+00  0.00000000000E+00  0.12865923337E+04  0.12865923337E+04  0.50400001928E-02 0. -1.
        1   -1    0    0  501    0  0.00000000000E+00  0.00000000000E+00 -0.25589857216E+04  0.25589857216E+04  0.50400001928E-02 0.  1.
    10030    2    1    2    0    0  0.00000000000E+00  0.00000000000E+00 -0.12723933879E+04  0.38455780553E+04  0.36289785953E+04 0.  0.
        1    1    3    3  502    0  0.57591676927E+02  0.17669287454E+04 -0.20312668593E+03  0.17794983684E+04  0.50400001928E-02 0. -1.
       -1    1    3    3    0  502 -0.57591676927E+02 -0.17669287454E+04 -0.10692667020E+04  0.20660796869E+04  0.50400001928E-02 0.  1.
</event>
<event>
 5   0  0.6729577E-07  0.3605693E+04  0.7818609E-02  0.8089189E-01
       -2   -1    0    0    0  501  0.00000000000E+00  0.00000000000E+00  0.28453575567E+04  0.28453575567E+04  0.25500000920E-02 0. -1.
        2   -1    0    0  501    0  0.00000000000E+00  0.00000000000E+00 -0.11423012871E+04  0.11423012871E+04  0.25500000920E-02 0.  1.
    10030    2    1    2    0    0  0.00000000000E+00  0.00000000000E+00  0.17030562696E+04  0.39876588438E+04  0.36056930537E+04 0.  0.
        3    1    3    3  502    0 -0.61431503154E+03  0.10405710712E+04  0.23312020100E+04  0.26257711122E+04  0.10100000352E+00 0. -1.
       -3    1    3    3    0  502  0.61431503154E+03 -0.10405710712E+04 -0.62814574043E+03  0.13618877316E+04  0.10100000352E+00 0.  1.
</event>
<event>
 5   0  0.6541476E-07  0.3679089E+04  0.7818609E-02  0.8072612E-01
        2   -1    0    0  501    0  0.00000000000E+00  0.00000000000E+00  0.19314815436E+04  0.19314815436E+04  0.25500000920E-02 0.  1.
       -2   -1    0    0    0  501  0.00000000000E+00  0.00000000000E+00 -0.17519834298E+04  0.17519834298E+04  0.25500000920E-02 0. -1.
    10030    2    1    2    0    0  0.00000000000E+00  0.00000000000E+00  0.17949811377E+03  0.36834649734E+04  0.36790888325E+04 0.  0.
        4    1    3    3  502    0 -0.81057890293E+03 -0.67198489361E+03  0.15999597144E+04  0.19153262269E+04  0.12699999809E+01 0.  1.
       -4    1    3    3    0  502  0.81057890293E+03  0.67198489361E+03 -0.14204616006E+04  0.17681387465E+04  0.12699999809E+01 0. -1.
</event>
<event>
 5   0  0.6541476E-07  0.3632910E+04  0.7818609E-02  0.8082995E-01
        2   -1    0    0  501    0  0.00000000000E+00  0.00000000000E+00  0.16585220736E+04  0.16585220736E+04  0.25500000920E-02 0. -1.
       -2   -1    0    0    0  501  0.00000000000E+00  0.00000000000E+00 -0.19894270734E+04  0.19894270734E+04  0.25500000920E-02 0.  1.
    10030    2    1    2    0    0  0.00000000000E+00  0.00000000000E+00 -0.33090499986E+03  0.36479491470E+04  0.36329099714E+04 0.  0.
        4    1    3    3  502    0  0.69190965842E+02 -0.14250664340E+04 -0.12943419638E+04  0.19263759922E+04  0.12699999809E+01 0.  1.
       -4    1    3    3    0  502 -0.69190965842E+02  0.14250664340E+04  0.96343696391E+03  0.17215731548E+04  0.12699999809E+01 0. -1.
</event>
<event>
 5   0  0.2086250E-07  0.3606234E+04  0.7818609E-02  0.8089065E-01
        1   -1    0    0  501    0  0.00000000000E+00  0.00000000000E+00  0.21356957229E+04  0.21356957229E+04  0.50400001928E-02 0. -1.
       -1   -1    0    0    0  501  0.00000000000E+00  0.00000000000E+00 -0.15223290262E+04  0.15223290262E+04  0.50400001928E-02 0.  1.
    10030    2    1    2    0    0  0.00000000000E+00  0.00000000000E+00  0.61336669671E+03  0.36580247492E+04  0.36062343741E+04 0.  0.
        3    1    3    3  502    0  0.10079919675E+03 -0.41983206033E+03 -0.14691189781E+04  0.15312511287E+04  0.10100000352E+00 0.  1.
       -3    1    3    3    0  502 -0.10079919675E+03  0.41983206033E+03  0.20824856748E+04  0.21267736205E+04  0.10100000352E+00 0. -1.
</event>
<event>
 5   0  0.2108068E-07  0.3498977E+04  0.7818609E-02  0.8114032E-01
       -1   -1    0    0    0  501  0.00000000000E+00  0.00000000000E+00  0.14525791350E+04  0.14525791350E+04  0.50400001928E-02 0.  1.
        1   -1    0    0  501    0  0.00000000000E+00  0.00000000000E+00 -0.21070866864E+04  0.21070866864E+04  0.50400001928E-02 0. -1.
    10030    2    1    2    0    0  0.00000000000E+00  0.00000000000E+00 -0.65450755135E+03  0.35596658214E+04  0.34989770827E+04 0.  0.
        5    1    3    3  502    0  0.91979540519E+03 -0.12252715056E+04  0.53201065592E+03  0.16218419398E+04  0.46999998093E+01 0. -1.
       -5    1    3    3    0  502 -0.91979540519E+03  0.12252715056E+04 -0.11865182073E+04  0.19378238816E+04  0.46999998093E+01 0.  1.
</event>
<event>
 5   0  0.2086250E-07  0.3588716E+04  0.7818609E-02  0.8093081E-01
        1   -1    0    0  501    0  0.00000000000E+00  0.00000000000E+00  0.11779594783E+04  0.11779594783E+04  0.50400001928E-02 0. -1.
       -1   -1    0    0    0  501  0.00000000000E+00  0.00000000000E+00 -0.27333036393E+04  0.27333036393E+04  0.50400001928E-02 0.  1.
    10030    2    1    2    0    0  0.00000000000E+00  0.00000000000E+00 -0.15553441610E+04  0.39112631176E+04  0.35887161654E+04 0.  0.
        3    1    3    3  502    0 -0.17499461462E+04 -0.24112682248E+03 -0.11210567787E+04  0.20921811514E+04  0.10100000352E+00 0.  1.
       -3    1    3    3    0  502  0.17499461462E+04  0.24112682248E+03 -0.43428738225E+03  0.18190819662E+04  0.10100000352E+00 0. -1.
</event>
<event>
 5   0  0.2086250E-07  0.3585720E+04  0.7818609E-02  0.8093770E-01
       -1   -1    0    0    0  501  0.00000000000E+00  0.00000000000E+00  0.13834171196E+04  0.13834171196E+04  0.50400001928E-02 0.  1.
        1   -1    0    0  501    0  0.00000000000E+00  0.00000000000E+00 -0.23234841696E+04  0.23234841696E+04  0.50400001928E-02 0. -1.
    10030    2    1    2    0    0  0.00000000000E+00  0.00000000000E+00 -0.94006704995E+03  0.37069012892E+04  0.35857204450E+04 0.  0.
        2    1    3    3  502    0  0.11288676077E+03 -0.15945250096E+04 -0.13093164515E+04  0.20662920890E+04  0.25500000920E-02 0. -1.
       -2    1    3    3    0  502 -0.11288676077E+03  0.15945250096E+04  0.36924940151E+03  0.16406092002E+04  0.25500000920E-02 0.  1.
</event>
<event>
 5   0  0.6729577E-07  0.3614318E+04  0.7818609E-02  0.8087220E-01
        2   -1    0    0  501    0  0.00000000000E+00  0.00000000000E+00  0.25832857983E+04  0.25832857983E+04  0.25500000920E-02 0.  1.
       -2   -1    0    0    0  501  0.00000000000E+00  0.00000000000E+00 -0.12642127960E+04  0.12642127960E+04  0.25500000920E-02 0. -1.
    10030    2    1    2    0    0  0.00000000000E+00  0.00000000000E+00  0.13190730022E+04  0.38474985943E+04  0.36143176186E+04 0.  0.
        3    1    3    3  502    0  0.12010078589E+04 -0.12963411456E+04  0.10619498564E+04  0.20617123346E+04  0.10100000352E+00 0.  1.
       -3    1    3    3    0  502 -0.12010078589E+04  0.12963411456E+04  0.25712314586E+03  0.17857862597E+04  0.10100000352E+00 0. -1.
</event>
<event>
 5   0  0.6729577E-07  0.3614383E+04  0.7818609E-02  0.8087205E-01
        2   -1    0    0  501    0  0.00000000000E+00  0.00000000000E+00  0.10860492682E+04  0.10860492682E+04  0.25500000920E-02 0. -1.
       -2   -1    0    0    0  501  0.00000000000E+00  0.00000000000E+00 -0.30071754665E+04  0.30071754665E+04  0.25500000920E-02 0.  1.
    10030    2    1    2    0    0  0.00000000000E+00  0.00000000000E+00 -0.19211261984E+04  0.40932247347E+04  0.36143827770E+04 0.  0.
        3    1    3    3  502    0 -0.16756459206E+04 -0.15692071404E+03 -0.17062211181E+04  0.23965817064E+04  0.10100000352E+00 0. -1.
       -3    1    3    3    0  502  0.16756459206E+04  0.15692071404E+03 -0.21490508032E+03  0.16966430283E+04  0.10100000352E+00 0.  1.
</event>
<event>
 5   0  0.2086250E-07  0.3622479E+04  0.7818609E-02  0.8085362E-01
        1   -1    0    0  501    0  0.00000000000E+00  0.00000000000E+00  0.25752840414E+04  0.25752840414E+04  0.50400001928E-02 0. -1.
       -1   -1    0    0    0  501  0.00000000000E+00  0.00000000000E+00 -0.12738741374E+04  0.12738741374E+04  0.50400001928E-02 0.  1.
    10030    2    1    2    0    0  0.00000000000E+00  0.00000000000E+00  0.13014099040E+04  0.38491581788E+04  0.36224785640E+04 0.  0.
        3    1    3    3  502    0 -0.95547527081E+03  0.66273023010E+03  0.21262870578E+04  0.24234770503E+04  0.10100000352E+00 0. -1.
       -3    1    3    3    0  502  0.95547527081E+03 -0.66273023010E+03 -0.82487715380E+03  0.14256811285E+04  0.10100000352E+00 0.  1.
</event>
<event>
 5   0  0.6324216E-07  0.3595281E+04  0.7818609E-02  0.8091573E-01
        2   -1    0    0  501    0  0.00000000000E+00  0.00000000000E+00  0.13303095088E+04  0.13303095088E+04  0.25500000920E-02 0.  1.
       -2   -1    0    0    0  501  0.00000000000E+00  0.00000000000E+00 -0.24291426264E+04  0.24291426264E+04  0.25500000920E-02 0. -1.
    10030    2    1    2    0    0  0.00000000000E+00  0.00000000000E+00 -0.10988331176E+04  0.37594521352E+04  0.35952810929E+04 0.  0.
        2    1    3    3  502    0  0.11466498622E+04 -0.70818542972E+03  0.69451761904E+03  0.15161422204E+04  0.25500000920E-02 0.  1.
       -2    1    3    3    0  502 -0.11466498622E+04  0.70818542972E+03 -0.17933507366E+04  0.22433099148E+04  0.25500000920E-02 0. -1.
</event>
<event>
 5   0  0.6848661E-07  0.3605277E+04  0.7818609E-02  0.8089284E-01
       -2   -1    0    0    0  501  0.00000000000E+00  0.00000000000E+00  0.13817519111E+04  0.13817519111E+04  0.25500000920E-02 0. -1.
        2   -1    0    0  501    0  0.00000000000E+00  0.00000000000E+00 -0.23517281261E+04  0.23517281261E+04  0.25500000920E-02 0.  1.
    10030    2    1    2    0    0  0.00000000000E+00  0.00000000000E+00 -0.96997621504E+03  0.37334800372E+04  0.36052765956E+04 0.  0.
        1    1    3    3  502    0  0.97498697211E+03  0.25334503108E+03  0.10630689050E+04  0.14645473012E+04  0.50400001928E-02 0. -1.
       -1    1    3    3    0  502 -0.97498697211E+03 -0.25334503108E+03 -0.20330451200E+04  0.22689327360E+04  0.50400001928E-02 0.  1.
</event>
<event>
 5   0  0.6541476E-07  0.3591769E+04  0.7818609E-02  0.8092380E-01
        2   -1    0    0  501    0  0.00000000000E+00  0.00000000000E+00  0.20050677302E+04  0.20050677302E+04  0.25500000920E-02 0. -1.
       -2   -1    0    0    0  501  0.00000000000E+00  0.00000000000E+00 -0.16085248502E+04  0.16085248502E+04  0.25500000920E-02 0.  1.
    10030    2    1    2    0    0  0.00000000000E+00  0.00000000000E+00  0.39654288001E+03  0.36135925804E+04  0.35917690741E+04 0.  0.
        4    1    3    3  502    0  0.11531694961E+04 -0.88280282663E+03 -0.86458435405E+03  0.16901622513E+04  0.12699999809E+01 0.  1.
       -4    1    3    3    0  502 -0.11531694961E+04  0.88280282663E+03  0.12611272341E+04  0.19234303291E+04  0.12699999809E+01 0. -1.
</event>
<event>
 5   0  0.2108068E-07  0.3542574E+04  0.7818609E-02  0.8103774E-01
       -1   -1    0    0    0  501  0.00000000000E+00  0.00000000000E+00  0.26693306357E+04  0.26693306357E+04  0.50400001928E-02 0. -1.
        1   -1    0    0  501    0  0.00000000000E+00  0.00000000000E+00 -0.11753723760E+04  0.11753723760E+04  0.50400001928E-02 0.  1.
    10030    2    1    2    0    0  0.00000000000E+00  0.00000000000E+00  0.14939582597E+04  0.38447030117E+04  0.35425739183E+04 0.  0.
        5    1    3    3  502    0 -0.65495018036E+03 -0.12147070247E+04  0.19520672695E+04  0.23906195033E+04  0.46999998093E+01 0. -1.
       -5    1    3    3    0  502  0.65495018036E+03  0.12147070247E+04 -0.45810900986E+03  0.14540835084E+04  0.46999998093E+01 0.  1.
</event>
<event>
 5   0  0.6848661E-07  0.3585032E+04  0.7818609E-02  0.8093929E-01
       -2   -1    0    0    0  501  0.00000000000E+00  0.00000000000E+00  0.29055459892E+04  0.29055459892E+04  0.25500000920E-02 0. -1.
        2   -1    0    0  501    0  0.00000000000E+00  0.00000000000E+00 -0.11058555806E+04  0.11058555806E+04  0.25500000920E-02 0.  1.
    10030    2    1    2    0    0  0.00000000000E+00  0.00000000000E+00  0.17996904087E+04  0.40114015698E+04  0.35850323551E+04 0.  0.
        1    1    3    3  502    0 -0.17354429410E+04  0.36191565483E+03  0.60302458214E+03  0.18725340556E+04  0.50400001928E-02 0.  1.
       -1    1    3    3    0  502  0.17354429410E+04 -0.36191565483E+03  0.11966658265E+04  0.21388675142E+04  0.50400001928E-02 0. -1.
</event>
<event>
 5   0  0.6729577E-07  0.3721054E+04  0.7818609E-02  0.8063312E-01
        2   -1    0    0  501    0  0.00000000000E+00  0.00000000000E+00  0.19719247708E+04  0.19719247708E+04  0.25500000920E-02 0.  1.
       -2   -1    0    0    0  501  0.00000000000E+00  0.00000000000E+00 -0.17554225766E+04  0.17554225766E+04  0.25500000920E-02 0. -1.
    10030    2    1    2    0    0  0.00000000000E+00  0.00000000000E+00  0.21650219417E+03  0.37273473474E+04  0.37210542925E+04 0.  0.
        3    1    3    3  502    0  0.11325194423E+04  0.67005470694E+03 -0.12092632747E+04  0.17871461259E+04  0.10100000352E+00 0. -1.
       -3    1    3    3    0  502 -0.11325194423E+04 -0.67005470694E+03  0.14257654689E+04  0.19402012215E+04  0.10100000352E+00 0.  1.
</event>
<event>
 5   0  0.2086250E-07  0.3608319E+04  0.7818609E-02  0.8088589E-01
        1   -1    0    0  501    0  0.00000000000E+00  0.00000000000E+00  0.16195037371E+04  0.16195037371E+04  0.50400001928E-02 0. -1.
       -1   -1    0    0    0  501  0.00000000000E+00  0.00000000000E+00 -0.20098697321E+04  0.20098697321E+04  0.50400001928E-02 0.  1.
    10030    2    1    2    0    0  0.00000000000E+00  0.00000000000E+00 -0.39036599497E+03  0.36293734692E+04  0.36083190226E+04 0.  0.
        4    1    3    3  502    0  0.18553116338E+03  0.17922614690E+04 -0.28718772764E+03  0.18245825247E+04  0.12699999809E+01 0. -1.
       -4    1    3    3    0  502 -0.18553116338E+03 -0.17922614690E+04 -0.10317826733E+03  0.18047909445E+04  0.12699999809E+01 0.  1.
</event>
<event>
 5   0  0.6669864E-07  0.4228122E+04  0.7818609E-02  0.7960044E-01
        2   -1    0    0  501    0  0.00000000000E+00  0.00000000000E+00  0.18021296793E+04  0.18021296793E+04  0.25500000920E-02 0. -1.
       -2   -1    0    0    0  501  0.00000000000E+00  0.00000000000E+00 -0.24799850751E+04  0.24799850751E+04  0.25500000920E-02 0.  1.
    10030    2    1    2    0    0  0.00000000000E+00  0.00000000000E+00 -0.67785539577E+03  0.42821147544E+04  0.42281223767E+04 0.  0.
        5    1    3    3  502    0  0.97695669470E+03  0.17817104647E+04 -0.92972596100E+03  0.22345802773E+04  0.46999998093E+01 0.  1.
       -5    1    3    3    0  502 -0.97695669470E+03 -0.17817104647E+04  0.25187056524E+03  0.20475344771E+04  0.46999998093E+01 0. -1.
</event>
<event>
 5   0  0.6324216E-07  0.3597389E+04  0.7818609E-02  0.8091090E-01
        2   -1    0    0  501    0  0.00000000000E+00  0.00000000000E+00  0.12772451885E+04  0.12772451885E+04  0.25500000920E-02 0. -1.
       -2   -1    0    0    0  501  0.00000000000E+00  0.00000000000E+00 -0.25330306368E+04  0.25330306368E+04  0.25500000920E-02 0.  1.
    10030    2    1    2    0    0  0.00000000000E+00  0.00000000000E+00 -0.12557854483E+04  0.38102758253E+04  0.35973886046E+04 0.  0.
        2    1    3    3  502    0  0.13033646859E+04 -0.11170151809E+04 -0.58670600837E+02  0.17175344708E+04  0.25500000920E-02 0. -1.
       -2    1    3    3    0  502 -0.13033646859E+04  0.11170151809E+04 -0.11971148475E+04  0.20927413545E+04  0.25500000920E-02 0.  1.
</event>
<event>
 5   0  0.6324216E-07  0.3331740E+04  0.7818609E-02  0.8154866E-01
        2   -1    0    0  501    0  0.00000000000E+00  0.00000000000E+00  0.25235911684E+04  0.25235911684E+04  0.25500000920E-02 0.  1.
       -2   -1    0    0    0  501  0.00000000000E+00  0.00000000000E+00 -0.10996719461E+04  0.10996719461E+04  0.25500000920E-02 0. -1.
    10030    2    1    2    0    0  0.00000000000E+00  0.00000000000E+00  0.14239192224E+04  0.36232631145E+04  0.33317397325E+04 0.  0.
        2    1    3    3  502    0 -0.66271163155E+03  0.83503432848E+03 -0.68014654236E+03  0.12645427456E+04  0.25500000920E-02 0. -1.
       -2    1    3    3    0  502  0.66271163155E+03 -0.83503432848E+03  0.21040657648E+04  0.23587203689E+04  0.25500000920E-02 0.  1.
</event>
<event>
 5   0  0.2086250E-07  0.3587772E+04  0.7818609E-02  0.8093298E-01
       -1   -1    0    0    0  501  0.00000000000E+00  0.00000000000E+00  0.14559856122E+04  0.14559856122E+04  0.50400001928E-02 0. -1.
        1   -1    0    0  501    0  0.00000000000E+00  0.00000000000E+00 -0.22102051578E+04  0.22102051578E+04  0.50400001928E-02 0.  1.
    10030    2    1    2    0    0  0.00000000000E+00  0.00000000000E+00 -0.75421954557E+03  0.36661907699E+04  0.35877719602E+04 0.  0.
        3    1    3    3  502    0  0.56213459804E+02  0.40433995165E+03 -0.21621092860E+04  0.22003107336E+04  0.10100000352E+00 0.  1.
       -3    1    3    3    0  502 -0.56213459804E+02 -0.40433995165E+03  0.14078897404E+04  0.14658800363E+04  0.10100000352E+00 0. -1.
</event>
<event>
 5   0  0.2086250E-07  0.3345010E+04  0.7818609E-02  0.8151536E-01
       -1   -1    0    0    0  501  0.00000000000E+00  0.00000000000E+00  0.15658185927E+04  0.15658185927E+04  0.50400001928E-02 0.  1.
        1   -1    0    0  501    0  0.00000000000E+00  0.00000000000E+00 -0.17864600643E+04  0.17864600643E+04  0.50400001928E-02 0. -1.
    10030    2    1    2    0    0  0.00000000000E+00  0.00000000000E+00 -0.22064147168E+03  0.33522786570E+04  0.33450096465E+04 0.  0.
        2    1    3    3  502    0  0.56011594816E+03 -0.34622254199E+03 -0.16510856669E+04  0.17775499440E+04  0.25500000920E-02 0. -1.
       -2    1    3    3    0  502 -0.56011594816E+03  0.34622254199E+03  0.14304441952E+04  0.15747287130E+04  0.25500000920E-02 0.  1.
</event>
<event>
 5   0  0.6848661E-07  0.3666300E+04  0.7818609E-02  0.8075471E-01
        2   -1    0    0  501    0  0.00000000000E+00  0.00000000000E+00  0.24840460846E+04  0.24840460846E+04  0.25500000920E-02 0.  1.
       -2   -1    0    0    0  501  0.00000000000E+00  0.00000000000E+00 -0.13528085095E+04  0.13528085095E+04  0.25500000920E-02 0. -1.
    10030    2    1    2    0    0  0.00000000000E+00  0.00000000000E+00  0.11312375751E+04  0.38368545940E+04  0.36662998683E+04 0.  0.
        1    1    3    3  502    0 -0.81699688916E+03 -0.95803333459E+02 -0.11488142594E+04  0.14129530771E+04  0.50400001928E-02 0. -1.
       -1    1    3    3    0  502  0.81699688916E+03  0.95803333459E+02  0.22800518345E+04  0.24239015169E+04  0.50400001928E-02 0.  1.
</event>
<event>
 5   0  0.2086250E-07  0.3580961E+04  0.7818609E-02  0.8094867E-01
       -1   -1    0    0    0  501  0.00000000000E+00  0.00000000000E+00  0.24531194190E+04  0.24531194190E+04  0.50400001928E-02 0. -1.
        1   -1    0    0  501    0  0.00000000000E+00  0.00000000000E+00 -0.13068343306E+04  0.13068343306E+04  0.50400001928E-02 0.  1.
    10030    2    1    2    0    0  0.00000000000E+00  0.00000000000E+00  0.11462850884E+04  0.37599537496E+04  0.35809611413E+04 0.  0.
        2    1    3    3  502    0 -0.16344714891E+03 -0.10929118944E+04 -0.90605024666E+03  0.14290200940E+04  0.25500000920E-02 0.  1.
       -2    1    3    3    0  502  0.16344714891E+03  0.10929118944E+04  0.20523353351E+04  0.23309336556E+04  0.25500000920E-02 0. -1.
</event>
<event>
 5   0  0.2108068E-07  0.3559106E+04  0.7818609E-02  0.8099924E-01
       -1   -1    0    0    0  501  0.00000000000E+00  0.00000000000E+00  0.12673477367E+04  0.12673477367E+04  0.50400001928E-02 0. -1.
        1   -1    0    0  501    0  0.00000000000E+00  0.00000000000E+00 -0.24987682653E+04  0.24987682653E+04  0.50400001928E-02 0.  1.
    10030    2    1    2    0    0  0.00000000000E+00  0.00000000000E+00 -0.12314205287E+04  0.37661160020E+04  0.35591056773E+04 0.  0.
        5    1    3    3  502    0  0.68245996383E+03  0.21143719618E+03 -0.23403315232E+04  0.24469636325E+04  0.46999998093E+01 0.  1.
       -5    1    3    3    0  502 -0.68245996383E+03 -0.21143719618E+03  0.11089109945E+04  0.13191523695E+04  0.46999998093E+01 0. -1.
</event>
<event>
 5   0  0.6669864E-07  0.3577471E+04  0.7818609E-02  0.8095672E-01
        2   -1    0    0  501    0  0.00000000000E+00  0.00000000000E+00  0.21389665707E+04  0.21389665707E+04  0.25500000920E-02 0.  1.
       -2   -1    0    0    0  501  0.00000000000E+00  0.00000000000E+00 -0.14958504582E+04  0.14958504582E+04  0.25500000920E-02 0. -1.
    10030    2    1    2    0    0  0.00000000000E+00  0.00000000000E+00  0.64311611250E+03  0.36348170290E+04  0.35774706847E+04 0.  0.
        5    1    3    3  502    0 -0.86366614124E+03 -0.10576171762E+04  0.14955359266E+04  0.20251229821E+04  0.46999998093E+01 0.  1.
       -5    1    3    3    0  502  0.86366614124E+03  0.10576171762E+04 -0.85241981411E+03  0.16096940468E+04  0.46999998093E+01 0. -1.
</event>
<event>
 5   0  0.2086250E-07  0.3563173E+04  0.7818609E-02  0.8098980E-01
       -1   -1    0    0    0  501  0.00000000000E+00  0.00000000000E+00  0.15948425192E+04  0.15948425192E+04  0.50400001928E-02 0.  1.
        1   -1    0    0  501    0  0.00000000000E+00  0.00000000000E+00 -0.19901964533E+04  0.19901964533E+04  0.50400001928E-02 0. -1.
    10030    2    1    2    0    0  0.00000000000E+00  0.00000000000E+00 -0.39535393403E+03  0.35850389725E+04  0.35631727016E+04 0.  0.
        2    1    3    3  502    0 -0.59390695354E+03  0.15233729560E+04 -0.90959197680E+03  0.18710286467E+04  0.25500000920E-02 0. -1.
       -2    1    3    3    0  502  0.59390695354E+03 -0.15233729560E+04  0.51423804277E+03  0.17140103258E+04  0.25500000920E-02 0.  1.
</event>
<event>
 5   0  0.2086250E-07  0.3591024E+04  0.7818609E-02  0.8092551E-01
        1   -1    0    0  501    0  0.00000000000E+00  0.00000000000E+00  0.23893642414E+04  0.23893642414E+04  0.50400001928E-02 0. -1.
       -1   -1    0    0    0  501  0.00000000000E+00  0.00000000000E+00 -0.13492554480E+04  0.13492554480E+04  0.50400001928E-02 0.  1.
    10030    2    1    2    0    0  0.00000000000E+00  0.00000000000E+00  0.10401087934E+04  0.37386196894E+04  0.35910236535E+04 0.  0.
        3    1    3    3  502    0 -0.15114992868E+04  0.88877574222E+03  0.11776563431E+03  0.17573904429E+04  0.10100000352E+00 0.  1.
       -3    1    3    3    0  502  0.15114992868E+04 -0.88877574222E+03  0.92234315907E+03  0.19812292465E+04  0.10100000352E+00 0. -1.
</event>
<event>
 5   0  0.2108068E-07  0.3575052E+04  0.7818609E-02  0.8096230E-01
       -1   -1    0    0    0  501  0.00000000000E+00  0.00000000000E+00  0.15793425401E+04  0.15793425401E+04  0.50400001928E-02 0.  1.
        1   -1    0    0  501    0  0.00000000000E+00  0.00000000000E+00 -0.20231512645E+04  0.20231512645E+04  0.50400001928E-02 0. -1.
    10030    2    1    2    0    0  0.00000000000E+00  0.00000000000E+00 -0.44380872445E+03  0.36024938046E+04  0.35750518078E+04 0.  0.
        5    1    3    3  502    0  0.13440005106E+04  0.66363898509E+03 -0.12032755844E+04  0.19221467939E+04  0.46999998093E+01 0. -1.
       -5    1    3    3    0  502 -0.13440005106E+04 -0.66363898509E+03  0.75946685997E+03  0.16803470107E+04  0.46999998093E+01 0.  1.
</event>
<event>
 5   0  0.6324216E-07  0.3599045E+04  0.7818609E-02  0.8090711E-01
       -2   -1    0    0    0  501  0.00000000000E+00  0.00000000000E+00  0.17411667045E+04  0.17411667045E+04  0.25500000920E-02 0.  1.
        2   -1    0    0  501    0  0.00000000000E+00  0.00000000000E+00 -0.18598338740E+04  0.18598338740E+04  0.25500000920E-02 0. -1.
    10030    2    1    2    0    0  0.00000000000E+00  0.00000000000E+00 -0.11866716956E+03  0.36010005785E+04  0.35990447718E+04 0.  0.
        2    1    3    3  502    0 -0.17220471243E+04 -0.45427436583E+03 -0.31729013361E+03  0.18090009748E+04  0.25500000920E-02 0.  1.
       -2    1    3    3    0  502  0.17220471243E+04  0.45427436583E+03  0.19862296405E+03  0.17919996037E+04  0.25500000920E-02 0. -1.
</event>
<event>
 5   0  0.6848661E-07  0.3591279E+04  0.7818609E-02  0.8092492E-01
        2   -1    0    0  501    0  0.00000000000E+00  0.00000000000E+00  0.27394400417E+04  0.27394400417E+04  0.25500000920E-02 0. -1.
       -2   -1    0    0    0  501  0.00000000000E+00  0.00000000000E+00 -0.11770002455E+04  0.11770002455E+04  0.25500000920E-02 0.  1.
    10030    2    1    2    0    0  0.00000000000E+00  0.00000000000E+00  0.15624397963E+04  0.39164402872E+04  0.35912792159E+04 0.  0.
        1    1    3    3  502    0 -0.32538405878E+03  0.16867170099E+04  0.21096708135E+03  0.17307212851E+04  0.50400001928E-02 0.  1.
       -1    1    3    3    0  502  0.32538405878E+03 -0.16867170099E+04  0.13514727149E+04  0.21857190021E+04  0.50400001928E-02 0. -1.
</event>
<event>
 5   0  0.2086250E-07  0.3535502E+04  0.7818609E-02  0.8105428E-01
       -1   -1    0    0    0  501  0.00000000000E+00  0.00000000000E+00  0.11692127200E+04  0.11692127200E+04  0.50400001928E-02 0. -1.
        1   -1    0    0  501    0  0.00000000000E+00  0.00000000000E+00 -0.26726905951E+04  0.26726905951E+04  0.50400001928E-02 0.  1.
    10030    2    1    2    0    0  0.00000000000E+00  0.00000000000E+00 -0.15034778751E+04  0.38419033150E+04  0.35355021371E+04 0.  0.
        3    1    3    3  502    0  0.14372431794E+04  0.50275460734E+02  0.36533288230E+03  0.14838004259E+04  0.10100000352E+00 0.  1.
       -3    1    3    3    0  502 -0.14372431794E+04 -0.50275460734E+02 -0.18688107574E+04  0.23581028892E+04  0.10100000352E+00 0. -1.
</event>
<event>
 5   0  0.6848661E-07  0.3586952E+04  0.7818609E-02  0.8093487E-01
       -2   -1    0    0    0  501  0.00000000000E+00  0.00000000000E+00  0.12404635617E+04  0.12404635617E+04  0.25500000920E-02 0.  1.
        2   -1    0    0  501    0  0.00000000000E+00  0.00000000000E+00 -0.25930272259E+04  0.25930272259E+04  0.25500000920E-02 0. -1.
    10030    2    1    2    0    0  0.00000000000E+00  0.00000000000E+00 -0.13525636642E+04  0.38334907876E+04  0.35869517913E+04 0.  0.
        1    1    3    3  502    0 -0.10953847955E+04  0.86477472989E+03  0.52757397461E+03  0.14919911134E+04  0.50400001928E-02 0.  1.
       -1    1    3    3    0  502  0.10953847955E+04 -0.86477472989E+03 -0.18801376388E+04  0.23414996743E+04  0.50400001928E-02 0. -1.
</event>
<event>
 5   0  0.6848661E-07  0.3599405E+04  0.7818609E-02  0.8090628E-01
       -2   -1    0    0    0  501  0.00000000000E+00  0.00000000000E+00  0.10020953957E+04  0.10020953957E+04  0.25500000920E-02 0. -1.
        2   -1    0    0  501    0  0.00000000000E+00  0.00000000000E+00 -0.32321572024E+04  0.32321572024E+04  0.25500000920E-02 0.  1.
    10030    2    1    2    0    0  0.00000000000E+00  0.00000000000E+00 -0.22300618067E+04  0.42342525982E+04  0.35994054236E+04 0.  0.
        1    1    3    3  502    0  0.11218987600E+04  0.12948562985E+04 -0.17632343251E+04  0.24585168185E+04  0.50400001928E-02 0.  1.
       -1    1    3    3    0  502 -0.11218987600E+04 -0.12948562985E+04 -0.46682748156E+03  0.17757357796E+04  0.50400001928E-02 0. -1.
</event>
<event>
 5   0  0.6669864E-07  0.3591953E+04  0.7818609E-02  0.8092337E-01
       -2   -1    0    0    0  501  0.00000000000E+00  0.00000000000E+00  0.15093221817E+04  0.15093221817E+04  0.25500000920E-02 0. -1.
        2   -1    0    0  501    0  0.00000000000E+00  0.00000000000E+00 -0.21370730241E+04  0.21370730241E+04  0.25500000920E-02 0.  1.
    10030    2    1    2    0    0  0.00000000000E+00  0.00000000000E+00 -0.62775084242E+03  0.36463952059E+04  0.35919530728E+04 0.  0.
        5    1    3    3  502    0 -0.12103969087E+04  0.66846642173E+03 -0.14773714796E+04  0.20235010779E+04  0.46999998093E+01 0.  1.
       -5    1    3    3    0  502  0.12103969087E+04 -0.66846642173E+03  0.84962063716E+03  0.16228941280E+04  0.46999998093E+01 0. -1.
</event>
<event>
 5   0  0.6729577E-07  0.3637833E+04  0.7818609E-02  0.8081880E-01
        2   -1    0    0  501    0  0.00000000000E+00  0.00000000000E+00  0.19189646896E+04  0.19189646896E+04  0.25500000920E-02 0. -1.
       -2   -1    0    0    0  501  0.00000000000E+00  0.00000000000E+00 -0.17240841681E+04  0.17240841681E+04  0.25500000920E-02 0.  1.
    10030    2    1    2    0    0  0.00000000000E+00  0.00000000000E+00  0.19488052144E+03  0.36430488577E+04  0.36378326737E+04 0.  0.
        3    1    3    3  502    0  0.10866960756E+04  0.87938163360E+03 -0.10679449105E+04  0.17591835494E+04  0.10100000352E+00 0.  1.
       -3    1    3    3    0  502 -0.10866960756E+04 -0.87938163360E+03  0.12628254320E+04  0.18838653084E+04  0.10100000352E+00 0. -1.
</event>
<event>
 5   0  0.2193129E-07  0.3474076E+04  0.7818609E-02  0.8119961E-01
        1   -1    0    0  501    0  0.00000000000E+00  0.00000000000E+00  0.17521666733E+04  0.17521666733E+04  0.50400001928E-02 0. -1.
       -1   -1    0    0    0  501  0.00000000000E+00  0.00000000000E+00 -0.17220396253E+04  0.17220396253E+04  0.50400001928E-02 0.  1.
    10030    2    1    2    0    0  0.00000000000E+00  0.00000000000E+00  0.30127047979E+02  0.34742062986E+04  0.34740756708E+04 0.  0.
        1    1    3    3  502    0  0.38002047804E+03 -0.14052819277E+04 -0.93263638569E+03  0.17288850419E+04  0.50400001928E-02 0.  1.
       -1    1    3    3    0  502 -0.38002047804E+03  0.14052819277E+04  0.96276343367E+03  0.17453212568E+04  0.50400001928E-02 0. -1.
</event>
<event>
 5   0  0.2193129E-07  0.3571531E+04  0.7818609E-02  0.8097044E-01
       -1   -1    0    0    0  501  0.00000000000E+00  0.00000000000E+00  0.14683120726E+04  0.14683120726E+04  0.50400001928E-02 0.  1.
        1   -1    0    0  501    0  0.00000000000E+00  0.00000000000E+00 -0.21718529406E+04  0.21718529406E+04  0.50400001928E-02 0. -1.
    10030    2    1    2    0    0  0.00000000000E+00  0.00000000000E+00 -0.70354086801E+03  0.36401650132E+04  0.35715307041E+04 0.  0.
        1    1    3    3  502    0  0.55464173892E+03  0.15100604320E+04 -0.11419417031E+04  0.19728002484E+04  0.50400001928E-02 0. -1.
       -1    1    3    3    0  502 -0.55464173892E+03 -0.15100604320E+04  0.43840083508E+03  0.16673647648E+04  0.50400001928E-02 0.  1.
</event>
<event>
 5   0  0.2086250E-07  0.3608809E+04  0.7818609E-02  0.8088477E-01
       -1   -1    0    0    0  501  0.00000000000E+00  0.00000000000E+00  0.19249046825E+04  0.19249046825E+04  0.50400001928E-02 0.  1.
        1   -1    0    0  501    0  0.00000000000E+00  0.00000000000E+00 -0.16914479063E+04  0.16914479063E+04  0.50400001928E-02 0. -1.
    10030    2    1    2    0    0  0.00000000000E+00  0.00000000000E+00  0.23345677626E+03  0.36163525888E+04  0.36088092192E+04 0.  0.
        3    1    3    3  502    0  0.10144170282E+04  0.12249853189E+04  0.97070983382E+03  0.18633058069E+04  0.10100000352E+00 0.  1.
       -3    1    3    3    0  502 -0.10144170282E+04 -0.12249853189E+04 -0.73725305756E+03  0.17530467819E+04  0.10100000352E+00 0. -1.
</event>
<event>
 5   0  0.6669864E-07  0.3575080E+04  0.7818609E-02  0.8096224E-01
        2   -1    0    0  501    0  0.00000000000E+00  0.00000000000E+00  0.27878932910E+04  0.27878932910E+04  0.25500000920E-02 0. -1.
       -2   -1    0    0    0  501  0.00000000000E+00  0.00000000000E+00 -0.11461341624E+04  0.11461341624E+04  0.25500000920E-02 0.  1.
    10030    2    1    2    0    0  0.00000000000E+00  0.00000000000E+00  0.16417591285E+04  0.39340274534E+04  0.35750802744E+04 0.  0.
        5    1    3    3  502    0  0.74084558389E+03  0.16031101870E+04  0.51659646838E+03  0.18400294704E+04  0.46999998093E+01 0. -1.
       -5    1    3    3    0  502 -0.74084558389E+03 -0.16031101870E+04  0.11251626602E+04  0.20939979830E+04  0.46999998093E+01 0.  1.
</event>
<event>
 5   0  0.6848661E-07  0.3696254E+04  0.7818609E-02  0.8068792E-01
        2   -1    0    0  501    0  0.00000000000E+00  0.00000000000E+00  0.23192043445E+04  0.23192043445E+04  0.25500000920E-02 0. -1.
       -2   -1    0    0    0  501  0.00000000000E+00  0.00000000000E+00 -0.14727350346E+04  0.14727350346E+04  0.25500000920E-02 0.  1.
    10030    2    1    2    0    0  0.00000000000E+00  0.00000000000E+00  0.84646930993E+03  0.37919393790E+04  0.36962540445E+04 0.  0.
        1    1    3    3  502    0 -0.48411091194E+03  0.17598769472E+04  0.12582779472E+03  0.18295799732E+04  0.50400001928E-02 0. -1.
       -1    1    3    3    0  502  0.48411091194E+03 -0.17598769472E+04  0.72064151521E+03  0.19623594059E+04  0.50400001928E-02 0.  1.
</event>
<event>
 5   0  0.2108068E-07  0.3608029E+04  0.7818609E-02  0.8088655E-01
       -1   -1    0    0    0  501  0.00000000000E+00  0.00000000000E+00  0.30785727517E+04  0.30785727517E+04  0.50400001928E-02 0. -1.
        1   -1    0    0  501    0  0.00000000000E+00  0.00000000000E+00 -0.10571356375E+04  0.10571356376E+04  0.50400001928E-02 0.  1.
    10030    2    1    2    0    0  0.00000000000E+00  0.00000000000E+00  0.20214371141E+04  0.41357083892E+04  0.36080293616E+04 0.  0.
        5    1    3    3  502    0 -0.33602259368E+03 -0.34282329328E+03 -0.98257519440E+03  0.10935790308E+04  0.46999998093E+01 0.  1.
       -5    1    3    3    0  502  0.33602259368E+03  0.34282329328E+03  0.30040123085E+04  0.30421293585E+04  0.46999998093E+01 0. -1.
</event>
<event>
 5   0  0.2108068E-07  0.3578130E+04  0.7818609E-02  0.8095520E-01
       -1   -1    0    0    0  501  0.00000000000E+00  0.00000000000E+00  0.11018855056E+04  0.11018855056E+04  0.50400001928E-02 0.  1.
        1   -1    0    0  501    0  0.00000000000E+00  0.00000000000E+00 -0.29047971820E+04  0.29047971820E+04  0.50400001928E-02 0. -1.
    10030    2    1    2    0    0  0.00000000000E+00  0.00000000000E+00 -0.18029116763E+04  0.40066826876E+04  0.35781301886E+04 0.  0.
        5    1    3    3  502    0 -0.17675260162E+04 -0.59000539056E+01 -0.12112676596E+04  0.21427492765E+04  0.46999998093E+01 0. -1.
       -5    1    3    3    0  502  0.17675260162E+04  0.59000539056E+01 -0.59164401672E+03  0.18639334111E+04  0.46999998093E+01 0.  1.
</event>
<event>
 5   0  0.6848661E-07  0.3634066E+04  0.7818609E-02  0.8082733E-01
        2   -1    0    0  501    0  0.00000000000E+00  0.00000000000E+00  0.19709518554E+04  0.19709518554E+04  0.25500000920E-02 0.  1.
       -2   -1    0    0    0  501  0.00000000000E+00  0.00000000000E+00 -0.16751341627E+04  0.16751341627E+04  0.25500000920E-02 0. -1.
    10030    2    1    2    0    0  0.00000000000E+00  0.00000000000E+00  0.29581769266E+03  0.36460860181E+04  0.36340659246E+04 0.  0.
        1    1    3    3  502    0 -0.26156682929E+03  0.51860092115E+03 -0.15794840617E+04  0.16828945370E+04  0.50400001928E-02 0. -1.
       -1    1    3    3    0  502  0.26156682929E+03 -0.51860092115E+03  0.18753017544E+04  0.19631914811E+04  0.50400001928E-02 0.  1.
</event>
<event>
 5   0  0.2086250E-07  0.3644592E+04  0.7818609E-02  0.8080353E-01
        1   -1    0    0  501    0  0.00000000000E+00  0.00000000000E+00  0.11030750051E+04  0.11030750051E+04  0.50400001928E-02 0.  1.
       -1   -1    0    0    0  501  0.00000000000E+00  0.00000000000E+00 -0.30104592482E+04  0.30104592482E+04  0.50400001928E-02 0. -1.
    10030    2    1    2    0    0  0.00000000000E+00  0.00000000000E+00 -0.19073842431E+04  0.41135342533E+04  0.36445918018E+04 0.  0.
        3    1    3    3  502    0  0.85771500164E+03 -0.15873697636E+04 -0.12422087907E+04  0.21905479863E+04  0.10100000352E+00 0.  1.
       -3    1    3    3    0  502 -0.85771500164E+03  0.15873697636E+04 -0.66517545244E+03  0.19229862670E+04  0.10100000352E+00 0. -1.
</event>
<event>
 5   0  0.2086250E-07  0.3604679E+04  0.7818609E-02  0.8089421E-01
       -1   -1    0    0    0  501  0.00000000000E+00  0.00000000000E+00  0.11979790864E+04  0.11979790864E+04  0.50400001928E-02 0. -1.
        1   -1    0    0  501    0  0.00000000000E+00  0.00000000000E+00 -0.27115890904E+04  0.27115890904E+04  0.50400001928E-02 0.  1.
    10030    2    1    2    0    0  0.00000000000E+00  0.00000000000E+00 -0.15136100040E+04  0.39095681768E+04  0.36046786383E+04 0.  0.
        2    1    3    3  502    0 -0.95350507647E+03 -0.93569364566E+03 -0.20689840374E+04  0.24628011443E+04  0.25500000920E-02 0.  1.
       -2    1    3    3    0  502  0.95350507647E+03  0.93569364566E+03  0.55537403343E+03  0.14467670325E+04  0.25500000920E-02 0. -1.
</event>
<event>
 5   0  0.2086250E-07  0.3582992E+04  0.7818609E-02  0.8094399E-01
        1   -1    0    0  501    0  0.00000000000E+00  0.00000000000E+00  0.22121208740E+04  0.22121208740E+04  0.50400001928E-02 0. -1.
       -1   -1    0    0    0  501  0.00000000000E+00  0.00000000000E+00 -0.14508511782E+04  0.14508511783E+04  0.50400001928E-02 0.  1.
    10030    2    1    2    0    0  0.00000000000E+00  0.00000000000E+00  0.76126969571E+03  0.36629720522E+04  0.35829921442E+04 0.  0.
        4    1    3    3  502    0 -0.14677984608E+04 -0.79317111694E+02  0.14275710652E+04  0.20490691265E+04  0.12699999809E+01 0.  1.
       -4    1    3    3    0  502  0.14677984608E+04  0.79317111694E+02 -0.66630136954E+03  0.16139029257E+04  0.12699999809E+01 0. -1.
</event>
<event>
 5   0  0.2086250E-07  0.3623199E+04  0.7818609E-02  0.8085198E-01
       -1   -1    0    0    0  501  0.00000000000E+00  0.00000000000E+00  0.10771792453E+04  0.10771792453E+04  0.50400001928E-02 0. -1.
        1   -1    0    0  501    0  0.00000000000E+00  0.00000000000E+00 -0.30467477068E+04  0.30467477068E+04  0.50400001928E-02 0.  1.
    10030    2    1    2    0    0  0.00000000000E+00  0.00000000000E+00 -0.19695684615E+04  0.41239269520E+04  0.36231993571E+04 0.  0.
        4    1    3    3  502    0  0.21128808088E+03 -0.12495635130E+04  0.48866450227E+03  0.13582511678E+04  0.12699999809E+01 0. -1.
       -4    1    3    3    0  502 -0.21128808088E+03  0.12495635130E+04 -0.24582329638E+04  0.27656757842E+04  0.12699999809E+01 0.  1.
</event>
<event>
 5   0  0.2193129E-07  0.3548936E+04  0.7818609E-02  0.8102290E-01
       -1   -1    0    0    0  501  0.00000000000E+00  0.00000000000E+00  0.35699653188E+04  0.35699653188E+04  0.50400001928E-02 0.  1.
        1   -1    0    0  501    0  0.00000000000E+00  0.00000000000E+00 -0.88200774827E+03  0.88200774828E+03  0.50400001928E-02 0. -1.
    10030    2    1    2    0    0  0.00000000000E+00  0.00000000000E+00  0.26879575705E+04  0.44519730671E+04  0.35489362194E+04 0.  0.
        1    1    3    3  502    0  0.84876177595E+03  0.54434952490E+03 -0.48770453326E+03  0.11200752963E+04  0.50400001928E-02 0. -1.
       -1    1    3    3    0  502 -0.84876177595E+03 -0.54434952490E+03  0.31756621038E+04  0.33318977708E+04  0.50400001928E-02 0.  1.
</event>
<event>
 5   0  0.2086250E-07  0.3748152E+04  0.7818609E-02  0.8057374E-01
       -1   -1    0    0    0  501  0.00000000000E+00  0.00000000000E+00  0.17937467206E+04  0.17937467206E+04  0.50400001928E-02 0. -1.
        1   -1    0    0  501    0  0.00000000000E+00  0.00000000000E+00 -0.19580030350E+04  0.19580030351E+04  0.50400001928E-02 0.  1.
    10030    2    1    2    0    0  0.00000000000E+00  0.00000000000E+00 -0.16425631443E+03  0.37517497557E+04  0.37481523571E+04 0.  0.
        3    1    3    3  502    0 -0.10478140795E+04  0.15388462080E+04 -0.29727517929E+03  0.18852942846E+04  0.10100000352E+00 0.  1.
       -3    1    3    3    0  502  0.10478140795E+04 -0.15388462080E+04  0.13301886487E+03  0.18664554711E+04  0.10100000352E+00 0. -1.
</event>
<event>
 5   0  0.2086250E-07  0.3587184E+04  0.7818609E-02  0.8093434E-01
       -1   -1    0    0    0  501  0.00000000000E+00  0.00000000000E+00  0.17204815506E+04  0.17204815506E+04  0.50400001928E-02 0. -1.
        1   -1    0    0  501    0  0.00000000000E+00  0.00000000000E+00 -0.18698089842E+04  0.18698089842E+04  0.50400001928E-02 0.  1.
    10030    2    1    2    0    0  0.00000000000E+00  0.00000000000E+00 -0.14932743358E+03  0.35902905348E+04  0.35871837759E+04 0.  0.
        4    1    3    3  502    0 -0.50649083695E+03  0.17118280062E+03 -0.17882018903E+04  0.18664147804E+04  0.12699999809E+01 0.  1.
       -4    1    3    3    0  502  0.50649083695E+03 -0.17118280062E+03  0.16388744567E+04  0.17238757545E+04  0.12699999809E+01 0. -1.
</event>
<event>
 5   0  0.6669864E-07  0.3551937E+04  0.7818609E-02  0.8101591E-01
       -2   -1    0    0    0  501  0.00000000000E+00  0.00000000000E+00  0.19593929350E+04  0.19593929350E+04  0.25500000920E-02 0. -1.
        2   -1    0    0  501    0  0.00000000000E+00  0.00000000000E+00 -0.16097148159E+04  0.16097148159E+04  0.25500000920E-02 0.  1.
    10030    2    1    2    0    0  0.00000000000E+00  0.00000000000E+00  0.34967811911E+03  0.35691077508E+04  0.35519368449E+04 0.  0.
        5    1    3    3  502    0  0.61502207033E+03  0.15436051180E+04  0.80482512384E+03  0.18462758400E+04  0.46999998093E+01 0. -1.
       -5    1    3    3    0  502 -0.61502207033E+03 -0.15436051180E+04 -0.45514700472E+03  0.17228319109E+04  0.46999998093E+01 0.  1.
</event>
<event>
 5   0  0.2086250E-07  0.3570955E+04  0.7818609E-02  0.8097177E-01
       -1   -1    0    0    0  501  0.00000000000E+00  0.00000000000E+00  0.10627831429E+04  0.10627831430E+04  0.50400001928E-02 0.  1.
        1   -1    0    0  501    0  0.00000000000E+00  0.00000000000E+00 -0.29996049330E+04  0.29996049330E+04  0.50400001928E-02 0. -1.
    10030    2    1    2    0    0  0.00000000000E+00  0.00000000000E+00 -0.19368217900E+04  0.40623880760E+04  0.35709548069E+04 0.  0.
        2    1    3    3  502    0  0.16799732824E+04 -0.12915982537E+03 -0.29640882805E+03  0.17108041043E+04  0.25500000920E-02 0.  1.
       -2    1    3    3    0  502 -0.16799732824E+04  0.12915982537E+03 -0.16404129620E+04  0.23515839717E+04  0.25500000920E-02 0. -1.
</event>
<event>
 5   0  0.2086250E-07  0.3188431E+04  0.7818609E-02  0.8191879E-01
       -1   -1    0    0    0  501  0.00000000000E+00  0.00000000000E+00  0.19589777126E+04  0.19589777126E+04  0.50400001928E-02 0. -1.
        1   -1    0    0  501    0  0.00000000000E+00  0.00000000000E+00 -0.12973724469E+04  0.12973724469E+04  0.50400001928E-02 0.  1.
    10030    2    1    2    0    0  0.00000000000E+00  0.00000000000E+00  0.66160526566E+03  0.32563501595E+04  0.31884314064E+04 0.  0.
        3    1    3    3  502    0  0.45683036583E+03  0.13407424629E+04  0.10779874583E+04  0.17799835127E+04  0.10100000352E+00 0. -1.
       -3    1    3    3    0  502 -0.45683036583E+03 -0.13407424629E+04 -0.41638219266E+03  0.14763666467E+04  0.10100000352E+00 0.  1.
</event>
<event>
 5   0  0.2086250E-07  0.3605447E+04  0.7818609E-02  0.8089245E-01
        1   -1    0    0  501    0  0.00000000000E+00  0.00000000000E+00  0.22882306560E+04  0.22882306561E+04  0.50400001928E-02 0.  1.
       -1   -1    0    0    0  501  0.00000000000E+00  0.00000000000E+00 -0.14202289210E+04  0.14202289210E+04  0.50400001928E-02 0. -1.
    10030    2    1    2    0    0  0.00000000000E+00  0.00000000000E+00  0.86800173509E+03  0.37084595770E+04  0.36054466328E+04 0.  0.
        2    1    3    3  502    0  0.91408701895E+03  0.21707938529E+02  0.20320266201E+04  0.22282635611E+04  0.25500000920E-02 0.  1.
       -2    1    3    3    0  502 -0.91408701895E+03 -0.21707938529E+02 -0.11640248850E+04  0.14801960160E+04  0.25500000920E-02 0. -1.
</event>
<event>
 5   0  0.6848661E-07  0.3495692E+04  0.7818609E-02  0.8114812E-01
        2   -1    0    0  501    0  0.00000000000E+00  0.00000000000E+00  0.27269232859E+04  0.27269232859E+04  0.25500000920E-02 0. -1.
       -2   -1    0    0    0  501  0.00000000000E+00  0.00000000000E+00 -0.11202973115E+04  0.11202973115E+04  0.25500000920E-02 0.  1.
    10030    2    1    2    0    0  0.00000000000E+00  0.00000000000E+00  0.16066259745E+04  0.38472205974E+04  0.34956915343E+04 0.  0.
        1    1    3    3  502    0 -0.16298507913E+03 -0.88436102076E+03  0.24527983709E+04  0.26124468223E+04  0.50400001928E-02 0. -1.
       -1    1    3    3    0  502  0.16298507913E+03  0.88436102076E+03 -0.84617239644E+03  0.12347737751E+04  0.50400001928E-02 0.  1.
</event>
<event>
 5   0  0.2193129E-07  0.3635954E+04  0.7818609E-02  0.8082305E-01
        1   -1    0    0  501    0  0.00000000000E+00  0.00000000000E+00  0.27400081459E+04  0.27400081459E+04  0.50400001928E-02 0.  1.
       -1   -1    0    0    0  501  0.00000000000E+00  0.00000000000E+00 -0.12062158555E+04  0.12062158555E+04  0.50400001928E-02 0. -1.
    10030    2    1    2    0    0  0.00000000000E+00  0.00000000000E+00  0.15337922904E+04  0.39462240014E+04  0.36359544935E+04 0.  0.
        1    1    3    3  502    0 -0.97222927353E+03 -0.98936073768E+03 -0.50853345595E+03  0.14773864442E+04  0.50400001928E-02 0. -1.
       -1    1    3    3    0  502  0.97222927353E+03  0.98936073768E+03  0.20423257464E+04  0.24688375572E+04  0.50400001928E-02 0.  1.
</event>
<event>
 5   0  0.6324216E-07  0.3598267E+04  0.7818609E-02  0.8090889E-01
       -2   -1    0    0    0  501  0.00000000000E+00  0.00000000000E+00  0.13511727165E+04  0.13511727165E+04  0.25500000920E-02 0.  1.
        2   -1    0    0  501    0  0.00000000000E+00  0.00000000000E+00 -0.23956084877E+04  0.23956084877E+04  0.25500000920E-02 0. -1.
    10030    2    1    2    0    0  0.00000000000E+00  0.00000000000E+00 -0.10444357712E+04  0.37467812042E+04  0.35982667094E+04 0.  0.
        2    1    3    3  502    0  0.14149120935E+04 -0.54615059269E+03  0.48552015359E+03  0.15924781072E+04  0.25500000920E-02 0.  1.
       -2    1    3    3    0  502 -0.14149120935E+04  0.54615059269E+03 -0.15299559248E+04  0.21543030971E+04  0.25500000920E-02 0. -1.
</event>
<event>
 5   0  0.2086250E-07  0.3587259E+04  0.7818609E-02  0.8093416E-01
       -3   -1    0    0    0  501  0.00000000000E+00  0.00000000000E+00  0.18399008187E+04  0.18399008215E+04  0.10100000352E+00 0.  1.
        3   -1    0    0  501    0  0.00000000000E+00  0.00000000000E+00 -0.17485215223E+04  0.17485215252E+04  0.10100000352E+00 0. -1.
    10030    2    1    2    0    0  0.00000000000E+00  0.00000000000E+00  0.91379296390E+02  0.35884223467E+04  0.35872586695E+04 0.  0.
        3    1    3    3  502    0  0.12313473353E+04 -0.90617018768E+03 -0.89256211341E+03  0.17703185605E+04  0.10100000352E+00 0. -1.
       -3    1    3    3    0  502 -0.12313473353E+04  0.90617018768E+03  0.98394140980E+03  0.18181037862E+04  0.10100000352E+00 0.  1.
</event>
<event>
 5   0  0.2193129E-07  0.3374671E+04  0.7818609E-02  0.8144151E-01
        1   -1    0    0  501    0  0.00000000000E+00  0.00000000000E+00  0.21684420716E+04  0.21684420716E+04  0.50400001928E-02 0. -1.
       -1   -1    0    0    0  501  0.00000000000E+00  0.00000000000E+00 -0.13129705120E+04  0.13129705120E+04  0.50400001928E-02 0.  1.
    10030    2    1    2    0    0  0.00000000000E+00  0.00000000000E+00  0.85547155961E+03  0.34814125835E+04  0.33746706487E+04 0.  0.
        1    1    3    3  502    0  0.11869580993E+04  0.11462523866E+04  0.79150278419E+03  0.18300930907E+04  0.50400001928E-02 0.  1.
       -1    1    3    3    0  502 -0.11869580993E+04 -0.11462523866E+04  0.63968775426E+02  0.16513194928E+04  0.50400001928E-02 0. -1.
</event>
<event>
 5   0  0.2086250E-07  0.3613515E+04  0.7818609E-02  0.8087403E-01
        1   -1    0    0  501    0  0.00000000000E+00  0.00000000000E+00  0.19569056775E+04  0.19569056775E+04  0.50400001928E-02 0. -1.
       -1   -1    0    0    0  501  0.00000000000E+00  0.00000000000E+00 -0.16681297983E+04  0.16681297983E+04  0.50400001928E-02 0.  1.
    10030    2    1    2    0    0  0.00000000000E+00  0.00000000000E+00  0.28877587917E+03  0.36250354758E+04  0.36135150051E+04 0.  0.
        3    1    3    3  502    0 -0.82360024343E+03 -0.93725210488E+03  0.14553110681E+04  0.19169478825E+04  0.10100000352E+00 0. -1.
       -3    1    3    3    0  502  0.82360024343E+03  0.93725210488E+03 -0.11665351889E+04  0.17080875933E+04  0.10100000352E+00 0.  1.
</event>
<event>
 5   0  0.6729577E-07  0.3690697E+04  0.7818609E-02  0.8070027E-01
       -2   -1    0    0    0  501  0.00000000000E+00  0.00000000000E+00  0.11222853454E+04  0.11222853454E+04  0.25500000920E-02 0. -1.
        2   -1    0    0  501    0  0.00000000000E+00  0.00000000000E+00 -0.30342641570E+04  0.30342641570E+04  0.25500000920E-02 0.  1.
    10030    2    1    2    0    0  0.00000000000E+00  0.00000000000E+00 -0.19119788116E+04  0.41565495024E+04  0.36906965182E+04 0.  0.
        3    1    3    3  502    0 -0.14781868653E+04 -0.53084979580E+03 -0.20470160203E+04  0.25801380800E+04  0.10100000352E+00 0.  1.
       -3    1    3    3    0  502  0.14781868653E+04  0.53084979580E+03  0.13503720872E+03  0.15764114223E+04  0.10100000352E+00 0. -1.
</event>
<event>
 5   0  0.6541476E-07  0.3611619E+04  0.7818609E-02  0.8087835E-01
        2   -1    0    0  501    0  0.00000000000E+00  0.00000000000E+00  0.12374005286E+04  0.12374005286E+04  0.25500000920E-02 0. -1.
       -2   -1    0    0    0  501  0.00000000000E+00  0.00000000000E+00 -0.26353212471E+04  0.26353212471E+04  0.25500000920E-02 0.  1.
    10030    2    1    2    0    0  0.00000000000E+00  0.00000000000E+00 -0.13979207185E+04  0.38727217757E+04  0.36116189745E+04 0.  0.
        4    1    3    3  502    0  0.10190436398E+04 -0.32209814479E+03  0.86186438252E+03  0.13729562926E+04  0.12699999809E+01 0. -1.
       -4    1    3    3    0  502 -0.10190436398E+04  0.32209814479E+03 -0.22597851010E+04  0.24997654831E+04  0.12699999809E+01 0.  1.
</event>
<event>
 5   0  0.2193129E-07  0.3582818E+04  0.7818609E-02  0.8094439E-01
       -1   -1    0    0    0  501  0.00000000000E+00  0.00000000000E+00  0.17440415261E+04  0.17440415261E+04  0.50400001928E-02 0.  1.
        1   -1    0    0  501    0  0.00000000000E+00  0.00000000000E+00 -0.18400633918E+04  0.18400633918E+04  0.50400001928E-02 0. -1.
    10030    2    1    2    0    0  0.00000000000E+00  0.00000000000E+00 -0.96021865681E+02  0.35841049180E+04  0.35828184247E+04 0.  0.
        1    1    3    3  502    0 -0.99083689772E+03  0.14872802333E+04 -0.17209867504E+03  0.17953768975E+04  0.50400001928E-02 0.  1.
       -1    1    3    3    0  502  0.99083689772E+03 -0.14872802333E+04  0.76076809357E+02  0.17887280204E+04  0.50400001928E-02 0. -1.
</event>
<event>
 5   0  0.2108068E-07  0.3626055E+04  0.7818609E-02  0.8084549E-01
       -1   -1    0    0    0  501  0.00000000000E+00  0.00000000000E+00  0.14355036800E+04  0.14355036800E+04  0.50400001928E-02 0. -1.
        1   -1    0    0  501    0  0.00000000000E+00  0.00000000000E+00 -0.22898370299E+04  0.22898370299E+04  0.50400001928E-02 0.  1.
    10030    2    1    2    0    0  0.00000000000E+00  0.00000000000E+00 -0.85433334984E+03  0.37253407099E+04  0.36260554232E+04 0.  0.
        5    1    3    3  502    0 -0.87963454444E+03 -0.12640176611E+04 -0.14102097535E+04  0.20881118788E+04  0.46999998093E+01 0.  1.
       -5    1    3    3    0  502  0.87963454444E+03  0.12640176611E+04  0.55587640365E+03  0.16372288311E+04  0.46999998093E+01 0. -1.
</event>
<event>
 5   0  0.6729577E-07  0.3579105E+04  0.7818609E-02  0.8095295E-01
       -2   -1    0    0    0  501  0.00000000000E+00  0.00000000000E+00  0.13186655991E+04  0.13186655991E+04  0.25500000920E-02 0. -1.
        2   -1    0    0  501    0  0.00000000000E+00  0.00000000000E+00 -0.24285898289E+04  0.24285898289E+04  0.25500000920E-02 0.  1.
    10030    2    1    2    0    0  0.00000000000E+00  0.00000000000E+00 -0.11099242297E+04  0.37472554280E+04  0.35791048388E+04 0.  0.
        3    1    3    3  502    0 -0.97902440204E+03  0.98901152252E+03  0.62300352210E+03  0.15247183249E+04  0.10100000352E+00 0.  1.
       -3    1    3    3    0  502  0.97902440204E+03 -0.98901152252E+03 -0.17329277518E+04  0.22225371031E+04  0.10100000352E+00 0. -1.
</event>
<event>
 5   0  0.2086250E-07  0.3621918E+04  0.7818609E-02  0.8085489E-01
        1   -1    0    0  501    0  0.00000000000E+00  0.00000000000E+00  0.25380346948E+04  0.25380346948E+04  0.50400001928E-02 0.  1.
       -1   -1    0    0    0  501  0.00000000000E+00  0.00000000000E+00 -0.12921704240E+04  0.12921704240E+04  0.50400001928E-02 0. -1.
    10030    2    1    2    0    0  0.00000000000E+00  0.00000000000E+00  0.12458642708E+04  0.38302051189E+04  0.36219184794E+04 0.  0.
        4    1    3    3  502    0 -0.75452678204E+02  0.61004355337E+03  0.24243378045E+04  0.25010521080E+04  0.12699999809E+01 0.  1.
       -4    1    3    3    0  502  0.75452678204E+02 -0.61004355337E+03 -0.11784735337E+04  0.13291530108E+04  0.12699999809E+01 0. -1.
</event>
<event>
 5   0  0.6729577E-07  0.3509380E+04  0.7818609E-02  0.8111571E-01
        2   -1    0    0  501    0  0.00000000000E+00  0.00000000000E+00  0.15150344679E+04  0.15150344679E+04  0.25500000920E-02 0. -1.
       -2   -1    0    0    0  501  0.00000000000E+00  0.00000000000E+00 -0.20322549276E+04  0.20322549276E+04  0.25500000920E-02 0.  1.
    10030    2    1    2    0    0  0.00000000000E+00  0.00000000000E+00 -0.51722045976E+03  0.35472893955E+04  0.35093795821E+04 0.  0.
        3    1    3    3  502    0  0.14561710333E+04 -0.25276359820E+03  0.69744683337E+03  0.16342446605E+04  0.10100000352E+00 0. -1.
       -3    1    3    3    0  502 -0.14561710333E+04  0.25276359820E+03 -0.12146672931E+04  0.19130447350E+04  0.10100000352E+00 0.  1.
</event>
<event>
 5   0  0.2086250E-07  0.3439917E+04  0.7818609E-02  0.8128178E-01
       -3   -1    0    0    0  501  0.00000000000E+00  0.00000000000E+00  0.19770889632E+04  0.19770889657E+04  0.10100000352E+00 0.  1.
        3   -1    0    0  501    0  0.00000000000E+00  0.00000000000E+00 -0.14962688161E+04  0.14962688195E+04  0.10100000352E+00 0. -1.
    10030    2    1    2    0    0  0.00000000000E+00  0.00000000000E+00  0.48082014706E+03  0.34733577852E+04  0.34399166110E+04 0.  0.
        1    1    3    3  502    0  0.46083476483E+03  0.33588815709E+03  0.18788577058E+04  0.19634907215E+04  0.50400001928E-02 0.  1.
       -1    1    3    3    0  502 -0.46083476483E+03 -0.33588815709E+03 -0.13980375588E+04  0.15098670638E+04  0.50400001928E-02 0. -1.
</event>
<event>
 5   0  0.2086250E-07  0.3518455E+04  0.7818609E-02  0.8109430E-01
       -1   -1    0    0    0  501  0.00000000000E+00  0.00000000000E+00  0.20659211140E+04  0.20659211140E+04  0.50400001928E-02 0. -1.
        1   -1    0    0  501    0  0.00000000000E+00  0.00000000000E+00 -0.14980632725E+04  0.14980632725E+04  0.50400001928E-02 0.  1.
    10030    2    1    2    0    0  0.00000000000E+00  0.00000000000E+00  0.56785784149E+03  0.35639843865E+04  0.35184545157E+04 0.  0.
        2    1    3    3  502    0 -0.11934745899E+04  0.83885855107E+03  0.12799203570E+04  0.19406858029E+04  0.25500000920E-02 0. -1.
       -2    1    3    3    0  502  0.11934745899E+04 -0.83885855107E+03 -0.71206251548E+03  0.16232985836E+04  0.25500000920E-02 0.  1.
</event>
<event>
 5   0  0.6669864E-07  0.3622728E+04  0.7818609E-02  0.8085305E-01
       -2   -1    0    0    0  501  0.00000000000E+00  0.00000000000E+00  0.16109491762E+04  0.16109491763E+04  0.25500000920E-02 0.  1.
        2   -1    0    0  501    0  0.00000000000E+00  0.00000000000E+00 -0.20367124775E+04  0.20367124775E+04  0.25500000920E-02 0. -1.
    10030    2    1    2    0    0  0.00000000000E+00  0.00000000000E+00 -0.42576330125E+03  0.36476616537E+04  0.36227284126E+04 0.  0.
        5    1    3    3  502    0 -0.23999529449E+02  0.11057055790E+04  0.12315147853E+04  0.16552376148E+04  0.46999998093E+01 0.  1.
       -5    1    3    3    0  502  0.23999529449E+02 -0.11057055790E+04 -0.16572780866E+04  0.19924240390E+04  0.46999998093E+01 0. -1.
</event>
<event>
 5   0  0.2193129E-07  0.3584778E+04  0.7818609E-02  0.8093987E-01
        1   -1    0    0  501    0  0.00000000000E+00  0.00000000000E+00  0.26425021654E+04  0.26425021654E+04  0.50400001928E-02 0.  1.
       -1   -1    0    0    0  501  0.00000000000E+00  0.00000000000E+00 -0.12157638975E+04  0.12157638975E+04  0.50400001928E-02 0. -1.
    10030    2    1    2    0    0  0.00000000000E+00  0.00000000000E+00  0.14267382679E+04  0.38582660629E+04  0.35847782256E+04 0.  0.
        1    1    3    3  502    0 -0.16730475304E+04 -0.57209600416E+02  0.14027821045E+04  0.21840692778E+04  0.50400001928E-02 0.  1.
       -1    1    3    3    0  502  0.16730475304E+04  0.57209600416E+02  0.23956163453E+02  0.16741967851E+04  0.50400001928E-02 0. -1.
</event>
<event>
 5   0  0.2193129E-07  0.3578301E+04  0.7818609E-02  0.8095480E-01
       -1   -1    0    0    0  501  0.00000000000E+00  0.00000000000E+00  0.15002418140E+04  0.15002418140E+04  0.50400001928E-02 0.  1.
        1   -1    0    0  501    0  0.00000000000E+00  0.00000000000E+00 -0.21336955942E+04  0.21336955942E+04  0.50400001928E-02 0. -1.
    10030    2    1    2    0    0  0.00000000000E+00  0.00000000000E+00 -0.63345378018E+03  0.36339374082E+04  0.35783009089E+04 0.  0.
        1    1    3    3  502    0  0.24219899746E+03  0.11645078064E+04  0.10405869663E+04  0.15803670523E+04  0.50400001928E-02 0.  1.
       -1    1    3    3    0  502 -0.24219899746E+03 -0.11645078064E+04 -0.16740407465E+04  0.20535703559E+04  0.50400001928E-02 0. -1.
</event>
<event>
 5   0  0.6729577E-07  0.3601508E+04  0.7818609E-02  0.8090146E-01
        2   -1    0    0  501    0  0.00000000000E+00  0.00000000000E+00  0.34325649335E+04  0.34325649335E+04  0.25500000920E-02 0.  1.
       -2   -1    0    0    0  501  0.00000000000E+00  0.00000000000E+00 -0.94469161479E+03  0.94469161479E+03  0.25500000920E-02 0. -1.
    10030    2    1    2    0    0  0.00000000000E+00  0.00000000000E+00  0.24878733187E+04  0.43772565483E+04  0.36015081896E+04 0.  0.
        3    1    3    3  502    0  0.20451741657E+02  0.85175640504E+02 -0.94210062704E+03  0.94616423793E+03  0.10100000352E+00 0. -1.
       -3    1    3    3    0  502 -0.20451741657E+02 -0.85175640504E+02  0.34299739457E+04  0.34310923103E+04  0.10100000352E+00 0.  1.
</event>
<event>
 5   0  0.2086250E-07  0.3598047E+04  0.7818609E-02  0.8090939E-01
       -1   -1    0    0    0  501  0.00000000000E+00  0.00000000000E+00  0.23186416095E+04  0.23186416095E+04  0.50400001928E-02 0.  1.
        1   -1    0    0  501    0  0.00000000000E+00  0.00000000000E+00 -0.13958544990E+04  0.13958544990E+04  0.50400001928E-02 0. -1.
    10030    2    1    2    0    0  0.00000000000E+00  0.00000000000E+00  0.92278711058E+03  0.37144961085E+04  0.35980474272E+04 0.  0.
        4    1    3    3  502    0  0.32494030149E+03  0.98430025552E+03 -0.10565864218E+04  0.14801383963E+04  0.12699999809E+01 0. -1.
       -4    1    3    3    0  502 -0.32494030149E+03 -0.98430025552E+03  0.19793735324E+04  0.22343577122E+04  0.12699999809E+01 0.  1.
</event>
<event>
 5   0  0.2193129E-07  0.3551988E+04  0.7818609E-02  0.8101579E-01
        1   -1    0    0  501    0  0.00000000000E+00  0.00000000000E+00  0.12079101916E+04  0.12079101916E+04  0.50400001928E-02 0. -1.
       -1   -1    0    0    0  501  0.00000000000E+00  0.00000000000E+00 -0.26112489936E+04  0.26112489936E+04  0.50400001928E-02 0.  1.
    10030    2    1    2    0    0  0.00000000000E+00  0.00000000000E+00 -0.14033388020E+04  0.38191591852E+04  0.35519877659E+04 0.  0.
        1    1    3    3  502    0 -0.10180873543E+04  0.47508748165E+03 -0.21806091173E+04  0.24530116385E+04  0.50400001928E-02 0.  1.
       -1    1    3    3    0  502  0.10180873543E+04 -0.47508748165E+03  0.77727031528E+03  0.13661475467E+04  0.50400001928E-02 0. -1.
</event>
<event>
 5   0  0.6669864E-07  0.3780526E+04  0.7818609E-02  0.8050347E-01
       -2   -1    0    0    0  501  0.00000000000E+00  0.00000000000E+00  0.12846037859E+04  0.12846037859E+04  0.25500000920E-02 0. -1.
        2   -1    0    0  501    0  0.00000000000E+00  0.00000000000E+00 -0.27814760712E+04  0.27814760712E+04  0.25500000920E-02 0.  1.
    10030    2    1    2    0    0  0.00000000000E+00  0.00000000000E+00 -0.14968722853E+04  0.40660798571E+04  0.37805262551E+04 0.  0.
        5    1    3    3  502    0 -0.16568798685E+04 -0.45362517986E+03 -0.15967076133E+04  0.23453195933E+04  0.46999998093E+01 0.  1.
       -5    1    3    3    0  502  0.16568798685E+04  0.45362517986E+03  0.99835328030E+02  0.17207602637E+04  0.46999998093E+01 0. -1.
</event>
<event>
 5   0  0.2108068E-07  0.3610410E+04  0.7818609E-02  0.8088111E-01
        1   -1    0    0  501    0  0.00000000000E+00  0.00000000000E+00  0.17490825087E+04  0.17490825087E+04  0.50400001928E-02 0.  1.
       -1   -1    0    0    0  501  0.00000000000E+00  0.00000000000E+00 -0.18631286123E+04  0.18631286123E+04  0.50400001928E-02 0. -1.
    10030    2    1    2    0    0  0.00000000000E+00  0.00000000000E+00 -0.11404610368E+03  0.36122111210E+04  0.36104103186E+04 0.  0.
        5    1    3    3  502    0 -0.22704217716E+03 -0.12462527646E+04  0.12297169765E+04  0.17654801148E+04  0.46999998093E+01 0.  1.
       -5    1    3    3    0  502  0.22704217716E+03  0.12462527646E+04 -0.13437630802E+04  0.18467310062E+04  0.46999998093E+01 0. -1.
</event>
<event>
 5   0  0.6729577E-07  0.3647433E+04  0.7818609E-02  0.8079712E-01
       -2   -1    0    0    0  501  0.00000000000E+00  0.00000000000E+00  0.15134297690E+04  0.15134297690E+04  0.25500000920E-02 0.  1.
        2   -1    0    0  501    0  0.00000000000E+00  0.00000000000E+00 -0.21976193625E+04  0.21976193625E+04  0.25500000920E-02 0. -1.
    10030    2    1    2    0    0  0.00000000000E+00  0.00000000000E+00 -0.68418959357E+03  0.37110491315E+04  0.36474333793E+04 0.  0.
        3    1    3    3  502    0  0.64881309413E+03 -0.16821682755E+04 -0.62911413259E+02  0.18040527693E+04  0.10100000352E+00 0.  1.
       -3    1    3    3    0  502 -0.64881309413E+03  0.16821682755E+04 -0.62127818031E+03  0.19069963623E+04  0.10100000352E+00 0. -1.
</event>
<event>
 5   0  0.2086250E-07  0.3583439E+04  0.7818609E-02  0.8094296E-01
       -1   -1    0    0    0  501  0.00000000000E+00  0.00000000000E+00  0.17185179164E+04  0.17185179164E+04  0.50400001928E-02 0. -1.
        1   -1    0    0  501    0  0.00000000000E+00  0.00000000000E+00 -0.18680392070E+04  0.18680392070E+04  0.50400001928E-02 0.  1.
    10030    2    1    2    0    0  0.00000000000E+00  0.00000000000E+00 -0.14952129054E+03  0.35865571234E+04  0.35834390442E+04 0.  0.
        2    1    3    3  502    0 -0.36788516780E+03  0.11742565464E+04 -0.13782151972E+04  0.18476187548E+04  0.25500000920E-02 0.  1.
       -2    1    3    3    0  502  0.36788516780E+03 -0.11742565464E+04  0.12286939066E+04  0.17389383686E+04  0.25500000920E-02 0. -1.
</event>
<event>
 5   0  0.2086250E-07  0.3547337E+04  0.7818609E-02  0.8102662E-01
        1   -1    0    0  501    0  0.00000000000E+00  0.00000000000E+00  0.13831614515E+04  0.13831614515E+04  0.50400001928E-02 0.  1.
       -1   -1    0    0    0  501  0.00000000000E+00  0.00000000000E+00 -0.22744268499E+04  0.22744268499E+04  0.50400001928E-02 0. -1.
    10030    2    1    2    0    0  0.00000000000E+00  0.00000000000E+00 -0.89126539839E+03  0.36575883014E+04  0.35473367717E+04 0.  0.
        4    1    3    3  502    0  0.15268726611E+04 -0.97373592814E+01  0.48489236630E+03  0.16020478018E+04  0.12699999809E+01 0.  1.
       -4    1    3    3    0  502 -0.15268726611E+04  0.97373592814E+01 -0.13761577647E+04  0.20555404996E+04  0.12699999809E+01 0. -1.
</event>
<event>
 5   0  0.2193129E-07  0.3622759E+04  0.7818609E-02  0.8085298E-01
       -1   -1    0    0    0  501  0.00000000000E+00  0.00000000000E+00  0.15321297260E+04  0.15321297261E+04  0.50400001928E-02 0. -1.
        1   -1    0    0  501    0  0.00000000000E+00  0.00000000000E+00 -0.21415255448E+04  0.21415255448E+04  0.50400001928E-02 0.  1.
    10030    2    1    2    0    0  0.00000000000E+00  0.00000000000E+00 -0.60939581872E+03  0.36736552708E+04  0.36227585877E+04 0.  0.
        1    1    3    3  502    0  0.10727453803E+04  0.90246170424E+03 -0.14679299376E+04  0.20297876934E+04  0.50400001928E-02 0.  1.
       -1    1    3    3    0  502 -0.10727453803E+04 -0.90246170424E+03  0.85853411893E+03  0.16438675774E+04  0.50400001928E-02 0. -1.
</event>
<event>
 5   0  0.2086250E-07  0.3439509E+04  0.7818609E-02  0.8128277E-01
        1   -1    0    0  501    0  0.00000000000E+00  0.00000000000E+00  0.18451483798E+04  0.18451483798E+04  0.50400001928E-02 0. -1.
       -1   -1    0    0    0  501  0.00000000000E+00  0.00000000000E+00 -0.16028818099E+04  0.16028818099E+04  0.50400001928E-02 0.  1.
    10030    2    1    2    0    0  0.00000000000E+00  0.00000000000E+00  0.24226656986E+03  0.34480301897E+04  0.34395085548E+04 0.  0.
        4    1    3    3  502    0 -0.10009540339E+04  0.83394871878E+03 -0.10042225697E+04  0.16449449917E+04  0.12699999809E+01 0.  1.
       -4    1    3    3    0  502  0.10009540339E+04 -0.83394871878E+03  0.12464891395E+04  0.18030851980E+04  0.12699999809E+01 0. -1.
</event>
<event>
 5   0  0.6324216E-07  0.3557982E+04  0.7818609E-02  0.8100185E-01
        2   -1    0    0  501    0  0.00000000000E+00  0.00000000000E+00  0.16914342750E+04  0.16914342750E+04  0.25500000920E-02 0.  1.
       -2   -1    0    0    0  501  0.00000000000E+00  0.00000000000E+00 -0.18710805397E+04  0.18710805397E+04  0.25500000920E-02 0. -1.
    10030    2    1    2    0    0  0.00000000000E+00  0.00000000000E+00 -0.17964626469E+03  0.35625148147E+04  0.35579824373E+04 0.  0.
        2    1    3    3  502    0 -0.15685447756E+04 -0.25368488573E+03 -0.89091795312E+03  0.18216540652E+04  0.25500000920E-02 0. -1.
       -2    1    3    3    0  502  0.15685447756E+04  0.25368488573E+03  0.71127168843E+03  0.17408607494E+04  0.25500000920E-02 0.  1.
</event>
<event>
 5   0  0.6848661E-07  0.3595847E+04  0.7818609E-02  0.8091444E-01
        2   -1    0    0  501    0  0.00000000000E+00  0.00000000000E+00  0.21749781152E+04  0.21749781152E+04  0.25500000920E-02 0.  1.
       -2   -1    0    0    0  501  0.00000000000E+00  0.00000000000E+00 -0.14862349885E+04  0.14862349885E+04  0.25500000920E-02 0. -1.
    10030    2    1    2    0    0  0.00000000000E+00  0.00000000000E+00  0.68874312675E+03  0.36612131037E+04  0.35958468121E+04 0.  0.
        1    1    3    3  502    0  0.12877803500E+04  0.10237857709E+04 -0.39408011388E+03  0.16916898861E+04  0.50400001928E-02 0. -1.
       -1    1    3    3    0  502 -0.12877803500E+04 -0.10237857709E+04  0.10828232406E+04  0.19695232177E+04  0.50400001928E-02 0.  1.
</event>
<event>
 5   0  0.6729577E-07  0.3582457E+04  0.7818609E-02  0.8094522E-01
       -2   -1    0    0    0  501  0.00000000000E+00  0.00000000000E+00  0.14443591510E+04  0.14443591510E+04  0.25500000920E-02 0.  1.
        2   -1    0    0  501    0  0.00000000000E+00  0.00000000000E+00 -0.22214003071E+04  0.22214003071E+04  0.25500000920E-02 0. -1.
    10030    2    1    2    0    0  0.00000000000E+00  0.00000000000E+00 -0.77704115608E+03  0.36657594580E+04  0.35824571799E+04 0.  0.
        3    1    3    3  502    0 -0.73321041269E+03 -0.90263446512E+03  0.10055664436E+04  0.15373712530E+04  0.10100000352E+00 0.  1.
       -3    1    3    3    0  502  0.73321041269E+03  0.90263446512E+03 -0.17826075996E+04  0.21283882050E+04  0.10100000352E+00 0. -1.
</event>
<event>
 5   0  0.6848661E-07  0.3621187E+04  0.7818609E-02  0.8085656E-01
       -2   -1    0    0    0  501  0.00000000000E+00  0.00000000000E+00  0.26510813525E+04  0.26510813525E+04  0.25500000920E-02 0. -1.
        2   -1    0    0  501    0  0.00000000000E+00  0.00000000000E+00 -0.12365703594E+04  0.12365703594E+04  0.25500000920E-02 0.  1.
    10030    2    1    2    0    0  0.00000000000E+00  0.00000000000E+00  0.14145109931E+04  0.38876517118E+04  0.36211868887E+04 0.  0.
        1    1    3    3  502    0  0.14886238957E+03 -0.35307982749E+03  0.26070529299E+04  0.26350617364E+04  0.50400001928E-02 0. -1.
       -1    1    3    3    0  502 -0.14886238957E+03  0.35307982749E+03 -0.11925419368E+04  0.12525899754E+04  0.50400001928E-02 0.  1.
</event>
<event>
 5   0  0.6541476E-07  0.3587101E+04  0.7818609E-02  0.8093453E-01
       -2   -1    0    0    0  501  0.00000000000E+00  0.00000000000E+00  0.13206756879E+04  0.13206756879E+04  0.25500000920E-02 0. -1.
        2   -1    0    0  501    0  0.00000000000E+00  0.00000000000E+00 -0.24357404147E+04  0.24357404147E+04  0.25500000920E-02 0.  1.
    10030    2    1    2    0    0  0.00000000000E+00  0.00000000000E+00 -0.11150647268E+04  0.37564161025E+04  0.35871008615E+04 0.  0.
        4    1    3    3  502    0  0.91373157584E+03  0.82169284890E+03  0.81055366473E+03  0.14721016904E+04  0.12699999809E+01 0. -1.
       -4    1    3    3    0  502 -0.91373157584E+03 -0.82169284890E+03 -0.19256183916E+04  0.22843144121E+04  0.12699999809E+01 0.  1.
</event>
<event>
 5   0  0.2086250E-07  0.3613879E+04  0.7818609E-02  0.8087320E-01
        1   -1    0    0  501    0  0.00000000000E+00  0.00000000000E+00  0.19257345251E+04  0.19257345251E+04  0.50400001928E-02 0.  1.
       -1   -1    0    0    0  501  0.00000000000E+00  0.00000000000E+00 -0.16954723557E+04  0.16954723557E+04  0.50400001928E-02 0. -1.
    10030    2    1    2    0    0  0.00000000000E+00  0.00000000000E+00  0.23026216940E+03  0.36212068809E+04  0.36138786100E+04 0.  0.
        3    1    3    3  502    0 -0.14866248158E+04  0.88835455598E+03  0.63173690168E+03  0.18434529241E+04  0.10100000352E+00 0. -1.
       -3    1    3    3    0  502  0.14866248158E+04 -0.88835455598E+03 -0.40147473228E+03  0.17777539568E+04  0.10100000352E+00 0.  1.
</event>
<event>
 5   0  0.2193129E-07  0.3599681E+04  0.7818609E-02  0.8090565E-01
        1   -1    0    0  501    0  0.00000000000E+00  0.00000000000E+00  0.22832647235E+04  0.22832647235E+04  0.50400001928E-02 0.  1.
       -1   -1    0    0    0  501  0.00000000000E+00  0.00000000000E+00 -0.14187689435E+04  0.14187689435E+04  0.50400001928E-02 0. -1.
    10030    2    1    2    0    0  0.00000000000E+00  0.00000000000E+00  0.86449577999E+03  0.37020336671E+04  0.35996805856E+04 0.  0.
        1    1    3    3  502    0  0.80376035320E+02 -0.72684415873E+03 -0.12590999196E+04  0.14560547194E+04  0.50400001928E-02 0. -1.
       -1    1    3    3    0  502 -0.80376035320E+02  0.72684415873E+03  0.21235956996E+04  0.22459789477E+04  0.50400001928E-02 0.  1.
</event>
<event>
 5   0  0.2086250E-07  0.3614134E+04  0.7818609E-02  0.8087262E-01
        3   -1    0    0  501    0  0.00000000000E+00  0.00000000000E+00  0.19105500424E+04  0.19105500451E+04  0.10100000352E+00 0. -1.
       -3   -1    0    0    0  501  0.00000000000E+00  0.00000000000E+00 -0.17091894295E+04  0.17091894325E+04  0.10100000352E+00 0.  1.
    10030    2    1    2    0    0  0.00000000000E+00  0.00000000000E+00  0.20136061295E+03  0.36197394775E+04  0.36141344453E+04 0.  0.
        3    1    3    3  502    0 -0.17795359516E+04 -0.46344993903E+02 -0.21060047017E+03  0.17925536616E+04  0.10100000352E+00 0. -1.
       -3    1    3    3    0  502  0.17795359516E+04  0.46344993903E+02  0.41196108312E+03  0.18271858159E+04  0.10100000352E+00 0.  1.
</event>
<event>
 5   0  0.2193129E-07  0.3462389E+04  0.7818609E-02  0.8122761E-01
       -1   -1    0    0    0  501  0.00000000000E+00  0.00000000000E+00  0.17908726578E+04  0.17908726578E+04  0.50400001928E-02 0.  1.
        1   -1    0    0  501    0  0.00000000000E+00  0.00000000000E+00 -0.16735054011E+04  0.16735054011E+04  0.50400001928E-02 0. -1.
    10030    2    1    2    0    0  0.00000000000E+00  0.00000000000E+00  0.11736725672E+03  0.34643780589E+04  0.34623893863E+04 0.  0.
        1    1    3    3  502    0 -0.42988056073E+03 -0.41173622098E+03  0.16852590747E+04  0.17872946486E+04  0.50400001928E-02 0.  1.
       -1    1    3    3    0  502  0.42988056073E+03  0.41173622098E+03 -0.15678918180E+04  0.16770834103E+04  0.50400001928E-02 0. -1.
</event>
<event>
 5   0  0.2086250E-07  0.3605213E+04  0.7818609E-02  0.8089299E-01
        1   -1    0    0  501    0  0.00000000000E+00  0.00000000000E+00  0.25209936011E+04  0.25209936011E+04  0.50400001928E-02 0. -1.
       -1   -1    0    0    0  501  0.00000000000E+00  0.00000000000E+00 -0.12889324039E+04  0.12889324039E+04  0.50400001928E-02 0.  1.
    10030    2    1    2    0    0  0.00000000000E+00  0.00000000000E+00  0.12320611971E+04  0.38099260050E+04  0.36052130825E+04 0.  0.
        4    1    3    3  502    0  0.97403551012E+03  0.31255627944E+03  0.21845436343E+04  0.24121917639E+04  0.12699999809E+01 0. -1.
       -4    1    3    3    0  502 -0.97403551012E+03 -0.31255627944E+03 -0.95248243714E+03  0.13977342411E+04  0.12699999809E+01 0.  1.
</event>
<event>
 5   0  0.2086250E-07  0.3610284E+04  0.7818609E-02  0.8088140E-01
        1   -1    0    0  501    0  0.00000000000E+00  0.00000000000E+00  0.23076764388E+04  0.23076764388E+04  0.50400001928E-02 0. -1.
       -1   -1    0    0    0  501  0.00000000000E+00  0.00000000000E+00 -0.14120429273E+04  0.14120429273E+04  0.50400001928E-02 0.  1.
    10030    2    1    2    0    0  0.00000000000E+00  0.00000000000E+00  0.89563351150E+03  0.37197193661E+04  0.36102843068E+04 0.  0.
        3    1    3    3  502    0 -0.14752405484E+04 -0.38816606584E+03  0.14422310037E+04  0.20992946073E+04  0.10100000352E+00 0. -1.
       -3    1    3    3    0  502  0.14752405484E+04  0.38816606584E+03 -0.54659749216E+03  0.16204247588E+04  0.10100000352E+00 0.  1.
</event>
<event>
 5   0  0.6541476E-07  0.3603718E+04  0.7818609E-02  0.8089641E-01
       -2   -1    0    0    0  501  0.00000000000E+00  0.00000000000E+00  0.15133920335E+04  0.15133920335E+04  0.25500000920E-02 0. -1.
        2   -1    0    0  501    0  0.00000000000E+00  0.00000000000E+00 -0.21453100849E+04  0.21453100849E+04  0.25500000920E-02 0.  1.
    10030    2    1    2    0    0  0.00000000000E+00  0.00000000000E+00 -0.63191805139E+03  0.36587021184E+04  0.36037176314E+04 0.  0.
        4    1    3    3  502    0  0.82690226029E+03 -0.15675729266E+04  0.14025268204E+02  0.17723573425E+04  0.12699999809E+01 0.  1.
       -4    1    3    3    0  502 -0.82690226029E+03  0.15675729266E+04 -0.64594331959E+03  0.18863447759E+04  0.12699999809E+01 0. -1.
</event>
<event>
 5   0  0.2086250E-07  0.3621263E+04  0.7818609E-02  0.8085638E-01
       -1   -1    0    0    0  501  0.00000000000E+00  0.00000000000E+00  0.14214820579E+04  0.14214820579E+04  0.50400001928E-02 0.  1.
        1   -1    0    0  501    0  0.00000000000E+00  0.00000000000E+00 -0.23063155018E+04  0.23063155018E+04  0.50400001928E-02 0. -1.
    10030    2    1    2    0    0  0.00000000000E+00  0.00000000000E+00 -0.88483344387E+03  0.37277975597E+04  0.36212628216E+04 0.  0.
        2    1    3    3  502    0 -0.13138994751E+04  0.38356791907E+01 -0.17248762473E+04  0.21683045477E+04  0.25500000920E-02 0. -1.
       -2    1    3    3    0  502  0.13138994751E+04 -0.38356791907E+01  0.84004280344E+03  0.15594930120E+04  0.25500000920E-02 0.  1.
</event>
<event>
 5   0  0.2086250E-07  0.3626415E+04  0.7818609E-02  0.8084468E-01
       -1   -1    0    0    0  501  0.00000000000E+00  0.00000000000E+00  0.15273149937E+04  0.15273149937E+04  0.50400001928E-02 0.  1.
        1   -1    0    0  501    0  0.00000000000E+00  0.00000000000E+00 -0.21526148186E+04  0.21526148186E+04  0.50400001928E-02 0. -1.
    10030    2    1    2    0    0  0.00000000000E+00  0.00000000000E+00 -0.62529982490E+03  0.36799298123E+04  0.36264146967E+04 0.  0.
        3    1    3    3  502    0  0.14707329760E+04 -0.22913643779E+03  0.73808279473E+03  0.16614226482E+04  0.10100000352E+00 0.  1.
       -3    1    3    3    0  502 -0.14707329760E+04  0.22913643779E+03 -0.13633826196E+04  0.20185071641E+04  0.10100000352E+00 0. -1.
</event>
<event>
 5   0  0.6669864E-07  0.3623209E+04  0.7818609E-02  0.8085196E-01
       -2   -1    0    0    0  501  0.00000000000E+00  0.00000000000E+00  0.17930125037E+04  0.17930125037E+04  0.25500000920E-02 0.  1.
        2   -1    0    0  501    0  0.00000000000E+00  0.00000000000E+00 -0.18303890676E+04  0.18303890676E+04  0.25500000920E-02 0. -1.
    10030    2    1    2    0    0  0.00000000000E+00  0.00000000000E+00 -0.37376563926E+02  0.36234015714E+04  0.36232087905E+04 0.  0.
        5    1    3    3  502    0  0.11435929589E+03  0.90393434009E+03  0.15471897336E+04  0.17955482454E+04  0.46999998093E+01 0.  1.
       -5    1    3    3    0  502 -0.11435929589E+03 -0.90393434009E+03 -0.15845662976E+04  0.18278533259E+04  0.46999998093E+01 0. -1.
</event>
<event>
 5   0  0.2086250E-07  0.3605005E+04  0.7818609E-02  0.8089346E-01
        1   -1    0    0  501    0  0.00000000000E+00  0.00000000000E+00  0.27695584359E+04  0.27695584359E+04  0.50400001928E-02 0. -1.
       -1   -1    0    0    0  501  0.00000000000E+00  0.00000000000E+00 -0.11731167625E+04  0.11731167626E+04  0.50400001928E-02 0.  1.
    10030    2    1    2    0    0  0.00000000000E+00  0.00000000000E+00  0.15964416734E+04  0.39426751985E+04  0.36050050907E+04 0.  0.
        2    1    3    3  502    0 -0.16335546395E+04 -0.14573192824E+03 -0.19676037119E+02  0.16401602671E+04  0.25500000920E-02 0.  1.
       -2    1    3    3    0  502  0.16335546395E+04  0.14573192824E+03  0.16161177105E+04  0.23025149314E+04  0.25500000920E-02 0. -1.
</event>
<event>
 5   0  0.2108068E-07  0.3584161E+04  0.7818609E-02  0.8094130E-01
       -1   -1    0    0    0  501  0.00000000000E+00  0.00000000000E+00  0.17380407611E+04  0.17380407611E+04  0.50400001928E-02 0.  1.
        1   -1    0    0  501    0  0.00000000000E+00  0.00000000000E+00 -0.18478002725E+04  0.18478002725E+04  0.50400001928E-02 0. -1.
    10030    2    1    2    0    0  0.00000000000E+00  0.00000000000E+00 -0.10975951139E+03  0.35858410336E+04  0.35841608178E+04 0.  0.
        5    1    3    3  502    0 -0.19441683689E+03 -0.77467436076E+03  0.15501203560E+04  0.17437928432E+04  0.46999998093E+01 0.  1.
       -5    1    3    3    0  502  0.19441683689E+03  0.77467436076E+03 -0.16598798674E+04  0.18420481904E+04  0.46999998093E+01 0. -1.
</event>
<event>
 5   0  0.2108068E-07  0.3573188E+04  0.7818609E-02  0.8096661E-01
       -1   -1    0    0    0  501  0.00000000000E+00  0.00000000000E+00  0.17741842329E+04  0.17741842329E+04  0.50400001928E-02 0. -1.
        1   -1    0    0  501    0  0.00000000000E+00  0.00000000000E+00 -0.17990902420E+04  0.17990902420E+04  0.50400001928E-02 0.  1.
    10030    2    1    2    0    0  0.00000000000E+00  0.00000000000E+00 -0.24906009069E+02  0.35732744749E+04  0.35731876754E+04 0.  0.
        5    1    3    3  502    0  0.50464880770E+03 -0.61188511930E+03 -0.16133734103E+04  0.17977957808E+04  0.46999998093E+01 0.  1.
       -5    1    3    3    0  502 -0.50464880770E+03  0.61188511930E+03  0.15884674012E+04  0.17754786941E+04  0.46999998093E+01 0. -1.
</event>
<event>
 5   0  0.6324216E-07  0.3598900E+04  0.7818609E-02  0.8090744E-01
        2   -1    0    0  501    0  0.00000000000E+00  0.00000000000E+00  0.19950457538E+04  0.19950457538E+04  0.25500000920E-02 0.  1.
       -2   -1    0    0    0  501  0.00000000000E+00  0.00000000000E+00 -0.16230309684E+04  0.16230309684E+04  0.25500000920E-02 0. -1.
    10030    2    1    2    0    0  0.00000000000E+00  0.00000000000E+00  0.37201478537E+03  0.36180767221E+04  0.35989004108E+04 0.  0.
        2    1    3    3  502    0 -0.81185842392E+03 -0.82190870605E+03  0.15729864307E+04  0.19516491316E+04  0.25500000920E-02 0.  1.
       -2    1    3    3    0  502  0.81185842392E+03  0.82190870605E+03 -0.12009716454E+04  0.16664275906E+04  0.25500000920E-02 0. -1.
</event>
<event>
 5   0  0.6324216E-07  0.3581809E+04  0.7818609E-02  0.8094671E-01
       -2   -1    0    0    0  501  0.00000000000E+00  0.00000000000E+00  0.14350454891E+04  0.14350454891E+04  0.25500000920E-02 0.  1.
        2   -1    0    0  501    0  0.00000000000E+00  0.00000000000E+00 -0.22350087274E+04  0.22350087274E+04  0.25500000920E-02 0. -1.
    10030    2    1    2    0    0  0.00000000000E+00  0.00000000000E+00 -0.79996323830E+03  0.36700542165E+04  0.35818091475E+04 0.  0.
        2    1    3    3  502    0 -0.44826716655E+03 -0.13233329827E+04  0.74797111112E+03  0.15848073760E+04  0.25500000920E-02 0.  1.
       -2    1    3    3    0  502  0.44826716655E+03  0.13233329827E+04 -0.15479343494E+04  0.20852468405E+04  0.25500000920E-02 0. -1.
</event>
<event>
 5   0  0.6669864E-07  0.3603497E+04  0.7818609E-02  0.8089691E-01
        2   -1    0    0  501    0  0.00000000000E+00  0.00000000000E+00  0.14317948219E+04  0.14317948219E+04  0.25500000920E-02 0.  1.
       -2   -1    0    0    0  501  0.00000000000E+00  0.00000000000E+00 -0.22672924584E+04  0.22672924584E+04  0.25500000920E-02 0. -1.
    10030    2    1    2    0    0  0.00000000000E+00  0.00000000000E+00 -0.83549763654E+03  0.36990872803E+04  0.36034969691E+04 0.  0.
        5    1    3    3  502    0  0.16168391805E+04  0.79021885100E+03 -0.50759629428E+03  0.18698371202E+04  0.46999998093E+01 0. -1.
       -5    1    3    3    0  502 -0.16168391805E+04 -0.79021885100E+03 -0.32790134226E+03  0.18292501601E+04  0.46999998093E+01 0.  1.
</event>
<event>
 5   0  0.6541476E-07  0.3585048E+04  0.7818609E-02  0.8093925E-01
        2   -1    0    0  501    0  0.00000000000E+00  0.00000000000E+00  0.21581631049E+04  0.21581631049E+04  0.25500000920E-02 0.  1.
       -2   -1    0    0    0  501  0.00000000000E+00  0.00000000000E+00 -0.14888318122E+04  0.14888318122E+04  0.25500000920E-02 0. -1.
    10030    2    1    2    0    0  0.00000000000E+00  0.00000000000E+00  0.66933129274E+03  0.36469949170E+04  0.35850477745E+04 0.  0.
        4    1    3    3  502    0  0.41738276082E+03 -0.59728692976E+02 -0.14376685937E+04  0.14982217740E+04  0.12699999809E+01 0. -1.
       -4    1    3    3    0  502 -0.41738276082E+03  0.59728692976E+02  0.21069998865E+04  0.21487731430E+04  0.12699999809E+01 0.  1.
</event>
<event>
 5   0  0.2193129E-07  0.3577313E+04  0.7818609E-02  0.8095708E-01
        1   -1    0    0  501    0  0.00000000000E+00  0.00000000000E+00  0.12888878943E+04  0.12888878944E+04  0.50400001928E-02 0.  1.
       -1   -1    0    0    0  501  0.00000000000E+00  0.00000000000E+00 -0.24822112243E+04  0.24822112243E+04  0.50400001928E-02 0. -1.
    10030    2    1    2    0    0  0.00000000000E+00  0.00000000000E+00 -0.11933233299E+04  0.37710991186E+04  0.35773129571E+04 0.  0.
        1    1    3    3  502    0  0.10668378248E+04  0.47327871938E+03 -0.20255031991E+04  0.23376909335E+04  0.50400001928E-02 0. -1.
       -1    1    3    3    0  502 -0.10668378248E+04 -0.47327871938E+03  0.83217986921E+03  0.14334081852E+04  0.50400001928E-02 0.  1.
</event>
<event>
 5   0  0.6541476E-07  0.3622465E+04  0.7818609E-02  0.8085365E-01
        2   -1    0    0  501    0  0.00000000000E+00  0.00000000000E+00  0.17324875270E+04  0.17324875270E+04  0.25500000920E-02 0.  1.
       -2   -1    0    0    0  501  0.00000000000E+00  0.00000000000E+00 -0.18935563295E+04  0.18935563295E+04  0.25500000920E-02 0. -1.
    10030    2    1    2    0    0  0.00000000000E+00  0.00000000000E+00 -0.16106880248E+03  0.36260438565E+04  0.36224647535E+04 0.  0.
        4    1    3    3  502    0  0.11483283403E+04 -0.24409267818E+03 -0.14611439968E+04  0.18743485815E+04  0.12699999809E+01 0. -1.
       -4    1    3    3    0  502 -0.11483283403E+04  0.24409267818E+03  0.13000751944E+04  0.17516952750E+04  0.12699999809E+01 0.  1.
</event>
<event>
 5   0  0.2086250E-07  0.3604084E+04  0.7818609E-02  0.8089557E-01
       -1   -1    0    0    0  501  0.00000000000E+00  0.00000000000E+00  0.17180892957E+04  0.17180892957E+04  0.50400001928E-02 0.  1.
        1   -1    0    0  501    0  0.00000000000E+00  0.00000000000E+00 -0.18900964677E+04  0.18900964677E+04  0.50400001928E-02 0. -1.
    10030    2    1    2    0    0  0.00000000000E+00  0.00000000000E+00 -0.17200717201E+03  0.36081857634E+04  0.36040835223E+04 0.  0.
        4    1    3    3  502    0 -0.16674098407E+04 -0.57168812332E+03  0.28894908673E+03  0.17862183727E+04  0.12699999809E+01 0.  1.
       -4    1    3    3    0  502  0.16674098407E+04  0.57168812332E+03 -0.46095625874E+03  0.18219673907E+04  0.12699999809E+01 0. -1.
</event>
<event>
 5   0  0.6848661E-07  0.3529150E+04  0.7818609E-02  0.8106916E-01
       -2   -1    0    0    0  501  0.00000000000E+00  0.00000000000E+00  0.23792719448E+04  0.23792719448E+04  0.25500000920E-02 0. -1.
        2   -1    0    0  501    0  0.00000000000E+00  0.00000000000E+00 -0.13086879151E+04  0.13086879151E+04  0.25500000920E-02 0.  1.
    10030    2    1    2    0    0  0.00000000000E+00  0.00000000000E+00  0.10705840298E+04  0.36879598599E+04  0.35291497224E+04 0.  0.
        1    1    3    3  502    0 -0.47174339054E+03 -0.14210118399E+04  0.15110709188E+04  0.21272404184E+04  0.50400001928E-02 0. -1.
       -1    1    3    3    0  502  0.47174339054E+03  0.14210118399E+04 -0.44048688906E+03  0.15607194415E+04  0.50400001928E-02 0.  1.
</event>
<event>
 5   0  0.2086250E-07  0.3651715E+04  0.7818609E-02  0.8078747E-01
        1   -1    0    0  501    0  0.00000000000E+00  0.00000000000E+00  0.19131473371E+04  0.19131473371E+04  0.50400001928E-02 0.  1.
       -1   -1    0    0    0  501  0.00000000000E+00  0.00000000000E+00 -0.17425503936E+04  0.17425503936E+04  0.50400001928E-02 0. -1.
    10030    2    1    2    0    0  0.00000000000E+00  0.00000000000E+00  0.17059694357E+03  0.36556977307E+04  0.36517150192E+04 0.  0.
        3    1    3    3  502    0 -0.10155477533E+04 -0.10225347022E+04 -0.10370135168E+04  0.17754750071E+04  0.10100000352E+00 0. -1.
       -3    1    3    3    0  502  0.10155477533E+04  0.10225347022E+04  0.12076104604E+04  0.18802227237E+04  0.10100000352E+00 0.  1.
</event>
<event>
 5   0  0.6729577E-07  0.3488949E+04  0.7818609E-02  0.8116414E-01
        2   -1    0    0  501    0  0.00000000000E+00  0.00000000000E+00  0.23717250772E+04  0.23717250772E+04  0.25500000920E-02 0.  1.
       -2   -1    0    0    0  501  0.00000000000E+00  0.00000000000E+00 -0.12831128181E+04  0.12831128181E+04  0.25500000920E-02 0. -1.
    10030    2    1    2    0    0  0.00000000000E+00  0.00000000000E+00  0.10886122591E+04  0.36548378953E+04  0.34889487515E+04 0.  0.
        3    1    3    3  502    0 -0.13863396564E+04  0.85717256172E+03  0.11955640138E+04  0.20213994570E+04  0.10100000352E+00 0.  1.
       -3    1    3    3    0  502  0.13863396564E+04 -0.85717256172E+03 -0.10695175473E+03  0.16334384383E+04  0.10100000352E+00 0. -1.
</event>
<event>
 5   0  0.2108068E-07  0.3601569E+04  0.7818609E-02  0.8090132E-01
       -1   -1    0    0    0  501  0.00000000000E+00  0.00000000000E+00  0.11676638814E+04  0.11676638814E+04  0.50400001928E-02 0. -1.
        1   -1    0    0  501    0  0.00000000000E+00  0.00000000000E+00 -0.27771904007E+04  0.27771904007E+04  0.50400001928E-02 0.  1.
    10030    2    1    2    0    0  0.00000000000E+00  0.00000000000E+00 -0.16095265193E+04  0.39448542821E+04  0.36015690595E+04 0.  0.
        5    1    3    3  502    0 -0.12404385159E+04 -0.12870166629E+04 -0.10439918678E+04  0.20700339882E+04  0.46999998093E+01 0.  1.
       -5    1    3    3    0  502  0.12404385159E+04  0.12870166629E+04 -0.56553465156E+03  0.18748202939E+04  0.46999998093E+01 0. -1.
</event>
<event>
 5   0  0.6848661E-07  0.3619812E+04  0.7818609E-02  0.8085969E-01
        2   -1    0    0  501    0  0.00000000000E+00  0.00000000000E+00  0.17263285231E+04  0.17263285231E+04  0.25500000920E-02 0.  1.
       -2   -1    0    0    0  501  0.00000000000E+00  0.00000000000E+00 -0.18975292708E+04  0.18975292708E+04  0.25500000920E-02 0. -1.
    10030    2    1    2    0    0  0.00000000000E+00  0.00000000000E+00 -0.17120074766E+03  0.36238577939E+04  0.36198115440E+04 0.  0.
        1    1    3    3  502    0  0.42813506376E+03  0.92241046288E+03  0.14132766730E+04  0.17411179309E+04  0.50400001928E-02 0.  1.
       -1    1    3    3    0  502 -0.42813506376E+03 -0.92241046288E+03 -0.15844774207E+04  0.18827398630E+04  0.50400001928E-02 0. -1.
</event>
<event>
 5   0  0.6729577E-07  0.3707497E+04  0.7818609E-02  0.8066302E-01
        2   -1    0    0  501    0  0.00000000000E+00  0.00000000000E+00  0.25955116962E+04  0.25955116962E+04  0.25500000920E-02 0. -1.
       -2   -1    0    0    0  501  0.00000000000E+00  0.00000000000E+00 -0.13239715547E+04  0.13239715547E+04  0.25500000920E-02 0.  1.
    10030    2    1    2    0    0  0.00000000000E+00  0.00000000000E+00  0.12715401415E+04  0.39194832509E+04  0.37074970833E+04 0.  0.
        3    1    3    3  502    0 -0.17189750592E+04 -0.65491083611E+03  0.39330921003E+03  0.18810836245E+04  0.10100000352E+00 0. -1.
       -3    1    3    3    0  502  0.17189750592E+04  0.65491083611E+03  0.87823093146E+03  0.20383996264E+04  0.10100000352E+00 0.  1.
</event>
<event>
 5   0  0.2086250E-07  0.3560212E+04  0.7818609E-02  0.8099667E-01
       -3   -1    0    0    0  501  0.00000000000E+00  0.00000000000E+00  0.16417418054E+04  0.16417418085E+04  0.10100000352E+00 0. -1.
        3   -1    0    0  501    0  0.00000000000E+00  0.00000000000E+00 -0.19301317623E+04  0.19301317649E+04  0.10100000352E+00 0.  1.
    10030    2    1    2    0    0  0.00000000000E+00  0.00000000000E+00 -0.28838995689E+03  0.35718735734E+04  0.35602123613E+04 0.  0.
        3    1    3    3  502    0  0.16045101548E+04  0.46185152498E+03  0.47509366083E+03  0.17359359621E+04  0.10100000352E+00 0. -1.
       -3    1    3    3    0  502 -0.16045101548E+04 -0.46185152498E+03 -0.76348361772E+03  0.18359376113E+04  0.10100000352E+00 0.  1.
</event>
<event>
 5   0  0.2086250E-07  0.3655004E+04  0.7818609E-02  0.8078007E-01
       -1   -1    0    0    0  501  0.00000000000E+00  0.00000000000E+00  0.11862730720E+04  0.11862730720E+04  0.50400001928E-02 0.  1.
        1   -1    0    0  501    0  0.00000000000E+00  0.00000000000E+00 -0.28153418320E+04  0.28153418320E+04  0.50400001928E-02 0. -1.
    10030    2    1    2    0    0  0.00000000000E+00  0.00000000000E+00 -0.16290687601E+04  0.40016149040E+04  0.36550043522E+04 0.  0.
        4    1    3    3  502    0 -0.16795788918E+04  0.65102877388E+02 -0.15998722179E+04  0.23205207099E+04  0.12699999809E+01 0. -1.
       -4    1    3    3    0  502  0.16795788918E+04 -0.65102877388E+02 -0.29196542207E+02  0.16810941941E+04  0.12699999809E+01 0.  1.
</event>
<event>
 5   0  0.2086250E-07  0.3615894E+04  0.7818609E-02  0.8086861E-01
        1   -1    0    0  501    0  0.00000000000E+00  0.00000000000E+00  0.17771630743E+04  0.17771630743E+04  0.50400001928E-02 0.  1.
       -1   -1    0    0    0  501  0.00000000000E+00  0.00000000000E+00 -0.18392645561E+04  0.18392645561E+04  0.50400001928E-02 0. -1.
    10030    2    1    2    0    0  0.00000000000E+00  0.00000000000E+00 -0.62101481845E+02  0.36164276304E+04  0.36158943861E+04 0.  0.
        2    1    3    3  502    0 -0.75028887394E+03 -0.14783185116E+04 -0.75248508432E+03  0.18206023229E+04  0.25500000920E-02 0.  1.
       -2    1    3    3    0  502  0.75028887394E+03  0.14783185116E+04  0.69038360247E+03  0.17958253074E+04  0.25500000920E-02 0. -1.
</event>
<event>
 5   0  0.6541476E-07  0.3652049E+04  0.7818609E-02  0.8078672E-01
       -2   -1    0    0    0  501  0.00000000000E+00  0.00000000000E+00  0.21868391578E+04  0.21868391579E+04  0.25500000920E-02 0. -1.
        2   -1    0    0  501    0  0.00000000000E+00  0.00000000000E+00 -0.15247416951E+04  0.15247416951E+04  0.25500000920E-02 0.  1.
    10030    2    1    2    0    0  0.00000000000E+00  0.00000000000E+00  0.66209746274E+03  0.37115808530E+04  0.36520486549E+04 0.  0.
        4    1    3    3  502    0 -0.75170600070E+03 -0.11334201180E+04  0.15693773149E+04  0.20766920438E+04  0.12699999809E+01 0. -1.
       -4    1    3    3    0  502  0.75170600070E+03  0.11334201180E+04 -0.90727985215E+03  0.16348888092E+04  0.12699999809E+01 0.  1.
</event>
<event>
 5   0  0.6848661E-07  0.3815460E+04  0.7818609E-02  0.8042845E-01
       -2   -1    0    0    0  501  0.00000000000E+00  0.00000000000E+00  0.16588969382E+04  0.16588969382E+04  0.25500000920E-02 0.  1.
        2   -1    0    0  501    0  0.00000000000E+00  0.00000000000E+00 -0.21938881593E+04  0.21938881593E+04  0.25500000920E-02 0. -1.
    10030    2    1    2    0    0  0.00000000000E+00  0.00000000000E+00 -0.53499122103E+03  0.38527850975E+04  0.38154603131E+04 0.  0.
        1    1    3    3  502    0 -0.33530958654E+03 -0.99138651608E+03  0.13431485214E+04  0.17027412292E+04  0.50400001928E-02 0.  1.
       -1    1    3    3    0  502  0.33530958654E+03  0.99138651608E+03 -0.18781397425E+04  0.21500438682E+04  0.50400001928E-02 0. -1.
</event>
<event>
 5   0  0.2193129E-07  0.3669555E+04  0.7818609E-02  0.8074743E-01
       -1   -1    0    0    0  501  0.00000000000E+00  0.00000000000E+00  0.12463459278E+04  0.12463459278E+04  0.50400001928E-02 0.  1.
        1   -1    0    0  501    0  0.00000000000E+00  0.00000000000E+00 -0.27010222218E+04  0.27010222218E+04  0.50400001928E-02 0. -1.
    10030    2    1    2    0    0  0.00000000000E+00  0.00000000000E+00 -0.14546762940E+04  0.39473681495E+04  0.36695547669E+04 0.  0.
        1    1    3    3  502    0  0.27587000505E+03  0.16926556460E+04 -0.14287957597E+04  0.22321838452E+04  0.50400001928E-02 0. -1.
       -1    1    3    3    0  502 -0.27587000505E+03 -0.16926556460E+04 -0.25880534297E+02  0.17151843043E+04  0.50400001928E-02 0.  1.
</event>
<event>
 5   0  0.6669864E-07  0.3494476E+04  0.7818609E-02  0.8115100E-01
        2   -1    0    0  501    0  0.00000000000E+00  0.00000000000E+00  0.27259473904E+04  0.27259473904E+04  0.25500000920E-02 0. -1.
       -2   -1    0    0    0  501  0.00000000000E+00  0.00000000000E+00 -0.11199193630E+04  0.11199193630E+04  0.25500000920E-02 0.  1.
    10030    2    1    2    0    0  0.00000000000E+00  0.00000000000E+00  0.16060280273E+04  0.38458667534E+04  0.34944763642E+04 0.  0.
        5    1    3    3  502    0  0.11124131197E+04 -0.75602393057E+03  0.20304097668E+04  0.24354919510E+04  0.46999998093E+01 0. -1.
       -5    1    3    3    0  502 -0.11124131197E+04  0.75602393057E+03 -0.42438173942E+03  0.14103748024E+04  0.46999998093E+01 0.  1.
</event>
<event>
 5   0  0.2086250E-07  0.3563455E+04  0.7818609E-02  0.8098914E-01
        1   -1    0    0  501    0  0.00000000000E+00  0.00000000000E+00  0.13635240649E+04  0.13635240650E+04  0.50400001928E-02 0.  1.
       -1   -1    0    0    0  501  0.00000000000E+00  0.00000000000E+00 -0.23281968069E+04  0.23281968069E+04  0.50400001928E-02 0. -1.
    10030    2    1    2    0    0  0.00000000000E+00  0.00000000000E+00 -0.96467274195E+03  0.36917208719E+04  0.35634547137E+04 0.  0.
        4    1    3    3  502    0 -0.47742754399E+03  0.17085831955E+04 -0.31098279859E+03  0.18010845370E+04  0.12699999809E+01 0. -1.
       -4    1    3    3    0  502  0.47742754399E+03 -0.17085831955E+04 -0.65368994336E+03  0.18906363348E+04  0.12699999809E+01 0.  1.
</event>
<event>
 5   0  0.2108068E-07  0.3601989E+04  0.7818609E-02  0.8090036E-01
        1   -1    0    0  501    0  0.00000000000E+00  0.00000000000E+00  0.20441210318E+04  0.20441210318E+04  0.50400001928E-02 0.  1.
       -1   -1    0    0    0  501  0.00000000000E+00  0.00000000000E+00 -0.15867850687E+04  0.15867850687E+04  0.50400001928E-02 0. -1.
    10030    2    1    2    0    0  0.00000000000E+00  0.00000000000E+00  0.45733596311E+03  0.36309061005E+04  0.36019887462E+04 0.  0.
        5    1    3    3  502    0  0.23194720398E+03 -0.13718243294E+04  0.13814649371E+04  0.19606552371E+04  0.46999998093E+01 0.  1.
       -5    1    3    3    0  502 -0.23194720398E+03  0.13718243294E+04 -0.92412897398E+03  0.16702508634E+04  0.46999998093E+01 0. -1.
</event>
<event>
 5   0  0.2086250E-07  0.3473414E+04  0.7818609E-02  0.8120120E-01
       -1   -1    0    0    0  501  0.00000000000E+00  0.00000000000E+00  0.96516365873E+03  0.96516365874E+03  0.50400001928E-02 0. -1.
        1   -1    0    0  501    0  0.00000000000E+00  0.00000000000E+00 -0.31250144901E+04  0.31250144901E+04  0.50400001928E-02 0.  1.
    10030    2    1    2    0    0  0.00000000000E+00  0.00000000000E+00 -0.21598508314E+04  0.40901781488E+04  0.34734135480E+04 0.  0.
        2    1    3    3  502    0  0.96862392032E+02 -0.98503898793E+03 -0.27603705707E+04  0.29324613924E+04  0.25500000920E-02 0.  1.
       -2    1    3    3    0  502 -0.96862392032E+02  0.98503898793E+03  0.60051973931E+03  0.11577167564E+04  0.25500000920E-02 0. -1.
</event>
<event>
 5   0  0.6541476E-07  0.3599285E+04  0.7818609E-02  0.8090655E-01
       -2   -1    0    0    0  501  0.00000000000E+00  0.00000000000E+00  0.13637538459E+04  0.13637538460E+04  0.25500000920E-02 0.  1.
        2   -1    0    0  501    0  0.00000000000E+00  0.00000000000E+00 -0.23748518861E+04  0.23748518861E+04  0.25500000920E-02 0. -1.
    10030    2    1    2    0    0  0.00000000000E+00  0.00000000000E+00 -0.10110980401E+04  0.37386057320E+04  0.35992851475E+04 0.  0.
        4    1    3    3  502    0  0.92382957598E+03  0.69904144174E+03 -0.19360242521E+04  0.22561718774E+04  0.12699999809E+01 0. -1.
       -4    1    3    3    0  502 -0.92382957598E+03 -0.69904144174E+03  0.92492621201E+03  0.14824338546E+04  0.12699999809E+01 0.  1.
</event>
<event>
 5   0  0.2193129E-07  0.3572756E+04  0.7818609E-02  0.8096761E-01
        1   -1    0    0  501    0  0.00000000000E+00  0.00000000000E+00  0.12072093903E+04  0.12072093904E+04  0.50400001928E-02 0. -1.
       -1   -1    0    0    0  501  0.00000000000E+00  0.00000000000E+00 -0.26434074565E+04  0.26434074565E+04  0.50400001928E-02 0.  1.
    10030    2    1    2    0    0  0.00000000000E+00  0.00000000000E+00 -0.14361980662E+04  0.38506168469E+04  0.35727559693E+04 0.  0.
        1    1    3    3  502    0 -0.32524044942E+03 -0.13756735800E+04  0.45903694636E+03  0.14862617760E+04  0.50400001928E-02 0. -1.
       -1    1    3    3    0  502  0.32524044942E+03  0.13756735800E+04 -0.18952350126E+04  0.23643550709E+04  0.50400001928E-02 0.  1.
</event>
<event>
 5   0  0.2086250E-07  0.3570255E+04  0.7818609E-02  0.8097339E-01
        1   -1    0    0  501    0  0.00000000000E+00  0.00000000000E+00  0.20645516605E+04  0.20645516606E+04  0.50400001928E-02 0.  1.
       -1   -1    0    0    0  501  0.00000000000E+00  0.00000000000E+00 -0.15435218573E+04  0.15435218573E+04  0.50400001928E-02 0. -1.
    10030    2    1    2    0    0  0.00000000000E+00  0.00000000000E+00  0.52102980322E+03  0.36080735179E+04  0.35702552366E+04 0.  0.
        3    1    3    3  502    0  0.74749939616E+03  0.11810629759E+04 -0.86165956269E+03  0.16419873059E+04  0.10100000352E+00 0. -1.
       -3    1    3    3    0  502 -0.74749939616E+03 -0.11810629759E+04  0.13826893659E+04  0.19660862120E+04  0.10100000352E+00 0.  1.
</event>
<event>
 5   0  0.6324216E-07  0.3578140E+04  0.7818609E-02  0.8095518E-01
       -2   -1    0    0    0  501  0.00000000000E+00  0.00000000000E+00  0.10727294534E+04  0.10727294534E+04  0.25500000920E-02 0. -1.
        2   -1    0    0  501    0  0.00000000000E+00  0.00000000000E+00 -0.29837631942E+04  0.29837631942E+04  0.25500000920E-02 0.  1.
    10030    2    1    2    0    0  0.00000000000E+00  0.00000000000E+00 -0.19110337408E+04  0.40564926477E+04  0.35781395504E+04 0.  0.
        2    1    3    3  502    0  0.72382988159E+03  0.15032662399E+04 -0.22340425944E+03  0.16833444534E+04  0.25500000920E-02 0.  1.
       -2    1    3    3    0  502 -0.72382988159E+03 -0.15032662399E+04 -0.16876294814E+04  0.23731481943E+04  0.25500000920E-02 0. -1.
</event>
<event>
 5   0  0.6541476E-07  0.3601845E+04  0.7818609E-02  0.8090069E-01
        2   -1    0    0  501    0  0.00000000000E+00  0.00000000000E+00  0.20480008568E+04  0.20480008568E+04  0.25500000920E-02 0.  1.
       -2   -1    0    0    0  501  0.00000000000E+00  0.00000000000E+00 -0.15836526469E+04  0.15836526469E+04  0.25500000920E-02 0. -1.
    10030    2    1    2    0    0  0.00000000000E+00  0.00000000000E+00  0.46434820986E+03  0.36316535037E+04  0.36018450704E+04 0.  0.
        4    1    3    3  502    0  0.57645934467E+03 -0.17047012942E+04  0.16081775607E+03  0.18067030310E+04  0.12699999809E+01 0.  1.
       -4    1    3    3    0  502 -0.57645934467E+03  0.17047012942E+04  0.30353045379E+03  0.18249504727E+04  0.12699999809E+01 0. -1.
</event>
<event>
 5   0  0.2108068E-07  0.3601576E+04  0.7818609E-02  0.8090131E-01
        1   -1    0    0  501    0  0.00000000000E+00  0.00000000000E+00  0.22031696213E+04  0.22031696213E+04  0.50400001928E-02 0.  1.
       -1   -1    0    0    0  501  0.00000000000E+00  0.00000000000E+00 -0.14718966139E+04  0.14718966139E+04  0.50400001928E-02 0. -1.
    10030    2    1    2    0    0  0.00000000000E+00  0.00000000000E+00  0.73127300739E+03  0.36750662351E+04  0.36015762690E+04 0.  0.
        5    1    3    3  502    0  0.97527262185E+02  0.91118147555E+03  0.19474460428E+04  0.21522851641E+04  0.46999998093E+01 0.  1.
       -5    1    3    3    0  502 -0.97527262185E+02 -0.91118147555E+03 -0.12161730354E+04  0.15227810710E+04  0.46999998093E+01 0. -1.
</event>
<event>
 5   0  0.6541476E-07  0.3570719E+04  0.7818609E-02  0.8097232E-01
       -2   -1    0    0    0  501  0.00000000000E+00  0.00000000000E+00  0.13764823651E+04  0.13764823651E+04  0.25500000920E-02 0. -1.
        2   -1    0    0  501    0  0.00000000000E+00  0.00000000000E+00 -0.23156916656E+04  0.23156916656E+04  0.25500000920E-02 0.  1.
    10030    2    1    2    0    0  0.00000000000E+00  0.00000000000E+00 -0.93920930051E+03  0.36921740308E+04  0.35707191101E+04 0.  0.
        4    1    3    3  502    0 -0.21018243809E+03 -0.27878885652E+03 -0.22800471344E+04  0.23066244670E+04  0.12699999809E+01 0.  1.
       -4    1    3    3    0  502  0.21018243809E+03  0.27878885652E+03  0.13408378339E+04  0.13855495637E+04  0.12699999809E+01 0. -1.
</event>
<event>
 5   0  0.2086250E-07  0.3200380E+04  0.7818609E-02  0.8188717E-01
       -1   -1    0    0    0  501  0.00000000000E+00  0.00000000000E+00  0.98855298765E+03  0.98855298767E+03  0.50400001928E-02 0.  1.
        1   -1    0    0  501    0  0.00000000000E+00  0.00000000000E+00 -0.25902583199E+04  0.25902583199E+04  0.50400001928E-02 0. -1.
    10030    2    1    2    0    0  0.00000000000E+00  0.00000000000E+00 -0.16017053322E+04  0.35788113076E+04  0.32003797281E+04 0.  0.
        2    1    3    3  502    0 -0.12307238908E+04  0.90994608711E+03 -0.27882893838E+03  0.15557727191E+04  0.25500000920E-02 0.  1.
       -2    1    3    3    0  502  0.12307238908E+04 -0.90994608711E+03 -0.13228763938E+04  0.20230385884E+04  0.25500000920E-02 0. -1.
</event>
<event>
 5   0  0.6669864E-07  0.3569639E+04  0.7818609E-02  0.8097482E-01
       -2   -1    0    0    0  501  0.00000000000E+00  0.00000000000E+00  0.25817480407E+04  0.25817480407E+04  0.25500000920E-02 0. -1.
        2   -1    0    0  501    0  0.00000000000E+00  0.00000000000E+00 -0.12338851557E+04  0.12338851557E+04  0.25500000920E-02 0.  1.
    10030    2    1    2    0    0  0.00000000000E+00  0.00000000000E+00  0.13478628850E+04  0.38156331964E+04  0.35696389640E+04 0.  0.
        5    1    3    3  502    0  0.22157388674E+02 -0.10213448865E+04 -0.89045544730E+03  0.13552008414E+04  0.46999998093E+01 0.  1.
       -5    1    3    3    0  502 -0.22157388674E+02  0.10213448865E+04  0.22383183323E+04  0.24604323550E+04  0.46999998093E+01 0. -1.
</event>
<event>
 5   0  0.2086250E-07  0.3615550E+04  0.7818609E-02  0.8086939E-01
       -1   -1    0    0    0  501  0.00000000000E+00  0.00000000000E+00  0.27704417436E+04  0.27704417436E+04  0.50400001928E-02 0. -1.
        1   -1    0    0  501    0  0.00000000000E+00  0.00000000000E+00 -0.11796131988E+04  0.11796131988E+04  0.50400001928E-02 0.  1.
    10030    2    1    2    0    0  0.00000000000E+00  0.00000000000E+00  0.15908285448E+04  0.39500549424E+04  0.36155495556E+04 0.  0.
        4    1    3    3  502    0  0.44584565471E+03  0.56352229840E+03  0.26077152760E+04  0.27049059692E+04  0.12699999809E+01 0. -1.
       -4    1    3    3    0  502 -0.44584565471E+03 -0.56352229840E+03 -0.10168867312E+04  0.12451489732E+04  0.12699999809E+01 0.  1.
</event>
<event>
 5   0  0.6729577E-07  0.3628199E+04  0.7818609E-02  0.8084063E-01
       -2   -1    0    0    0  501  0.00000000000E+00  0.00000000000E+00  0.16356476264E+04  0.16356476264E+04  0.25500000920E-02 0. -1.
        2   -1    0    0  501    0  0.00000000000E+00  0.00000000000E+00 -0.20120208825E+04  0.20120208825E+04  0.25500000920E-02 0.  1.
    10030    2    1    2    0    0  0.00000000000E+00  0.00000000000E+00 -0.37637325610E+03  0.36476685090E+04  0.36281991020E+04 0.  0.
        3    1    3    3  502    0  0.14087251040E+04 -0.11142994739E+04  0.67712993306E+02  0.17974300532E+04  0.10100000352E+00 0. -1.
       -3    1    3    3    0  502 -0.14087251040E+04  0.11142994739E+04 -0.44408624941E+03  0.18502384558E+04  0.10100000352E+00 0.  1.
</event>
<event>
 5   0  0.2086250E-07  0.3593901E+04  0.7818609E-02  0.8091890E-01
        1   -1    0    0  501    0  0.00000000000E+00  0.00000000000E+00  0.22483361128E+04  0.22483361128E+04  0.50400001928E-02 0.  1.
       -1   -1    0    0    0  501  0.00000000000E+00  0.00000000000E+00 -0.14361873810E+04  0.14361873810E+04  0.50400001928E-02 0. -1.
    10030    2    1    2    0    0  0.00000000000E+00  0.00000000000E+00  0.81214873180E+03  0.36845234937E+04  0.35939014752E+04 0.  0.
        2    1    3    3  502    0  0.99932469615E+03 -0.97171477516E+03 -0.75660883162E+03  0.15859812031E+04  0.25500000920E-02 0. -1.
       -2    1    3    3    0  502 -0.99932469615E+03  0.97171477516E+03  0.15687575634E+04  0.20985422906E+04  0.25500000920E-02 0.  1.
</event>
<event>
 5   0  0.6324216E-07  0.3617842E+04  0.7818609E-02  0.8086417E-01
        2   -1    0    0  501    0  0.00000000000E+00  0.00000000000E+00  0.17922649106E+04  0.17922649106E+04  0.25500000920E-02 0.  1.
       -2   -1    0    0    0  501  0.00000000000E+00  0.00000000000E+00 -0.18257321181E+04  0.18257321181E+04  0.25500000920E-02 0. -1.
    10030    2    1    2    0    0  0.00000000000E+00  0.00000000000E+00 -0.33467207519E+02  0.36179970287E+04  0.36178422361E+04 0.  0.
        2    1    3    3  502    0  0.83741806614E+03  0.20007918229E+03 -0.16076803321E+04  0.18237150948E+04  0.25500000920E-02 0. -1.
       -2    1    3    3    0  502 -0.83741806614E+03 -0.20007918229E+03  0.15742131246E+04  0.17942819339E+04  0.25500000920E-02 0.  1.
</event>
<event>
 5   0  0.6541476E-07  0.3246867E+04  0.7818609E-02  0.8176548E-01
        2   -1    0    0  501    0  0.00000000000E+00  0.00000000000E+00  0.15916852158E+04  0.15916852158E+04  0.25500000920E-02 0. -1.
       -2   -1    0    0    0  501  0.00000000000E+00  0.00000000000E+00 -0.16558153899E+04  0.16558153899E+04  0.25500000920E-02 0.  1.
    10030    2    1    2    0    0  0.00000000000E+00  0.00000000000E+00 -0.64130174093E+02  0.32475006058E+04  0.32468673372E+04 0.  0.
        4    1    3    3  502    0  0.10455207507E+04 -0.42879574503E+03 -0.11978634526E+04  0.16467719621E+04  0.12699999809E+01 0.  1.
       -4    1    3    3    0  502 -0.10455207507E+04  0.42879574503E+03  0.11337332785E+04  0.16007286437E+04  0.12699999809E+01 0. -1.
</event>
<event>
 5   0  0.6669864E-07  0.3612612E+04  0.7818609E-02  0.8087609E-01
        2   -1    0    0  501    0  0.00000000000E+00  0.00000000000E+00  0.30074961984E+04  0.30074961984E+04  0.25500000920E-02 0.  1.
       -2   -1    0    0    0  501  0.00000000000E+00  0.00000000000E+00 -0.10848699020E+04  0.10848699020E+04  0.25500000920E-02 0. -1.
    10030    2    1    2    0    0  0.00000000000E+00  0.00000000000E+00  0.19226262964E+04  0.40923661005E+04  0.36126124100E+04 0.  0.
        5    1    3    3  502    0  0.51892970241E+03  0.12768754046E+04 -0.36121343854E+03  0.14248494914E+04  0.46999998093E+01 0. -1.
       -5    1    3    3    0  502 -0.51892970241E+03 -0.12768754046E+04  0.22838397349E+04  0.26675166091E+04  0.46999998093E+01 0.  1.
</event>
<event>
 5   0  0.2193129E-07  0.3598543E+04  0.7818609E-02  0.8090825E-01
        1   -1    0    0  501    0  0.00000000000E+00  0.00000000000E+00  0.16545880858E+04  0.16545880858E+04  0.50400001928E-02 0. -1.
       -1   -1    0    0    0  501  0.00000000000E+00  0.00000000000E+00 -0.19566070743E+04  0.19566070743E+04  0.50400001928E-02 0.  1.
    10030    2    1    2    0    0  0.00000000000E+00  0.00000000000E+00 -0.30201898846E+03  0.36111951601E+04  0.35985434574E+04 0.  0.
        1    1    3    3  502    0 -0.11368903204E+04  0.88595815941E+03  0.92978086900E+03  0.17152066713E+04  0.50400001928E-02 0. -1.
       -1    1    3    3    0  502  0.11368903204E+04 -0.88595815941E+03 -0.12317998575E+04  0.18959884888E+04  0.50400001928E-02 0.  1.
</event>
<event>
 5   0  0.2086250E-07  0.3582816E+04  0.7818609E-02  0.8094439E-01
       -1   -1    0    0    0  501  0.00000000000E+00  0.00000000000E+00  0.16713887710E+04  0.16713887710E+04  0.50400001928E-02 0.  1.
        1   -1    0    0  501    0  0.00000000000E+00  0.00000000000E+00 -0.19200452319E+04  0.19200452319E+04  0.50400001928E-02 0. -1.
    10030    2    1    2    0    0  0.00000000000E+00  0.00000000000E+00 -0.24865646089E+03  0.35914340029E+04  0.35828156751E+04 0.  0.
        2    1    3    3  502    0 -0.11223267254E+04  0.13955817730E+04 -0.16774843444E+03  0.17987232419E+04  0.25500000920E-02 0. -1.
       -2    1    3    3    0  502  0.11223267254E+04 -0.13955817730E+04 -0.80908026447E+02  0.17927107610E+04  0.25500000920E-02 0.  1.
</event>
<event>
 5   0  0.6669864E-07  0.3651983E+04  0.7818609E-02  0.8078687E-01
       -2   -1    0    0    0  501  0.00000000000E+00  0.00000000000E+00  0.15875400795E+04  0.15875400795E+04  0.25500000920E-02 0.  1.
        2   -1    0    0  501    0  0.00000000000E+00  0.00000000000E+00 -0.21002592903E+04  0.21002592903E+04  0.25500000920E-02 0. -1.
    10030    2    1    2    0    0  0.00000000000E+00  0.00000000000E+00 -0.51271921079E+03  0.36877993698E+04  0.36519834614E+04 0.  0.
        5    1    3    3  502    0 -0.95236565278E+03 -0.14416597824E+04  0.34005998502E+03  0.17609787472E+04  0.46999998093E+01 0. -1.
       -5    1    3    3    0  502  0.95236565278E+03  0.14416597824E+04 -0.85277919581E+03  0.19268206226E+04  0.46999998093E+01 0.  1.
</event>
<event>
 5   0  0.2086250E-07  0.3582639E+04  0.7818609E-02  0.8094480E-01
       -1   -1    0    0    0  501  0.00000000000E+00  0.00000000000E+00  0.14293048493E+04  0.14293048494E+04  0.50400001928E-02 0.  1.
        1   -1    0    0  501    0  0.00000000000E+00  0.00000000000E+00 -0.22450253355E+04  0.22450253355E+04  0.50400001928E-02 0. -1.
    10030    2    1    2    0    0  0.00000000000E+00  0.00000000000E+00 -0.81572048618E+03  0.36743301849E+04  0.35826390268E+04 0.  0.
        3    1    3    3  502    0 -0.14275173861E+04 -0.49737177966E+03  0.57779884988E+03  0.16183436273E+04  0.10100000352E+00 0.  1.
       -3    1    3    3    0  502  0.14275173861E+04  0.49737177966E+03 -0.13935193361E+04  0.20559865576E+04  0.10100000352E+00 0. -1.
</event>
<event>
 5   0  0.6848661E-07  0.3582400E+04  0.7818609E-02  0.8094535E-01
        2   -1    0    0  501    0  0.00000000000E+00  0.00000000000E+00  0.22743680864E+04  0.22743680864E+04  0.25500000920E-02 0. -1.
       -2   -1    0    0    0  501  0.00000000000E+00  0.00000000000E+00 -0.14106765819E+04  0.14106765819E+04  0.25500000920E-02 0.  1.
    10030    2    1    2    0    0  0.00000000000E+00  0.00000000000E+00  0.86369150450E+03  0.36850446682E+04  0.35824001998E+04 0.  0.
        1    1    3    3  502    0  0.11371529891E+04  0.64168064662E+03 -0.82947124007E+03  0.15468980286E+04  0.50400001928E-02 0.  1.
       -1    1    3    3    0  502 -0.11371529891E+04 -0.64168064662E+03  0.16931627446E+04  0.21381466396E+04  0.50400001928E-02 0. -1.
</event>
<event>
 5   0  0.2193129E-07  0.3352109E+04  0.7818609E-02  0.8149761E-01
       -1   -1    0    0    0  501  0.00000000000E+00  0.00000000000E+00  0.16359077390E+04  0.16359077391E+04  0.50400001928E-02 0.  1.
        1   -1    0    0  501    0  0.00000000000E+00  0.00000000000E+00 -0.17171869785E+04  0.17171869785E+04  0.50400001928E-02 0. -1.
    10030    2    1    2    0    0  0.00000000000E+00  0.00000000000E+00 -0.81279239424E+02  0.33530947175E+04  0.33521094657E+04 0.  0.
        1    1    3    3  502    0 -0.58836406041E+03 -0.85454681197E+03 -0.13573611801E+04  0.17084647771E+04  0.50400001928E-02 0. -1.
       -1    1    3    3    0  502  0.58836406041E+03  0.85454681197E+03  0.12760819407E+04  0.16446299404E+04  0.50400001928E-02 0.  1.
</event>
<event>
 5   0  0.6848661E-07  0.3617098E+04  0.7818609E-02  0.8086586E-01
        2   -1    0    0  501    0  0.00000000000E+00  0.00000000000E+00  0.10401297786E+04  0.10401297786E+04  0.25500000920E-02 0. -1.
       -2   -1    0    0    0  501  0.00000000000E+00  0.00000000000E+00 -0.31446548343E+04  0.31446548343E+04  0.25500000920E-02 0.  1.
    10030    2    1    2    0    0  0.00000000000E+00  0.00000000000E+00 -0.21045250557E+04  0.41847846129E+04  0.36170978071E+04 0.  0.
        1    1    3    3  502    0  0.58149964607E+03  0.39043132413E+03  0.87684483069E+03  0.11222456569E+04  0.50400001928E-02 0. -1.
       -1    1    3    3    0  502 -0.58149964607E+03 -0.39043132413E+03 -0.29813698864E+04  0.30625389560E+04  0.50400001928E-02 0.  1.
</event>
<event>
 5   0  0.6848661E-07  0.3154477E+04  0.7818609E-02  0.8200944E-01
        2   -1    0    0  501    0  0.00000000000E+00  0.00000000000E+00  0.21617264036E+04  0.21617264036E+04  0.25500000920E-02 0.  1.
       -2   -1    0    0    0  501  0.00000000000E+00  0.00000000000E+00 -0.11507841810E+04  0.11507841810E+04  0.25500000920E-02 0. -1.
    10030    2    1    2    0    0  0.00000000000E+00  0.00000000000E+00  0.10109422226E+04  0.33125105846E+04  0.31544765328E+04 0.  0.
        1    1    3    3  502    0  0.62493022108E+03 -0.68292452274E+03  0.18464581536E+04  0.20655099608E+04  0.50400001928E-02 0.  1.
       -1    1    3    3    0  502 -0.62493022108E+03  0.68292452274E+03 -0.83551593098E+03  0.12470006239E+04  0.50400001928E-02 0. -1.
</event>
<event>
 5   0  0.6669864E-07  0.3608830E+04  0.7818609E-02  0.8088472E-01
       -2   -1    0    0    0  501  0.00000000000E+00  0.00000000000E+00  0.16082014119E+04  0.16082014119E+04  0.25500000920E-02 0.  1.
        2   -1    0    0  501    0  0.00000000000E+00  0.00000000000E+00 -0.20245682402E+04  0.20245682402E+04  0.25500000920E-02 0. -1.
    10030    2    1    2    0    0  0.00000000000E+00  0.00000000000E+00 -0.41636682829E+03  0.36327696520E+04  0.36088300056E+04 0.  0.
        5    1    3    3  502    0  0.12300222505E+04  0.78747766715E+03  0.85847571483E+03  0.16941305900E+04  0.46999998093E+01 0.  1.
       -5    1    3    3    0  502 -0.12300222505E+04 -0.78747766715E+03 -0.12748425431E+04  0.19386390620E+04  0.46999998093E+01 0. -1.
</event>
<event>
 5   0  0.6729577E-07  0.3590704E+04  0.7818609E-02  0.8092624E-01
       -2   -1    0    0    0  501  0.00000000000E+00  0.00000000000E+00  0.14300813264E+04  0.14300813264E+04  0.25500000920E-02 0.  1.
        2   -1    0    0  501    0  0.00000000000E+00  0.00000000000E+00 -0.22539195676E+04  0.22539195676E+04  0.25500000920E-02 0. -1.
    10030    2    1    2    0    0  0.00000000000E+00  0.00000000000E+00 -0.82383824124E+03  0.36840008940E+04  0.35907037108E+04 0.  0.
        3    1    3    3  502    0 -0.48480827221E+03 -0.94362373827E+03  0.10741007773E+04  0.15096878188E+04  0.10100000352E+00 0.  1.
       -3    1    3    3    0  502  0.48480827221E+03  0.94362373827E+03 -0.18979390186E+04  0.21743130751E+04  0.10100000352E+00 0. -1.
</event>
<event>
 5   0  0.2086250E-07  0.3595868E+04  0.7818609E-02  0.8091439E-01
       -1   -1    0    0    0  501  0.00000000000E+00  0.00000000000E+00  0.26275355940E+04  0.26275355940E+04  0.50400001928E-02 0.  1.
        1   -1    0    0  501    0  0.00000000000E+00  0.00000000000E+00 -0.12302656124E+04  0.12302656125E+04  0.50400001928E-02 0. -1.
    10030    2    1    2    0    0  0.00000000000E+00  0.00000000000E+00  0.13972699816E+04  0.38578012065E+04  0.35958680103E+04 0.  0.
        4    1    3    3  502    0  0.15549337044E+04 -0.55538434963E+03 -0.64739591858E+02  0.16524113981E+04  0.12699999809E+01 0. -1.
       -4    1    3    3    0  502 -0.15549337044E+04  0.55538434963E+03  0.14620095734E+04  0.22053898084E+04  0.12699999809E+01 0.  1.
</event>
<event>
 5   0  0.2086250E-07  0.3583565E+04  0.7818609E-02  0.8094267E-01
        1   -1    0    0  501    0  0.00000000000E+00  0.00000000000E+00  0.10666387358E+04  0.10666387358E+04  0.50400001928E-02 0.  1.
       -1   -1    0    0    0  501  0.00000000000E+00  0.00000000000E+00 -0.30099080822E+04  0.30099080822E+04  0.50400001928E-02 0. -1.
    10030    2    1    2    0    0  0.00000000000E+00  0.00000000000E+00 -0.19432693465E+04  0.40765468180E+04  0.35835650136E+04 0.  0.
        3    1    3    3  502    0  0.11917224250E+04  0.97111370424E+03  0.75434425505E+02  0.15391408407E+04  0.10100000352E+00 0.  1.
       -3    1    3    3    0  502 -0.11917224250E+04 -0.97111370424E+03 -0.20187037720E+04  0.25374059773E+04  0.10100000352E+00 0. -1.
</event>
<event>
 5   0  0.2086250E-07  0.3644214E+04  0.7818609E-02  0.8080438E-01
        1   -1    0    0  501    0  0.00000000000E+00  0.00000000000E+00  0.15105809968E+04  0.15105809968E+04  0.50400001928E-02 0. -1.
       -1   -1    0    0    0  501  0.00000000000E+00  0.00000000000E+00 -0.21978791357E+04  0.21978791357E+04  0.50400001928E-02 0.  1.
    10030    2    1    2    0    0  0.00000000000E+00  0.00000000000E+00 -0.68729813892E+03  0.37084601325E+04  0.36442142942E+04 0.  0.
        2    1    3    3  502    0  0.39584755479E+03 -0.52962010438E+03 -0.20714874587E+04  0.21744546519E+04  0.25500000920E-02 0.  1.
       -2    1    3    3    0  502 -0.39584755479E+03  0.52962010438E+03  0.13841893197E+04  0.15340054806E+04  0.25500000920E-02 0. -1.
</event>
<event>
 5   0  0.2193129E-07  0.3573182E+04  0.7818609E-02  0.8096662E-01
       -1   -1    0    0    0  501  0.00000000000E+00  0.00000000000E+00  0.17373675867E+04  0.17373675867E+04  0.50400001928E-02 0.  1.
        1   -1    0    0  501    0  0.00000000000E+00  0.00000000000E+00 -0.18372091750E+04  0.18372091750E+04  0.50400001928E-02 0. -1.
    10030    2    1    2    0    0  0.00000000000E+00  0.00000000000E+00 -0.99841588306E+02  0.35745767617E+04  0.35731821507E+04 0.  0.
        1    1    3    3  502    0  0.89661926409E+03 -0.18896466136E+03  0.14843902771E+04  0.17444335019E+04  0.50400001928E-02 0.  1.
       -1    1    3    3    0  502 -0.89661926409E+03  0.18896466136E+03 -0.15842318654E+04  0.18301432598E+04  0.50400001928E-02 0. -1.
</event>
<event>
 5   0  0.6541476E-07  0.3620748E+04  0.7818609E-02  0.8085756E-01
       -2   -1    0    0    0  501  0.00000000000E+00  0.00000000000E+00  0.13952600950E+04  0.13952600950E+04  0.25500000920E-02 0. -1.
        2   -1    0    0  501    0  0.00000000000E+00  0.00000000000E+00 -0.23489918779E+04  0.23489918779E+04  0.25500000920E-02 0.  1.
    10030    2    1    2    0    0  0.00000000000E+00  0.00000000000E+00 -0.95373178292E+03  0.37442519729E+04  0.36207483374E+04 0.  0.
        4    1    3    3  502    0  0.23125504750E+03  0.16710392930E+04 -0.11562389996E+04  0.20451751643E+04  0.12699999809E+01 0. -1.
       -4    1    3    3    0  502 -0.23125504750E+03 -0.16710392930E+04  0.20250721665E+03  0.16990768086E+04  0.12699999809E+01 0.  1.
</event>
<event>
 5   0  0.2086250E-07  0.3543212E+04  0.7818609E-02  0.8103625E-01
       -1   -1    0    0    0  501  0.00000000000E+00  0.00000000000E+00  0.15313599151E+04  0.15313599151E+04  0.50400001928E-02 0. -1.
        1   -1    0    0  501    0  0.00000000000E+00  0.00000000000E+00 -0.20495430517E+04  0.20495430517E+04  0.50400001928E-02 0.  1.
    10030    2    1    2    0    0  0.00000000000E+00  0.00000000000E+00 -0.51818313658E+03  0.35809029668E+04  0.35432121436E+04 0.  0.
        3    1    3    3  502    0  0.15967486732E+04  0.49438545006E+03 -0.85233211905E+03  0.18762977775E+04  0.10100000352E+00 0.  1.
       -3    1    3    3    0  502 -0.15967486732E+04 -0.49438545006E+03  0.33414898247E+03  0.17046051893E+04  0.10100000352E+00 0. -1.
</event>
<event>
 5   0  0.6324216E-07  0.3560574E+04  0.7818609E-02  0.8099583E-01
        2   -1    0    0  501    0  0.00000000000E+00  0.00000000000E+00  0.23130210557E+04  0.23130210557E+04  0.25500000920E-02 0.  1.
       -2   -1    0    0    0  501  0.00000000000E+00  0.00000000000E+00 -0.13702518184E+04  0.13702518184E+04  0.25500000920E-02 0. -1.
    10030    2    1    2    0    0  0.00000000000E+00  0.00000000000E+00  0.94276923730E+03  0.36832728742E+04  0.35605737222E+04 0.  0.
        2    1    3    3  502    0  0.16639149777E+04 -0.62415203897E+03  0.36170015660E+03  0.18135616405E+04  0.25500000920E-02 0.  1.
       -2    1    3    3    0  502 -0.16639149777E+04  0.62415203897E+03  0.58106908070E+03  0.18697112337E+04  0.25500000920E-02 0. -1.
</event>
<event>
 5   0  0.2108068E-07  0.3650323E+04  0.7818609E-02  0.8079061E-01
        1   -1    0    0  501    0  0.00000000000E+00  0.00000000000E+00  0.21556980549E+04  0.21556980549E+04  0.50400001928E-02 0. -1.
       -1   -1    0    0    0  501  0.00000000000E+00  0.00000000000E+00 -0.15453066413E+04  0.15453066414E+04  0.50400001928E-02 0.  1.
    10030    2    1    2    0    0  0.00000000000E+00  0.00000000000E+00  0.61039141356E+03  0.37010046963E+04  0.36503230109E+04 0.  0.
        5    1    3    3  502    0  0.21879363890E+03 -0.13399969517E+04 -0.93146451676E+03  0.16465450868E+04  0.46999998093E+01 0.  1.
       -5    1    3    3    0  502 -0.21879363890E+03  0.13399969517E+04  0.15418559303E+04  0.20544596094E+04  0.46999998093E+01 0. -1.
</event>
<event>
 5   0  0.6541476E-07  0.3601630E+04  0.7818609E-02  0.8090119E-01
       -2   -1    0    0    0  501  0.00000000000E+00  0.00000000000E+00  0.13034861125E+04  0.13034861125E+04  0.25500000920E-02 0.  1.
        2   -1    0    0  501    0  0.00000000000E+00  0.00000000000E+00 -0.24878930270E+04  0.24878930270E+04  0.25500000920E-02 0. -1.
    10030    2    1    2    0    0  0.00000000000E+00  0.00000000000E+00 -0.11844069146E+04  0.37913791395E+04  0.36016296367E+04 0.  0.
        4    1    3    3  502    0  0.26627784946E+03  0.60391212383E+03  0.11715749452E+04  0.13446944678E+04  0.12699999809E+01 0.  1.
       -4    1    3    3    0  502 -0.26627784946E+03 -0.60391212383E+03 -0.23559818598E+04  0.24466846718E+04  0.12699999809E+01 0. -1.
</event>
<event>
 5   0  0.6848661E-07  0.3507401E+04  0.7818609E-02  0.8112038E-01
        2   -1    0    0  501    0  0.00000000000E+00  0.00000000000E+00  0.16980745647E+04  0.16980745647E+04  0.25500000920E-02 0.  1.
       -2   -1    0    0    0  501  0.00000000000E+00  0.00000000000E+00 -0.18111482907E+04  0.18111482907E+04  0.25500000920E-02 0. -1.
    10030    2    1    2    0    0  0.00000000000E+00  0.00000000000E+00 -0.11307372601E+03  0.35092228555E+04  0.35074006589E+04 0.  0.
        1    1    3    3  502    0 -0.71515495165E+02  0.15931369285E+04  0.67340717893E+03  0.17310912650E+04  0.50400001928E-02 0.  1.
       -1    1    3    3    0  502  0.71515495165E+02 -0.15931369285E+04 -0.78648090495E+03  0.17781315905E+04  0.50400001928E-02 0. -1.
</event>
<event>
 5   0  0.6848661E-07  0.3612851E+04  0.7818609E-02  0.8087554E-01
        2   -1    0    0  501    0  0.00000000000E+00  0.00000000000E+00  0.18004057563E+04  0.18004057563E+04  0.25500000920E-02 0.  1.
       -2   -1    0    0    0  501  0.00000000000E+00  0.00000000000E+00 -0.18124656301E+04  0.18124656301E+04  0.25500000920E-02 0. -1.
    10030    2    1    2    0    0  0.00000000000E+00  0.00000000000E+00 -0.12059873760E+02  0.36128713864E+04  0.36128512582E+04 0.  0.
        1    1    3    3  502    0 -0.51439034456E+03  0.16590875253E+04  0.48996144541E+03  0.18047800590E+04  0.50400001928E-02 0.  1.
       -1    1    3    3    0  502  0.51439034456E+03 -0.16590875253E+04 -0.50202131917E+03  0.18080913274E+04  0.50400001928E-02 0. -1.
</event>
<event>
 5   0  0.2086250E-07  0.3619125E+04  0.7818609E-02  0.8086125E-01
       -1   -1    0    0    0  501  0.00000000000E+00  0.00000000000E+00  0.11373190735E+04  0.11373190736E+04  0.50400001928E-02 0.  1.
        1   -1    0    0  501    0  0.00000000000E+00  0.00000000000E+00 -0.28791544184E+04  0.28791544184E+04  0.50400001928E-02 0. -1.
    10030    2    1    2    0    0  0.00000000000E+00  0.00000000000E+00 -0.17418353449E+04  0.40164734920E+04  0.36191254390E+04 0.  0.
        4    1    3    3  502    0 -0.11530349609E+04 -0.46308339886E+03  0.58902929394E+03  0.13750974429E+04  0.12699999809E+01 0. -1.
       -4    1    3    3    0  502  0.11530349609E+04  0.46308339886E+03 -0.23308646388E+04  0.26413760491E+04  0.12699999809E+01 0.  1.
</event>
<event>
 5   0  0.6541476E-07  0.3641819E+04  0.7818609E-02  0.8080979E-01
        2   -1    0    0  501    0  0.00000000000E+00  0.00000000000E+00  0.28895840538E+04  0.28895840538E+04  0.25500000920E-02 0. -1.
       -2   -1    0    0    0  501  0.00000000000E+00  0.00000000000E+00 -0.11474700856E+04  0.11474700856E+04  0.25500000920E-02 0.  1.
    10030    2    1    2    0    0  0.00000000000E+00  0.00000000000E+00  0.17421139682E+04  0.40370541395E+04  0.36418189201E+04 0.  0.
        4    1    3    3  502    0  0.14399428767E+04  0.51212767817E+03  0.19684422658E+04  0.24920828264E+04  0.12699999809E+01 0. -1.
       -4    1    3    3    0  502 -0.14399428767E+04 -0.51212767817E+03 -0.22632829753E+03  0.15449713131E+04  0.12699999809E+01 0.  1.
</event>
<event>
 5   0  0.6541476E-07  0.3515406E+04  0.7818609E-02  0.8110149E-01
        2   -1    0    0  501    0  0.00000000000E+00  0.00000000000E+00  0.22529273381E+04  0.22529273381E+04  0.25500000920E-02 0.  1.
       -2   -1    0    0    0  501  0.00000000000E+00  0.00000000000E+00 -0.13713359321E+04  0.13713359321E+04  0.25500000920E-02 0. -1.
    10030    2    1    2    0    0  0.00000000000E+00  0.00000000000E+00  0.88159140599E+03  0.36242632702E+04  0.35154062133E+04 0.  0.
        4    1    3    3  502    0  0.15871433508E+04 -0.26869010602E+03  0.11685583419E+04  0.19891577616E+04  0.12699999809E+01 0.  1.
       -4    1    3    3    0  502 -0.15871433508E+04  0.26869010602E+03 -0.28696693590E+03  0.16351055086E+04  0.12699999809E+01 0. -1.
</event>
<event>
 5   0  0.2086250E-07  0.3553228E+04  0.7818609E-02  0.8101290E-01
       -1   -1    0    0    0  501  0.00000000000E+00  0.00000000000E+00  0.12180590665E+04  0.12180590665E+04  0.50400001928E-02 0. -1.
        1   -1    0    0  501    0  0.00000000000E+00  0.00000000000E+00 -0.25913012147E+04  0.25913012147E+04  0.50400001928E-02 0.  1.
    10030    2    1    2    0    0  0.00000000000E+00  0.00000000000E+00 -0.13732421482E+04  0.38093602812E+04  0.35532283567E+04 0.  0.
        2    1    3    3  502    0 -0.12266734508E+04  0.12833828567E+04 -0.61423651257E+03  0.18785861187E+04  0.25500000920E-02 0.  1.
       -2    1    3    3    0  502  0.12266734508E+04 -0.12833828567E+04 -0.75900563561E+03  0.19307741625E+04  0.25500000920E-02 0. -1.
</event>
<event>
 5   0  0.6541476E-07  0.3615054E+04  0.7818609E-02  0.8087052E-01
        2   -1    0    0  501    0  0.00000000000E+00  0.00000000000E+00  0.22255588839E+04  0.22255588839E+04  0.25500000920E-02 0.  1.
       -2   -1    0    0    0  501  0.00000000000E+00  0.00000000000E+00 -0.14680149254E+04  0.14680149254E+04  0.25500000920E-02 0. -1.
    10030    2    1    2    0    0  0.00000000000E+00  0.00000000000E+00  0.75754395858E+03  0.36935738093E+04  0.36150538911E+04 0.  0.
        4    1    3    3  502    0  0.34063615360E+03 -0.15445931361E+04  0.12726172811E+04  0.20301126329E+04  0.12699999809E+01 0.  1.
       -4    1    3    3    0  502 -0.34063615360E+03  0.15445931361E+04 -0.51507332248E+03  0.16634611765E+04  0.12699999809E+01 0. -1.
</event>
<event>
 5   0  0.2108068E-07  0.3585539E+04  0.7818609E-02  0.8093812E-01
       -1   -1    0    0    0  501  0.00000000000E+00  0.00000000000E+00  0.24217803048E+04  0.24217803048E+04  0.50400001928E-02 0.  1.
        1   -1    0    0  501    0  0.00000000000E+00  0.00000000000E+00 -0.13271323463E+04  0.13271323463E+04  0.50400001928E-02 0. -1.
    10030    2    1    2    0    0  0.00000000000E+00  0.00000000000E+00  0.10946479585E+04  0.37489126511E+04  0.35855392778E+04 0.  0.
        5    1    3    3  502    0  0.85935565955E+02 -0.31064301395E+03  0.23912317422E+04  0.24128604059E+04  0.46999998093E+01 0.  1.
       -5    1    3    3    0  502 -0.85935565955E+02  0.31064301395E+03 -0.12965837837E+04  0.13360522452E+04  0.46999998093E+01 0. -1.
</event>
<event>
 5   0  0.2108068E-07  0.3582327E+04  0.7818609E-02  0.8094552E-01
       -1   -1    0    0    0  501  0.00000000000E+00  0.00000000000E+00  0.10693696405E+04  0.10693696405E+04  0.50400001928E-02 0. -1.
        1   -1    0    0  501    0  0.00000000000E+00  0.00000000000E+00 -0.30001476296E+04  0.30001476296E+04  0.50400001928E-02 0.  1.
    10030    2    1    2    0    0  0.00000000000E+00  0.00000000000E+00 -0.19307779892E+04  0.40695172701E+04  0.35823270605E+04 0.  0.
        5    1    3    3  502    0  0.70587818538E+03 -0.14019463138E+04 -0.19455963410E+04  0.24998169316E+04  0.46999998093E+01 0.  1.
       -5    1    3    3    0  502 -0.70587818538E+03  0.14019463138E+04  0.14818351826E+02  0.15697003385E+04  0.46999998093E+01 0. -1.
</event>
<event>
 5   0  0.2108068E-07  0.3590814E+04  0.7818609E-02  0.8092599E-01
        1   -1    0    0  501    0  0.00000000000E+00  0.00000000000E+00  0.30939170859E+04  0.30939170859E+04  0.50400001928E-02 0. -1.
       -1   -1    0    0    0  501  0.00000000000E+00  0.00000000000E+00 -0.10418786545E+04  0.10418786545E+04  0.50400001928E-02 0.  1.
    10030    2    1    2    0    0  0.00000000000E+00  0.00000000000E+00  0.20520384315E+04  0.41357957404E+04  0.35908139303E+04 0.  0.
        5    1    3    3  502    0  0.40359226866E+03 -0.35512218229E+03 -0.94699716706E+03  0.10889555584E+04  0.46999998093E+01 0.  1.
       -5    1    3    3    0  502 -0.40359226866E+03  0.35512218229E+03  0.29990355985E+04  0.30468401820E+04  0.46999998093E+01 0. -1.
</event>
<event>
 5   0  0.2086250E-07  0.3581180E+04  0.7818609E-02  0.8094816E-01
       -1   -1    0    0    0  501  0.00000000000E+00  0.00000000000E+00  0.14594439337E+04  0.14594439337E+04  0.50400001928E-02 0. -1.
        1   -1    0    0  501    0  0.00000000000E+00  0.00000000000E+00 -0.21968724754E+04  0.21968724754E+04  0.50400001928E-02 0.  1.
    10030    2    1    2    0    0  0.00000000000E+00  0.00000000000E+00 -0.73742854168E+03  0.36563164090E+04  0.35811798096E+04 0.  0.
        2    1    3    3  502    0  0.91548242755E+03 -0.13044610979E+04 -0.12022283817E+04  0.19962664934E+04  0.25500000920E-02 0.  1.
       -2    1    3    3    0  502 -0.91548242755E+03  0.13044610979E+04  0.46479984005E+03  0.16600499156E+04  0.25500000920E-02 0. -1.
</event>
<event>
 5   0  0.6729577E-07  0.3557356E+04  0.7818609E-02  0.8100330E-01
        2   -1    0    0  501    0  0.00000000000E+00  0.00000000000E+00  0.18769192518E+04  0.18769192518E+04  0.25500000920E-02 0.  1.
       -2   -1    0    0    0  501  0.00000000000E+00  0.00000000000E+00 -0.16855792439E+04  0.16855792439E+04  0.25500000920E-02 0. -1.
    10030    2    1    2    0    0  0.00000000000E+00  0.00000000000E+00  0.19134000790E+03  0.35624984957E+04  0.35573563967E+04 0.  0.
        3    1    3    3  502    0 -0.50011030993E+03 -0.13335171592E+04 -0.97138309922E+03  0.17239383607E+04  0.10100000352E+00 0. -1.
       -3    1    3    3    0  502  0.50011030993E+03  0.13335171592E+04  0.11627231071E+04  0.18385601350E+04  0.10100000352E+00 0.  1.
</event>
<event>
 5   0  0.6669864E-07  0.3650504E+04  0.7818609E-02  0.8079020E-01
       -2   -1    0    0    0  501  0.00000000000E+00  0.00000000000E+00  0.14083248257E+04  0.14083248257E+04  0.25500000920E-02 0. -1.
        2   -1    0    0  501    0  0.00000000000E+00  0.00000000000E+00 -0.23656083816E+04  0.23656083816E+04  0.25500000920E-02 0.  1.
    10030    2    1    2    0    0  0.00000000000E+00  0.00000000000E+00 -0.95728355588E+03  0.37739332073E+04  0.36505040812E+04 0.  0.
        5    1    3    3  502    0  0.86383171230E+03  0.57982238262E+03 -0.20290570660E+04  0.22802398755E+04  0.46999998093E+01 0.  1.
       -5    1    3    3    0  502 -0.86383171230E+03 -0.57982238262E+03  0.10717735101E+04  0.14936933318E+04  0.46999998093E+01 0. -1.
</event>
<event>
 5   0  0.6324216E-07  0.3563802E+04  0.7818609E-02  0.8098834E-01
       -2   -1    0    0    0  501  0.00000000000E+00  0.00000000000E+00  0.18325160446E+04  0.18325160446E+04  0.25500000920E-02 0. -1.
        2   -1    0    0  501    0  0.00000000000E+00  0.00000000000E+00 -0.17326835768E+04  0.17326835768E+04  0.25500000920E-02 0.  1.
    10030    2    1    2    0    0  0.00000000000E+00  0.00000000000E+00  0.99832467786E+02  0.35651996213E+04  0.35638015964E+04 0.  0.
        2    1    3    3  502    0 -0.21243633882E+03 -0.67081505490E+03  0.16876437800E+04  0.18284593417E+04  0.25500000920E-02 0. -1.
       -2    1    3    3    0  502  0.21243633882E+03  0.67081505490E+03 -0.15878113122E+04  0.17367402797E+04  0.25500000920E-02 0.  1.
</event>
<event>
 5   0  0.2086250E-07  0.3669228E+04  0.7818609E-02  0.8074816E-01
        1   -1    0    0  501    0  0.00000000000E+00  0.00000000000E+00  0.17776137808E+04  0.17776137808E+04  0.50400001928E-02 0.  1.
       -1   -1    0    0    0  501  0.00000000000E+00  0.00000000000E+00 -0.18934417016E+04  0.18934417016E+04  0.50400001928E-02 0. -1.
    10030    2    1    2    0    0  0.00000000000E+00  0.00000000000E+00 -0.11582792079E+03  0.36710554824E+04  0.36692277454E+04 0.  0.
        4    1    3    3  502    0  0.96003940256E+03  0.11552749522E+04 -0.11117527367E+04  0.18687781116E+04  0.12699999809E+01 0. -1.
       -4    1    3    3    0  502 -0.96003940256E+03 -0.11552749522E+04  0.99592481593E+03  0.18022773709E+04  0.12699999809E+01 0.  1.
</event>
<event>
 5   0  0.6848661E-07  0.3616001E+04  0.7818609E-02  0.8086836E-01
        2   -1    0    0  501    0  0.00000000000E+00  0.00000000000E+00  0.21023619012E+04  0.21023619012E+04  0.25500000920E-02 0.  1.
       -2   -1    0    0    0  501  0.00000000000E+00  0.00000000000E+00 -0.15548537458E+04  0.15548537458E+04  0.25500000920E-02 0. -1.
    10030    2    1    2    0    0  0.00000000000E+00  0.00000000000E+00  0.54750815543E+03  0.36572156471E+04  0.36160007064E+04 0.  0.
        1    1    3    3  502    0  0.14298653102E+03 -0.54513568376E+03 -0.14637461001E+04  0.15684931327E+04  0.50400001928E-02 0. -1.
       -1    1    3    3    0  502 -0.14298653102E+03  0.54513568376E+03  0.20112542555E+04  0.20887225144E+04  0.50400001928E-02 0.  1.
</event>
<event>
 5   0  0.2086250E-07  0.3595287E+04  0.7818609E-02  0.8091572E-01
       -1   -1    0    0    0  501  0.00000000000E+00  0.00000000000E+00  0.12159650333E+04  0.12159650334E+04  0.50400001928E-02 0. -1.
        1   -1    0    0  501    0  0.00000000000E+00  0.00000000000E+00 -0.26575780932E+04  0.26575780932E+04  0.50400001928E-02 0.  1.
    10030    2    1    2    0    0  0.00000000000E+00  0.00000000000E+00 -0.14416130599E+04  0.38735431266E+04  0.35952869342E+04 0.  0.
        2    1    3    3  502    0 -0.85031896215E+03  0.10382746935E+04 -0.20093928356E+04  0.24163435692E+04  0.25500000920E-02 0.  1.
       -2    1    3    3    0  502  0.85031896215E+03 -0.10382746935E+04  0.56777977571E+03  0.14571995574E+04  0.25500000920E-02 0. -1.
</event>
<event>
 5   0  0.2193129E-07  0.3544864E+04  0.7818609E-02  0.8103239E-01
        1   -1    0    0  501    0  0.00000000000E+00  0.00000000000E+00  0.16842446694E+04  0.16842446694E+04  0.50400001928E-02 0.  1.
       -1   -1    0    0    0  501  0.00000000000E+00  0.00000000000E+00 -0.18652369602E+04  0.18652369602E+04  0.50400001928E-02 0. -1.
    10030    2    1    2    0    0  0.00000000000E+00  0.00000000000E+00 -0.18099229078E+03  0.35494816297E+04  0.35448641201E+04 0.  0.
        1    1    3    3  502    0  0.61909107491E+03  0.59896744439E+03  0.14605469886E+04  0.16956512803E+04  0.50400001928E-02 0.  1.
       -1    1    3    3    0  502 -0.61909107491E+03 -0.59896744439E+03 -0.16415392794E+04  0.18538303494E+04  0.50400001928E-02 0. -1.
</event>
<event>
 5   0  0.2086250E-07  0.3575721E+04  0.7818609E-02  0.8096076E-01
       -1   -1    0    0    0  501  0.00000000000E+00  0.00000000000E+00  0.13460391896E+04  0.13460391896E+04  0.50400001928E-02 0. -1.
        1   -1    0    0  501    0  0.00000000000E+00  0.00000000000E+00 -0.23747041816E+04  0.23747041816E+04  0.50400001928E-02 0.  1.
    10030    2    1    2    0    0  0.00000000000E+00  0.00000000000E+00 -0.10286649920E+04  0.37207433712E+04  0.35757208460E+04 0.  0.
        3    1    3    3  502    0  0.86397311782E+03  0.13649951341E+04 -0.13114183476E+04  0.20807400984E+04  0.10100000352E+00 0.  1.
       -3    1    3    3    0  502 -0.86397311782E+03 -0.13649951341E+04  0.28275335567E+03  0.16400032728E+04  0.10100000352E+00 0. -1.
</event>
<event>
 5   0  0.2086250E-07  0.3638712E+04  0.7818609E-02  0.8081681E-01
       -1   -1    0    0    0  501  0.00000000000E+00  0.00000000000E+00  0.12559370246E+04  0.12559370246E+04  0.50400001928E-02 0.  1.
        1   -1    0    0  501    0  0.00000000000E+00  0.00000000000E+00 -0.26355266859E+04  0.26355266859E+04  0.50400001928E-02 0. -1.
    10030    2    1    2    0    0  0.00000000000E+00  0.00000000000E+00 -0.13795896612E+04  0.38914637105E+04  0.36387116095E+04 0.  0.
        2    1    3    3  502    0 -0.35393429005E+03 -0.99108641077E+03  0.89738683558E+03  0.13830491271E+04  0.25500000920E-02 0.  1.
       -2    1    3    3    0  502  0.35393429005E+03  0.99108641077E+03 -0.22769764968E+04  0.25084145834E+04  0.25500000920E-02 0. -1.
</event>
<event>
 5   0  0.2086250E-07  0.3624995E+04  0.7818609E-02  0.8084790E-01
       -1   -1    0    0    0  501  0.00000000000E+00  0.00000000000E+00  0.13035132128E+04  0.13035132128E+04  0.50400001928E-02 0.  1.
        1   -1    0    0  501    0  0.00000000000E+00  0.00000000000E+00 -0.25202254047E+04  0.25202254047E+04  0.50400001928E-02 0. -1.
    10030    2    1    2    0    0  0.00000000000E+00  0.00000000000E+00 -0.12167121919E+04  0.38237386174E+04  0.36249949595E+04 0.  0.
        3    1    3    3  502    0  0.83287721359E+03  0.10344956490E+04  0.69266868359E+03  0.14978837125E+04  0.10100000352E+00 0.  1.
       -3    1    3    3    0  502 -0.83287721359E+03 -0.10344956490E+04 -0.19093808755E+04  0.23258549049E+04  0.10100000352E+00 0. -1.
</event>
<event>
 5   0  0.2193129E-07  0.3081337E+04  0.7818609E-02  0.8220879E-01
       -1   -1    0    0    0  501  0.00000000000E+00  0.00000000000E+00  0.12662610751E+04  0.12662610751E+04  0.50400001928E-02 0.  1.
        1   -1    0    0  501    0  0.00000000000E+00  0.00000000000E+00 -0.18745416560E+04  0.18745416560E+04  0.50400001928E-02 0. -1.
    10030    2    1    2    0    0  0.00000000000E+00  0.00000000000E+00 -0.60828058092E+03  0.31408027311E+04  0.30813368090E+04 0.  0.
        1    1    3    3  502    0  0.59198947824E+03  0.10170788257E+04 -0.13176934892E+04  0.17666966382E+04  0.50400001928E-02 0. -1.
       -1    1    3    3    0  502 -0.59198947824E+03 -0.10170788257E+04  0.70941290830E+03  0.13741060929E+04  0.50400001928E-02 0.  1.
</event>
<event>
 5   0  0.2086250E-07  0.3446480E+04  0.7818609E-02  0.8126592E-01
        1   -1    0    0  501    0  0.00000000000E+00  0.00000000000E+00  0.13053114157E+04  0.13053114157E+04  0.50400001928E-02 0. -1.
       -1   -1    0    0    0  501  0.00000000000E+00  0.00000000000E+00 -0.22749788456E+04  0.22749788456E+04  0.50400001928E-02 0.  1.
    10030    2    1    2    0    0  0.00000000000E+00  0.00000000000E+00 -0.96966742995E+03  0.35802902613E+04  0.34464798607E+04 0.  0.
        2    1    3    3  502    0  0.10803496021E+04  0.40277399444E+03 -0.18152495782E+04  0.21504681315E+04  0.25500000920E-02 0. -1.
       -2    1    3    3    0  502 -0.10803496021E+04 -0.40277399444E+03  0.84558214825E+03  0.14298221298E+04  0.25500000920E-02 0.  1.
</event>
<event>
 5   0  0.6324216E-07  0.3604157E+04  0.7818609E-02  0.8089540E-01
        2   -1    0    0  501    0  0.00000000000E+00  0.00000000000E+00  0.24211774961E+04  0.24211774961E+04  0.25500000920E-02 0.  1.
       -2   -1    0    0    0  501  0.00000000000E+00  0.00000000000E+00 -0.13412841630E+04  0.13412841630E+04  0.25500000920E-02 0. -1.
    10030    2    1    2    0    0  0.00000000000E+00  0.00000000000E+00  0.10798933331E+04  0.37624616591E+04  0.36041570617E+04 0.  0.
        2    1    3    3  502    0  0.90722697338E+03  0.33297136597E+03  0.21277927885E+04  0.23369708733E+04  0.25500000920E-02 0.  1.
       -2    1    3    3    0  502 -0.90722697338E+03 -0.33297136597E+03 -0.10478994554E+04  0.14254907858E+04  0.25500000920E-02 0. -1.
</event>
<event>
 5   0  0.2086250E-07  0.3594560E+04  0.7818609E-02  0.8091739E-01
       -1   -1    0    0    0  501  0.00000000000E+00  0.00000000000E+00  0.14151073383E+04  0.14151073383E+04  0.50400001928E-02 0.  1.
        1   -1    0    0  501    0  0.00000000000E+00  0.00000000000E+00 -0.22826639490E+04  0.22826639490E+04  0.50400001928E-02 0. -1.
    10030    2    1    2    0    0  0.00000000000E+00  0.00000000000E+00 -0.86755661077E+03  0.36977712873E+04  0.35945595030E+04 0.  0.
        2    1    3    3  502    0  0.15859551022E+04 -0.39109535702E+03 -0.12049739889E+04  0.20298205532E+04  0.25500000920E-02 0. -1.
       -2    1    3    3    0  502 -0.15859551022E+04  0.39109535702E+03  0.33741737809E+03  0.16679507341E+04  0.25500000920E-02 0.  1.
</event>
<event>
 5   0  0.2108068E-07  0.3716196E+04  0.7818609E-02  0.8064382E-01
       -1   -1    0    0    0  501  0.00000000000E+00  0.00000000000E+00  0.12117507611E+04  0.12117507611E+04  0.50400001928E-02 0. -1.
        1   -1    0    0  501    0  0.00000000000E+00  0.00000000000E+00 -0.28492067587E+04  0.28492067587E+04  0.50400001928E-02 0.  1.
    10030    2    1    2    0    0  0.00000000000E+00  0.00000000000E+00 -0.16374559976E+04  0.40609575199E+04  0.37161961512E+04 0.  0.
        5    1    3    3  502    0 -0.16831868360E+04  0.97423860126E+02 -0.16721386884E+04  0.23745903261E+04  0.46999998093E+01 0.  1.
       -5    1    3    3    0  502  0.16831868360E+04 -0.97423860126E+02  0.34682690834E+02  0.16863671938E+04  0.46999998093E+01 0. -1.
</event>
<event>
 5   0  0.6729577E-07  0.3580489E+04  0.7818609E-02  0.8094976E-01
       -2   -1    0    0    0  501  0.00000000000E+00  0.00000000000E+00  0.13899465592E+04  0.13899465592E+04  0.25500000920E-02 0.  1.
        2   -1    0    0  501    0  0.00000000000E+00  0.00000000000E+00 -0.23058263262E+04  0.23058263262E+04  0.25500000920E-02 0. -1.
    10030    2    1    2    0    0  0.00000000000E+00  0.00000000000E+00 -0.91587976696E+03  0.36957728854E+04  0.35804889992E+04 0.  0.
        3    1    3    3  502    0 -0.11958669413E+04 -0.96272342154E+03  0.49260234372E+03  0.16123247833E+04  0.10100000352E+00 0.  1.
       -3    1    3    3    0  502  0.11958669413E+04  0.96272342154E+03 -0.14084821107E+04  0.20834481021E+04  0.10100000352E+00 0. -1.
</event>
<event>
 5   0  0.6729577E-07  0.3137741E+04  0.7818609E-02  0.8205456E-01
       -2   -1    0    0    0  501  0.00000000000E+00  0.00000000000E+00  0.13368827591E+04  0.13368827591E+04  0.25500000920E-02 0. -1.
        2   -1    0    0  501    0  0.00000000000E+00  0.00000000000E+00 -0.18411142776E+04  0.18411142776E+04  0.25500000920E-02 0.  1.
    10030    2    1    2    0    0  0.00000000000E+00  0.00000000000E+00 -0.50423151847E+03  0.31779970367E+04  0.31377405471E+04 0.  0.
        3    1    3    3  502    0 -0.28406502322E+03  0.11218485942E+03 -0.18107141894E+04  0.18362908990E+04  0.10100000352E+00 0.  1.
       -3    1    3    3    0  502  0.28406502322E+03 -0.11218485942E+03  0.13064826709E+04  0.13417061376E+04  0.10100000352E+00 0. -1.
</event>
<event>
 5   0  0.6541476E-07  0.3527295E+04  0.7818609E-02  0.8107352E-01
        2   -1    0    0  501    0  0.00000000000E+00  0.00000000000E+00  0.19725122473E+04  0.19725122473E+04  0.25500000920E-02 0. -1.
       -2   -1    0    0    0  501  0.00000000000E+00  0.00000000000E+00 -0.15768989941E+04  0.15768989941E+04  0.25500000920E-02 0.  1.
    10030    2    1    2    0    0  0.00000000000E+00  0.00000000000E+00  0.39561325318E+03  0.35494112414E+04  0.35272950422E+04 0.  0.
        4    1    3    3  502    0 -0.12629153363E+04 -0.98873212074E+03  0.93582498757E+03  0.18569642898E+04  0.12699999809E+01 0. -1.
       -4    1    3    3    0  502  0.12629153363E+04  0.98873212074E+03 -0.54021173439E+03  0.16924469516E+04  0.12699999809E+01 0.  1.
</event>
<event>
 5   0  0.6729577E-07  0.3655988E+04  0.7818609E-02  0.8077786E-01
       -2   -1    0    0    0  501  0.00000000000E+00  0.00000000000E+00  0.12410300446E+04  0.12410300446E+04  0.25500000920E-02 0. -1.
        2   -1    0    0  501    0  0.00000000000E+00  0.00000000000E+00 -0.26925718178E+04  0.26925718178E+04  0.25500000920E-02 0.  1.
    10030    2    1    2    0    0  0.00000000000E+00  0.00000000000E+00 -0.14515417733E+04  0.39336018624E+04  0.36559882511E+04 0.  0.
        3    1    3    3  502    0  0.15462598425E+04 -0.61838093276E+03 -0.15368338695E+04  0.22660919732E+04  0.10100000352E+00 0.  1.
       -3    1    3    3    0  502 -0.15462598425E+04  0.61838093276E+03  0.85292096222E+02  0.16675098892E+04  0.10100000352E+00 0. -1.
</event>
<event>
 5   0  0.6848661E-07  0.3582316E+04  0.7818609E-02  0.8094554E-01
        2   -1    0    0  501    0  0.00000000000E+00  0.00000000000E+00  0.22560285266E+04  0.22560285266E+04  0.25500000920E-02 0.  1.
       -2   -1    0    0    0  501  0.00000000000E+00  0.00000000000E+00 -0.14220772351E+04  0.14220772351E+04  0.25500000920E-02 0. -1.
    10030    2    1    2    0    0  0.00000000000E+00  0.00000000000E+00  0.83395129151E+03  0.36781057617E+04  0.35823159043E+04 0.  0.
        1    1    3    3  502    0 -0.46107701123E+03 -0.18563463545E+03  0.21838017402E+04  0.22396522651E+04  0.50400001928E-02 0.  1.
       -1    1    3    3    0  502  0.46107701123E+03  0.18563463545E+03 -0.13498504487E+04  0.14384534966E+04  0.50400001928E-02 0. -1.
</event>
<event>
 5   0  0.6729577E-07  0.3583461E+04  0.7818609E-02  0.8094291E-01
       -2   -1    0    0    0  501  0.00000000000E+00  0.00000000000E+00  0.10927267702E+04  0.10927267702E+04  0.25500000920E-02 0. -1.
        2   -1    0    0  501    0  0.00000000000E+00  0.00000000000E+00 -0.29378786178E+04  0.29378786178E+04  0.25500000920E-02 0.  1.
    10030    2    1    2    0    0  0.00000000000E+00  0.00000000000E+00 -0.18451518476E+04  0.40306053880E+04  0.35834612393E+04 0.  0.
        3    1    3    3  502    0  0.10373331867E+04  0.15198097848E+03 -0.25568545931E+04  0.27634514250E+04  0.10100000352E+00 0.  1.
       -3    1    3    3    0  502 -0.10373331867E+04 -0.15198097848E+03  0.71170274549E+03  0.12671539631E+04  0.10100000352E+00 0. -1.
</event>
<event>
 5   0  0.6669864E-07  0.3545592E+04  0.7818609E-02  0.8103069E-01
       -2   -1    0    0    0  501  0.00000000000E+00  0.00000000000E+00  0.10676705306E+04  0.10676705306E+04  0.25500000920E-02 0. -1.
        2   -1    0    0  501    0  0.00000000000E+00  0.00000000000E+00 -0.29436098764E+04  0.29436098764E+04  0.25500000920E-02 0.  1.
    10030    2    1    2    0    0  0.00000000000E+00  0.00000000000E+00 -0.18759393459E+04  0.40112804070E+04  0.35455919216E+04 0.  0.
        5    1    3    3  502    0  0.32313087344E+03 -0.16440092342E+04 -0.28256804324E+03  0.16991311641E+04  0.46999998093E+01 0. -1.
       -5    1    3    3    0  502 -0.32313087344E+03  0.16440092342E+04 -0.15933713026E+04  0.23121492429E+04  0.46999998093E+01 0.  1.
</event>
<event>
 5   0  0.2108068E-07  0.3609137E+04  0.7818609E-02  0.8088402E-01
        1   -1    0    0  501    0  0.00000000000E+00  0.00000000000E+00  0.11355921601E+04  0.11355921602E+04  0.50400001928E-02 0.  1.
       -1   -1    0    0    0  501  0.00000000000E+00  0.00000000000E+00 -0.28676374610E+04  0.28676374610E+04  0.50400001928E-02 0. -1.
    10030    2    1    2    0    0  0.00000000000E+00  0.00000000000E+00 -0.17320453009E+04  0.40032296212E+04  0.36091365277E+04 0.  0.
        5    1    3    3  502    0 -0.14879848436E+04  0.66396296111E+03 -0.17262724508E+04  0.23738122025E+04  0.46999998093E+01 0.  1.
       -5    1    3    3    0  502  0.14879848436E+04 -0.66396296111E+03 -0.57728500430E+01  0.16294174186E+04  0.46999998093E+01 0. -1.
</event>
<event>
 5   0  0.2193129E-07  0.3585720E+04  0.7818609E-02  0.8093770E-01
        1   -1    0    0  501    0  0.00000000000E+00  0.00000000000E+00  0.15411192087E+04  0.15411192087E+04  0.50400001928E-02 0. -1.
       -1   -1    0    0    0  501  0.00000000000E+00  0.00000000000E+00 -0.20857229827E+04  0.20857229827E+04  0.50400001928E-02 0.  1.
    10030    2    1    2    0    0  0.00000000000E+00  0.00000000000E+00 -0.54460377398E+03  0.36268421914E+04  0.35857204312E+04 0.  0.
        1    1    3    3  502    0  0.10677832067E+04  0.40208214211E+03  0.11264956361E+04  0.16033787586E+04  0.50400001928E-02 0. -1.
       -1    1    3    3    0  502 -0.10677832067E+04 -0.40208214211E+03 -0.16710994101E+04  0.20234634328E+04  0.50400001928E-02 0.  1.
</event>
<event>
 5   0  0.2086250E-07  0.3586316E+04  0.7818609E-02  0.8093633E-01
        1   -1    0    0  501    0  0.00000000000E+00  0.00000000000E+00  0.30922537645E+04  0.30922537645E+04  0.50400001928E-02 0. -1.
       -1   -1    0    0    0  501  0.00000000000E+00  0.00000000000E+00 -0.10398290126E+04  0.10398290126E+04  0.50400001928E-02 0.  1.
    10030    2    1    2    0    0  0.00000000000E+00  0.00000000000E+00  0.20524247519E+04  0.41320827771E+04  0.35863157578E+04 0.  0.
        3    1    3    3  502    0 -0.39663330177E+02 -0.44298669421E+03  0.30276942802E+04  0.30601867681E+04  0.10100000352E+00 0. -1.
       -3    1    3    3    0  502  0.39663330177E+02  0.44298669421E+03 -0.97526952832E+03  0.10718960090E+04  0.10100000352E+00 0.  1.
</event>
<event>
 5   0  0.2193129E-07  0.3598196E+04  0.7818609E-02  0.8090905E-01
        1   -1    0    0  501    0  0.00000000000E+00  0.00000000000E+00  0.23582969364E+04  0.23582969364E+04  0.50400001928E-02 0.  1.
       -1   -1    0    0    0  501  0.00000000000E+00  0.00000000000E+00 -0.13724964339E+04  0.13724964339E+04  0.50400001928E-02 0. -1.
    10030    2    1    2    0    0  0.00000000000E+00  0.00000000000E+00  0.98580050252E+03  0.37307933703E+04  0.35981962900E+04 0.  0.
        1    1    3    3  502    0  0.45593341478E+03 -0.10889468457E+04  0.19005275701E+04  0.22373389453E+04  0.50400001928E-02 0.  1.
       -1    1    3    3    0  502 -0.45593341478E+03  0.10889468457E+04 -0.91472706757E+03  0.14934544250E+04  0.50400001928E-02 0. -1.
</event>
<event>
 5   0  0.2086250E-07  0.3595136E+04  0.7818609E-02  0.8091607E-01
       -1   -1    0    0    0  501  0.00000000000E+00  0.00000000000E+00  0.17595633195E+04  0.17595633195E+04  0.50400001928E-02 0.  1.
        1   -1    0    0  501    0  0.00000000000E+00  0.00000000000E+00 -0.18363933409E+04  0.18363933409E+04  0.50400001928E-02 0. -1.
    10030    2    1    2    0    0  0.00000000000E+00  0.00000000000E+00 -0.76830021342E+02  0.35959566604E+04  0.35951358043E+04 0.  0.
        4    1    3    3  502    0 -0.21319424168E+02 -0.15160852180E+04  0.92735184340E+03  0.17773440749E+04  0.12699999809E+01 0.  1.
       -4    1    3    3    0  502  0.21319424168E+02  0.15160852180E+04 -0.10041818647E+04  0.18186125856E+04  0.12699999809E+01 0. -1.
</event>
<event>
 5   0  0.6541476E-07  0.3572184E+04  0.7818609E-02  0.8096893E-01
       -2   -1    0    0    0  501  0.00000000000E+00  0.00000000000E+00  0.18978611593E+04  0.18978611593E+04  0.25500000920E-02 0.  1.
        2   -1    0    0  501    0  0.00000000000E+00  0.00000000000E+00 -0.16809055575E+04  0.16809055575E+04  0.25500000920E-02 0. -1.
    10030    2    1    2    0    0  0.00000000000E+00  0.00000000000E+00  0.21695560176E+03  0.35787667168E+04  0.35721844130E+04 0.  0.
        4    1    3    3  502    0  0.17486254228E+04  0.21813192402E+03 -0.18335150407E+03  0.17716917883E+04  0.12699999809E+01 0. -1.
       -4    1    3    3    0  502 -0.17486254228E+04 -0.21813192402E+03  0.40030710582E+03  0.18070749286E+04  0.12699999809E+01 0.  1.
</event>
<event>
 5   0  0.6669864E-07  0.3461574E+04  0.7818609E-02  0.8122957E-01
       -2   -1    0    0    0  501  0.00000000000E+00  0.00000000000E+00  0.12295583980E+04  0.12295583980E+04  0.25500000920E-02 0.  1.
        2   -1    0    0  501    0  0.00000000000E+00  0.00000000000E+00 -0.24363410205E+04  0.24363410205E+04  0.25500000920E-02 0. -1.
    10030    2    1    2    0    0  0.00000000000E+00  0.00000000000E+00 -0.12067826225E+04  0.36658994185E+04  0.34615739554E+04 0.  0.
        5    1    3    3  502    0  0.74605274442E+03  0.67730893795E+03  0.88688902008E+03  0.13423622160E+04  0.46999998093E+01 0.  1.
       -5    1    3    3    0  502 -0.74605274442E+03 -0.67730893795E+03 -0.20936716426E+04  0.23235372026E+04  0.46999998093E+01 0. -1.
</event>
<event>
 5   0  0.2193129E-07  0.3561698E+04  0.7818609E-02  0.8099322E-01
        1   -1    0    0  501    0  0.00000000000E+00  0.00000000000E+00  0.10874237370E+04  0.10874237370E+04  0.50400001928E-02 0. -1.
       -1   -1    0    0    0  501  0.00000000000E+00  0.00000000000E+00 -0.29164554558E+04  0.29164554558E+04  0.50400001928E-02 0.  1.
    10030    2    1    2    0    0  0.00000000000E+00  0.00000000000E+00 -0.18290317188E+04  0.40038791927E+04  0.35616978482E+04 0.  0.
        1    1    3    3  502    0  0.32700548502E+03 -0.79590155587E+03  0.83823077258E+03  0.12012587989E+04  0.50400001928E-02 0. -1.
       -1    1    3    3    0  502 -0.32700548502E+03  0.79590155587E+03 -0.26672624914E+04  0.28026203938E+04  0.50400001928E-02 0.  1.
</event>
<event>
 5   0  0.6729577E-07  0.3613511E+04  0.7818609E-02  0.8087404E-01
       -2   -1    0    0    0  501  0.00000000000E+00  0.00000000000E+00  0.14681893906E+04  0.14681893906E+04  0.25500000920E-02 0.  1.
        2   -1    0    0  501    0  0.00000000000E+00  0.00000000000E+00 -0.22233958145E+04  0.22233958145E+04  0.25500000920E-02 0. -1.
    10030    2    1    2    0    0  0.00000000000E+00  0.00000000000E+00 -0.75520642388E+03  0.36915852050E+04  0.36135113924E+04 0.  0.
        3    1    3    3  502    0 -0.48740095876E+02  0.17653513241E+04 -0.76732315683E+03  0.19255196004E+04  0.10100000352E+00 0.  1.
       -3    1    3    3    0  502  0.48740095876E+02 -0.17653513241E+04  0.12116732952E+02  0.17660656046E+04  0.10100000352E+00 0. -1.
</event>
<event>
 5   0  0.6848661E-07  0.3594502E+04  0.7818609E-02  0.8091752E-01
       -2   -1    0    0    0  501  0.00000000000E+00  0.00000000000E+00  0.15143570178E+04  0.15143570178E+04  0.25500000920E-02 0. -1.
        2   -1    0    0  501    0  0.00000000000E+00  0.00000000000E+00 -0.21329916029E+04  0.21329916029E+04  0.25500000920E-02 0.  1.
    10030    2    1    2    0    0  0.00000000000E+00  0.00000000000E+00 -0.61863458517E+03  0.36473486207E+04  0.35945018029E+04 0.  0.
        1    1    3    3  502    0 -0.15699146992E+03 -0.15889776278E+04 -0.11464401381E+04  0.19656605031E+04  0.50400001928E-02 0.  1.
       -1    1    3    3    0  502  0.15699146992E+03  0.15889776278E+04  0.52780555293E+03  0.16816881176E+04  0.50400001928E-02 0. -1.
</event>
<event>
 5   0  0.6324216E-07  0.3436718E+04  0.7818609E-02  0.8128953E-01
       -2   -1    0    0    0  501  0.00000000000E+00  0.00000000000E+00  0.14876235565E+04  0.14876235565E+04  0.25500000920E-02 0.  1.
        2   -1    0    0  501    0  0.00000000000E+00  0.00000000000E+00 -0.19848820270E+04  0.19848820270E+04  0.25500000920E-02 0. -1.
    10030    2    1    2    0    0  0.00000000000E+00  0.00000000000E+00 -0.49725847052E+03  0.34725055835E+04  0.34367177715E+04 0.  0.
        2    1    3    3  502    0 -0.15072835244E+03 -0.13986716124E+04 -0.12456957817E+04  0.18790314782E+04  0.25500000920E-02 0. -1.
       -2    1    3    3    0  502  0.15072835244E+03  0.13986716124E+04  0.74843731121E+03  0.15934741053E+04  0.25500000920E-02 0.  1.
</event>
<event>
 5   0  0.2086250E-07  0.3557246E+04  0.7818609E-02  0.8100356E-01
        1   -1    0    0  501    0  0.00000000000E+00  0.00000000000E+00  0.24477778657E+04  0.24477778657E+04  0.50400001928E-02 0.  1.
       -1   -1    0    0    0  501  0.00000000000E+00  0.00000000000E+00 -0.12923964681E+04  0.12923964681E+04  0.50400001928E-02 0. -1.
    10030    2    1    2    0    0  0.00000000000E+00  0.00000000000E+00  0.11553813976E+04  0.37401743338E+04  0.35572458270E+04 0.  0.
        2    1    3    3  502    0  0.16531142780E+04  0.63647258384E+03  0.40941255593E+03  0.18181041794E+04  0.25500000920E-02 0. -1.
       -2    1    3    3    0  502 -0.16531142780E+04 -0.63647258384E+03  0.74596884166E+03  0.19220701545E+04  0.25500000920E-02 0.  1.
</event>
<event>
 5   0  0.2086250E-07  0.3683043E+04  0.7818609E-02  0.8071730E-01
        1   -1    0    0  501    0  0.00000000000E+00  0.00000000000E+00  0.19820929420E+04  0.19820929421E+04  0.50400001928E-02 0. -1.
       -1   -1    0    0    0  501  0.00000000000E+00  0.00000000000E+00 -0.17109199167E+04  0.17109199168E+04  0.50400001928E-02 0.  1.
    10030    2    1    2    0    0  0.00000000000E+00  0.00000000000E+00  0.27117302530E+03  0.36930128588E+04  0.36830434651E+04 0.  0.
        4    1    3    3  502    0 -0.17244273058E+04  0.54910215591E+03 -0.20597901486E+03  0.18214257267E+04  0.12699999809E+01 0.  1.
       -4    1    3    3    0  502  0.17244273058E+04 -0.54910215591E+03  0.47715204016E+03  0.18715871321E+04  0.12699999809E+01 0. -1.
</event>
<event>
 5   0  0.6669864E-07  0.3606047E+04  0.7818609E-02  0.8089108E-01
        2   -1    0    0  501    0  0.00000000000E+00  0.00000000000E+00  0.17982784204E+04  0.17982784204E+04  0.25500000920E-02 0. -1.
       -2   -1    0    0    0  501  0.00000000000E+00  0.00000000000E+00 -0.18077810613E+04  0.18077810613E+04  0.25500000920E-02 0.  1.
    10030    2    1    2    0    0  0.00000000000E+00  0.00000000000E+00 -0.95026409612E+01  0.36060594817E+04  0.36060469611E+04 0.  0.
        5    1    3    3  502    0 -0.81864376953E+03 -0.12333594346E+04  0.10245813869E+04  0.18003172567E+04  0.46999998093E+01 0. -1.
       -5    1    3    3    0  502  0.81864376953E+03  0.12333594346E+04 -0.10340840279E+04  0.18057422250E+04  0.46999998093E+01 0.  1.
</event>
<event>
 5   0  0.2086250E-07  0.3592453E+04  0.7818609E-02  0.8092223E-01
       -1   -1    0    0    0  501  0.00000000000E+00  0.00000000000E+00  0.15677554576E+04  0.15677554576E+04  0.50400001928E-02 0. -1.
        1   -1    0    0  501    0  0.00000000000E+00  0.00000000000E+00 -0.20579931528E+04  0.20579931528E+04  0.50400001928E-02 0.  1.
    10030    2    1    2    0    0  0.00000000000E+00  0.00000000000E+00 -0.49023769519E+03  0.36257486104E+04  0.35924531991E+04 0.  0.
        2    1    3    3  502    0 -0.11592696569E+04 -0.11694619912E+04 -0.96932238240E+03  0.19107939102E+04  0.25500000920E-02 0.  1.
       -2    1    3    3    0  502  0.11592696569E+04  0.11694619912E+04  0.47908468721E+03  0.17149547002E+04  0.25500000920E-02 0. -1.
</event>
<event>
 5   0  0.2108068E-07  0.3625156E+04  0.7818609E-02  0.8084754E-01
       -1   -1    0    0    0  501  0.00000000000E+00  0.00000000000E+00  0.15139373690E+04  0.15139373690E+04  0.50400001928E-02 0.  1.
        1   -1    0    0  501    0  0.00000000000E+00  0.00000000000E+00 -0.21701282188E+04  0.21701282188E+04  0.50400001928E-02 0. -1.
    10030    2    1    2    0    0  0.00000000000E+00  0.00000000000E+00 -0.65619084984E+03  0.36840655878E+04  0.36251555586E+04 0.  0.
        5    1    3    3  502    0  0.11749100301E+04 -0.25427491890E+03 -0.17067343667E+04  0.20875903816E+04  0.46999998093E+01 0. -1.
       -5    1    3    3    0  502 -0.11749100301E+04  0.25427491890E+03  0.10505435168E+04  0.15964752062E+04  0.46999998093E+01 0.  1.
</event>
<event>
 5   0  0.2086250E-07  0.3473946E+04  0.7818609E-02  0.8119992E-01
       -1   -1    0    0    0  501  0.00000000000E+00  0.00000000000E+00  0.15890943206E+04  0.15890943206E+04  0.50400001928E-02 0. -1.
        1   -1    0    0  501    0  0.00000000000E+00  0.00000000000E+00 -0.18986130514E+04  0.18986130514E+04  0.50400001928E-02 0.  1.
    10030    2    1    2    0    0  0.00000000000E+00  0.00000000000E+00 -0.30951873077E+03  0.34877073720E+04  0.34739460082E+04 0.  0.
        4    1    3    3  502    0 -0.89620632704E+03  0.52439334360E+03 -0.15527189565E+04  0.18679164677E+04  0.12699999809E+01 0.  1.
       -4    1    3    3    0  502  0.89620632704E+03 -0.52439334360E+03  0.12432002257E+04  0.16197909043E+04  0.12699999809E+01 0. -1.
</event>
<event>
 5   0  0.2086250E-07  0.3620884E+04  0.7818609E-02  0.8085725E-01
        1   -1    0    0  501    0  0.00000000000E+00  0.00000000000E+00  0.24708243887E+04  0.24708243887E+04  0.50400001928E-02 0. -1.
       -1   -1    0    0    0  501  0.00000000000E+00  0.00000000000E+00 -0.13265617393E+04  0.13265617394E+04  0.50400001928E-02 0.  1.
    10030    2    1    2    0    0  0.00000000000E+00  0.00000000000E+00  0.11442626493E+04  0.37973861280E+04  0.36208844769E+04 0.  0.
        3    1    3    3  502    0  0.62599421717E+03 -0.99324728340E+03  0.20174578683E+04  0.23342118983E+04  0.10100000352E+00 0. -1.
       -3    1    3    3    0  502 -0.62599421717E+03  0.99324728340E+03 -0.87319521893E+03  0.14631742297E+04  0.10100000352E+00 0.  1.
</event>
<event>
 5   0  0.2108068E-07  0.3400541E+04  0.7818609E-02  0.8137774E-01
       -1   -1    0    0    0  501  0.00000000000E+00  0.00000000000E+00  0.13356033308E+04  0.13356033308E+04  0.50400001928E-02 0.  1.
        1   -1    0    0  501    0  0.00000000000E+00  0.00000000000E+00 -0.21645041913E+04  0.21645041913E+04  0.50400001928E-02 0. -1.
    10030    2    1    2    0    0  0.00000000000E+00  0.00000000000E+00 -0.82890086046E+03  0.35001075221E+04  0.34005405496E+04 0.  0.
        5    1    3    3  502    0 -0.16016676122E+04  0.50711711594E+03 -0.68362235203E+03  0.18137994706E+04  0.46999998093E+01 0.  1.
       -5    1    3    3    0  502  0.16016676122E+04 -0.50711711594E+03 -0.14527850842E+03  0.16863080515E+04  0.46999998093E+01 0. -1.
</event>
<event>
 5   0  0.2193129E-07  0.3560157E+04  0.7818609E-02  0.8099680E-01
       -1   -1    0    0    0  501  0.00000000000E+00  0.00000000000E+00  0.18439436567E+04  0.18439436567E+04  0.50400001928E-02 0.  1.
        1   -1    0    0  501    0  0.00000000000E+00  0.00000000000E+00 -0.17184249447E+04  0.17184249447E+04  0.50400001928E-02 0. -1.
    10030    2    1    2    0    0  0.00000000000E+00  0.00000000000E+00  0.12551871197E+03  0.35623686014E+04  0.35601566125E+04 0.  0.
        1    1    3    3  502    0 -0.51133818014E+03 -0.32941459350E+03 -0.16112110470E+04  0.17222025859E+04  0.50400001928E-02 0. -1.
       -1    1    3    3    0  502  0.51133818014E+03  0.32941459350E+03  0.17367297590E+04  0.18401660155E+04  0.50400001928E-02 0.  1.
</event>
<event>
 5   0  0.6848661E-07  0.3573866E+04  0.7818609E-02  0.8096504E-01
        2   -1    0    0  501    0  0.00000000000E+00  0.00000000000E+00  0.21608435824E+04  0.21608435824E+04  0.25500000920E-02 0. -1.
       -2   -1    0    0    0  501  0.00000000000E+00  0.00000000000E+00 -0.14777233045E+04  0.14777233045E+04  0.25500000920E-02 0.  1.
    10030    2    1    2    0    0  0.00000000000E+00  0.00000000000E+00  0.68312027787E+03  0.36385668869E+04  0.35738656489E+04 0.  0.
        1    1    3    3  502    0  0.45554875401E+03 -0.13821452741E+03  0.20950949421E+04  0.21484996484E+04  0.50400001928E-02 0. -1.
       -1    1    3    3    0  502 -0.45554875401E+03  0.13821452741E+03 -0.14119746642E+04  0.14900672385E+04  0.50400001928E-02 0.  1.
</event>
<event>
 5   0  0.2193129E-07  0.3618996E+04  0.7818609E-02  0.8086154E-01
       -1   -1    0    0    0  501  0.00000000000E+00  0.00000000000E+00  0.34469243249E+04  0.34469243249E+04  0.50400001928E-02 0.  1.
        1   -1    0    0  501    0  0.00000000000E+00  0.00000000000E+00 -0.94991444621E+03  0.94991444623E+03  0.50400001928E-02 0. -1.
    10030    2    1    2    0    0  0.00000000000E+00  0.00000000000E+00  0.24970098787E+04  0.43968387712E+04  0.36189961101E+04 0.  0.
        1    1    3    3  502    0 -0.16191893303E+04 -0.17133122447E+03  0.28943478967E+03  0.16537536012E+04  0.50400001928E-02 0. -1.
       -1    1    3    3    0  502  0.16191893303E+04  0.17133122447E+03  0.22075750890E+04  0.27430851700E+04  0.50400001928E-02 0.  1.
</event>
<event>
 5   0  0.6541476E-07  0.3282364E+04  0.7818609E-02  0.8167397E-01
       -2   -1    0    0    0  501  0.00000000000E+00  0.00000000000E+00  0.10785399335E+04  0.10785399335E+04  0.25500000920E-02 0. -1.
        2   -1    0    0  501    0  0.00000000000E+00  0.00000000000E+00 -0.24973373215E+04  0.24973373215E+04  0.25500000920E-02 0.  1.
    10030    2    1    2    0    0  0.00000000000E+00  0.00000000000E+00 -0.14187973880E+04  0.35758772551E+04  0.32823637999E+04 0.  0.
        4    1    3    3  502    0  0.56542692445E+02  0.16328532933E+04 -0.87841518550E+03  0.18549991387E+04  0.12699999809E+01 0. -1.
       -4    1    3    3    0  502 -0.56542692445E+02 -0.16328532933E+04 -0.54038220251E+03  0.17208781163E+04  0.12699999809E+01 0.  1.
</event>
<event>
 5   0  0.6669864E-07  0.3600745E+04  0.7818609E-02  0.8090321E-01
       -2   -1    0    0    0  501  0.00000000000E+00  0.00000000000E+00  0.15259496849E+04  0.15259496849E+04  0.25500000920E-02 0. -1.
        2   -1    0    0  501    0  0.00000000000E+00  0.00000000000E+00 -0.21241462172E+04  0.21241462172E+04  0.25500000920E-02 0.  1.
    10030    2    1    2    0    0  0.00000000000E+00  0.00000000000E+00 -0.59819653237E+03  0.36500959021E+04  0.36007445068E+04 0.  0.
        5    1    3    3  502    0  0.32493244757E+03  0.17671571626E+04 -0.41420021985E+03  0.18439114526E+04  0.46999998093E+01 0. -1.
       -5    1    3    3    0  502 -0.32493244757E+03 -0.17671571626E+04 -0.18399631252E+03  0.18061844495E+04  0.46999998093E+01 0.  1.
</event>
<event>
 5   0  0.2086250E-07  0.3581128E+04  0.7818609E-02  0.8094828E-01
        1   -1    0    0  501    0  0.00000000000E+00  0.00000000000E+00  0.17603935023E+04  0.17603935023E+04  0.50400001928E-02 0.  1.
       -1   -1    0    0    0  501  0.00000000000E+00  0.00000000000E+00 -0.18212511954E+04  0.18212511954E+04  0.50400001928E-02 0. -1.
    10030    2    1    2    0    0  0.00000000000E+00  0.00000000000E+00 -0.60857693015E+02  0.35816446977E+04  0.35811276271E+04 0.  0.
        2    1    3    3  502    0  0.14315680912E+03  0.14389463151E+04 -0.10865445718E+04  0.18087673914E+04  0.25500000920E-02 0. -1.
       -2    1    3    3    0  502 -0.14315680912E+03 -0.14389463151E+04  0.10256868787E+04  0.17728773063E+04  0.25500000920E-02 0.  1.
</event>
<event>
 5   0  0.2193129E-07  0.3527110E+04  0.7818609E-02  0.8107395E-01
        1   -1    0    0  501    0  0.00000000000E+00  0.00000000000E+00  0.12705928782E+04  0.12705928782E+04  0.50400001928E-02 0. -1.
       -1   -1    0    0    0  501  0.00000000000E+00  0.00000000000E+00 -0.24477754685E+04  0.24477754685E+04  0.50400001928E-02 0.  1.
    10030    2    1    2    0    0  0.00000000000E+00  0.00000000000E+00 -0.11771825903E+04  0.37183683468E+04  0.35271099092E+04 0.  0.
        1    1    3    3  502    0  0.65614195741E+03 -0.15866759864E+04 -0.10129914358E+04  0.19935432283E+04  0.50400001928E-02 0.  1.
       -1    1    3    3    0  502 -0.65614195741E+03  0.15866759864E+04 -0.16419115447E+03  0.17248251185E+04  0.50400001928E-02 0. -1.
</event>
<event>
 5   0  0.6324216E-07  0.3542198E+04  0.7818609E-02  0.8103862E-01
       -2   -1    0    0    0  501  0.00000000000E+00  0.00000000000E+00  0.23303528357E+04  0.23303528357E+04  0.25500000920E-02 0. -1.
        2   -1    0    0  501    0  0.00000000000E+00  0.00000000000E+00 -0.13460589078E+04  0.13460589078E+04  0.25500000920E-02 0.  1.
    10030    2    1    2    0    0  0.00000000000E+00  0.00000000000E+00  0.98429392787E+03  0.36764117436E+04  0.35421982965E+04 0.  0.
        2    1    3    3  502    0  0.28795401083E+03  0.12076468085E+04  0.18031230248E+04  0.21891964208E+04  0.25500000920E-02 0. -1.
       -2    1    3    3    0  502 -0.28795401083E+03 -0.12076468085E+04 -0.81882909689E+03  0.14872153228E+04  0.25500000920E-02 0.  1.
</event>
<event>
 5   0  0.2086250E-07  0.3548882E+04  0.7818609E-02  0.8102302E-01
        1   -1    0    0  501    0  0.00000000000E+00  0.00000000000E+00  0.29230613117E+04  0.29230613117E+04  0.50400001928E-02 0. -1.
       -1   -1    0    0    0  501  0.00000000000E+00  0.00000000000E+00 -0.10771721784E+04  0.10771721784E+04  0.50400001928E-02 0.  1.
    10030    2    1    2    0    0  0.00000000000E+00  0.00000000000E+00  0.18458891333E+04  0.40002334901E+04  0.35488816947E+04 0.  0.
        3    1    3    3  502    0  0.10057804591E+04  0.50284669289E+03 -0.62429051151E+03  0.12861523166E+04  0.10100000352E+00 0.  1.
       -3    1    3    3    0  502 -0.10057804591E+04 -0.50284669289E+03  0.24701796448E+04  0.27140811735E+04  0.10100000352E+00 0. -1.
</event>
<event>
 5   0  0.2086250E-07  0.3628272E+04  0.7818609E-02  0.8084046E-01
        1   -1    0    0  501    0  0.00000000000E+00  0.00000000000E+00  0.17408686516E+04  0.17408686516E+04  0.50400001928E-02 0. -1.
       -1   -1    0    0    0  501  0.00000000000E+00  0.00000000000E+00 -0.18904864148E+04  0.18904864148E+04  0.50400001928E-02 0.  1.
    10030    2    1    2    0    0  0.00000000000E+00  0.00000000000E+00 -0.14961776319E+03  0.36313550663E+04  0.36282715089E+04 0.  0.
        3    1    3    3  502    0  0.15151475745E+03  0.52827582031E+03  0.16555492421E+04  0.17443839507E+04  0.10100000352E+00 0. -1.
       -3    1    3    3    0  502 -0.15151475745E+03 -0.52827582031E+03 -0.18051670053E+04  0.18869711157E+04  0.10100000352E+00 0.  1.
</event>
<event>
 5   0  0.6324216E-07  0.3575276E+04  0.7818609E-02  0.8096179E-01
        2   -1    0    0  501    0  0.00000000000E+00  0.00000000000E+00  0.16614036412E+04  0.16614036412E+04  0.25500000920E-02 0. -1.
       -2   -1    0    0    0  501  0.00000000000E+00  0.00000000000E+00 -0.19234639251E+04  0.19234639252E+04  0.25500000920E-02 0.  1.
    10030    2    1    2    0    0  0.00000000000E+00  0.00000000000E+00 -0.26206028394E+03  0.35848675664E+04  0.35752761957E+04 0.  0.
        2    1    3    3  502    0  0.11744491240E+04  0.52942876567E+03  0.11116592103E+04  0.17015909505E+04  0.25500000920E-02 0. -1.
       -2    1    3    3    0  502 -0.11744491240E+04 -0.52942876567E+03 -0.13737194943E+04  0.18832766159E+04  0.25500000920E-02 0.  1.
</event>
<event>
 5   0  0.2108068E-07  0.3488210E+04  0.7818609E-02  0.8116590E-01
        1   -1    0    0  501    0  0.00000000000E+00  0.00000000000E+00  0.18316608020E+04  0.18316608020E+04  0.50400001928E-02 0. -1.
       -1   -1    0    0    0  501  0.00000000000E+00  0.00000000000E+00 -0.16607341207E+04  0.16607341208E+04  0.50400001928E-02 0.  1.
    10030    2    1    2    0    0  0.00000000000E+00  0.00000000000E+00  0.17092668124E+03  0.34923949227E+04  0.34882096219E+04 0.  0.
        5    1    3    3  502    0 -0.27472737818E+03 -0.10797035468E+04 -0.12580277055E+04  0.16804435959E+04  0.46999998093E+01 0.  1.
       -5    1    3    3    0  502  0.27472737818E+03  0.10797035468E+04  0.14289543867E+04  0.18119513268E+04  0.46999998093E+01 0. -1.
</event>
<event>
 5   0  0.6729577E-07  0.3576263E+04  0.7818609E-02  0.8095951E-01
       -2   -1    0    0    0  501  0.00000000000E+00  0.00000000000E+00  0.29561372299E+04  0.29561372299E+04  0.25500000920E-02 0. -1.
        2   -1    0    0  501    0  0.00000000000E+00  0.00000000000E+00 -0.10816188358E+04  0.10816188358E+04  0.25500000920E-02 0.  1.
    10030    2    1    2    0    0  0.00000000000E+00  0.00000000000E+00  0.18745183940E+04  0.40377560657E+04  0.35762626912E+04 0.  0.
        3    1    3    3  502    0 -0.10382484189E+04 -0.12821139098E+04  0.17159209912E+04  0.23803698695E+04  0.10100000352E+00 0. -1.
       -3    1    3    3    0  502  0.10382484189E+04  0.12821139098E+04  0.15859740281E+03  0.16573861962E+04  0.10100000352E+00 0.  1.
</event>
<event>
 5   0  0.6729577E-07  0.3612250E+04  0.7818609E-02  0.8087692E-01
       -2   -1    0    0    0  501  0.00000000000E+00  0.00000000000E+00  0.15342441256E+04  0.15342441256E+04  0.25500000920E-02 0.  1.
        2   -1    0    0  501    0  0.00000000000E+00  0.00000000000E+00 -0.21261848842E+04  0.21261848842E+04  0.25500000920E-02 0. -1.
    10030    2    1    2    0    0  0.00000000000E+00  0.00000000000E+00 -0.59194075855E+03  0.36604290098E+04  0.36122495310E+04 0.  0.
        3    1    3    3  502    0  0.37317971578E+03  0.93221635927E+03  0.12253180710E+04  0.15842016368E+04  0.10100000352E+00 0.  1.
       -3    1    3    3    0  502 -0.37317971578E+03 -0.93221635927E+03 -0.18172588295E+04  0.20762273730E+04  0.10100000352E+00 0. -1.
</event>
<event>
 5   0  0.6324216E-07  0.3649587E+04  0.7818609E-02  0.8079227E-01
        2   -1    0    0  501    0  0.00000000000E+00  0.00000000000E+00  0.29482115086E+04  0.29482115086E+04  0.25500000920E-02 0. -1.
       -2   -1    0    0    0  501  0.00000000000E+00  0.00000000000E+00 -0.11294545720E+04  0.11294545720E+04  0.25500000920E-02 0.  1.
    10030    2    1    2    0    0  0.00000000000E+00  0.00000000000E+00  0.18187569366E+04  0.40776660806E+04  0.36495868082E+04 0.  0.
        2    1    3    3  502    0 -0.17038253501E+03 -0.90936337288E+03 -0.84797427769E+03  0.12550029194E+04  0.25500000920E-02 0.  1.
       -2    1    3    3    0  502  0.17038253501E+03  0.90936337288E+03  0.26667312143E+04  0.28226631612E+04  0.25500000920E-02 0. -1.
</event>
<event>
 5   0  0.2086250E-07  0.3568289E+04  0.7818609E-02  0.8097794E-01
       -1   -1    0    0    0  501  0.00000000000E+00  0.00000000000E+00  0.14745838639E+04  0.14745838639E+04  0.50400001928E-02 0.  1.
        1   -1    0    0  501    0  0.00000000000E+00  0.00000000000E+00 -0.21586917966E+04  0.21586917966E+04  0.50400001928E-02 0. -1.
    10030    2    1    2    0    0  0.00000000000E+00  0.00000000000E+00 -0.68410793265E+03  0.36332756605E+04  0.35682892766E+04 0.  0.
        4    1    3    3  502    0  0.17681721135E+03 -0.11244892133E+03 -0.21461183560E+04  0.21563243488E+04  0.12699999809E+01 0. -1.
       -4    1    3    3    0  502 -0.17681721135E+03  0.11244892133E+03  0.14620104234E+04  0.14769513117E+04  0.12699999809E+01 0.  1.
</event>
<event>
 5   0  0.6848661E-07  0.3603891E+04  0.7818609E-02  0.8089601E-01
       -2   -1    0    0    0  501  0.00000000000E+00  0.00000000000E+00  0.12176047164E+04  0.12176047164E+04  0.25500000920E-02 0. -1.
        2   -1    0    0  501    0  0.00000000000E+00  0.00000000000E+00 -0.26667170768E+04  0.26667170768E+04  0.25500000920E-02 0.  1.
    10030    2    1    2    0    0  0.00000000000E+00  0.00000000000E+00 -0.14491123604E+04  0.38843217932E+04  0.36038908363E+04 0.  0.
        1    1    3    3  502    0 -0.82879168523E+03 -0.15892876055E+04 -0.92410173545E+03  0.20166047625E+04  0.50400001928E-02 0. -1.
       -1    1    3    3    0  502  0.82879168523E+03  0.15892876055E+04 -0.52501062497E+03  0.18677170307E+04  0.50400001928E-02 0.  1.
</event>
<event>
 5   0  0.6324216E-07  0.3669143E+04  0.7818609E-02  0.8074835E-01
        2   -1    0    0  501    0  0.00000000000E+00  0.00000000000E+00  0.13557395166E+04  0.13557395166E+04  0.25500000920E-02 0.  1.
       -2   -1    0    0    0  501  0.00000000000E+00  0.00000000000E+00 -0.24825208955E+04  0.24825208956E+04  0.25500000920E-02 0. -1.
    10030    2    1    2    0    0  0.00000000000E+00  0.00000000000E+00 -0.11267813790E+04  0.38382604121E+04  0.36691425041E+04 0.  0.
        2    1    3    3  502    0 -0.78916460154E+03  0.14510401361E+04 -0.13985321069E+04  0.21642990318E+04  0.25500000920E-02 0. -1.
       -2    1    3    3    0  502  0.78916460154E+03 -0.14510401361E+04  0.27175072796E+03  0.16739613804E+04  0.25500000920E-02 0.  1.
</event>
<event>
 5   0  0.6541476E-07  0.3637870E+04  0.7818609E-02  0.8081872E-01
       -2   -1    0    0    0  501  0.00000000000E+00  0.00000000000E+00  0.11855834759E+04  0.11855834759E+04  0.25500000920E-02 0.  1.
        2   -1    0    0  501    0  0.00000000000E+00  0.00000000000E+00 -0.27906294648E+04  0.27906294648E+04  0.25500000920E-02 0. -1.
    10030    2    1    2    0    0  0.00000000000E+00  0.00000000000E+00 -0.16050459889E+04  0.39762129406E+04  0.36378698056E+04 0.  0.
        4    1    3    3  502    0  0.36011905622E+03 -0.56864826941E+03  0.10444550706E+04  0.12425516474E+04  0.12699999809E+01 0.  1.
       -4    1    3    3    0  502 -0.36011905622E+03  0.56864826941E+03 -0.26495010595E+04  0.27336612933E+04  0.12699999809E+01 0. -1.
</event>
<event>
 5   0  0.6729577E-07  0.3630582E+04  0.7818609E-02  0.8083522E-01
       -2   -1    0    0    0  501  0.00000000000E+00  0.00000000000E+00  0.17648513628E+04  0.17648513628E+04  0.25500000920E-02 0. -1.
        2   -1    0    0  501    0  0.00000000000E+00  0.00000000000E+00 -0.18671723197E+04  0.18671723197E+04  0.25500000920E-02 0.  1.
    10030    2    1    2    0    0  0.00000000000E+00  0.00000000000E+00 -0.10232095687E+03  0.36320236825E+04  0.36305821093E+04 0.  0.
        3    1    3    3  502    0 -0.87625871629E+03  0.14767800281E+04 -0.64009875327E+03  0.18326033432E+04  0.10100000352E+00 0.  1.
       -3    1    3    3    0  502  0.87625871629E+03 -0.14767800281E+04  0.53777779640E+03  0.17994203394E+04  0.10100000352E+00 0. -1.
</event>
<event>
 5   0  0.2086250E-07  0.3529597E+04  0.7818609E-02  0.8106811E-01
        1   -1    0    0  501    0  0.00000000000E+00  0.00000000000E+00  0.18860524169E+04  0.18860524169E+04  0.50400001928E-02 0.  1.
       -1   -1    0    0    0  501  0.00000000000E+00  0.00000000000E+00 -0.16513401330E+04  0.16513401330E+04  0.50400001928E-02 0. -1.
    10030    2    1    2    0    0  0.00000000000E+00  0.00000000000E+00  0.23471228392E+03  0.35373925499E+04  0.35295971718E+04 0.  0.
        2    1    3    3  502    0 -0.14397146501E+04  0.31175576036E+03  0.10913792014E+04  0.18333244364E+04  0.25500000920E-02 0.  1.
       -2    1    3    3    0  502  0.14397146501E+04 -0.31175576036E+03 -0.85666691748E+03  0.17040681135E+04  0.25500000920E-02 0. -1.
</event>
<event>
 5   0  0.6848661E-07  0.3029966E+04  0.7818609E-02  0.8235225E-01
        2   -1    0    0  501    0  0.00000000000E+00  0.00000000000E+00  0.24647807393E+04  0.24647807393E+04  0.25500000920E-02 0.  1.
       -2   -1    0    0    0  501  0.00000000000E+00  0.00000000000E+00 -0.93118767050E+03  0.93118767050E+03  0.25500000920E-02 0. -1.
    10030    2    1    2    0    0  0.00000000000E+00  0.00000000000E+00  0.15335930688E+04  0.33959684098E+04  0.30299659635E+04 0.  0.
        1    1    3    3  502    0  0.64222165259E+03  0.12839779101E+04  0.13091098403E+04  0.19428886995E+04  0.50400001928E-02 0.  1.
       -1    1    3    3    0  502 -0.64222165259E+03 -0.12839779101E+04  0.22448322853E+03  0.14530797103E+04  0.50400001928E-02 0. -1.
</event>
<event>
 5   0  0.6541476E-07  0.3609517E+04  0.7818609E-02  0.8088315E-01
        2   -1    0    0  501    0  0.00000000000E+00  0.00000000000E+00  0.21650356439E+04  0.21650356439E+04  0.25500000920E-02 0.  1.
       -2   -1    0    0    0  501  0.00000000000E+00  0.00000000000E+00 -0.15044341104E+04  0.15044341104E+04  0.25500000920E-02 0. -1.
    10030    2    1    2    0    0  0.00000000000E+00  0.00000000000E+00  0.66060153351E+03  0.36694697542E+04  0.36095171271E+04 0.  0.
        4    1    3    3  502    0  0.74159191899E+03  0.59850993731E+02 -0.13412759738E+04  0.15338068869E+04  0.12699999809E+01 0. -1.
       -4    1    3    3    0  502 -0.74159191899E+03 -0.59850993731E+02  0.20018775073E+04  0.21356628673E+04  0.12699999809E+01 0.  1.
</event>
<event>
 5   0  0.2193129E-07  0.3527051E+04  0.7818609E-02  0.8107409E-01
        1   -1    0    0  501    0  0.00000000000E+00  0.00000000000E+00  0.13530406206E+04  0.13530406207E+04  0.50400001928E-02 0.  1.
       -1   -1    0    0    0  501  0.00000000000E+00  0.00000000000E+00 -0.22985436757E+04  0.22985436757E+04  0.50400001928E-02 0. -1.
    10030    2    1    2    0    0  0.00000000000E+00  0.00000000000E+00 -0.94550305509E+03  0.36515842964E+04  0.35270514380E+04 0.  0.
        1    1    3    3  502    0 -0.44150076129E+03 -0.10567152008E+04  0.91566279950E+03  0.14662906602E+04  0.50400001928E-02 0.  1.
       -1    1    3    3    0  502  0.44150076129E+03  0.10567152008E+04 -0.18611658546E+04  0.21852936361E+04  0.50400001928E-02 0. -1.
</event>
<event>
 5   0  0.2086250E-07  0.3551808E+04  0.7818609E-02  0.8101621E-01
       -1   -1    0    0    0  501  0.00000000000E+00  0.00000000000E+00  0.18667048378E+04  0.18667048378E+04  0.50400001928E-02 0. -1.
        1   -1    0    0  501    0  0.00000000000E+00  0.00000000000E+00 -0.16895201074E+04  0.16895201074E+04  0.50400001928E-02 0.  1.
    10030    2    1    2    0    0  0.00000000000E+00  0.00000000000E+00  0.17718473036E+03  0.35562249452E+04  0.35518081919E+04 0.  0.
        2    1    3    3  502    0  0.11634725239E+04 -0.10181841810E+03  0.14280900825E+04  0.18448513729E+04  0.25500000920E-02 0. -1.
       -2    1    3    3    0  502 -0.11634725239E+04  0.10181841810E+03 -0.12509053522E+04  0.17113735724E+04  0.25500000920E-02 0.  1.
</event>
<event>
 5   0  0.2108068E-07  0.3637115E+04  0.7818609E-02  0.8082043E-01
       -1   -1    0    0    0  501  0.00000000000E+00  0.00000000000E+00  0.25410307416E+04  0.25410307416E+04  0.50400001928E-02 0. -1.
        1   -1    0    0  501    0  0.00000000000E+00  0.00000000000E+00 -0.13014998147E+04  0.13014998147E+04  0.50400001928E-02 0.  1.
    10030    2    1    2    0    0  0.00000000000E+00  0.00000000000E+00  0.12395309269E+04  0.38425305563E+04  0.36371148122E+04 0.  0.
        5    1    3    3  502    0 -0.41733133573E+03  0.13273179749E+04  0.18568780254E+04  0.23203354373E+04  0.46999998093E+01 0. -1.
       -5    1    3    3    0  502  0.41733133573E+03 -0.13273179749E+04 -0.61734709848E+03  0.15221951190E+04  0.46999998093E+01 0.  1.
</event>
<event>
 5   0  0.2086250E-07  0.3596596E+04  0.7818609E-02  0.8091272E-01
        1   -1    0    0  501    0  0.00000000000E+00  0.00000000000E+00  0.10189867579E+04  0.10189867579E+04  0.50400001928E-02 0.  1.
       -1   -1    0    0    0  501  0.00000000000E+00  0.00000000000E+00 -0.31736189260E+04  0.31736189260E+04  0.50400001928E-02 0. -1.
    10030    2    1    2    0    0  0.00000000000E+00  0.00000000000E+00 -0.21546321681E+04  0.41926056840E+04  0.35965959797E+04 0.  0.
        3    1    3    3  502    0 -0.20952506421E+03  0.19519405346E+03  0.99223809576E+03  0.10327332279E+04  0.10100000352E+00 0.  1.
       -3    1    3    3    0  502  0.20952506421E+03 -0.19519405346E+03 -0.31468702639E+04  0.31598724561E+04  0.10100000352E+00 0. -1.
</event>
<event>
 5   0  0.6541476E-07  0.3601420E+04  0.7818609E-02  0.8090167E-01
       -2   -1    0    0    0  501  0.00000000000E+00  0.00000000000E+00  0.16698049619E+04  0.16698049619E+04  0.25500000920E-02 0.  1.
        2   -1    0    0  501    0  0.00000000000E+00  0.00000000000E+00 -0.19418771434E+04  0.19418771434E+04  0.25500000920E-02 0. -1.
    10030    2    1    2    0    0  0.00000000000E+00  0.00000000000E+00 -0.27207218149E+03  0.36116821052E+04  0.36014197697E+04 0.  0.
        4    1    3    3  502    0 -0.10542345099E+04  0.93252192432E+03 -0.12624227019E+04  0.18906930561E+04  0.12699999809E+01 0.  1.
       -4    1    3    3    0  502  0.10542345099E+04 -0.93252192432E+03  0.99035052041E+03  0.17209890492E+04  0.12699999809E+01 0. -1.
</event>
<event>
 5   0  0.2193129E-07  0.3600287E+04  0.7818609E-02  0.8090426E-01
       -1   -1    0    0    0  501  0.00000000000E+00  0.00000000000E+00  0.24674336121E+04  0.24674336121E+04  0.50400001928E-02 0. -1.
        1   -1    0    0  501    0  0.00000000000E+00  0.00000000000E+00 -0.13133145534E+04  0.13133145534E+04  0.50400001928E-02 0.  1.
    10030    2    1    2    0    0  0.00000000000E+00  0.00000000000E+00  0.11541190587E+04  0.37807481656E+04  0.36002869177E+04 0.  0.
        1    1    3    3  502    0 -0.12303839190E+04  0.51428952719E+03 -0.69275644159E+03  0.15027474150E+04  0.50400001928E-02 0.  1.
       -1    1    3    3    0  502  0.12303839190E+04 -0.51428952719E+03  0.18468755003E+04  0.22780007506E+04  0.50400001928E-02 0. -1.
</event>
<event>
 5   0  0.6669864E-07  0.3565442E+04  0.7818609E-02  0.8098454E-01
        2   -1    0    0  501    0  0.00000000000E+00  0.00000000000E+00  0.19731751083E+04  0.19731751083E+04  0.25500000920E-02 0.  1.
       -2   -1    0    0    0  501  0.00000000000E+00  0.00000000000E+00 -0.16106497780E+04  0.16106497780E+04  0.25500000920E-02 0. -1.
    10030    2    1    2    0    0  0.00000000000E+00  0.00000000000E+00  0.36252533025E+03  0.35838248863E+04  0.35654419363E+04 0.  0.
        5    1    3    3  502    0  0.99315354429E+03 -0.55863993984E+03  0.15593307800E+04  0.19313122783E+04  0.46999998093E+01 0.  1.
       -5    1    3    3    0  502 -0.99315354429E+03  0.55863993984E+03 -0.11968054498E+04  0.16525126080E+04  0.46999998093E+01 0. -1.
</event>
<event>
 5   0  0.6669864E-07  0.3638725E+04  0.7818609E-02  0.8081678E-01
        2   -1    0    0  501    0  0.00000000000E+00  0.00000000000E+00  0.20329616802E+04  0.20329616802E+04  0.25500000920E-02 0. -1.
       -2   -1    0    0    0  501  0.00000000000E+00  0.00000000000E+00 -0.16282055213E+04  0.16282055213E+04  0.25500000920E-02 0.  1.
    10030    2    1    2    0    0  0.00000000000E+00  0.00000000000E+00  0.40475615895E+03  0.36611672015E+04  0.36387247394E+04 0.  0.
        5    1    3    3  502    0  0.17870690071E+04 -0.25980839036E+02 -0.13996550235E+03  0.17927361970E+04  0.46999998093E+01 0.  1.
       -5    1    3    3    0  502 -0.17870690071E+04  0.25980839036E+02  0.54472166130E+03  0.18684310045E+04  0.46999998093E+01 0. -1.
</event>
<event>
 5   0  0.6669864E-07  0.3562223E+04  0.7818609E-02  0.8099200E-01
        2   -1    0    0  501    0  0.00000000000E+00  0.00000000000E+00  0.22240898063E+04  0.22240898063E+04  0.25500000920E-02 0.  1.
       -2   -1    0    0    0  501  0.00000000000E+00  0.00000000000E+00 -0.14263623954E+04  0.14263623954E+04  0.25500000920E-02 0. -1.
    10030    2    1    2    0    0  0.00000000000E+00  0.00000000000E+00  0.79772741087E+03  0.36504522017E+04  0.35622229373E+04 0.  0.
        5    1    3    3  502    0 -0.87053062634E+03  0.93265082041E+03 -0.87476872279E+03  0.15469012679E+04  0.46999998093E+01 0. -1.
       -5    1    3    3    0  502  0.87053062634E+03 -0.93265082041E+03  0.16724961337E+04  0.21035509339E+04  0.46999998093E+01 0.  1.
</event>
<event>
 5   0  0.6324216E-07  0.3600574E+04  0.7818609E-02  0.8090360E-01
       -2   -1    0    0    0  501  0.00000000000E+00  0.00000000000E+00  0.23646272226E+04  0.23646272226E+04  0.25500000920E-02 0. -1.
        2   -1    0    0  501    0  0.00000000000E+00  0.00000000000E+00 -0.13706317035E+04  0.13706317035E+04  0.25500000920E-02 0.  1.
    10030    2    1    2    0    0  0.00000000000E+00  0.00000000000E+00  0.99399551902E+03  0.37352589261E+04  0.36005738644E+04 0.  0.
        2    1    3    3  502    0 -0.16008342188E+04  0.50152278588E+03  0.11747647166E+04  0.20479910743E+04  0.25500000920E-02 0.  1.
       -2    1    3    3    0  502  0.16008342188E+04 -0.50152278588E+03 -0.18076919757E+03  0.16872678518E+04  0.25500000920E-02 0. -1.
</event>
<event>
 5   0  0.2086250E-07  0.3627982E+04  0.7818609E-02  0.8084112E-01
        1   -1    0    0  501    0  0.00000000000E+00  0.00000000000E+00  0.20056181845E+04  0.20056181845E+04  0.50400001928E-02 0.  1.
       -1   -1    0    0    0  501  0.00000000000E+00  0.00000000000E+00 -0.16406726276E+04  0.16406726276E+04  0.50400001928E-02 0. -1.
    10030    2    1    2    0    0  0.00000000000E+00  0.00000000000E+00  0.36494555687E+03  0.36462908121E+04  0.36279817292E+04 0.  0.
        4    1    3    3  502    0  0.31766456520E+03  0.16851260812E+04 -0.41212130104E+03  0.17636343910E+04  0.12699999809E+01 0.  1.
       -4    1    3    3    0  502 -0.31766456520E+03 -0.16851260812E+04  0.77706685792E+03  0.18826564211E+04  0.12699999809E+01 0. -1.
</event>
<event>
 5   0  0.6848661E-07  0.3632654E+04  0.7818609E-02  0.8083053E-01
       -2   -1    0    0    0  501  0.00000000000E+00  0.00000000000E+00  0.28089426200E+04  0.28089426200E+04  0.25500000920E-02 0.  1.
        2   -1    0    0  501    0  0.00000000000E+00  0.00000000000E+00 -0.11744788890E+04  0.11744788890E+04  0.25500000920E-02 0. -1.
    10030    2    1    2    0    0  0.00000000000E+00  0.00000000000E+00  0.16344637310E+04  0.39834215090E+04  0.36326540202E+04 0.  0.
        1    1    3    3  502    0 -0.63510606166E+03 -0.23993475477E+03  0.26645736483E+04  0.27497056430E+04  0.50400001928E-02 0.  1.
       -1    1    3    3    0  502  0.63510606166E+03  0.23993475477E+03 -0.10301099173E+04  0.12337158660E+04  0.50400001928E-02 0. -1.
</event>
<event>
 5   0  0.6669864E-07  0.3620030E+04  0.7818609E-02  0.8085919E-01
        2   -1    0    0  501    0  0.00000000000E+00  0.00000000000E+00  0.16363564161E+04  0.16363564161E+04  0.25500000920E-02 0.  1.
       -2   -1    0    0    0  501  0.00000000000E+00  0.00000000000E+00 -0.20021028063E+04  0.20021028063E+04  0.25500000920E-02 0. -1.
    10030    2    1    2    0    0  0.00000000000E+00  0.00000000000E+00 -0.36574639023E+03  0.36384592225E+04  0.36200297086E+04 0.  0.
        5    1    3    3  502    0  0.69254601726E+03  0.10154992636E+04 -0.15182730035E+04  0.19534671084E+04  0.46999998093E+01 0. -1.
       -5    1    3    3    0  502 -0.69254601726E+03 -0.10154992636E+04  0.11525266132E+04  0.16849921141E+04  0.46999998093E+01 0.  1.
</event>
<event>
 5   0  0.6541476E-07  0.3737281E+04  0.7818609E-02  0.8059750E-01
       -2   -1    0    0    0  501  0.00000000000E+00  0.00000000000E+00  0.13365427313E+04  0.13365427313E+04  0.25500000920E-02 0. -1.
        2   -1    0    0  501    0  0.00000000000E+00  0.00000000000E+00 -0.26125747016E+04  0.26125747016E+04  0.25500000920E-02 0.  1.
    10030    2    1    2    0    0  0.00000000000E+00  0.00000000000E+00 -0.12760319703E+04  0.39491174329E+04  0.37372812189E+04 0.  0.
        4    1    3    3  502    0 -0.24802304429E+03  0.81179974142E+03 -0.23970920515E+04  0.25429483217E+04  0.12699999809E+01 0.  1.
       -4    1    3    3    0  502  0.24802304429E+03 -0.81179974142E+03  0.11210600812E+04  0.14061691112E+04  0.12699999809E+01 0. -1.
</event>
<event>
 5   0  0.6729577E-07  0.3777811E+04  0.7818609E-02  0.8050933E-01
        2   -1    0    0  501    0  0.00000000000E+00  0.00000000000E+00  0.30533880832E+04  0.30533880832E+04  0.25500000920E-02 0. -1.
       -2   -1    0    0    0  501  0.00000000000E+00  0.00000000000E+00 -0.11685260065E+04  0.11685260065E+04  0.25500000920E-02 0.  1.
    10030    2    1    2    0    0  0.00000000000E+00  0.00000000000E+00  0.18848620767E+04  0.42219140897E+04  0.37778106799E+04 0.  0.
        3    1    3    3  502    0  0.14123896946E+04  0.10811291973E+04  0.23185679477E+03  0.17937231041E+04  0.10100000352E+00 0.  1.
       -3    1    3    3    0  502 -0.14123896946E+04 -0.10811291973E+04  0.16530052819E+04  0.24281909857E+04  0.10100000352E+00 0. -1.
</event>
<event>
 5   0  0.6669864E-07  0.3525608E+04  0.7818609E-02  0.8107748E-01
        2   -1    0    0  501    0  0.00000000000E+00  0.00000000000E+00  0.21159736595E+04  0.21159736595E+04  0.25500000920E-02 0.  1.
       -2   -1    0    0    0  501  0.00000000000E+00  0.00000000000E+00 -0.14685802377E+04  0.14685802377E+04  0.25500000920E-02 0. -1.
    10030    2    1    2    0    0  0.00000000000E+00  0.00000000000E+00  0.64739342186E+03  0.35845538972E+04  0.35256075220E+04 0.  0.
        5    1    3    3  502    0  0.14300155096E+04  0.85466090509E+03 -0.26218906836E+03  0.16864622195E+04  0.46999998093E+01 0.  1.
       -5    1    3    3    0  502 -0.14300155096E+04 -0.85466090509E+03  0.90958249022E+03  0.18980916777E+04  0.46999998093E+01 0. -1.
</event>
<event>
 5   0  0.2086250E-07  0.3554566E+04  0.7818609E-02  0.8100979E-01
       -1   -1    0    0    0  501  0.00000000000E+00  0.00000000000E+00  0.18082730894E+04  0.18082730894E+04  0.50400001928E-02 0. -1.
        1   -1    0    0  501    0  0.00000000000E+00  0.00000000000E+00 -0.17468242810E+04  0.17468242810E+04  0.50400001928E-02 0.  1.
    10030    2    1    2    0    0  0.00000000000E+00  0.00000000000E+00  0.61448808443E+02  0.35550973704E+04  0.35545662685E+04 0.  0.
        4    1    3    3  502    0  0.16895564063E+04 -0.76961160052E+02  0.57689193902E+03  0.17869890298E+04  0.12699999809E+01 0. -1.
       -4    1    3    3    0  502 -0.16895564063E+04  0.76961160052E+02 -0.51544313057E+03  0.17681083406E+04  0.12699999809E+01 0.  1.
</event>
<event>
 5   0  0.2086250E-07  0.3354432E+04  0.7818609E-02  0.8149182E-01
       -1   -1    0    0    0  501  0.00000000000E+00  0.00000000000E+00  0.14955602639E+04  0.14955602639E+04  0.50400001928E-02 0.  1.
        1   -1    0    0  501    0  0.00000000000E+00  0.00000000000E+00 -0.18809361893E+04  0.18809361893E+04  0.50400001928E-02 0. -1.
    10030    2    1    2    0    0  0.00000000000E+00  0.00000000000E+00 -0.38537592544E+03  0.33764964532E+04  0.33544319482E+04 0.  0.
        3    1    3    3  502    0 -0.16235227014E+04  0.40687612137E+03 -0.30146950837E+03  0.17006639923E+04  0.10100000352E+00 0. -1.
       -3    1    3    3    0  502  0.16235227014E+04 -0.40687612137E+03 -0.83906417068E+02  0.16758324609E+04  0.10100000352E+00 0.  1.
</event>
<event>
 5   0  0.2108068E-07  0.3626554E+04  0.7818609E-02  0.8084436E-01
        1   -1    0    0  501    0  0.00000000000E+00  0.00000000000E+00  0.13494120084E+04  0.13494120084E+04  0.50400001928E-02 0.  1.
       -1   -1    0    0    0  501  0.00000000000E+00  0.00000000000E+00 -0.24365969158E+04  0.24365969158E+04  0.50400001928E-02 0. -1.
    10030    2    1    2    0    0  0.00000000000E+00  0.00000000000E+00 -0.10871849075E+04  0.37860089242E+04  0.36265538120E+04 0.  0.
        5    1    3    3  502    0 -0.13123882607E+04  0.71784791110E+02  0.76050592473E+03  0.15185214370E+04  0.46999998093E+01 0.  1.
       -5    1    3    3    0  502  0.13123882607E+04 -0.71784791110E+02 -0.18476908322E+04  0.22674874872E+04  0.46999998093E+01 0. -1.
</event>
<event>
 5   0  0.6848661E-07  0.3597620E+04  0.7818609E-02  0.8091037E-01
        2   -1    0    0  501    0  0.00000000000E+00  0.00000000000E+00  0.15992978737E+04  0.15992978737E+04  0.25500000920E-02 0.  1.
       -2   -1    0    0    0  501  0.00000000000E+00  0.00000000000E+00 -0.20232116927E+04  0.20232116927E+04  0.25500000920E-02 0. -1.
    10030    2    1    2    0    0  0.00000000000E+00  0.00000000000E+00 -0.42391381895E+03  0.36225095664E+04  0.35976204126E+04 0.  0.
        1    1    3    3  502    0  0.10757770804E+04 -0.13753039418E+04 -0.64733803343E+03  0.18622040137E+04  0.50400001928E-02 0. -1.
       -1    1    3    3    0  502 -0.10757770804E+04  0.13753039418E+04  0.22342421449E+03  0.17603055527E+04  0.50400001928E-02 0.  1.
</event>
<event>
 5   0  0.6669864E-07  0.3582966E+04  0.7818609E-02  0.8094405E-01
        2   -1    0    0  501    0  0.00000000000E+00  0.00000000000E+00  0.20724004063E+04  0.20724004063E+04  0.25500000920E-02 0.  1.
       -2   -1    0    0    0  501  0.00000000000E+00  0.00000000000E+00 -0.15486440912E+04  0.15486440912E+04  0.25500000920E-02 0. -1.
    10030    2    1    2    0    0  0.00000000000E+00  0.00000000000E+00  0.52375631505E+03  0.36210444975E+04  0.35829656118E+04 0.  0.
        5    1    3    3  502    0 -0.13768260804E+04 -0.72196569472E+03  0.11615662291E+04  0.19406552282E+04  0.46999998093E+01 0.  1.
       -5    1    3    3    0  502  0.13768260804E+04  0.72196569472E+03 -0.63780991400E+03  0.16803892693E+04  0.46999998093E+01 0. -1.
</event>
<event>
 5   0  0.2108068E-07  0.3617342E+04  0.7818609E-02  0.8086531E-01
       -1   -1    0    0    0  501  0.00000000000E+00  0.00000000000E+00  0.22922191404E+04  0.22922191404E+04  0.50400001928E-02 0.  1.
        1   -1    0    0  501    0  0.00000000000E+00  0.00000000000E+00 -0.14271285331E+04  0.14271285331E+04  0.50400001928E-02 0. -1.
    10030    2    1    2    0    0  0.00000000000E+00  0.00000000000E+00  0.86509060735E+03  0.37193476735E+04  0.36173423058E+04 0.  0.
        5    1    3    3  502    0 -0.82948420954E+02 -0.11999385257E+04  0.18213891808E+04  0.21827078467E+04  0.46999998093E+01 0.  1.
       -5    1    3    3    0  502  0.82948420954E+02  0.11999385257E+04 -0.95629857346E+03  0.15366398269E+04  0.46999998093E+01 0. -1.
</event>
<event>
 5   0  0.2193129E-07  0.3604520E+04  0.7818609E-02  0.8089457E-01
        1   -1    0    0  501    0  0.00000000000E+00  0.00000000000E+00  0.25392922256E+04  0.25392922256E+04  0.50400001928E-02 0.  1.
       -1   -1    0    0    0  501  0.00000000000E+00  0.00000000000E+00 -0.12791520579E+04  0.12791520579E+04  0.50400001928E-02 0. -1.
    10030    2    1    2    0    0  0.00000000000E+00  0.00000000000E+00  0.12601401678E+04  0.38184442835E+04  0.36045198715E+04 0.  0.
        1    1    3    3  502    0  0.74697771604E+03  0.94694391886E+03  0.20487524475E+04  0.23774072190E+04  0.50400001928E-02 0.  1.
       -1    1    3    3    0  502 -0.74697771604E+03 -0.94694391886E+03 -0.78861227972E+03  0.14410370646E+04  0.50400001928E-02 0. -1.
</event>
<event>
 5   0  0.6324216E-07  0.3580365E+04  0.7818609E-02  0.8095004E-01
        2   -1    0    0  501    0  0.00000000000E+00  0.00000000000E+00  0.25707769740E+04  0.25707769740E+04  0.25500000920E-02 0.  1.
       -2   -1    0    0    0  501  0.00000000000E+00  0.00000000000E+00 -0.12466086790E+04  0.12466086790E+04  0.25500000920E-02 0. -1.
    10030    2    1    2    0    0  0.00000000000E+00  0.00000000000E+00  0.13241682951E+04  0.38173856530E+04  0.35803647231E+04 0.  0.
        2    1    3    3  502    0 -0.11542155281E+03 -0.16069173582E+04 -0.17013095777E+03  0.16200154548E+04  0.25500000920E-02 0. -1.
       -2    1    3    3    0  502  0.11542155281E+03  0.16069173582E+04  0.14942992528E+04  0.21973701982E+04  0.25500000920E-02 0.  1.
</event>
<event>
 5   0  0.2193129E-07  0.3595080E+04  0.7818609E-02  0.8091620E-01
        1   -1    0    0  501    0  0.00000000000E+00  0.00000000000E+00  0.18145690685E+04  0.18145690685E+04  0.50400001928E-02 0. -1.
       -1   -1    0    0    0  501  0.00000000000E+00  0.00000000000E+00 -0.17806707136E+04  0.17806707136E+04  0.50400001928E-02 0.  1.
    10030    2    1    2    0    0  0.00000000000E+00  0.00000000000E+00  0.33898354868E+02  0.35952397821E+04  0.35950799702E+04 0.  0.
        1    1    3    3  502    0  0.87070943430E+02 -0.12153451939E+04 -0.13046634687E+04  0.17851588322E+04  0.50400001928E-02 0.  1.
       -1    1    3    3    0  502 -0.87070943430E+02  0.12153451939E+04  0.13385618236E+04  0.18100809499E+04  0.50400001928E-02 0. -1.
</event>
<event>
 5   0  0.6541476E-07  0.3422731E+04  0.7818609E-02  0.8132350E-01
       -2   -1    0    0    0  501  0.00000000000E+00  0.00000000000E+00  0.13497293213E+04  0.13497293213E+04  0.25500000920E-02 0.  1.
        2   -1    0    0  501    0  0.00000000000E+00  0.00000000000E+00 -0.21698957602E+04  0.21698957602E+04  0.25500000920E-02 0. -1.
    10030    2    1    2    0    0  0.00000000000E+00  0.00000000000E+00 -0.82016643895E+03  0.35196250815E+04  0.34227310334E+04 0.  0.
        4    1    3    3  502    0  0.17776398337E+02  0.27907157841E+02  0.13493998865E+04  0.13498060884E+04  0.12699999809E+01 0.  1.
       -4    1    3    3    0  502 -0.17776398337E+02 -0.27907157841E+02 -0.21695663254E+04  0.21698189932E+04  0.12699999809E+01 0. -1.
</event>
<event>
 5   0  0.6848661E-07  0.3516197E+04  0.7818609E-02  0.8109962E-01
        2   -1    0    0  501    0  0.00000000000E+00  0.00000000000E+00  0.16680132898E+04  0.16680132898E+04  0.25500000920E-02 0. -1.
       -2   -1    0    0    0  501  0.00000000000E+00  0.00000000000E+00 -0.18530485757E+04  0.18530485757E+04  0.25500000920E-02 0.  1.
    10030    2    1    2    0    0  0.00000000000E+00  0.00000000000E+00 -0.18503528585E+03  0.35210618655E+04  0.35161966105E+04 0.  0.
        1    1    3    3  502    0  0.21991546418E+03 -0.17403426230E+04 -0.20995904702E+03  0.17667025948E+04  0.50400001928E-02 0. -1.
       -1    1    3    3    0  502 -0.21991546418E+03  0.17403426230E+04  0.24923761168E+02  0.17543592707E+04  0.50400001928E-02 0.  1.
</event>
<event>
 5   0  0.2086250E-07  0.3582944E+04  0.7818609E-02  0.8094410E-01
        1   -1    0    0  501    0  0.00000000000E+00  0.00000000000E+00  0.13842633872E+04  0.13842633872E+04  0.50400001928E-02 0. -1.
       -1   -1    0    0    0  501  0.00000000000E+00  0.00000000000E+00 -0.23184689984E+04  0.23184689984E+04  0.50400001928E-02 0.  1.
    10030    2    1    2    0    0  0.00000000000E+00  0.00000000000E+00 -0.93420561113E+03  0.37027323856E+04  0.35829439007E+04 0.  0.
        2    1    3    3  502    0 -0.17310496941E+04  0.44200894311E+03 -0.60368339621E+03  0.18858257056E+04  0.25500000920E-02 0. -1.
       -2    1    3    3    0  502  0.17310496941E+04 -0.44200894311E+03 -0.33052221492E+03  0.18169066800E+04  0.25500000920E-02 0.  1.
</event>
<event>
 5   0  0.2193129E-07  0.3540995E+04  0.7818609E-02  0.8104143E-01
        1   -1    0    0  501    0  0.00000000000E+00  0.00000000000E+00  0.19274537269E+04  0.19274537269E+04  0.50400001928E-02 0. -1.
       -1   -1    0    0    0  501  0.00000000000E+00  0.00000000000E+00 -0.16263223595E+04  0.16263223595E+04  0.50400001928E-02 0.  1.
    10030    2    1    2    0    0  0.00000000000E+00  0.00000000000E+00  0.30113136740E+03  0.35537760864E+04  0.35409948280E+04 0.  0.
        1    1    3    3  502    0  0.72035540332E+02 -0.62663342346E+03  0.18108654213E+04  0.19175745463E+04  0.50400001928E-02 0. -1.
       -1    1    3    3    0  502 -0.72035540332E+02  0.62663342346E+03 -0.15097340539E+04  0.16362015401E+04  0.50400001928E-02 0.  1.
</event>
<event>
 5   0  0.2086250E-07  0.3580153E+04  0.7818609E-02  0.8095053E-01
        3   -1    0    0  501    0  0.00000000000E+00  0.00000000000E+00  0.15787470069E+04  0.15787470101E+04  0.10100000352E+00 0.  1.
       -3   -1    0    0    0  501  0.00000000000E+00  0.00000000000E+00 -0.20296946023E+04  0.20296946048E+04  0.10100000352E+00 0. -1.
    10030    2    1    2    0    0  0.00000000000E+00  0.00000000000E+00 -0.45094759544E+03  0.36084416149E+04  0.35801532306E+04 0.  0.
        5    1    3    3  502    0  0.24761680318E+03  0.15806642787E+04  0.58370131809E+03  0.17030980482E+04  0.46999998093E+01 0.  1.
       -5    1    3    3    0  502 -0.24761680318E+03 -0.15806642787E+04 -0.10346489135E+04  0.19053435667E+04  0.46999998093E+01 0. -1.
</event>
<event>
 5   0  0.6541476E-07  0.3613223E+04  0.7818609E-02  0.8087470E-01
        2   -1    0    0  501    0  0.00000000000E+00  0.00000000000E+00  0.16503567839E+04  0.16503567839E+04  0.25500000920E-02 0. -1.
       -2   -1    0    0    0  501  0.00000000000E+00  0.00000000000E+00 -0.19776598636E+04  0.19776598636E+04  0.25500000920E-02 0.  1.
    10030    2    1    2    0    0  0.00000000000E+00  0.00000000000E+00 -0.32730307966E+03  0.36280166475E+04  0.36132225905E+04 0.  0.
        4    1    3    3  502    0  0.71837603487E+03  0.24851576613E+03 -0.18092696487E+04  0.19624684680E+04  0.12699999809E+01 0.  1.
       -4    1    3    3    0  502 -0.71837603487E+03 -0.24851576613E+03  0.14819665690E+04  0.16655481794E+04  0.12699999809E+01 0. -1.
</event>
<event>
 5   0  0.2086250E-07  0.3552508E+04  0.7818609E-02  0.8101458E-01
       -1   -1    0    0    0  501  0.00000000000E+00  0.00000000000E+00  0.23682836662E+04  0.23682836663E+04  0.50400001928E-02 0. -1.
        1   -1    0    0  501    0  0.00000000000E+00  0.00000000000E+00 -0.13322217691E+04  0.13322217691E+04  0.50400001928E-02 0.  1.
    10030    2    1    2    0    0  0.00000000000E+00  0.00000000000E+00  0.10360618972E+04  0.37005054353E+04  0.35525084408E+04 0.  0.
        4    1    3    3  502    0  0.98224227613E+03 -0.14100772753E+04  0.98615204380E+03  0.19813165516E+04  0.12699999809E+01 0. -1.
       -4    1    3    3    0  502 -0.98224227613E+03  0.14100772753E+04  0.49909853383E+02  0.17191888837E+04  0.12699999809E+01 0.  1.
</event>
<event>
 5   0  0.6541476E-07  0.3285848E+04  0.7818609E-02  0.8166506E-01
       -2   -1    0    0    0  501  0.00000000000E+00  0.00000000000E+00  0.14765846725E+04  0.14765846725E+04  0.25500000920E-02 0.  1.
        2   -1    0    0  501    0  0.00000000000E+00  0.00000000000E+00 -0.18280019822E+04  0.18280019822E+04  0.25500000920E-02 0. -1.
    10030    2    1    2    0    0  0.00000000000E+00  0.00000000000E+00 -0.35141730965E+03  0.33045866547E+04  0.32858482668E+04 0.  0.
        4    1    3    3  502    0 -0.96698627170E+02 -0.13888271806E+04  0.70162306692E+03  0.15589958637E+04  0.12699999809E+01 0.  1.
       -4    1    3    3    0  502  0.96698627170E+02  0.13888271806E+04 -0.10530403766E+04  0.17455907910E+04  0.12699999809E+01 0. -1.
</event>
<event>
 5   0  0.2086250E-07  0.3613289E+04  0.7818609E-02  0.8087455E-01
        1   -1    0    0  501    0  0.00000000000E+00  0.00000000000E+00  0.17999803115E+04  0.17999803115E+04  0.50400001928E-02 0.  1.
       -1   -1    0    0    0  501  0.00000000000E+00  0.00000000000E+00 -0.18133329664E+04  0.18133329664E+04  0.50400001928E-02 0. -1.
    10030    2    1    2    0    0  0.00000000000E+00  0.00000000000E+00 -0.13352654955E+02  0.36133132779E+04  0.36132886061E+04 0.  0.
        2    1    3    3  502    0 -0.17710625292E+04 -0.55296244873E+02  0.34580796611E+03  0.18053540668E+04  0.25500000920E-02 0.  1.
       -2    1    3    3    0  502  0.17710625292E+04  0.55296244873E+02 -0.35916062107E+03  0.18079592111E+04  0.25500000920E-02 0. -1.
</event>
<event>
 5   0  0.6848661E-07  0.3605839E+04  0.7818609E-02  0.8089156E-01
        2   -1    0    0  501    0  0.00000000000E+00  0.00000000000E+00  0.16133145861E+04  0.16133145861E+04  0.25500000920E-02 0.  1.
       -2   -1    0    0    0  501  0.00000000000E+00  0.00000000000E+00 -0.20148077214E+04  0.20148077214E+04  0.25500000920E-02 0. -1.
    10030    2    1    2    0    0  0.00000000000E+00  0.00000000000E+00 -0.40149313532E+03  0.36281223074E+04  0.36058389787E+04 0.  0.
        1    1    3    3  502    0  0.67840305424E+03  0.29222202048E+03 -0.18555664763E+04  0.19971858604E+04  0.50400001928E-02 0. -1.
       -1    1    3    3    0  502 -0.67840305424E+03 -0.29222202048E+03  0.14540733410E+04  0.16309364470E+04  0.50400001928E-02 0.  1.
</event>
<event>
 5   0  0.2086250E-07  0.3609350E+04  0.7818609E-02  0.8088353E-01
       -1   -1    0    0    0  501  0.00000000000E+00  0.00000000000E+00  0.19982060748E+04  0.19982060748E+04  0.50400001928E-02 0.  1.
        1   -1    0    0  501    0  0.00000000000E+00  0.00000000000E+00 -0.16298879591E+04  0.16298879591E+04  0.50400001928E-02 0. -1.
    10030    2    1    2    0    0  0.00000000000E+00  0.00000000000E+00  0.36831811570E+03  0.36280940339E+04  0.36093500917E+04 0.  0.
        3    1    3    3  502    0 -0.10559105631E+04 -0.13724495881E+04  0.69501778654E+03  0.18659085516E+04  0.10100000352E+00 0.  1.
       -3    1    3    3    0  502  0.10559105631E+04  0.13724495881E+04 -0.32669967084E+03  0.17621854823E+04  0.10100000352E+00 0. -1.
</event>
<event>
 5   0  0.2193129E-07  0.3609233E+04  0.7818609E-02  0.8088380E-01
        1   -1    0    0  501    0  0.00000000000E+00  0.00000000000E+00  0.22891831841E+04  0.22891831842E+04  0.50400001928E-02 0.  1.
       -1   -1    0    0    0  501  0.00000000000E+00  0.00000000000E+00 -0.14226213684E+04  0.14226213685E+04  0.50400001928E-02 0. -1.
    10030    2    1    2    0    0  0.00000000000E+00  0.00000000000E+00  0.86656181570E+03  0.37118045526E+04  0.36092331119E+04 0.  0.
        1    1    3    3  502    0  0.10558050329E+04 -0.54950925145E+02 -0.10707789036E+04  0.15047628823E+04  0.50400001928E-02 0. -1.
       -1    1    3    3    0  502 -0.10558050329E+04  0.54950925145E+02  0.19373407193E+04  0.22070416703E+04  0.50400001928E-02 0.  1.
</event>
<event>
 5   0  0.2086250E-07  0.3586229E+04  0.7818609E-02  0.8093653E-01
       -1   -1    0    0    0  501  0.00000000000E+00  0.00000000000E+00  0.18727342140E+04  0.18727342140E+04  0.50400001928E-02 0. -1.
        1   -1    0    0  501    0  0.00000000000E+00  0.00000000000E+00 -0.17168800809E+04  0.17168800809E+04  0.50400001928E-02 0.  1.
    10030    2    1    2    0    0  0.00000000000E+00  0.00000000000E+00  0.15585413315E+03  0.35896142949E+04  0.35862292559E+04 0.  0.
        3    1    3    3  502    0  0.31446645579E+03 -0.17584800553E+04  0.23337594817E+03  0.18015564383E+04  0.10100000352E+00 0.  1.
       -3    1    3    3    0  502 -0.31446645579E+03  0.17584800553E+04 -0.77521815021E+02  0.17880578567E+04  0.10100000352E+00 0. -1.
</event>
<event>
 5   0  0.6729577E-07  0.3600703E+04  0.7818609E-02  0.8090331E-01
        2   -1    0    0  501    0  0.00000000000E+00  0.00000000000E+00  0.29558885687E+04  0.29558885687E+04  0.25500000920E-02 0.  1.
       -2   -1    0    0    0  501  0.00000000000E+00  0.00000000000E+00 -0.10965452389E+04  0.10965452389E+04  0.25500000920E-02 0. -1.
    10030    2    1    2    0    0  0.00000000000E+00  0.00000000000E+00  0.18593433298E+04  0.40524338076E+04  0.36007030073E+04 0.  0.
        3    1    3    3  502    0  0.11484941645E+04 -0.28894913382E+03  0.24557899966E+04  0.27264326446E+04  0.10100000352E+00 0.  1.
       -3    1    3    3    0  502 -0.11484941645E+04  0.28894913382E+03 -0.59644666686E+03  0.13260011630E+04  0.10100000352E+00 0. -1.
</event>
<event>
 5   0  0.6324216E-07  0.3582776E+04  0.7818609E-02  0.8094448E-01
        2   -1    0    0  501    0  0.00000000000E+00  0.00000000000E+00  0.13158515506E+04  0.13158515506E+04  0.25500000920E-02 0.  1.
       -2   -1    0    0    0  501  0.00000000000E+00  0.00000000000E+00 -0.24387793619E+04  0.24387793619E+04  0.25500000920E-02 0. -1.
    10030    2    1    2    0    0  0.00000000000E+00  0.00000000000E+00 -0.11229278113E+04  0.37546309126E+04  0.35827763564E+04 0.  0.
        2    1    3    3  502    0  0.99157193015E+03 -0.11113854712E+04  0.48160750176E+03  0.15653556605E+04  0.25500000920E-02 0.  1.
       -2    1    3    3    0  502 -0.99157193015E+03  0.11113854712E+04 -0.16045353131E+04  0.21892752520E+04  0.25500000920E-02 0. -1.
</event>
<event>
 5   0  0.2086250E-07  0.3066389E+04  0.7818609E-02  0.8225023E-01
        1   -1    0    0  501    0  0.00000000000E+00  0.00000000000E+00  0.11250070370E+04  0.11250070370E+04  0.50400001928E-02 0. -1.
       -1   -1    0    0    0  501  0.00000000000E+00  0.00000000000E+00 -0.20894851825E+04  0.20894851825E+04  0.50400001928E-02 0.  1.
    10030    2    1    2    0    0  0.00000000000E+00  0.00000000000E+00 -0.96447814544E+03  0.32144922195E+04  0.30663891038E+04 0.  0.
        4    1    3    3  502    0  0.81983699350E+03  0.12058567844E+04  0.14416388131E+02  0.14582293117E+04  0.12699999809E+01 0. -1.
       -4    1    3    3    0  502 -0.81983699350E+03 -0.12058567844E+04 -0.97889453357E+03  0.17562629078E+04  0.12699999809E+01 0.  1.
</event>
<event>
 5   0  0.6541476E-07  0.3537311E+04  0.7818609E-02  0.8105004E-01
       -2   -1    0    0    0  501  0.00000000000E+00  0.00000000000E+00  0.14008186501E+04  0.14008186501E+04  0.25500000920E-02 0. -1.
        2   -1    0    0  501    0  0.00000000000E+00  0.00000000000E+00 -0.22330810357E+04  0.22330810357E+04  0.25500000920E-02 0.  1.
    10030    2    1    2    0    0  0.00000000000E+00  0.00000000000E+00 -0.83226238556E+03  0.36338996858E+04  0.35373105954E+04 0.  0.
        4    1    3    3  502    0 -0.31755758354E+02 -0.81606940173E+03 -0.20277779632E+04  0.21860610187E+04  0.12699999809E+01 0.  1.
       -4    1    3    3    0  502  0.31755758354E+02  0.81606940173E+03  0.11955155776E+04  0.14478386671E+04  0.12699999809E+01 0. -1.
</event>
<event>
 5   0  0.6669864E-07  0.3602483E+04  0.7818609E-02  0.8089923E-01
       -2   -1    0    0    0  501  0.00000000000E+00  0.00000000000E+00  0.20538356847E+04  0.20538356847E+04  0.25500000920E-02 0.  1.
        2   -1    0    0  501    0  0.00000000000E+00  0.00000000000E+00 -0.15797132260E+04  0.15797132260E+04  0.25500000920E-02 0. -1.
    10030    2    1    2    0    0  0.00000000000E+00  0.00000000000E+00  0.47412245873E+03  0.36335489106E+04  0.36024832519E+04 0.  0.
        5    1    3    3  502    0 -0.17601969023E+04 -0.29579415877E+03 -0.72297441756E+01  0.17848982264E+04  0.46999998093E+01 0.  1.
       -5    1    3    3    0  502  0.17601969023E+04  0.29579415877E+03  0.48135220290E+03  0.18486506843E+04  0.46999998093E+01 0. -1.
</event>
<event>
 5   0  0.2086250E-07  0.3587411E+04  0.7818609E-02  0.8093381E-01
        1   -1    0    0  501    0  0.00000000000E+00  0.00000000000E+00  0.15234853240E+04  0.15234853240E+04  0.50400001928E-02 0. -1.
       -1   -1    0    0    0  501  0.00000000000E+00  0.00000000000E+00 -0.21118548017E+04  0.21118548017E+04  0.50400001928E-02 0.  1.
    10030    2    1    2    0    0  0.00000000000E+00  0.00000000000E+00 -0.58836947772E+03  0.36353401258E+04  0.35874112097E+04 0.  0.
        4    1    3    3  502    0  0.11746871818E+04  0.24630047315E+03 -0.16449694300E+04  0.20362907299E+04  0.12699999809E+01 0.  1.
       -4    1    3    3    0  502 -0.11746871818E+04 -0.24630047315E+03  0.10565999523E+04  0.15990493958E+04  0.12699999809E+01 0. -1.
</event>
<event>
 5   0  0.6848661E-07  0.3600166E+04  0.7818609E-02  0.8090454E-01
       -2   -1    0    0    0  501  0.00000000000E+00  0.00000000000E+00  0.12975743197E+04  0.12975743197E+04  0.25500000920E-02 0. -1.
        2   -1    0    0  501    0  0.00000000000E+00  0.00000000000E+00 -0.24971971003E+04  0.24971971003E+04  0.25500000920E-02 0.  1.
    10030    2    1    2    0    0  0.00000000000E+00  0.00000000000E+00 -0.11996227805E+04  0.37947714200E+04  0.36001660121E+04 0.  0.
        1    1    3    3  502    0  0.16467148339E+04  0.65489018914E+03 -0.26691044541E+03  0.17921473404E+04  0.50400001928E-02 0. -1.
       -1    1    3    3    0  502 -0.16467148339E+04 -0.65489018914E+03 -0.93271233512E+03  0.20026240796E+04  0.50400001928E-02 0.  1.
</event>
<event>
 5   0  0.2193129E-07  0.3498830E+04  0.7818609E-02  0.8114067E-01
       -1   -1    0    0    0  501  0.00000000000E+00  0.00000000000E+00  0.97025850206E+03  0.97025850207E+03  0.50400001928E-02 0. -1.
        1   -1    0    0  501    0  0.00000000000E+00  0.00000000000E+00 -0.31542651698E+04  0.31542651698E+04  0.50400001928E-02 0.  1.
    10030    2    1    2    0    0  0.00000000000E+00  0.00000000000E+00 -0.21840066678E+04  0.41245236719E+04  0.34988298609E+04 0.  0.
        1    1    3    3  502    0 -0.16199654238E+04  0.65836266913E+03 -0.10304867257E+04  0.20296877273E+04  0.50400001928E-02 0.  1.
       -1    1    3    3    0  502  0.16199654238E+04 -0.65836266913E+03 -0.11535199420E+04  0.20948359446E+04  0.50400001928E-02 0. -1.
</event>
<event>
 5   0  0.6848661E-07  0.3591934E+04  0.7818609E-02  0.8092342E-01
       -2   -1    0    0    0  501  0.00000000000E+00  0.00000000000E+00  0.14765332940E+04  0.14765332940E+04  0.25500000920E-02 0. -1.
        2   -1    0    0  501    0  0.00000000000E+00  0.00000000000E+00 -0.21845075277E+04  0.21845075278E+04  0.25500000920E-02 0.  1.
    10030    2    1    2    0    0  0.00000000000E+00  0.00000000000E+00 -0.70797423379E+03  0.36610408217E+04  0.35919343511E+04 0.  0.
        1    1    3    3  502    0 -0.11871880976E+04 -0.20254365079E+03  0.10039589659E+04  0.15679199963E+04  0.50400001928E-02 0. -1.
       -1    1    3    3    0  502  0.11871880976E+04  0.20254365079E+03 -0.17119331997E+04  0.20931208254E+04  0.50400001928E-02 0.  1.
</event>
<event>
 5   0  0.2086250E-07  0.3631114E+04  0.7818609E-02  0.8083402E-01
       -1   -1    0    0    0  501  0.00000000000E+00  0.00000000000E+00  0.10374657354E+04  0.10374657354E+04  0.50400001928E-02 0.  1.
        1   -1    0    0  501    0  0.00000000000E+00  0.00000000000E+00 -0.31772098836E+04  0.31772098836E+04  0.50400001928E-02 0. -1.
    10030    2    1    2    0    0  0.00000000000E+00  0.00000000000E+00 -0.21397441482E+04  0.42146756190E+04  0.36311135418E+04 0.  0.
        4    1    3    3  502    0 -0.13109576433E+04  0.28027408875E+03 -0.24910122411E+04  0.28288349379E+04  0.12699999809E+01 0. -1.
       -4    1    3    3    0  502  0.13109576433E+04 -0.28027408875E+03  0.35126809289E+03  0.13858406811E+04  0.12699999809E+01 0.  1.
</event>
<event>
 5   0  0.6324216E-07  0.3610873E+04  0.7818609E-02  0.8088006E-01
       -2   -1    0    0    0  501  0.00000000000E+00  0.00000000000E+00  0.18056524306E+04  0.18056524306E+04  0.25500000920E-02 0. -1.
        2   -1    0    0  501    0  0.00000000000E+00  0.00000000000E+00 -0.18052207691E+04  0.18052207691E+04  0.25500000920E-02 0.  1.
    10030    2    1    2    0    0  0.00000000000E+00  0.00000000000E+00  0.43166143729E+00  0.36108731997E+04  0.36108731739E+04 0.  0.
        2    1    3    3  502    0  0.36541925742E+03 -0.16485983520E+04 -0.63868440826E+03  0.18053602226E+04  0.25500000920E-02 0.  1.
       -2    1    3    3    0  502 -0.36541925742E+03  0.16485983520E+04  0.63911606970E+03  0.18055129771E+04  0.25500000920E-02 0. -1.
</event>
<event>
 5   0  0.6324216E-07  0.3604988E+04  0.7818609E-02  0.8089350E-01
       -2   -1    0    0    0  501  0.00000000000E+00  0.00000000000E+00  0.25181772019E+04  0.25181772019E+04  0.25500000920E-02 0.  1.
        2   -1    0    0  501    0  0.00000000000E+00  0.00000000000E+00 -0.12902130793E+04  0.12902130793E+04  0.25500000920E-02 0. -1.
    10030    2    1    2    0    0  0.00000000000E+00  0.00000000000E+00  0.12279641227E+04  0.38083902812E+04  0.36049883006E+04 0.  0.
        2    1    3    3  502    0 -0.12595133559E+04 -0.14691564759E+03  0.19672863555E+04  0.23405498725E+04  0.25500000920E-02 0.  1.
       -2    1    3    3    0  502  0.12595133559E+04  0.14691564759E+03 -0.73932223288E+03  0.14678404086E+04  0.25500000920E-02 0. -1.
</event>
<event>
 5   0  0.2086250E-07  0.3630531E+04  0.7818609E-02  0.8083534E-01
        1   -1    0    0  501    0  0.00000000000E+00  0.00000000000E+00  0.19628036524E+04  0.19628036524E+04  0.50400001928E-02 0.  1.
       -1   -1    0    0    0  501  0.00000000000E+00  0.00000000000E+00 -0.16788169144E+04  0.16788169144E+04  0.50400001928E-02 0. -1.
    10030    2    1    2    0    0  0.00000000000E+00  0.00000000000E+00  0.28398673798E+03  0.36416205668E+04  0.36305305239E+04 0.  0.
        4    1    3    3  502    0 -0.10476171223E+04 -0.85613694406E+03 -0.10719573454E+04  0.17261420177E+04  0.12699999809E+01 0. -1.
       -4    1    3    3    0  502  0.10476171223E+04  0.85613694406E+03  0.13559440834E+04  0.19154785491E+04  0.12699999809E+01 0.  1.
</event>
<event>
 5   0  0.2108068E-07  0.3608620E+04  0.7818609E-02  0.8088520E-01
       -1   -1    0    0    0  501  0.00000000000E+00  0.00000000000E+00  0.17152629692E+04  0.17152629692E+04  0.50400001928E-02 0. -1.
        1   -1    0    0  501    0  0.00000000000E+00  0.00000000000E+00 -0.18979796961E+04  0.18979796961E+04  0.50400001928E-02 0.  1.
    10030    2    1    2    0    0  0.00000000000E+00  0.00000000000E+00 -0.18271672686E+03  0.36132426653E+04  0.36086198409E+04 0.  0.
        5    1    3    3  502    0  0.13852165873E+04 -0.54713811425E+03  0.92843893431E+03  0.17550515817E+04  0.46999998093E+01 0. -1.
       -5    1    3    3    0  502 -0.13852165873E+04  0.54713811425E+03 -0.11111556612E+04  0.18581910836E+04  0.46999998093E+01 0.  1.
</event>
<event>
 5   0  0.2086250E-07  0.3417989E+04  0.7818609E-02  0.8133505E-01
       -1   -1    0    0    0  501  0.00000000000E+00  0.00000000000E+00  0.15087533624E+04  0.15087533624E+04  0.50400001928E-02 0. -1.
        1   -1    0    0  501    0  0.00000000000E+00  0.00000000000E+00 -0.19358110736E+04  0.19358110736E+04  0.50400001928E-02 0.  1.
    10030    2    1    2    0    0  0.00000000000E+00  0.00000000000E+00 -0.42705771124E+03  0.34445644360E+04  0.34179885701E+04 0.  0.
        2    1    3    3  502    0 -0.30565724118E+03 -0.14793702630E+04  0.59187135283E+03  0.16224285570E+04  0.25500000920E-02 0. -1.
       -2    1    3    3    0  502  0.30565724118E+03  0.14793702630E+04 -0.10189290641E+04  0.18221358791E+04  0.25500000920E-02 0.  1.
</event>
<event>
 5   0  0.6729577E-07  0.3659444E+04  0.7818609E-02  0.8077009E-01
       -2   -1    0    0    0  501  0.00000000000E+00  0.00000000000E+00  0.27877117364E+04  0.27877117364E+04  0.25500000920E-02 0. -1.
        2   -1    0    0  501    0  0.00000000000E+00  0.00000000000E+00 -0.12009430173E+04  0.12009430173E+04  0.25500000920E-02 0.  1.
    10030    2    1    2    0    0  0.00000000000E+00  0.00000000000E+00  0.15867687191E+04  0.39886547537E+04  0.36594441896E+04 0.  0.
        3    1    3    3  502    0  0.10251084110E+03 -0.81933729426E+03 -0.98631378690E+03  0.12863269300E+04  0.10100000352E+00 0.  1.
       -3    1    3    3    0  502 -0.10251084110E+03  0.81933729426E+03  0.25730825060E+04  0.27023278238E+04  0.10100000352E+00 0. -1.
</event>
<event>
 5   0  0.2086250E-07  0.3593508E+04  0.7818609E-02  0.8091980E-01
       -1   -1    0    0    0  501  0.00000000000E+00  0.00000000000E+00  0.15813318741E+04  0.15813318741E+04  0.50400001928E-02 0.  1.
        1   -1    0    0  501    0  0.00000000000E+00  0.00000000000E+00 -0.20415228812E+04  0.20415228813E+04  0.50400001928E-02 0. -1.
    10030    2    1    2    0    0  0.00000000000E+00  0.00000000000E+00 -0.46019100719E+03  0.36228547553E+04  0.35935081487E+04 0.  0.
        2    1    3    3  502    0  0.20280419304E+03  0.86447145181E+02 -0.20278355906E+04  0.20397842612E+04  0.25500000920E-02 0. -1.
       -2    1    3    3    0  502 -0.20280419304E+03 -0.86447145181E+02  0.15676445834E+04  0.15830704942E+04  0.25500000920E-02 0.  1.
</event>
<event>
 5   0  0.2193129E-07  0.3565008E+04  0.7818609E-02  0.8098554E-01
        1   -1    0    0  501    0  0.00000000000E+00  0.00000000000E+00  0.24418247651E+04  0.24418247651E+04  0.50400001928E-02 0. -1.
       -1   -1    0    0    0  501  0.00000000000E+00  0.00000000000E+00 -0.13012071604E+04  0.13012071604E+04  0.50400001928E-02 0.  1.
    10030    2    1    2    0    0  0.00000000000E+00  0.00000000000E+00  0.11406176047E+04  0.37430319255E+04  0.35650076403E+04 0.  0.
        1    1    3    3  502    0  0.93076165823E+03  0.12138865195E+04  0.15311482809E+04  0.21643134719E+04  0.50400001928E-02 0. -1.
       -1    1    3    3    0  502 -0.93076165823E+03 -0.12138865195E+04 -0.39053067614E+03  0.15787184536E+04  0.50400001928E-02 0.  1.
</event>
<event>
 5   0  0.6848661E-07  0.3639374E+04  0.7818609E-02  0.8081532E-01
       -2   -1    0    0    0  501  0.00000000000E+00  0.00000000000E+00  0.14864064347E+04  0.14864064347E+04  0.25500000920E-02 0. -1.
        2   -1    0    0  501    0  0.00000000000E+00  0.00000000000E+00 -0.22276952844E+04  0.22276952844E+04  0.25500000920E-02 0.  1.
    10030    2    1    2    0    0  0.00000000000E+00  0.00000000000E+00 -0.74128884972E+03  0.37141017191E+04  0.36393739051E+04 0.  0.
        1    1    3    3  502    0 -0.67105990820E+03  0.74664167311E+03 -0.19195251137E+04  0.21661883229E+04  0.50400001928E-02 0.  1.
       -1    1    3    3    0  502  0.67105990820E+03 -0.74664167311E+03  0.11782362640E+04  0.15479133962E+04  0.50400001928E-02 0. -1.
</event>
<event>
 5   0  0.2086250E-07  0.3547954E+04  0.7818609E-02  0.8102519E-01
        3   -1    0    0  501    0  0.00000000000E+00  0.00000000000E+00  0.27686246466E+04  0.27686246485E+04  0.10100000352E+00 0.  1.
       -3   -1    0    0    0  501  0.00000000000E+00  0.00000000000E+00 -0.11366635469E+04  0.11366635514E+04  0.10100000352E+00 0. -1.
    10030    2    1    2    0    0  0.00000000000E+00  0.00000000000E+00  0.16319610997E+04  0.39052881998E+04  0.35479541842E+04 0.  0.
        4    1    3    3  502    0  0.21500090831E+03 -0.46691988501E+03  0.26848494770E+04  0.27336162673E+04  0.12699999809E+01 0.  1.
       -4    1    3    3    0  502 -0.21500090831E+03  0.46691988501E+03 -0.10528883773E+04  0.11716719326E+04  0.12699999809E+01 0. -1.
</event>
<event>
 5   0  0.2108068E-07  0.3574889E+04  0.7818609E-02  0.8096268E-01
        1   -1    0    0  501    0  0.00000000000E+00  0.00000000000E+00  0.25427794004E+04  0.25427794004E+04  0.50400001928E-02 0. -1.
       -1   -1    0    0    0  501  0.00000000000E+00  0.00000000000E+00 -0.12564822811E+04  0.12564822811E+04  0.50400001928E-02 0.  1.
    10030    2    1    2    0    0  0.00000000000E+00  0.00000000000E+00  0.12862971193E+04  0.37992616815E+04  0.35748886760E+04 0.  0.
        5    1    3    3  502    0  0.10455932841E+02 -0.11416873424E+04 -0.81844158454E+03  0.14047875397E+04  0.46999998093E+01 0.  1.
       -5    1    3    3    0  502 -0.10455932841E+02  0.11416873424E+04  0.21047387038E+04  0.23944741418E+04  0.46999998093E+01 0. -1.
</event>
<event>
 5   0  0.6324216E-07  0.3639343E+04  0.7818609E-02  0.8081539E-01
       -2   -1    0    0    0  501  0.00000000000E+00  0.00000000000E+00  0.12898988594E+04  0.12898988594E+04  0.25500000920E-02 0. -1.
        2   -1    0    0  501    0  0.00000000000E+00  0.00000000000E+00 -0.25670269369E+04  0.25670269369E+04  0.25500000920E-02 0.  1.
    10030    2    1    2    0    0  0.00000000000E+00  0.00000000000E+00 -0.12771280775E+04  0.38569257963E+04  0.36393434122E+04 0.  0.
        2    1    3    3  502    0 -0.14133332825E+04 -0.52118462275E+03  0.44328026427E+03  0.15702362151E+04  0.25500000920E-02 0. -1.
       -2    1    3    3    0  502  0.14133332825E+04  0.52118462275E+03 -0.17204083418E+04  0.22866895812E+04  0.25500000920E-02 0.  1.
</event>
<event>
 5   0  0.6324216E-07  0.3499551E+04  0.7818609E-02  0.8113896E-01
        2   -1    0    0  501    0  0.00000000000E+00  0.00000000000E+00  0.24409174880E+04  0.24409174880E+04  0.25500000920E-02 0.  1.
       -2   -1    0    0    0  501  0.00000000000E+00  0.00000000000E+00 -0.12543294687E+04  0.12543294687E+04  0.25500000920E-02 0. -1.
    10030    2    1    2    0    0  0.00000000000E+00  0.00000000000E+00  0.11865880193E+04  0.36952469567E+04  0.34995512489E+04 0.  0.
        2    1    3    3  502    0  0.54949718487E+03  0.63931939670E+03 -0.10257586005E+04  0.13277263098E+04  0.25500000920E-02 0. -1.
       -2    1    3    3    0  502 -0.54949718487E+03 -0.63931939670E+03  0.22123466198E+04  0.23675206469E+04  0.25500000920E-02 0.  1.
</event>
<event>
 5   0  0.2086250E-07  0.3592597E+04  0.7818609E-02  0.8092189E-01
        1   -1    0    0  501    0  0.00000000000E+00  0.00000000000E+00  0.16984039078E+04  0.16984039078E+04  0.50400001928E-02 0. -1.
       -1   -1    0    0    0  501  0.00000000000E+00  0.00000000000E+00 -0.18998358968E+04  0.18998358968E+04  0.50400001928E-02 0.  1.
    10030    2    1    2    0    0  0.00000000000E+00  0.00000000000E+00 -0.20143198900E+03  0.35982398047E+04  0.35925972285E+04 0.  0.
        3    1    3    3  502    0  0.93393751188E+03 -0.64783873533E+03 -0.14938551361E+04  0.18771088090E+04  0.10100000352E+00 0.  1.
       -3    1    3    3    0  502 -0.93393751188E+03  0.64783873533E+03  0.12924231471E+04  0.17211309957E+04  0.10100000352E+00 0. -1.
</event>
<event>
 5   0  0.6669864E-07  0.3582286E+04  0.7818609E-02  0.8094561E-01
       -2   -1    0    0    0  501  0.00000000000E+00  0.00000000000E+00  0.10871540970E+04  0.10871540971E+04  0.25500000920E-02 0.  1.
        2   -1    0    0  501    0  0.00000000000E+00  0.00000000000E+00 -0.29510005904E+04  0.29510005904E+04  0.25500000920E-02 0. -1.
    10030    2    1    2    0    0  0.00000000000E+00  0.00000000000E+00 -0.18638464933E+04  0.40381546874E+04  0.35822855175E+04 0.  0.
        5    1    3    3  502    0  0.13355468019E+04 -0.10867956476E+04 -0.37583005558E+03  0.17624075466E+04  0.46999998093E+01 0. -1.
       -5    1    3    3    0  502 -0.13355468019E+04  0.10867956476E+04 -0.14880164377E+04  0.22757471408E+04  0.46999998093E+01 0.  1.
</event>
<event>
 5   0  0.2086250E-07  0.3668782E+04  0.7818609E-02  0.8074916E-01
       -1   -1    0    0    0  501  0.00000000000E+00  0.00000000000E+00  0.16368477175E+04  0.16368477175E+04  0.50400001928E-02 0.  1.
        1   -1    0    0  501    0  0.00000000000E+00  0.00000000000E+00 -0.20557749123E+04  0.20557749123E+04  0.50400001928E-02 0. -1.
    10030    2    1    2    0    0  0.00000000000E+00  0.00000000000E+00 -0.41892719483E+03  0.36926226299E+04  0.36687820720E+04 0.  0.
        4    1    3    3  502    0  0.17911424501E+04  0.29716969753E+03 -0.47286584446E+03  0.18761942398E+04  0.12699999809E+01 0.  1.
       -4    1    3    3    0  502 -0.17911424501E+04 -0.29716969753E+03  0.53938649638E+02  0.18164283901E+04  0.12699999809E+01 0. -1.
</event>
<event>
 5   0  0.6324216E-07  0.3598733E+04  0.7818609E-02  0.8090782E-01
        2   -1    0    0  501    0  0.00000000000E+00  0.00000000000E+00  0.14586284086E+04  0.14586284086E+04  0.25500000920E-02 0.  1.
       -2   -1    0    0    0  501  0.00000000000E+00  0.00000000000E+00 -0.22197013541E+04  0.22197013541E+04  0.25500000920E-02 0. -1.
    10030    2    1    2    0    0  0.00000000000E+00  0.00000000000E+00 -0.76107294543E+03  0.36783297627E+04  0.35987328068E+04 0.  0.
        2    1    3    3  502    0 -0.10420419415E+04  0.30944352794E+03  0.10850941184E+04  0.15359153462E+04  0.25500000920E-02 0.  1.
       -2    1    3    3    0  502  0.10420419415E+04 -0.30944352794E+03 -0.18461670638E+04  0.21424144166E+04  0.25500000920E-02 0. -1.
</event>
<event>
 5   0  0.2108068E-07  0.3591346E+04  0.7818609E-02  0.8092477E-01
       -1   -1    0    0    0  501  0.00000000000E+00  0.00000000000E+00  0.14640357647E+04  0.14640357647E+04  0.50400001928E-02 0.  1.
        1   -1    0    0  501    0  0.00000000000E+00  0.00000000000E+00 -0.22024335702E+04  0.22024335702E+04  0.50400001928E-02 0. -1.
    10030    2    1    2    0    0  0.00000000000E+00  0.00000000000E+00 -0.73839780553E+03  0.36664693349E+04  0.35913459962E+04 0.  0.
        5    1    3    3  502    0 -0.11800826776E+04 -0.85999450057E+03 -0.14361600549E+04  0.20481121698E+04  0.46999998093E+01 0. -1.
       -5    1    3    3    0  502  0.11800826776E+04  0.85999450057E+03  0.69776224939E+03  0.16183571650E+04  0.46999998093E+01 0.  1.
</event>
<event>
 5   0  0.2086250E-07  0.3613479E+04  0.7818609E-02  0.8087411E-01
       -3   -1    0    0    0  501  0.00000000000E+00  0.00000000000E+00  0.13974751015E+04  0.13974751052E+04  0.10100000352E+00 0.  1.
        3   -1    0    0  501    0  0.00000000000E+00  0.00000000000E+00 -0.23358609232E+04  0.23358609254E+04  0.10100000352E+00 0. -1.
    10030    2    1    2    0    0  0.00000000000E+00  0.00000000000E+00 -0.93838582167E+03  0.37333360306E+04  0.36134789285E+04 0.  0.
        1    1    3    3  502    0 -0.20568131895E+03  0.50841910968E+03 -0.22477792456E+04  0.23137213171E+04  0.50400001928E-02 0. -1.
       -1    1    3    3    0  502  0.20568131895E+03 -0.50841910968E+03  0.13093934240E+04  0.14196147135E+04  0.50400001928E-02 0.  1.
</event>
<event>
 5   0  0.2086250E-07  0.3615085E+04  0.7818609E-02  0.8087045E-01
       -1   -1    0    0    0  501  0.00000000000E+00  0.00000000000E+00  0.18834677969E+04  0.18834677969E+04  0.50400001928E-02 0.  1.
        1   -1    0    0  501    0  0.00000000000E+00  0.00000000000E+00 -0.17346773927E+04  0.17346773927E+04  0.50400001928E-02 0. -1.
    10030    2    1    2    0    0  0.00000000000E+00  0.00000000000E+00  0.14879040417E+03  0.36181451896E+04  0.36150845120E+04 0.  0.
        2    1    3    3  502    0 -0.34434169424E+03 -0.17651544266E+04  0.25584308157E+03  0.18165343471E+04  0.25500000920E-02 0.  1.
       -2    1    3    3    0  502  0.34434169424E+03  0.17651544266E+04 -0.10705267740E+03  0.18016108425E+04  0.25500000920E-02 0. -1.
</event>
<event>
 5   0  0.2108068E-07  0.3567140E+04  0.7818609E-02  0.8098060E-01
       -1   -1    0    0    0  501  0.00000000000E+00  0.00000000000E+00  0.17982961285E+04  0.17982961285E+04  0.50400001928E-02 0. -1.
        1   -1    0    0  501    0  0.00000000000E+00  0.00000000000E+00 -0.17689640649E+04  0.17689640649E+04  0.50400001928E-02 0.  1.
    10030    2    1    2    0    0  0.00000000000E+00  0.00000000000E+00  0.29332063537E+02  0.35672601934E+04  0.35671395988E+04 0.  0.
        5    1    3    3  502    0  0.21526476323E+03 -0.16738729642E+04 -0.56233659431E+03  0.17788856495E+04  0.46999998093E+01 0.  1.
       -5    1    3    3    0  502 -0.21526476323E+03  0.16738729642E+04  0.59166865785E+03  0.17883745439E+04  0.46999998093E+01 0. -1.
</event>
<event>
 5   0  0.6324216E-07  0.3599409E+04  0.7818609E-02  0.8090627E-01
       -2   -1    0    0    0  501  0.00000000000E+00  0.00000000000E+00  0.29977118144E+04  0.29977118144E+04  0.25500000920E-02 0. -1.
        2   -1    0    0  501    0  0.00000000000E+00  0.00000000000E+00 -0.10804695457E+04  0.10804695457E+04  0.25500000920E-02 0.  1.
    10030    2    1    2    0    0  0.00000000000E+00  0.00000000000E+00  0.19172422687E+04  0.40781813600E+04  0.35994090193E+04 0.  0.
        2    1    3    3  502    0  0.15877758523E+04  0.61714249801E+03  0.16163934762E+04  0.23483238469E+04  0.25500000920E-02 0. -1.
       -2    1    3    3    0  502 -0.15877758523E+04 -0.61714249801E+03  0.30084879250E+03  0.17298575132E+04  0.25500000920E-02 0.  1.
</event>
<event>
 5   0  0.6324216E-07  0.3589052E+04  0.7818609E-02  0.8093004E-01
       -2   -1    0    0    0  501  0.00000000000E+00  0.00000000000E+00  0.16344379154E+04  0.16344379154E+04  0.25500000920E-02 0. -1.
        2   -1    0    0  501    0  0.00000000000E+00  0.00000000000E+00 -0.19702945804E+04  0.19702945804E+04  0.25500000920E-02 0.  1.
    10030    2    1    2    0    0  0.00000000000E+00  0.00000000000E+00 -0.33585666494E+03  0.36047324958E+04  0.35890523355E+04 0.  0.
        2    1    3    3  502    0 -0.16549544692E+04  0.28396975641E+03  0.46793399138E+03  0.17431222958E+04  0.25500000920E-02 0. -1.
       -2    1    3    3    0  502  0.16549544692E+04 -0.28396975641E+03 -0.80379065631E+03  0.18616102000E+04  0.25500000920E-02 0.  1.
</event>
<event>
 5   0  0.2086250E-07  0.3596292E+04  0.7818609E-02  0.8091341E-01
       -1   -1    0    0    0  501  0.00000000000E+00  0.00000000000E+00  0.20980080153E+04  0.20980080153E+04  0.50400001928E-02 0. -1.
        1   -1    0    0  501    0  0.00000000000E+00  0.00000000000E+00 -0.15411426982E+04  0.15411426982E+04  0.50400001928E-02 0.  1.
    10030    2    1    2    0    0  0.00000000000E+00  0.00000000000E+00  0.55686531711E+03  0.36391507136E+04  0.35962923872E+04 0.  0.
        4    1    3    3  502    0 -0.13576368190E+04  0.94816356005E+03  0.98759561875E+03  0.19280919552E+04  0.12699999809E+01 0. -1.
       -4    1    3    3    0  502  0.13576368190E+04 -0.94816356005E+03 -0.43073030163E+03  0.17110587583E+04  0.12699999809E+01 0.  1.
</event>
<event>
 5   0  0.6541476E-07  0.3617581E+04  0.7818609E-02  0.8086476E-01
       -2   -1    0    0    0  501  0.00000000000E+00  0.00000000000E+00  0.23001736624E+04  0.23001736624E+04  0.25500000920E-02 0. -1.
        2   -1    0    0  501    0  0.00000000000E+00  0.00000000000E+00 -0.14223809558E+04  0.14223809558E+04  0.25500000920E-02 0.  1.
    10030    2    1    2    0    0  0.00000000000E+00  0.00000000000E+00  0.87779270666E+03  0.37225546182E+04  0.36175810771E+04 0.  0.
        4    1    3    3  502    0 -0.68070967673E+03 -0.15062854954E+04  0.11946885538E+04  0.20394960189E+04  0.12699999809E+01 0. -1.
       -4    1    3    3    0  502  0.68070967673E+03  0.15062854954E+04 -0.31689584715E+03  0.16830585992E+04  0.12699999809E+01 0.  1.
</event>
<event>
 5   0  0.2086250E-07  0.3593052E+04  0.7818609E-02  0.8092085E-01
       -3   -1    0    0    0  501  0.00000000000E+00  0.00000000000E+00  0.15115336182E+04  0.15115336216E+04  0.10100000352E+00 0.  1.
        3   -1    0    0  501    0  0.00000000000E+00  0.00000000000E+00 -0.21352518726E+04  0.21352518750E+04  0.10100000352E+00 0. -1.
    10030    2    1    2    0    0  0.00000000000E+00  0.00000000000E+00 -0.62371825440E+03  0.36467854966E+04  0.35930516274E+04 0.  0.
        1    1    3    3  502    0  0.17178738222E+04 -0.35150124185E+03 -0.70868107846E+03  0.18912621349E+04  0.50400001928E-02 0. -1.
       -1    1    3    3    0  502 -0.17178738222E+04  0.35150124185E+03  0.84962824059E+02  0.17555233617E+04  0.50400001928E-02 0.  1.
</event>
<event>
 5   0  0.2086250E-07  0.3567200E+04  0.7818609E-02  0.8098047E-01
        1   -1    0    0  501    0  0.00000000000E+00  0.00000000000E+00  0.18610820803E+04  0.18610820803E+04  0.50400001928E-02 0. -1.
       -1   -1    0    0    0  501  0.00000000000E+00  0.00000000000E+00 -0.17093437108E+04  0.17093437108E+04  0.50400001928E-02 0.  1.
    10030    2    1    2    0    0  0.00000000000E+00  0.00000000000E+00  0.15173836951E+03  0.35704257911E+04  0.35671999939E+04 0.  0.
        3    1    3    3  502    0 -0.81672881912E+03  0.11244857055E+04  0.11947865696E+04  0.18327654031E+04  0.10100000352E+00 0. -1.
       -3    1    3    3    0  502  0.81672881912E+03 -0.11244857055E+04 -0.10430482001E+04  0.17376603879E+04  0.10100000352E+00 0.  1.
</event>
<event>
 5   0  0.6324216E-07  0.3616685E+04  0.7818609E-02  0.8086680E-01
       -2   -1    0    0    0  501  0.00000000000E+00  0.00000000000E+00  0.16851197281E+04  0.16851197281E+04  0.25500000920E-02 0. -1.
        2   -1    0    0  501    0  0.00000000000E+00  0.00000000000E+00 -0.19405761801E+04  0.19405761801E+04  0.25500000920E-02 0.  1.
    10030    2    1    2    0    0  0.00000000000E+00  0.00000000000E+00 -0.25545645203E+03  0.36256959082E+04  0.36166853360E+04 0.  0.
        2    1    3    3  502    0  0.11575553951E+04  0.80967167583E+03 -0.12595230192E+04  0.18925910681E+04  0.25500000920E-02 0.  1.
       -2    1    3    3    0  502 -0.11575553951E+04 -0.80967167583E+03  0.10040665671E+04  0.17331048400E+04  0.25500000920E-02 0. -1.
</event>
<event>
 5   0  0.2193129E-07  0.3614433E+04  0.7818609E-02  0.8087194E-01
        1   -1    0    0  501    0  0.00000000000E+00  0.00000000000E+00  0.13660220881E+04  0.13660220881E+04  0.50400001928E-02 0. -1.
       -1   -1    0    0    0  501  0.00000000000E+00  0.00000000000E+00 -0.23909069404E+04  0.23909069404E+04  0.50400001928E-02 0.  1.
    10030    2    1    2    0    0  0.00000000000E+00  0.00000000000E+00 -0.10248848522E+04  0.37569290285E+04  0.36144331180E+04 0.  0.
        1    1    3    3  502    0  0.90563534299E+01 -0.14692707048E+04 -0.16061583032E+04  0.21768286373E+04  0.50400001928E-02 0.  1.
       -1    1    3    3    0  502 -0.90563534299E+01  0.14692707048E+04  0.58127345091E+03  0.15801003912E+04  0.50400001928E-02 0. -1.
</event>
<event>
 5   0  0.6324216E-07  0.3338335E+04  0.7818609E-02  0.8153209E-01
        2   -1    0    0  501    0  0.00000000000E+00  0.00000000000E+00  0.15401912326E+04  0.15401912326E+04  0.25500000920E-02 0. -1.
       -2   -1    0    0    0  501  0.00000000000E+00  0.00000000000E+00 -0.18089444058E+04  0.18089444058E+04  0.25500000920E-02 0.  1.
    10030    2    1    2    0    0  0.00000000000E+00  0.00000000000E+00 -0.26875317315E+03  0.33491356384E+04  0.33383351025E+04 0.  0.
        2    1    3    3  502    0  0.41265171604E+03  0.16057199270E+04  0.59905289301E+02  0.16589775666E+04  0.25500000920E-02 0. -1.
       -2    1    3    3    0  502 -0.41265171604E+03 -0.16057199270E+04 -0.32865846245E+03  0.16901580718E+04  0.25500000920E-02 0.  1.
</event>
<event>
 5   0  0.6324216E-07  0.3600601E+04  0.7818609E-02  0.8090354E-01
        2   -1    0    0  501    0  0.00000000000E+00  0.00000000000E+00  0.10135418550E+04  0.10135418550E+04  0.25500000920E-02 0.  1.
       -2   -1    0    0    0  501  0.00000000000E+00  0.00000000000E+00 -0.31977777580E+04  0.31977777580E+04  0.25500000920E-02 0. -1.
    10030    2    1    2    0    0  0.00000000000E+00  0.00000000000E+00 -0.21842359029E+04  0.42113196130E+04  0.36006008392E+04 0.  0.
        2    1    3    3  502    0  0.17030186640E+04 -0.56972990535E+03 -0.12410632104E+04  0.21829115024E+04  0.25500000920E-02 0.  1.
       -2    1    3    3    0  502 -0.17030186640E+04  0.56972990535E+03 -0.94317269251E+03  0.20284081106E+04  0.25500000920E-02 0. -1.
</event>
<event>
 5   0  0.2086250E-07  0.3671734E+04  0.7818609E-02  0.8074255E-01
        1   -1    0    0  501    0  0.00000000000E+00  0.00000000000E+00  0.11512492961E+04  0.11512492961E+04  0.50400001928E-02 0. -1.
       -1   -1    0    0    0  501  0.00000000000E+00  0.00000000000E+00 -0.29276086815E+04  0.29276086815E+04  0.50400001928E-02 0.  1.
    10030    2    1    2    0    0  0.00000000000E+00  0.00000000000E+00 -0.17763593854E+04  0.40788579775E+04  0.36717338867E+04 0.  0.
        3    1    3    3  502    0  0.39190863245E+03 -0.15851804498E+04 -0.18202727310E+04  0.24453593315E+04  0.10100000352E+00 0.  1.
       -3    1    3    3    0  502 -0.39190863245E+03  0.15851804498E+04  0.43913345612E+02  0.16334986461E+04  0.10100000352E+00 0. -1.
</event>
<event>
 5   0  0.2193129E-07  0.3602290E+04  0.7818609E-02  0.8089967E-01
        1   -1    0    0  501    0  0.00000000000E+00  0.00000000000E+00  0.23162837318E+04  0.23162837318E+04  0.50400001928E-02 0. -1.
       -1   -1    0    0    0  501  0.00000000000E+00  0.00000000000E+00 -0.14005727149E+04  0.14005727149E+04  0.50400001928E-02 0.  1.
    10030    2    1    2    0    0  0.00000000000E+00  0.00000000000E+00  0.91571101687E+03  0.37168564467E+04  0.36022902686E+04 0.  0.
        1    1    3    3  502    0 -0.17229700833E+04  0.48289403440E+03  0.24561662543E+03  0.18061395525E+04  0.50400001928E-02 0.  1.
       -1    1    3    3    0  502  0.17229700833E+04 -0.48289403440E+03  0.67009439144E+03  0.19107168942E+04  0.50400001928E-02 0. -1.
</event>
<event>
 5   0  0.2086250E-07  0.3608781E+04  0.7818609E-02  0.8088483E-01
       -1   -1    0    0    0  501  0.00000000000E+00  0.00000000000E+00  0.16291564377E+04  0.16291564377E+04  0.50400001928E-02 0. -1.
        1   -1    0    0  501    0  0.00000000000E+00  0.00000000000E+00 -0.19984727702E+04  0.19984727702E+04  0.50400001928E-02 0.  1.
    10030    2    1    2    0    0  0.00000000000E+00  0.00000000000E+00 -0.36931633249E+03  0.36276292079E+04  0.36087808352E+04 0.  0.
        3    1    3    3  502    0 -0.93409602162E+03 -0.10124836316E+04  0.98683256079E+03  0.16945492011E+04  0.10100000352E+00 0. -1.
       -3    1    3    3    0  502  0.93409602162E+03  0.10124836316E+04 -0.13561488933E+04  0.19330800068E+04  0.10100000352E+00 0.  1.
</event>
<event>
 5   0  0.2086250E-07  0.3602326E+04  0.7818609E-02  0.8089959E-01
        3   -1    0    0  501    0  0.00000000000E+00  0.00000000000E+00  0.12521177911E+04  0.12521177952E+04  0.10100000352E+00 0. -1.
       -3   -1    0    0    0  501  0.00000000000E+00  0.00000000000E+00 -0.25909611019E+04  0.25909611039E+04  0.10100000352E+00 0.  1.
    10030    2    1    2    0    0  0.00000000000E+00  0.00000000000E+00 -0.13388433108E+04  0.38430788991E+04  0.36023261948E+04 0.  0.
        5    1    3    3  502    0 -0.93386233363E+03 -0.18556766418E+03  0.96169249269E+03  0.13532955171E+04  0.46999998093E+01 0. -1.
       -5    1    3    3    0  502  0.93386233363E+03  0.18556766418E+03 -0.23005358035E+04  0.24897833820E+04  0.46999998093E+01 0.  1.
</event>
<event>
 5   0  0.2086250E-07  0.3640107E+04  0.7818609E-02  0.8081366E-01
        1   -1    0    0  501    0  0.00000000000E+00  0.00000000000E+00  0.11490453057E+04  0.11490453057E+04  0.50400001928E-02 0. -1.
       -1   -1    0    0    0  501  0.00000000000E+00  0.00000000000E+00 -0.28829110061E+04  0.28829110061E+04  0.50400001928E-02 0.  1.
    10030    2    1    2    0    0  0.00000000000E+00  0.00000000000E+00 -0.17338657004E+04  0.40319563118E+04  0.36401073381E+04 0.  0.
        4    1    3    3  502    0  0.84566310986E+03 -0.52510261961E+03  0.82080919904E+03  0.12901969658E+04  0.12699999809E+01 0. -1.
       -4    1    3    3    0  502 -0.84566310986E+03  0.52510261961E+03 -0.25546748994E+04  0.27417593460E+04  0.12699999809E+01 0.  1.
</event>
<event>
 5   0  0.2086250E-07  0.3604408E+04  0.7818609E-02  0.8089483E-01
       -1   -1    0    0    0  501  0.00000000000E+00  0.00000000000E+00  0.19781965960E+04  0.19781965960E+04  0.50400001928E-02 0. -1.
        1   -1    0    0  501    0  0.00000000000E+00  0.00000000000E+00 -0.16418683556E+04  0.16418683556E+04  0.50400001928E-02 0.  1.
    10030    2    1    2    0    0  0.00000000000E+00  0.00000000000E+00  0.33632824039E+03  0.36200649516E+04  0.36044075197E+04 0.  0.
        4    1    3    3  502    0 -0.30462252862E+03  0.53921145540E+03  0.18679678193E+04  0.19679556056E+04  0.12699999809E+01 0. -1.
       -4    1    3    3    0  502  0.30462252862E+03 -0.53921145540E+03 -0.15316395789E+04  0.16521093460E+04  0.12699999809E+01 0.  1.
</event>
<event>
 5   0  0.6848661E-07  0.3584121E+04  0.7818609E-02  0.8094139E-01
       -2   -1    0    0    0  501  0.00000000000E+00  0.00000000000E+00  0.29379261719E+04  0.29379261719E+04  0.25500000920E-02 0.  1.
        2   -1    0    0  501    0  0.00000000000E+00  0.00000000000E+00 -0.10931116479E+04  0.10931116479E+04  0.25500000920E-02 0. -1.
    10030    2    1    2    0    0  0.00000000000E+00  0.00000000000E+00  0.18448145240E+04  0.40310378198E+04  0.35841212699E+04 0.  0.
        1    1    3    3  502    0 -0.30666940553E+03  0.62263297276E+03 -0.93581080565E+03  0.11651007712E+04  0.50400001928E-02 0. -1.
       -1    1    3    3    0  502  0.30666940553E+03 -0.62263297276E+03  0.27806253296E+04  0.28659370486E+04  0.50400001928E-02 0.  1.
</event>
<event>
 5   0  0.6729577E-07  0.3601951E+04  0.7818609E-02  0.8090045E-01
        2   -1    0    0  501    0  0.00000000000E+00  0.00000000000E+00  0.17762700296E+04  0.17762700296E+04  0.25500000920E-02 0. -1.
       -2   -1    0    0    0  501  0.00000000000E+00  0.00000000000E+00 -0.18260250443E+04  0.18260250443E+04  0.25500000920E-02 0.  1.
    10030    2    1    2    0    0  0.00000000000E+00  0.00000000000E+00 -0.49755014680E+02  0.36022950739E+04  0.36019514486E+04 0.  0.
        3    1    3    3  502    0 -0.40944018419E+02 -0.13054404278E+04  0.12152659623E+04  0.17840186357E+04  0.10100000352E+00 0. -1.
       -3    1    3    3    0  502  0.40944018419E+02  0.13054404278E+04 -0.12650209770E+04  0.18182764382E+04  0.10100000352E+00 0.  1.
</event>
<event>
 5   0  0.2086250E-07  0.3678504E+04  0.7818609E-02  0.8072742E-01
        3   -1    0    0  501    0  0.00000000000E+00  0.00000000000E+00  0.18529182586E+04  0.18529182614E+04  0.10100000352E+00 0. -1.
       -3   -1    0    0    0  501  0.00000000000E+00  0.00000000000E+00 -0.18256870206E+04  0.18256870234E+04  0.10100000352E+00 0.  1.
    10030    2    1    2    0    0  0.00000000000E+00  0.00000000000E+00  0.27231238004E+02  0.36786052848E+04  0.36785044924E+04 0.  0.
        1    1    3    3  502    0  0.97471938779E+03 -0.12232585552E+03 -0.15413569932E+04  0.18277918044E+04  0.50400001928E-02 0.  1.
       -1    1    3    3    0  502 -0.97471938779E+03  0.12232585552E+03  0.15685882312E+04  0.18508134803E+04  0.50400001928E-02 0. -1.
</event>
<event>
 5   0  0.6324216E-07  0.3596897E+04  0.7818609E-02  0.8091203E-01
        2   -1    0    0  501    0  0.00000000000E+00  0.00000000000E+00  0.17504089399E+04  0.17504089399E+04  0.25500000920E-02 0. -1.
       -2   -1    0    0    0  501  0.00000000000E+00  0.00000000000E+00 -0.18478065231E+04  0.18478065231E+04  0.25500000920E-02 0.  1.
    10030    2    1    2    0    0  0.00000000000E+00  0.00000000000E+00 -0.97397583121E+02  0.35982154630E+04  0.35968970278E+04 0.  0.
        2    1    3    3  502    0  0.64393616198E+03  0.40367706289E+03  0.15818704825E+04  0.17549709898E+04  0.25500000920E-02 0. -1.
       -2    1    3    3    0  502 -0.64393616198E+03 -0.40367706289E+03 -0.16792680656E+04  0.18432444732E+04  0.25500000920E-02 0.  1.
</event>
<event>
 5   0  0.6541476E-07  0.3588429E+04  0.7818609E-02  0.8093147E-01
       -2   -1    0    0    0  501  0.00000000000E+00  0.00000000000E+00  0.15247675348E+04  0.15247675348E+04  0.25500000920E-02 0. -1.
        2   -1    0    0  501    0  0.00000000000E+00  0.00000000000E+00 -0.21112766260E+04  0.21112766260E+04  0.25500000920E-02 0.  1.
    10030    2    1    2    0    0  0.00000000000E+00  0.00000000000E+00 -0.58650909123E+03  0.36360441608E+04  0.35884292142E+04 0.  0.
        4    1    3    3  502    0 -0.75081531067E+03 -0.50246592420E+03  0.12774787392E+04  0.15646562491E+04  0.12699999809E+01 0. -1.
       -4    1    3    3    0  502  0.75081531067E+03  0.50246592420E+03 -0.18639878305E+04  0.20713879117E+04  0.12699999809E+01 0.  1.
</event>
<event>
 5   0  0.2086250E-07  0.3615931E+04  0.7818609E-02  0.8086852E-01
        1   -1    0    0  501    0  0.00000000000E+00  0.00000000000E+00  0.15405049200E+04  0.15405049200E+04  0.50400001928E-02 0. -1.
       -1   -1    0    0    0  501  0.00000000000E+00  0.00000000000E+00 -0.21218626270E+04  0.21218626270E+04  0.50400001928E-02 0.  1.
    10030    2    1    2    0    0  0.00000000000E+00  0.00000000000E+00 -0.58135770701E+03  0.36623675470E+04  0.36159313138E+04 0.  0.
        4    1    3    3  502    0  0.10982445427E+04  0.14254236754E+04 -0.46832937996E+03  0.18593837019E+04  0.12699999809E+01 0.  1.
       -4    1    3    3    0  502 -0.10982445427E+04 -0.14254236754E+04 -0.11302832705E+03  0.18029838451E+04  0.12699999809E+01 0. -1.
</event>
<event>
 5   0  0.6669864E-07  0.3595008E+04  0.7818609E-02  0.8091636E-01
        2   -1    0    0  501    0  0.00000000000E+00  0.00000000000E+00  0.19803159676E+04  0.19803159676E+04  0.25500000920E-02 0. -1.
       -2   -1    0    0    0  501  0.00000000000E+00  0.00000000000E+00 -0.16315682419E+04  0.16315682419E+04  0.25500000920E-02 0.  1.
    10030    2    1    2    0    0  0.00000000000E+00  0.00000000000E+00  0.34874772570E+03  0.36118842096E+04  0.35950080066E+04 0.  0.
        5    1    3    3  502    0 -0.87401073128E+03 -0.49403182105E+02 -0.14029204609E+04  0.16536454706E+04  0.46999998093E+01 0.  1.
       -5    1    3    3    0  502  0.87401073128E+03  0.49403182105E+02  0.17516681866E+04  0.19582387390E+04  0.46999998093E+01 0. -1.
</event>
<event>
 5   0  0.6729577E-07  0.3573593E+04  0.7818609E-02  0.8096567E-01
        2   -1    0    0  501    0  0.00000000000E+00  0.00000000000E+00  0.26980923726E+04  0.26980923726E+04  0.25500000920E-02 0. -1.
       -2   -1    0    0    0  501  0.00000000000E+00  0.00000000000E+00 -0.11832962515E+04  0.11832962515E+04  0.25500000920E-02 0.  1.
    10030    2    1    2    0    0  0.00000000000E+00  0.00000000000E+00  0.15147961211E+04  0.38813886241E+04  0.35735934804E+04 0.  0.
        3    1    3    3  502    0  0.14933975533E+04  0.75458898508E+03  0.14382916524E+04  0.22064278089E+04  0.10100000352E+00 0. -1.
       -3    1    3    3    0  502 -0.14933975533E+04 -0.75458898508E+03  0.76504468760E+02  0.16749608152E+04  0.10100000352E+00 0.  1.
</event>
<event>
 5   0  0.2086250E-07  0.3588183E+04  0.7818609E-02  0.8093204E-01
        1   -1    0    0  501    0  0.00000000000E+00  0.00000000000E+00  0.24199884969E+04  0.24199884970E+04  0.50400001928E-02 0. -1.
       -1   -1    0    0    0  501  0.00000000000E+00  0.00000000000E+00 -0.13300744516E+04  0.13300744516E+04  0.50400001928E-02 0.  1.
    10030    2    1    2    0    0  0.00000000000E+00  0.00000000000E+00  0.10899140454E+04  0.37500629485E+04  0.35881833136E+04 0.  0.
        4    1    3    3  502    0 -0.12409877753E+04 -0.17298257834E+03  0.18869386163E+04  0.22650634838E+04  0.12699999809E+01 0. -1.
       -4    1    3    3    0  502  0.12409877753E+04  0.17298257834E+03 -0.79702457093E+03  0.14849994648E+04  0.12699999809E+01 0.  1.
</event>
<event>
 5   0  0.2086250E-07  0.3602589E+04  0.7818609E-02  0.8089899E-01
        1   -1    0    0  501    0  0.00000000000E+00  0.00000000000E+00  0.10704946938E+04  0.10704946939E+04  0.50400001928E-02 0. -1.
       -1   -1    0    0    0  501  0.00000000000E+00  0.00000000000E+00 -0.30309924972E+04  0.30309924972E+04  0.50400001928E-02 0.  1.
    10030    2    1    2    0    0  0.00000000000E+00  0.00000000000E+00 -0.19604978034E+04  0.41014871911E+04  0.36025887278E+04 0.  0.
        3    1    3    3  502    0 -0.29482235132E+03 -0.12253964907E+04 -0.24453776830E+04  0.27510704827E+04  0.10100000352E+00 0.  1.
       -3    1    3    3    0  502  0.29482235132E+03  0.12253964907E+04  0.48487987960E+03  0.13504167083E+04  0.10100000352E+00 0. -1.
</event>
<event>
 5   0  0.6541476E-07  0.3618792E+04  0.7818609E-02  0.8086201E-01
       -2   -1    0    0    0  501  0.00000000000E+00  0.00000000000E+00  0.18620274038E+04  0.18620274038E+04  0.25500000920E-02 0. -1.
        2   -1    0    0  501    0  0.00000000000E+00  0.00000000000E+00 -0.17582525883E+04  0.17582525883E+04  0.25500000920E-02 0.  1.
    10030    2    1    2    0    0  0.00000000000E+00  0.00000000000E+00  0.10377481557E+03  0.36202799921E+04  0.36187923412E+04 0.  0.
        4    1    3    3  502    0 -0.56523046979E+03  0.57806624656E+03  0.16712766741E+04  0.18565595611E+04  0.12699999809E+01 0. -1.
       -4    1    3    3    0  502  0.56523046979E+03 -0.57806624656E+03 -0.15675018586E+04  0.17637204310E+04  0.12699999809E+01 0.  1.
</event>
<event>
 5   0  0.6729577E-07  0.3594505E+04  0.7818609E-02  0.8091751E-01
       -2   -1    0    0    0  501  0.00000000000E+00  0.00000000000E+00  0.11824581288E+04  0.11824581288E+04  0.25500000920E-02 0.  1.
        2   -1    0    0  501    0  0.00000000000E+00  0.00000000000E+00 -0.27316969958E+04  0.27316969958E+04  0.25500000920E-02 0. -1.
    10030    2    1    2    0    0  0.00000000000E+00  0.00000000000E+00 -0.15492388670E+04  0.39141551247E+04  0.35945054282E+04 0.  0.
        3    1    3    3  502    0 -0.25317940072E+03 -0.16647309840E+04 -0.90509355143E+02  0.16863039499E+04  0.10100000352E+00 0.  1.
       -3    1    3    3    0  502  0.25317940072E+03  0.16647309840E+04 -0.14587295119E+04  0.22278511748E+04  0.10100000352E+00 0. -1.
</event>
<event>
 5   0  0.6324216E-07  0.3538321E+04  0.7818609E-02  0.8104768E-01
       -2   -1    0    0    0  501  0.00000000000E+00  0.00000000000E+00  0.23081182082E+04  0.23081182082E+04  0.25500000920E-02 0. -1.
        2   -1    0    0  501    0  0.00000000000E+00  0.00000000000E+00 -0.13560523994E+04  0.13560523994E+04  0.25500000920E-02 0.  1.
    10030    2    1    2    0    0  0.00000000000E+00  0.00000000000E+00  0.95206580877E+03  0.36641706076E+04  0.35383212032E+04 0.  0.
        2    1    3    3  502    0 -0.13357871100E+04 -0.72232211203E+03 -0.46391382730E+03  0.15878578261E+04  0.25500000920E-02 0.  1.
       -2    1    3    3    0  502  0.13357871100E+04  0.72232211203E+03  0.14159796361E+04  0.20763127815E+04  0.25500000920E-02 0. -1.
</event>
<event>
 5   0  0.6324216E-07  0.3602016E+04  0.7818609E-02  0.8090030E-01
        2   -1    0    0  501    0  0.00000000000E+00  0.00000000000E+00  0.22682513702E+04  0.22682513702E+04  0.25500000920E-02 0.  1.
       -2   -1    0    0    0  501  0.00000000000E+00  0.00000000000E+00 -0.14300130740E+04  0.14300130740E+04  0.25500000920E-02 0. -1.
    10030    2    1    2    0    0  0.00000000000E+00  0.00000000000E+00  0.83823829619E+03  0.36982644442E+04  0.36020156105E+04 0.  0.
        2    1    3    3  502    0 -0.31507667722E+03 -0.26842518446E+03 -0.13805159104E+04  0.14412319630E+04  0.25500000920E-02 0. -1.
       -2    1    3    3    0  502  0.31507667722E+03  0.26842518446E+03  0.22187542066E+04  0.22570324813E+04  0.25500000920E-02 0.  1.
</event>
<event>
 5   0  0.6541476E-07  0.3660302E+04  0.7818609E-02  0.8076817E-01
        2   -1    0    0  501    0  0.00000000000E+00  0.00000000000E+00  0.28325320492E+04  0.28325320492E+04  0.25500000920E-02 0. -1.
       -2   -1    0    0    0  501  0.00000000000E+00  0.00000000000E+00 -0.11824944491E+04  0.11824944491E+04  0.25500000920E-02 0.  1.
    10030    2    1    2    0    0  0.00000000000E+00  0.00000000000E+00  0.16500376001E+04  0.40150264983E+04  0.36603024056E+04 0.  0.
        4    1    3    3  502    0 -0.12280671609E+04  0.82395740745E+03 -0.35761067372E+03  0.15214932691E+04  0.12699999809E+01 0.  1.
       -4    1    3    3    0  502  0.12280671609E+04 -0.82395740745E+03  0.20076482738E+04  0.24935332292E+04  0.12699999809E+01 0. -1.
</event>
<event>
 5   0  0.6669864E-07  0.3584705E+04  0.7818609E-02  0.8094004E-01
       -2   -1    0    0    0  501  0.00000000000E+00  0.00000000000E+00  0.13202682569E+04  0.13202682569E+04  0.25500000920E-02 0.  1.
        2   -1    0    0  501    0  0.00000000000E+00  0.00000000000E+00 -0.24332387624E+04  0.24332387624E+04  0.25500000920E-02 0. -1.
    10030    2    1    2    0    0  0.00000000000E+00  0.00000000000E+00 -0.11129705055E+04  0.37535070193E+04  0.35847052317E+04 0.  0.
        5    1    3    3  502    0  0.23719058481E+03  0.63174069982E+03  0.11821720520E+04  0.13612158300E+04  0.46999998093E+01 0.  1.
       -5    1    3    3    0  502 -0.23719058481E+03 -0.63174069982E+03 -0.22951425575E+04  0.23922911893E+04  0.46999998093E+01 0. -1.
</event>
<event>
 5   0  0.6669864E-07  0.3574304E+04  0.7818609E-02  0.8096403E-01
       -2   -1    0    0    0  501  0.00000000000E+00  0.00000000000E+00  0.26249647560E+04  0.26249647560E+04  0.25500000920E-02 0. -1.
        2   -1    0    0  501    0  0.00000000000E+00  0.00000000000E+00 -0.12167450387E+04  0.12167450387E+04  0.25500000920E-02 0.  1.
    10030    2    1    2    0    0  0.00000000000E+00  0.00000000000E+00  0.14082197173E+04  0.38417097947E+04  0.35743043204E+04 0.  0.
        5    1    3    3  502    0  0.93861875176E+03 -0.81286785839E+02 -0.92814835130E+03  0.13225332339E+04  0.46999998093E+01 0.  1.
       -5    1    3    3    0  502 -0.93861875176E+03  0.81286785839E+02  0.23363680686E+04  0.25191765608E+04  0.46999998093E+01 0. -1.
</event>
<event>
 5   0  0.6729577E-07  0.3686523E+04  0.7818609E-02  0.8070955E-01
        2   -1    0    0  501    0  0.00000000000E+00  0.00000000000E+00  0.16553522478E+04  0.16553522478E+04  0.25500000920E-02 0. -1.
       -2   -1    0    0    0  501  0.00000000000E+00  0.00000000000E+00 -0.20525011705E+04  0.20525011705E+04  0.25500000920E-02 0.  1.
    10030    2    1    2    0    0  0.00000000000E+00  0.00000000000E+00 -0.39714892272E+03  0.37078534183E+04  0.36865227118E+04 0.  0.
        3    1    3    3  502    0  0.16995490127E+04 -0.66759842229E+03 -0.45194058409E+03  0.18810648053E+04  0.10100000352E+00 0. -1.
       -3    1    3    3    0  502 -0.16995490127E+04  0.66759842229E+03  0.54791661371E+02  0.18267886130E+04  0.10100000352E+00 0.  1.
</event>
<event>
 5   0  0.2193129E-07  0.3598742E+04  0.7818609E-02  0.8090780E-01
        1   -1    0    0  501    0  0.00000000000E+00  0.00000000000E+00  0.21733000954E+04  0.21733000954E+04  0.50400001928E-02 0. -1.
       -1   -1    0    0    0  501  0.00000000000E+00  0.00000000000E+00 -0.14897785359E+04  0.14897785359E+04  0.50400001928E-02 0.  1.
    10030    2    1    2    0    0  0.00000000000E+00  0.00000000000E+00  0.68352155952E+03  0.36630786313E+04  0.35987419103E+04 0.  0.
        1    1    3    3  502    0  0.65925344672E+03  0.89897632270E+03 -0.10959213879E+04  0.15632713214E+04  0.50400001928E-02 0.  1.
       -1    1    3    3    0  502 -0.65925344672E+03 -0.89897632270E+03  0.17794429474E+04  0.20998073099E+04  0.50400001928E-02 0. -1.
</event>
<event>
 5   0  0.2193129E-07  0.3600669E+04  0.7818609E-02  0.8090339E-01
        1   -1    0    0  501    0  0.00000000000E+00  0.00000000000E+00  0.20526167206E+04  0.20526167206E+04  0.50400001928E-02 0. -1.
       -1   -1    0    0    0  501  0.00000000000E+00  0.00000000000E+00 -0.15790593828E+04  0.15790593828E+04  0.50400001928E-02 0.  1.
    10030    2    1    2    0    0  0.00000000000E+00  0.00000000000E+00  0.47355733786E+03  0.36316761034E+04  0.36006686556E+04 0.  0.
        1    1    3    3  502    0  0.12149718052E+04  0.13191444198E+04  0.77605814710E+02  0.17950824912E+04  0.50400001928E-02 0.  1.
       -1    1    3    3    0  502 -0.12149718052E+04 -0.13191444198E+04  0.39595152315E+03  0.18365936122E+04  0.50400001928E-02 0. -1.
</event>
<event>
 5   0  0.6324216E-07  0.3607063E+04  0.7818609E-02  0.8088876E-01
       -2   -1    0    0    0  501  0.00000000000E+00  0.00000000000E+00  0.27005946963E+04  0.27005946963E+04  0.25500000920E-02 0. -1.
        2   -1    0    0  501    0  0.00000000000E+00  0.00000000000E+00 -0.12044481730E+04  0.12044481730E+04  0.25500000920E-02 0.  1.
    10030    2    1    2    0    0  0.00000000000E+00  0.00000000000E+00  0.14961465233E+04  0.39050428693E+04  0.36070632642E+04 0.  0.
        2    1    3    3  502    0  0.65338520417E+03 -0.13240437436E+04  0.18693574511E+04  0.23821211850E+04  0.25500000920E-02 0. -1.
       -2    1    3    3    0  502 -0.65338520417E+03  0.13240437436E+04 -0.37321092778E+03  0.15229216843E+04  0.25500000920E-02 0.  1.
</event>
<event>
 5   0  0.6541476E-07  0.3591576E+04  0.7818609E-02  0.8092424E-01
       -2   -1    0    0    0  501  0.00000000000E+00  0.00000000000E+00  0.17987481127E+04  0.17987481127E+04  0.25500000920E-02 0. -1.
        2   -1    0    0  501    0  0.00000000000E+00  0.00000000000E+00 -0.17928330588E+04  0.17928330588E+04  0.25500000920E-02 0.  1.
    10030    2    1    2    0    0  0.00000000000E+00  0.00000000000E+00  0.59150538528E+01  0.35915811715E+04  0.35915763007E+04 0.  0.
        4    1    3    3  502    0  0.60103396142E+02 -0.92099087939E+03  0.15434195636E+04  0.17983276065E+04  0.12699999809E+01 0. -1.
       -4    1    3    3    0  502 -0.60103396142E+02  0.92099087939E+03 -0.15375045097E+04  0.17932535650E+04  0.12699999809E+01 0.  1.
</event>
<event>
 5   0  0.2108068E-07  0.3603891E+04  0.7818609E-02  0.8089601E-01
       -1   -1    0    0    0  501  0.00000000000E+00  0.00000000000E+00  0.21968856405E+04  0.21968856405E+04  0.50400001928E-02 0.  1.
        1   -1    0    0  501    0  0.00000000000E+00  0.00000000000E+00 -0.14780048301E+04  0.14780048301E+04  0.50400001928E-02 0. -1.
    10030    2    1    2    0    0  0.00000000000E+00  0.00000000000E+00  0.71888081044E+03  0.36748904706E+04  0.36038910016E+04 0.  0.
        5    1    3    3  502    0  0.39977484030E+03  0.14874902718E+04 -0.59415063250E+03  0.16509040844E+04  0.46999998093E+01 0. -1.
       -5    1    3    3    0  502 -0.39977484030E+03 -0.14874902718E+04  0.13130314429E+04  0.20239863863E+04  0.46999998093E+01 0.  1.
</event>
<event>
 5   0  0.6541476E-07  0.3589591E+04  0.7818609E-02  0.8092880E-01
       -2   -1    0    0    0  501  0.00000000000E+00  0.00000000000E+00  0.15556393321E+04  0.15556393321E+04  0.25500000920E-02 0. -1.
        2   -1    0    0  501    0  0.00000000000E+00  0.00000000000E+00 -0.20707188942E+04  0.20707188942E+04  0.25500000920E-02 0.  1.
    10030    2    1    2    0    0  0.00000000000E+00  0.00000000000E+00 -0.51507956203E+03  0.36263582263E+04  0.35895914851E+04 0.  0.
        4    1    3    3  502    0  0.39870727965E+03  0.11361366350E+04  0.10870761131E+04  0.16221929715E+04  0.12699999809E+01 0. -1.
       -4    1    3    3    0  502 -0.39870727965E+03 -0.11361366350E+04 -0.16021556751E+04  0.20041652548E+04  0.12699999809E+01 0.  1.
</event>
<event>
 5   0  0.2108068E-07  0.3449882E+04  0.7818609E-02  0.8125771E-01
       -1   -1    0    0    0  501  0.00000000000E+00  0.00000000000E+00  0.33664503537E+04  0.33664503537E+04  0.50400001928E-02 0. -1.
        1   -1    0    0  501    0  0.00000000000E+00  0.00000000000E+00 -0.88384510025E+03  0.88384510026E+03  0.50400001928E-02 0.  1.
    10030    2    1    2    0    0  0.00000000000E+00  0.00000000000E+00  0.24826052534E+04  0.42502954540E+04  0.34498815344E+04 0.  0.
        5    1    3    3  502    0  0.79499965770E+03 -0.54747757972E+03  0.30025379667E+04  0.31538884710E+04  0.46999998093E+01 0. -1.
       -5    1    3    3    0  502 -0.79499965770E+03  0.54747757972E+03 -0.51993271323E+03  0.10964069830E+04  0.46999998093E+01 0.  1.
</event>
<event>
 5   0  0.2086250E-07  0.3579234E+04  0.7818609E-02  0.8095265E-01
        1   -1    0    0  501    0  0.00000000000E+00  0.00000000000E+00  0.25969661584E+04  0.25969661584E+04  0.50400001928E-02 0. -1.
       -1   -1    0    0    0  501  0.00000000000E+00  0.00000000000E+00 -0.12332582240E+04  0.12332582240E+04  0.50400001928E-02 0.  1.
    10030    2    1    2    0    0  0.00000000000E+00  0.00000000000E+00  0.13637079344E+04  0.38302243824E+04  0.35792344836E+04 0.  0.
        4    1    3    3  502    0  0.44534444189E+03 -0.24491595256E+03 -0.11544028091E+04  0.12613337997E+04  0.12699999809E+01 0.  1.
       -4    1    3    3    0  502 -0.44534444189E+03  0.24491595256E+03  0.25181107436E+04  0.25688905826E+04  0.12699999809E+01 0. -1.
</event>
<event>
 5   0  0.2193129E-07  0.3581667E+04  0.7818609E-02  0.8094704E-01
       -1   -1    0    0    0  501  0.00000000000E+00  0.00000000000E+00  0.15514083343E+04  0.15514083343E+04  0.50400001928E-02 0.  1.
        1   -1    0    0  501    0  0.00000000000E+00  0.00000000000E+00 -0.20672083448E+04  0.20672083448E+04  0.50400001928E-02 0. -1.
    10030    2    1    2    0    0  0.00000000000E+00  0.00000000000E+00 -0.51580001053E+03  0.36186166791E+04  0.35816667935E+04 0.  0.
        1    1    3    3  502    0 -0.11738692060E+03  0.14852136372E+04 -0.12618541143E+04  0.19524126211E+04  0.50400001928E-02 0. -1.
       -1    1    3    3    0  502  0.11738692060E+03 -0.14852136372E+04  0.74605410373E+03  0.16662040580E+04  0.50400001928E-02 0.  1.
</event>
<event>
 5   0  0.2193129E-07  0.3592562E+04  0.7818609E-02  0.8092198E-01
        1   -1    0    0  501    0  0.00000000000E+00  0.00000000000E+00  0.23854963032E+04  0.23854963032E+04  0.50400001928E-02 0. -1.
       -1   -1    0    0    0  501  0.00000000000E+00  0.00000000000E+00 -0.13526011351E+04  0.13526011351E+04  0.50400001928E-02 0.  1.
    10030    2    1    2    0    0  0.00000000000E+00  0.00000000000E+00  0.10328951681E+04  0.37380974383E+04  0.35925617643E+04 0.  0.
        1    1    3    3  502    0 -0.33468143230E+03  0.12645356374E+04 -0.76450592219E+03  0.15151011004E+04  0.50400001928E-02 0.  1.
       -1    1    3    3    0  502  0.33468143230E+03 -0.12645356374E+04  0.17974010903E+04  0.22229963380E+04  0.50400001928E-02 0. -1.
</event>
<event>
 5   0  0.2193129E-07  0.3599388E+04  0.7818609E-02  0.8090632E-01
       -1   -1    0    0    0  501  0.00000000000E+00  0.00000000000E+00  0.13050640565E+04  0.13050640565E+04  0.50400001928E-02 0. -1.
        1   -1    0    0  501    0  0.00000000000E+00  0.00000000000E+00 -0.24817926533E+04  0.24817926533E+04  0.50400001928E-02 0.  1.
    10030    2    1    2    0    0  0.00000000000E+00  0.00000000000E+00 -0.11767285967E+04  0.37868567098E+04  0.35993879411E+04 0.  0.
        1    1    3    3  502    0 -0.13136628914E+04 -0.92493441130E+03  0.26485177482E+03  0.16282998250E+04  0.50400001928E-02 0. -1.
       -1    1    3    3    0  502  0.13136628914E+04  0.92493441130E+03 -0.14415803716E+04  0.21585568848E+04  0.50400001928E-02 0.  1.
</event>
<event>
 5   0  0.2086250E-07  0.3317076E+04  0.7818609E-02  0.8158564E-01
        1   -1    0    0  501    0  0.00000000000E+00  0.00000000000E+00  0.15270004211E+04  0.15270004211E+04  0.50400001928E-02 0.  1.
       -1   -1    0    0    0  501  0.00000000000E+00  0.00000000000E+00 -0.18014060273E+04  0.18014060273E+04  0.50400001928E-02 0. -1.
    10030    2    1    2    0    0  0.00000000000E+00  0.00000000000E+00 -0.27440560618E+03  0.33284064484E+04  0.33170756773E+04 0.  0.
        2    1    3    3  502    0 -0.57864921210E+03  0.80994691762E+03 -0.14683461556E+04  0.17739473928E+04  0.25500000920E-02 0. -1.
       -2    1    3    3    0  502  0.57864921210E+03 -0.80994691762E+03  0.11939405494E+04  0.15544590556E+04  0.25500000920E-02 0.  1.
</event>
<event>
 5   0  0.2108068E-07  0.3543078E+04  0.7818609E-02  0.8103656E-01
        1   -1    0    0  501    0  0.00000000000E+00  0.00000000000E+00  0.24755857919E+04  0.24755857919E+04  0.50400001928E-02 0. -1.
       -1   -1    0    0    0  501  0.00000000000E+00  0.00000000000E+00 -0.12677205473E+04  0.12677205474E+04  0.50400001928E-02 0.  1.
    10030    2    1    2    0    0  0.00000000000E+00  0.00000000000E+00  0.12078652445E+04  0.37433063392E+04  0.35430783085E+04 0.  0.
        5    1    3    3  502    0 -0.16634522815E+04  0.17387531025E+03  0.12209058321E+04  0.20707339900E+04  0.46999998093E+01 0. -1.
       -5    1    3    3    0  502  0.16634522815E+04 -0.17387531025E+03 -0.13040587608E+02  0.16725723492E+04  0.46999998093E+01 0.  1.
</event>
<event>
 5   0  0.6729577E-07  0.3624493E+04  0.7818609E-02  0.8084904E-01
       -2   -1    0    0    0  501  0.00000000000E+00  0.00000000000E+00  0.18988380216E+04  0.18988380216E+04  0.25500000920E-02 0. -1.
        2   -1    0    0  501    0  0.00000000000E+00  0.00000000000E+00 -0.17296039411E+04  0.17296039411E+04  0.25500000920E-02 0.  1.
    10030    2    1    2    0    0  0.00000000000E+00  0.00000000000E+00  0.16923408050E+03  0.36284419626E+04  0.36244931924E+04 0.  0.
        3    1    3    3  502    0  0.11652944414E+03  0.12691187271E+04  0.13744291417E+04  0.18743790787E+04  0.10100000352E+00 0. -1.
       -3    1    3    3    0  502 -0.11652944414E+03 -0.12691187271E+04 -0.12051950612E+04  0.17540628839E+04  0.10100000352E+00 0.  1.
</event>
<event>
 5   0  0.2086250E-07  0.3602814E+04  0.7818609E-02  0.8089847E-01
        1   -1    0    0  501    0  0.00000000000E+00  0.00000000000E+00  0.28283840925E+04  0.28283840925E+04  0.50400001928E-02 0.  1.
       -1   -1    0    0    0  501  0.00000000000E+00  0.00000000000E+00 -0.11473219909E+04  0.11473219909E+04  0.50400001928E-02 0. -1.
    10030    2    1    2    0    0  0.00000000000E+00  0.00000000000E+00  0.16810621016E+04  0.39757060834E+04  0.36028140491E+04 0.  0.
        3    1    3    3  502    0  0.12826669384E+03 -0.16925274279E+04  0.15062680936E+04  0.22693490298E+04  0.10100000352E+00 0.  1.
       -3    1    3    3    0  502 -0.12826669384E+03  0.16925274279E+04  0.17479400796E+03  0.17063570536E+04  0.10100000352E+00 0. -1.
</event>
<event>
 5   0  0.2086250E-07  0.3626553E+04  0.7818609E-02  0.8084436E-01
       -1   -1    0    0    0  501  0.00000000000E+00  0.00000000000E+00  0.16931577919E+04  0.16931577919E+04  0.50400001928E-02 0.  1.
        1   -1    0    0  501    0  0.00000000000E+00  0.00000000000E+00 -0.19419173754E+04  0.19419173754E+04  0.50400001928E-02 0. -1.
    10030    2    1    2    0    0  0.00000000000E+00  0.00000000000E+00 -0.24875958344E+03  0.36350751673E+04  0.36265534797E+04 0.  0.
        2    1    3    3  502    0 -0.27987575991E+03  0.11983011547E+04 -0.14593187418E+04  0.19088916387E+04  0.25500000920E-02 0. -1.
       -2    1    3    3    0  502  0.27987575991E+03 -0.11983011547E+04  0.12105591584E+04  0.17261835285E+04  0.25500000920E-02 0.  1.
</event>
<event>
 5   0  0.6669864E-07  0.3596352E+04  0.7818609E-02  0.8091328E-01
       -2   -1    0    0    0  501  0.00000000000E+00  0.00000000000E+00  0.14961330258E+04  0.14961330258E+04  0.25500000920E-02 0. -1.
        2   -1    0    0  501    0  0.00000000000E+00  0.00000000000E+00 -0.21611961801E+04  0.21611961801E+04  0.25500000920E-02 0.  1.
    10030    2    1    2    0    0  0.00000000000E+00  0.00000000000E+00 -0.66506315424E+03  0.36573292059E+04  0.35963520296E+04 0.  0.
        5    1    3    3  502    0  0.16489753410E+04  0.30212120528E+03  0.32889444618E+03  0.17083882886E+04  0.46999998093E+01 0. -1.
       -5    1    3    3    0  502 -0.16489753410E+04 -0.30212120528E+03 -0.99395760041E+03  0.19489409173E+04  0.46999998093E+01 0.  1.
</event>
<event>
 5   0  0.6729577E-07  0.3571105E+04  0.7818609E-02  0.8097143E-01
        2   -1    0    0  501    0  0.00000000000E+00  0.00000000000E+00  0.27163032936E+04  0.27163032936E+04  0.25500000920E-02 0.  1.
       -2   -1    0    0    0  501  0.00000000000E+00  0.00000000000E+00 -0.11737266298E+04  0.11737266298E+04  0.25500000920E-02 0. -1.
    10030    2    1    2    0    0  0.00000000000E+00  0.00000000000E+00  0.15425766638E+04  0.38900299234E+04  0.35711048769E+04 0.  0.
        3    1    3    3  502    0  0.21436674340E+03  0.13580223738E+04  0.20123431579E+04  0.24371505624E+04  0.10100000352E+00 0.  1.
       -3    1    3    3    0  502 -0.21436674340E+03 -0.13580223738E+04 -0.46976649410E+03  0.14528793610E+04  0.10100000352E+00 0. -1.
</event>
<event>
 5   0  0.2193129E-07  0.3508099E+04  0.7818609E-02  0.8111873E-01
        1   -1    0    0  501    0  0.00000000000E+00  0.00000000000E+00  0.18020738494E+04  0.18020738494E+04  0.50400001928E-02 0. -1.
       -1   -1    0    0    0  501  0.00000000000E+00  0.00000000000E+00 -0.17073046771E+04  0.17073046771E+04  0.50400001928E-02 0.  1.
    10030    2    1    2    0    0  0.00000000000E+00  0.00000000000E+00  0.94769172311E+02  0.35093785264E+04  0.35080986939E+04 0.  0.
        1    1    3    3  502    0  0.12724423372E+04 -0.78567396267E+03  0.96439563492E+03  0.17794527299E+04  0.50400001928E-02 0. -1.
       -1    1    3    3    0  502 -0.12724423372E+04  0.78567396267E+03 -0.86962646261E+03  0.17299257966E+04  0.50400001928E-02 0.  1.
</event>
<event>
 5   0  0.6541476E-07  0.3605999E+04  0.7818609E-02  0.8089119E-01
       -2   -1    0    0    0  501  0.00000000000E+00  0.00000000000E+00  0.18203809249E+04  0.18203809249E+04  0.25500000920E-02 0. -1.
        2   -1    0    0  501    0  0.00000000000E+00  0.00000000000E+00 -0.17857845190E+04  0.17857845190E+04  0.25500000920E-02 0.  1.
    10030    2    1    2    0    0  0.00000000000E+00  0.00000000000E+00  0.34596405833E+02  0.36061654439E+04  0.36059994866E+04 0.  0.
        4    1    3    3  502    0 -0.34269376373E+02 -0.17843842012E+04  0.27344490446E+03  0.18055401121E+04  0.12699999809E+01 0. -1.
       -4    1    3    3    0  502  0.34269376373E+02  0.17843842012E+04 -0.23884849863E+03  0.18006253319E+04  0.12699999809E+01 0.  1.
</event>
<event>
 5   0  0.6848661E-07  0.3719310E+04  0.7818609E-02  0.8063696E-01
       -2   -1    0    0    0  501  0.00000000000E+00  0.00000000000E+00  0.15156340067E+04  0.15156340067E+04  0.25500000920E-02 0. -1.
        2   -1    0    0  501    0  0.00000000000E+00  0.00000000000E+00 -0.22817620118E+04  0.22817620118E+04  0.25500000920E-02 0.  1.
    10030    2    1    2    0    0  0.00000000000E+00  0.00000000000E+00 -0.76612800512E+03  0.37973960185E+04  0.37193096673E+04 0.  0.
        1    1    3    3  502    0  0.10111716455E+04  0.11398087835E+04 -0.14716015499E+04  0.21183114221E+04  0.50400001928E-02 0.  1.
       -1    1    3    3    0  502 -0.10111716455E+04 -0.11398087835E+04  0.70547354475E+03  0.16790845964E+04  0.50400001928E-02 0. -1.
</event>
<event>
 5   0  0.6729577E-07  0.2974717E+04  0.7818609E-02  0.8250988E-01
        2   -1    0    0  501    0  0.00000000000E+00  0.00000000000E+00  0.25040004089E+04  0.25040004089E+04  0.25500000920E-02 0. -1.
       -2   -1    0    0    0  501  0.00000000000E+00  0.00000000000E+00 -0.88348041557E+03  0.88348041558E+03  0.25500000920E-02 0.  1.
    10030    2    1    2    0    0  0.00000000000E+00  0.00000000000E+00  0.16205199934E+04  0.33874808245E+04  0.29747170097E+04 0.  0.
        3    1    3    3  502    0  0.13642038799E+04 -0.54617193378E+02  0.14822233704E+04  0.20151976067E+04  0.10100000352E+00 0. -1.
       -3    1    3    3    0  502 -0.13642038799E+04  0.54617193378E+02  0.13829662293E+03  0.13722832178E+04  0.10100000352E+00 0.  1.
</event>
<event>
 5   0  0.2108068E-07  0.3593062E+04  0.7818609E-02  0.8092083E-01
        1   -1    0    0  501    0  0.00000000000E+00  0.00000000000E+00  0.19624391445E+04  0.19624391445E+04  0.50400001928E-02 0.  1.
       -1   -1    0    0    0  501  0.00000000000E+00  0.00000000000E+00 -0.16446494384E+04  0.16446494384E+04  0.50400001928E-02 0. -1.
    10030    2    1    2    0    0  0.00000000000E+00  0.00000000000E+00  0.31778970614E+03  0.36070885829E+04  0.35930624469E+04 0.  0.
        5    1    3    3  502    0 -0.15097553078E+04  0.96324989131E+03  0.15892644412E+02  0.17909455906E+04  0.46999998093E+01 0. -1.
       -5    1    3    3    0  502  0.15097553078E+04 -0.96324989131E+03  0.30189706173E+03  0.18161429923E+04  0.46999998093E+01 0.  1.
</event>
<event>
 5   0  0.2086250E-07  0.3605751E+04  0.7818609E-02  0.8089176E-01
       -1   -1    0    0    0  501  0.00000000000E+00  0.00000000000E+00  0.13898866842E+04  0.13898866842E+04  0.50400001928E-02 0.  1.
        1   -1    0    0  501    0  0.00000000000E+00  0.00000000000E+00 -0.23385791493E+04  0.23385791493E+04  0.50400001928E-02 0. -1.
    10030    2    1    2    0    0  0.00000000000E+00  0.00000000000E+00 -0.94869246503E+03  0.37284658335E+04  0.36057509729E+04 0.  0.
        2    1    3    3  502    0  0.93980205831E+03  0.10216649183E+04 -0.16638586886E+04  0.21668993631E+04  0.25500000920E-02 0. -1.
       -2    1    3    3    0  502 -0.93980205831E+03 -0.10216649183E+04  0.71516622362E+03  0.15615664704E+04  0.25500000920E-02 0.  1.
</event>
<event>
 5   0  0.2086250E-07  0.3665607E+04  0.7818609E-02  0.8075627E-01
       -1   -1    0    0    0  501  0.00000000000E+00  0.00000000000E+00  0.18307469986E+04  0.18307469986E+04  0.50400001928E-02 0. -1.
        1   -1    0    0  501    0  0.00000000000E+00  0.00000000000E+00 -0.18348624998E+04  0.18348624998E+04  0.50400001928E-02 0.  1.
    10030    2    1    2    0    0  0.00000000000E+00  0.00000000000E+00 -0.41155011933E+01  0.36656094985E+04  0.36656071882E+04 0.  0.
        3    1    3    3  502    0 -0.10291692343E+04 -0.12930711180E+04 -0.79448917792E+03  0.18336944383E+04  0.10100000352E+00 0.  1.
       -3    1    3    3    0  502  0.10291692343E+04  0.12930711180E+04  0.79037367672E+03  0.18319150602E+04  0.10100000352E+00 0. -1.
</event>
<event>
 5   0  0.6324216E-07  0.3591916E+04  0.7818609E-02  0.8092346E-01
        2   -1    0    0  501    0  0.00000000000E+00  0.00000000000E+00  0.19182671963E+04  0.19182671963E+04  0.25500000920E-02 0. -1.
       -2   -1    0    0    0  501  0.00000000000E+00  0.00000000000E+00 -0.16814468198E+04  0.16814468198E+04  0.25500000920E-02 0.  1.
    10030    2    1    2    0    0  0.00000000000E+00  0.00000000000E+00  0.23682037652E+03  0.35997140160E+04  0.35919155205E+04 0.  0.
        2    1    3    3  502    0  0.11734875243E+04  0.72004199613E+03  0.12741402564E+04  0.18758909453E+04  0.25500000920E-02 0. -1.
       -2    1    3    3    0  502 -0.11734875243E+04 -0.72004199613E+03 -0.10373198799E+04  0.17238230707E+04  0.25500000920E-02 0.  1.
</event>
<event>
 5   0  0.6541476E-07  0.3742867E+04  0.7818609E-02  0.8058528E-01
        2   -1    0    0  501    0  0.00000000000E+00  0.00000000000E+00  0.10641651671E+04  0.10641651671E+04  0.25500000920E-02 0.  1.
       -2   -1    0    0    0  501  0.00000000000E+00  0.00000000000E+00 -0.32910904967E+04  0.32910904967E+04  0.25500000920E-02 0. -1.
    10030    2    1    2    0    0  0.00000000000E+00  0.00000000000E+00 -0.22269253295E+04  0.43552556638E+04  0.37428672798E+04 0.  0.
        4    1    3    3  502    0 -0.14000185429E+04 -0.12349691553E+04 -0.12654537424E+04  0.22553437702E+04  0.12699999809E+01 0. -1.
       -4    1    3    3    0  502  0.14000185429E+04  0.12349691553E+04 -0.96147158716E+03  0.20999118936E+04  0.12699999809E+01 0.  1.
</event>
<event>
 5   0  0.2086250E-07  0.3574070E+04  0.7818609E-02  0.8096457E-01
       -1   -1    0    0    0  501  0.00000000000E+00  0.00000000000E+00  0.13614953741E+04  0.13614953741E+04  0.50400001928E-02 0.  1.
        1   -1    0    0  501    0  0.00000000000E+00  0.00000000000E+00 -0.23455779884E+04  0.23455779884E+04  0.50400001928E-02 0. -1.
    10030    2    1    2    0    0  0.00000000000E+00  0.00000000000E+00 -0.98408261431E+03  0.37070733626E+04  0.35740697144E+04 0.  0.
        2    1    3    3  502    0  0.15129949033E+04  0.94991467169E+03 -0.44563113231E+03  0.18412165997E+04  0.25500000920E-02 0. -1.
       -2    1    3    3    0  502 -0.15129949033E+04 -0.94991467169E+03 -0.53845148200E+03  0.18658567628E+04  0.25500000920E-02 0.  1.
</event>
<event>
 5   0  0.2108068E-07  0.3626293E+04  0.7818609E-02  0.8084495E-01
       -1   -1    0    0    0  501  0.00000000000E+00  0.00000000000E+00  0.97872018369E+03  0.97872018371E+03  0.50400001928E-02 0.  1.
        1   -1    0    0  501    0  0.00000000000E+00  0.00000000000E+00 -0.33589795863E+04  0.33589795863E+04  0.50400001928E-02 0. -1.
    10030    2    1    2    0    0  0.00000000000E+00  0.00000000000E+00 -0.23802594027E+04  0.43376997701E+04  0.36262934894E+04 0.  0.
        5    1    3    3  502    0 -0.44484284604E+02  0.14066419529E+04  0.17731835415E+03  0.14184795818E+04  0.46999998093E+01 0.  1.
       -5    1    3    3    0  502  0.44484284604E+02 -0.14066419529E+04 -0.25575777568E+04  0.29192201882E+04  0.46999998093E+01 0. -1.
</event>
<event>
 5   0  0.2086250E-07  0.3605706E+04  0.7818609E-02  0.8089186E-01
        1   -1    0    0  501    0  0.00000000000E+00  0.00000000000E+00  0.24334416065E+04  0.24334416065E+04  0.50400001928E-02 0. -1.
       -1   -1    0    0    0  501  0.00000000000E+00  0.00000000000E+00 -0.13356712783E+04  0.13356712783E+04  0.50400001928E-02 0.  1.
    10030    2    1    2    0    0  0.00000000000E+00  0.00000000000E+00  0.10977703282E+04  0.37691128848E+04  0.36057055128E+04 0.  0.
        2    1    3    3  502    0  0.14839673078E+04 -0.99414709067E+03  0.80448792334E+03  0.19590018447E+04  0.25500000920E-02 0. -1.
       -2    1    3    3    0  502 -0.14839673078E+04  0.99414709067E+03  0.29328240485E+03  0.18101110401E+04  0.25500000920E-02 0.  1.
</event>
<event>
 5   0  0.6324216E-07  0.3603090E+04  0.7818609E-02  0.8089784E-01
       -2   -1    0    0    0  501  0.00000000000E+00  0.00000000000E+00  0.19949983210E+04  0.19949983210E+04  0.25500000920E-02 0.  1.
        2   -1    0    0  501    0  0.00000000000E+00  0.00000000000E+00 -0.16268509546E+04  0.16268509546E+04  0.25500000920E-02 0. -1.
    10030    2    1    2    0    0  0.00000000000E+00  0.00000000000E+00  0.36814736645E+03  0.36218492756E+04  0.36030902975E+04 0.  0.
        2    1    3    3  502    0  0.73639005227E+03  0.14218728070E+04 -0.64579849280E+03  0.17265712501E+04  0.25500000920E-02 0.  1.
       -2    1    3    3    0  502 -0.73639005227E+03 -0.14218728070E+04  0.10139458592E+04  0.18952780255E+04  0.25500000920E-02 0. -1.
</event>
<event>
 5   0  0.6729577E-07  0.3613504E+04  0.7818609E-02  0.8087405E-01
       -2   -1    0    0    0  501  0.00000000000E+00  0.00000000000E+00  0.14075704354E+04  0.14075704354E+04  0.25500000920E-02 0. -1.
        2   -1    0    0  501    0  0.00000000000E+00  0.00000000000E+00 -0.23191398420E+04  0.23191398420E+04  0.25500000920E-02 0.  1.
    10030    2    1    2    0    0  0.00000000000E+00  0.00000000000E+00 -0.91156940667E+03  0.37267102774E+04  0.36135039378E+04 0.  0.
        3    1    3    3  502    0 -0.25092526277E+03  0.34139905613E+03  0.13556101497E+04  0.14202801453E+04  0.10100000352E+00 0. -1.
       -3    1    3    3    0  502  0.25092526277E+03 -0.34139905613E+03 -0.22671795564E+04  0.23064301321E+04  0.10100000352E+00 0.  1.
</event>
<event>
 5   0  0.6324216E-07  0.3610162E+04  0.7818609E-02  0.8088168E-01
        2   -1    0    0  501    0  0.00000000000E+00  0.00000000000E+00  0.24793730191E+04  0.24793730191E+04  0.25500000920E-02 0. -1.
       -2   -1    0    0    0  501  0.00000000000E+00  0.00000000000E+00 -0.13141702115E+04  0.13141702115E+04  0.25500000920E-02 0.  1.
    10030    2    1    2    0    0  0.00000000000E+00  0.00000000000E+00  0.11652028076E+04  0.37935432307E+04  0.36101624146E+04 0.  0.
        2    1    3    3  502    0  0.82135706258E+03  0.11046572382E+04  0.18095705030E+04  0.22736403505E+04  0.25500000920E-02 0. -1.
       -2    1    3    3    0  502 -0.82135706258E+03 -0.11046572382E+04 -0.64436769536E+03  0.15199028802E+04  0.25500000920E-02 0.  1.
</event>
<event>
 5   0  0.2086250E-07  0.3518903E+04  0.7818609E-02  0.8109325E-01
       -1   -1    0    0    0  501  0.00000000000E+00  0.00000000000E+00  0.10881763037E+04  0.10881763037E+04  0.50400001928E-02 0. -1.
        1   -1    0    0  501    0  0.00000000000E+00  0.00000000000E+00 -0.28448231154E+04  0.28448231154E+04  0.50400001928E-02 0.  1.
    10030    2    1    2    0    0  0.00000000000E+00  0.00000000000E+00 -0.17566468117E+04  0.39329994191E+04  0.35189027281E+04 0.  0.
        3    1    3    3  502    0  0.11323834460E+04 -0.10075285124E+04  0.12027220512E+03  0.15204839314E+04  0.10100000352E+00 0. -1.
       -3    1    3    3    0  502 -0.11323834460E+04  0.10075285124E+04 -0.18769190168E+04  0.24125154876E+04  0.10100000352E+00 0.  1.
</event>
<event>
 5   0  0.2108068E-07  0.3507640E+04  0.7818609E-02  0.8111982E-01
       -1   -1    0    0    0  501  0.00000000000E+00  0.00000000000E+00  0.17133347431E+04  0.17133347431E+04  0.50400001928E-02 0. -1.
        1   -1    0    0  501    0  0.00000000000E+00  0.00000000000E+00 -0.17952616055E+04  0.17952616055E+04  0.50400001928E-02 0.  1.
    10030    2    1    2    0    0  0.00000000000E+00  0.00000000000E+00 -0.81926862370E+02  0.35085963487E+04  0.35076397088E+04 0.  0.
        5    1    3    3  502    0 -0.33823582378E+03 -0.51382753887E+03  0.16018729355E+04  0.17159374125E+04  0.46999998093E+01 0. -1.
       -5    1    3    3    0  502  0.33823582378E+03  0.51382753887E+03 -0.16837997978E+04  0.17926589362E+04  0.46999998093E+01 0.  1.
</event>
<event>
 5   0  0.6669864E-07  0.3580493E+04  0.7818609E-02  0.8094975E-01
       -2   -1    0    0    0  501  0.00000000000E+00  0.00000000000E+00  0.11943713616E+04  0.11943713616E+04  0.25500000920E-02 0. -1.
        2   -1    0    0  501    0  0.00000000000E+00  0.00000000000E+00 -0.26834055648E+04  0.26834055648E+04  0.25500000920E-02 0.  1.
    10030    2    1    2    0    0  0.00000000000E+00  0.00000000000E+00 -0.14890342032E+04  0.38777769264E+04  0.35804931270E+04 0.  0.
        5    1    3    3  502    0  0.42193985744E+03  0.15022370017E+04 -0.16950014141E+04  0.23038665622E+04  0.46999998093E+01 0. -1.
       -5    1    3    3    0  502 -0.42193985744E+03 -0.15022370017E+04  0.20596721086E+03  0.15739103642E+04  0.46999998093E+01 0.  1.
</event>
<event>
 5   0  0.2108068E-07  0.3336743E+04  0.7818609E-02  0.8153608E-01
       -1   -1    0    0    0  501  0.00000000000E+00  0.00000000000E+00  0.10032667377E+04  0.10032667377E+04  0.50400001928E-02 0.  1.
        1   -1    0    0  501    0  0.00000000000E+00  0.00000000000E+00 -0.27744010248E+04  0.27744010248E+04  0.50400001928E-02 0. -1.
    10030    2    1    2    0    0  0.00000000000E+00  0.00000000000E+00 -0.17711342871E+04  0.37776677625E+04  0.33367434814E+04 0.  0.
        5    1    3    3  502    0 -0.91285526087E+03  0.72048959161E+03  0.46876642107E+03  0.12538636395E+04  0.46999998093E+01 0.  1.
       -5    1    3    3    0  502  0.91285526087E+03 -0.72048959161E+03 -0.22399007081E+04  0.25238041230E+04  0.46999998093E+01 0. -1.
</event>
<event>
 5   0  0.2086250E-07  0.3615864E+04  0.7818609E-02  0.8086867E-01
       -1   -1    0    0    0  501  0.00000000000E+00  0.00000000000E+00  0.25726945914E+04  0.25726945914E+04  0.50400001928E-02 0.  1.
        1   -1    0    0  501    0  0.00000000000E+00  0.00000000000E+00 -0.12705038460E+04  0.12705038460E+04  0.50400001928E-02 0. -1.
    10030    2    1    2    0    0  0.00000000000E+00  0.00000000000E+00  0.13021907455E+04  0.38431984374E+04  0.36158641418E+04 0.  0.
        2    1    3    3  502    0  0.16234766376E+03 -0.16888760202E+04  0.13148237715E+04  0.21464902808E+04  0.25500000920E-02 0. -1.
       -2    1    3    3    0  502 -0.16234766376E+03  0.16888760202E+04 -0.12633025992E+02  0.16967081566E+04  0.25500000920E-02 0.  1.
</event>
<event>
 5   0  0.6669864E-07  0.3607566E+04  0.7818609E-02  0.8088761E-01
        2   -1    0    0  501    0  0.00000000000E+00  0.00000000000E+00  0.27691304416E+04  0.27691304416E+04  0.25500000920E-02 0. -1.
       -2   -1    0    0    0  501  0.00000000000E+00  0.00000000000E+00 -0.11749659280E+04  0.11749659280E+04  0.25500000920E-02 0.  1.
    10030    2    1    2    0    0  0.00000000000E+00  0.00000000000E+00  0.15941645136E+04  0.39440963696E+04  0.36075664479E+04 0.  0.
        5    1    3    3  502    0 -0.53284633425E+01 -0.11304523292E+04  0.23337833091E+04  0.25931674618E+04  0.46999998093E+01 0. -1.
       -5    1    3    3    0  502  0.53284633425E+01  0.11304523292E+04 -0.73961879552E+03  0.13509289078E+04  0.46999998093E+01 0.  1.
</event>
<event>
 5   0  0.2193129E-07  0.3589785E+04  0.7818609E-02  0.8092836E-01
        1   -1    0    0  501    0  0.00000000000E+00  0.00000000000E+00  0.26029992384E+04  0.26029992385E+04  0.50400001928E-02 0.  1.
       -1   -1    0    0    0  501  0.00000000000E+00  0.00000000000E+00 -0.12376643361E+04  0.12376643361E+04  0.50400001928E-02 0. -1.
    10030    2    1    2    0    0  0.00000000000E+00  0.00000000000E+00  0.13653349023E+04  0.38406635746E+04  0.35897851325E+04 0.  0.
        1    1    3    3  502    0 -0.16028525027E+04 -0.49752312632E+02 -0.17992133146E+03  0.16136861912E+04  0.50400001928E-02 0. -1.
       -1    1    3    3    0  502  0.16028525027E+04  0.49752312632E+02  0.15452562338E+04  0.22269773834E+04  0.50400001928E-02 0.  1.
</event>
<event>
 5   0  0.6729577E-07  0.3600819E+04  0.7818609E-02  0.8090304E-01
       -2   -1    0    0    0  501  0.00000000000E+00  0.00000000000E+00  0.19060532009E+04  0.19060532009E+04  0.25500000920E-02 0.  1.
        2   -1    0    0  501    0  0.00000000000E+00  0.00000000000E+00 -0.17006207572E+04  0.17006207572E+04  0.25500000920E-02 0. -1.
    10030    2    1    2    0    0  0.00000000000E+00  0.00000000000E+00  0.20543244361E+03  0.36066739581E+04  0.36008185946E+04 0.  0.
        3    1    3    3  502    0 -0.93347471252E+03 -0.15394513900E+04  0.88982374782E+02  0.18025547132E+04  0.10100000352E+00 0.  1.
       -3    1    3    3    0  502  0.93347471252E+03  0.15394513900E+04  0.11645006883E+03  0.18041192449E+04  0.10100000352E+00 0. -1.
</event>
<event>
 5   0  0.6541476E-07  0.3611906E+04  0.7818609E-02  0.8087770E-01
       -2   -1    0    0    0  501  0.00000000000E+00  0.00000000000E+00  0.13239171136E+04  0.13239171136E+04  0.25500000920E-02 0. -1.
        2   -1    0    0  501    0  0.00000000000E+00  0.00000000000E+00 -0.24634972356E+04  0.24634972356E+04  0.25500000920E-02 0.  1.
    10030    2    1    2    0    0  0.00000000000E+00  0.00000000000E+00 -0.11395801221E+04  0.37874143492E+04  0.36119059509E+04 0.  0.
        4    1    3    3  502    0 -0.13887734305E+04 -0.66109366146E+03 -0.15622077075E+04  0.21923117946E+04  0.12699999809E+01 0.  1.
       -4    1    3    3    0  502  0.13887734305E+04  0.66109366146E+03  0.42262758547E+03  0.15951025545E+04  0.12699999809E+01 0. -1.
</event>
<event>
 5   0  0.6729577E-07  0.3655694E+04  0.7818609E-02  0.8077852E-01
       -2   -1    0    0    0  501  0.00000000000E+00  0.00000000000E+00  0.18036140948E+04  0.18036140948E+04  0.25500000920E-02 0.  1.
        2   -1    0    0  501    0  0.00000000000E+00  0.00000000000E+00 -0.18524057845E+04  0.18524057845E+04  0.25500000920E-02 0. -1.
    10030    2    1    2    0    0  0.00000000000E+00  0.00000000000E+00 -0.48791689682E+02  0.36560198793E+04  0.36556942882E+04 0.  0.
        3    1    3    3  502    0 -0.57340213287E+03 -0.15260125588E+04 -0.85122266846E+03  0.18390444195E+04  0.10100000352E+00 0. -1.
       -3    1    3    3    0  502  0.57340213287E+03  0.15260125588E+04  0.80243097878E+03  0.18169754598E+04  0.10100000352E+00 0.  1.
</event>
<event>
 5   0  0.2086250E-07  0.3593422E+04  0.7818609E-02  0.8092000E-01
        1   -1    0    0  501    0  0.00000000000E+00  0.00000000000E+00  0.27135980288E+04  0.27135980288E+04  0.50400001928E-02 0.  1.
       -1   -1    0    0    0  501  0.00000000000E+00  0.00000000000E+00 -0.11896270701E+04  0.11896270701E+04  0.50400001928E-02 0. -1.
    10030    2    1    2    0    0  0.00000000000E+00  0.00000000000E+00  0.15239709588E+04  0.39032250989E+04  0.35934215853E+04 0.  0.
        2    1    3    3  502    0 -0.77050729873E+03  0.11126208186E+04 -0.52166180174E+03  0.14504267023E+04  0.25500000920E-02 0. -1.
       -2    1    3    3    0  502  0.77050729873E+03 -0.11126208186E+04  0.20456327605E+04  0.24527983966E+04  0.25500000920E-02 0.  1.
</event>
<event>
 5   0  0.6541476E-07  0.3657420E+04  0.7818609E-02  0.8077464E-01
        2   -1    0    0  501    0  0.00000000000E+00  0.00000000000E+00  0.17910793107E+04  0.17910793107E+04  0.25500000920E-02 0.  1.
       -2   -1    0    0    0  501  0.00000000000E+00  0.00000000000E+00 -0.18671309080E+04  0.18671309080E+04  0.25500000920E-02 0. -1.
    10030    2    1    2    0    0  0.00000000000E+00  0.00000000000E+00 -0.76051597275E+02  0.36582102187E+04  0.36574196039E+04 0.  0.
        4    1    3    3  502    0 -0.57889733277E+03  0.89211958350E+03 -0.15260229059E+04  0.18600395144E+04  0.12699999809E+01 0. -1.
       -4    1    3    3    0  502  0.57889733277E+03 -0.89211958350E+03  0.14499713086E+04  0.17981707043E+04  0.12699999809E+01 0.  1.
</event>
<event>
 5   0  0.2108068E-07  0.3482961E+04  0.7818609E-02  0.8117840E-01
       -1   -1    0    0    0  501  0.00000000000E+00  0.00000000000E+00  0.13609001079E+04  0.13609001079E+04  0.50400001928E-02 0. -1.
        1   -1    0    0  501    0  0.00000000000E+00  0.00000000000E+00 -0.22284920303E+04  0.22284920303E+04  0.50400001928E-02 0.  1.
    10030    2    1    2    0    0  0.00000000000E+00  0.00000000000E+00 -0.86759192240E+03  0.35893921382E+04  0.34829614092E+04 0.  0.
        5    1    3    3  502    0 -0.61080511330E+02 -0.11074263509E+04 -0.18174356551E+04  0.21291355997E+04  0.46999998093E+01 0.  1.
       -5    1    3    3    0  502  0.61080511330E+02  0.11074263509E+04  0.94984373270E+03  0.14602565385E+04  0.46999998093E+01 0. -1.
</event>
<event>
 5   0  0.2086250E-07  0.3584346E+04  0.7818609E-02  0.8094087E-01
       -1   -1    0    0    0  501  0.00000000000E+00  0.00000000000E+00  0.15094932894E+04  0.15094932894E+04  0.50400001928E-02 0.  1.
        1   -1    0    0  501    0  0.00000000000E+00  0.00000000000E+00 -0.21277890512E+04  0.21277890512E+04  0.50400001928E-02 0. -1.
    10030    2    1    2    0    0  0.00000000000E+00  0.00000000000E+00 -0.61829576181E+03  0.36372823406E+04  0.35843455716E+04 0.  0.
        2    1    3    3  502    0  0.78356639041E+03 -0.10205468220E+04 -0.15751269403E+04  0.20338429099E+04  0.25500000920E-02 0. -1.
       -2    1    3    3    0  502 -0.78356639041E+03  0.10205468220E+04  0.95683117849E+03  0.16034394308E+04  0.25500000920E-02 0.  1.
</event>
<event>
 5   0  0.2086250E-07  0.3706487E+04  0.7818609E-02  0.8066526E-01
       -1   -1    0    0    0  501  0.00000000000E+00  0.00000000000E+00  0.30812551089E+04  0.30812551089E+04  0.50400001928E-02 0.  1.
        1   -1    0    0  501    0  0.00000000000E+00  0.00000000000E+00 -0.11146469559E+04  0.11146469559E+04  0.50400001928E-02 0. -1.
    10030    2    1    2    0    0  0.00000000000E+00  0.00000000000E+00  0.19666081530E+04  0.41959020648E+04  0.37064870848E+04 0.  0.
        2    1    3    3  502    0 -0.94813372138E+03 -0.15468154037E+04  0.55534370804E+03  0.18973671444E+04  0.25500000920E-02 0. -1.
       -2    1    3    3    0  502  0.94813372138E+03  0.15468154037E+04  0.14112644449E+04  0.22985349204E+04  0.25500000920E-02 0.  1.
</event>
<event>
 5   0  0.2086250E-07  0.3360863E+04  0.7818609E-02  0.8147579E-01
       -1   -1    0    0    0  501  0.00000000000E+00  0.00000000000E+00  0.11605606981E+04  0.11605606981E+04  0.50400001928E-02 0. -1.
        1   -1    0    0  501    0  0.00000000000E+00  0.00000000000E+00 -0.24331778267E+04  0.24331778267E+04  0.50400001928E-02 0.  1.
    10030    2    1    2    0    0  0.00000000000E+00  0.00000000000E+00 -0.12726171286E+04  0.35937385248E+04  0.33608633160E+04 0.  0.
        3    1    3    3  502    0  0.68448232576E+03  0.85421831982E+03 -0.19996623090E+04  0.22796610170E+04  0.10100000352E+00 0.  1.
       -3    1    3    3    0  502 -0.68448232576E+03 -0.85421831982E+03  0.72704518033E+03  0.13140775078E+04  0.10100000352E+00 0. -1.
</event>
<event>
 5   0  0.2108068E-07  0.3623586E+04  0.7818609E-02  0.8085110E-01
       -1   -1    0    0    0  501  0.00000000000E+00  0.00000000000E+00  0.17839770466E+04  0.17839770467E+04  0.50400001928E-02 0.  1.
        1   -1    0    0  501    0  0.00000000000E+00  0.00000000000E+00 -0.18400423982E+04  0.18400423982E+04  0.50400001928E-02 0. -1.
    10030    2    1    2    0    0  0.00000000000E+00  0.00000000000E+00 -0.56065351509E+02  0.36240194448E+04  0.36235857397E+04 0.  0.
        5    1    3    3  502    0 -0.13991385354E+04 -0.10538625861E+04 -0.49107439835E+03  0.18191732041E+04  0.46999998093E+01 0. -1.
       -5    1    3    3    0  502  0.13991385354E+04  0.10538625861E+04  0.43500904684E+03  0.18048462407E+04  0.46999998093E+01 0.  1.
</event>
<event>
 5   0  0.6669864E-07  0.3592241E+04  0.7818609E-02  0.8092271E-01
        2   -1    0    0  501    0  0.00000000000E+00  0.00000000000E+00  0.12656664463E+04  0.12656664463E+04  0.25500000920E-02 0.  1.
       -2   -1    0    0    0  501  0.00000000000E+00  0.00000000000E+00 -0.25488933625E+04  0.25488933625E+04  0.25500000920E-02 0. -1.
    10030    2    1    2    0    0  0.00000000000E+00  0.00000000000E+00 -0.12832269163E+04  0.38145598088E+04  0.35922409742E+04 0.  0.
        5    1    3    3  502    0 -0.13789449042E+04  0.12037289822E+03  0.57379589935E+03  0.14984133300E+04  0.46999998093E+01 0.  1.
       -5    1    3    3    0  502  0.13789449042E+04 -0.12037289822E+03 -0.18570228156E+04  0.23161464788E+04  0.46999998093E+01 0. -1.
</event>
<event>
 5   0  0.2086250E-07  0.3590270E+04  0.7818609E-02  0.8092724E-01
        1   -1    0    0  501    0  0.00000000000E+00  0.00000000000E+00  0.19576838356E+04  0.19576838356E+04  0.50400001928E-02 0.  1.
       -1   -1    0    0    0  501  0.00000000000E+00  0.00000000000E+00 -0.16460825657E+04  0.16460825657E+04  0.50400001928E-02 0. -1.
    10030    2    1    2    0    0  0.00000000000E+00  0.00000000000E+00  0.31160126998E+03  0.36037664013E+04  0.35902697564E+04 0.  0.
        3    1    3    3  502    0  0.56079012461E+03  0.17033638522E+04  0.74407928867E+02  0.17948455440E+04  0.10100000352E+00 0. -1.
       -3    1    3    3    0  502 -0.56079012461E+03 -0.17033638522E+04  0.23719334111E+03  0.18089208573E+04  0.10100000352E+00 0.  1.
</event>
<event>
 5   0  0.2108068E-07  0.3632757E+04  0.7818609E-02  0.8083029E-01
        1   -1    0    0  501    0  0.00000000000E+00  0.00000000000E+00  0.10784926308E+04  0.10784926308E+04  0.50400001928E-02 0.  1.
       -1   -1    0    0    0  501  0.00000000000E+00  0.00000000000E+00 -0.30591133728E+04  0.30591133728E+04  0.50400001928E-02 0. -1.
    10030    2    1    2    0    0  0.00000000000E+00  0.00000000000E+00 -0.19806207420E+04  0.41376060036E+04  0.36327572059E+04 0.  0.
        5    1    3    3  502    0 -0.86711966867E+03  0.51784275651E+03  0.72917845392E+03  0.12457050004E+04  0.46999998093E+01 0.  1.
       -5    1    3    3    0  502  0.86711966867E+03 -0.51784275651E+03 -0.27097991959E+04  0.28919010032E+04  0.46999998093E+01 0. -1.
</event>
<event>
 5   0  0.2086250E-07  0.3647595E+04  0.7818609E-02  0.8079676E-01
       -1   -1    0    0    0  501  0.00000000000E+00  0.00000000000E+00  0.13404128897E+04  0.13404128897E+04  0.50400001928E-02 0. -1.
        1   -1    0    0  501    0  0.00000000000E+00  0.00000000000E+00 -0.24815017145E+04  0.24815017145E+04  0.50400001928E-02 0.  1.
    10030    2    1    2    0    0  0.00000000000E+00  0.00000000000E+00 -0.11410888248E+04  0.38219146043E+04  0.36475947604E+04 0.  0.
        4    1    3    3  502    0 -0.11540240219E+04  0.12743198553E+04  0.67294670866E+02  0.17205210613E+04  0.12699999809E+01 0. -1.
       -4    1    3    3    0  502  0.11540240219E+04 -0.12743198553E+04 -0.12083834957E+04  0.21013935429E+04  0.12699999809E+01 0.  1.
</event>
<event>
 5   0  0.2086250E-07  0.3492843E+04  0.7818609E-02  0.8115488E-01
       -1   -1    0    0    0  501  0.00000000000E+00  0.00000000000E+00  0.21226626619E+04  0.21226626619E+04  0.50400001928E-02 0.  1.
        1   -1    0    0  501    0  0.00000000000E+00  0.00000000000E+00 -0.14368692468E+04  0.14368692468E+04  0.50400001928E-02 0. -1.
    10030    2    1    2    0    0  0.00000000000E+00  0.00000000000E+00  0.68579341518E+03  0.35595319087E+04  0.34928433691E+04 0.  0.
        2    1    3    3  502    0 -0.13231564642E+04  0.68404044109E+03  0.12720805333E+04  0.19587861642E+04  0.25500000920E-02 0. -1.
       -2    1    3    3    0  502  0.13231564642E+04 -0.68404044109E+03 -0.58628711810E+03  0.16007457445E+04  0.25500000920E-02 0.  1.
</event>
<event>
 5   0  0.6324216E-07  0.3742310E+04  0.7818609E-02  0.8058650E-01
        2   -1    0    0  501    0  0.00000000000E+00  0.00000000000E+00  0.21703234410E+04  0.21703234410E+04  0.25500000920E-02 0.  1.
       -2   -1    0    0    0  501  0.00000000000E+00  0.00000000000E+00 -0.16132254666E+04  0.16132254666E+04  0.25500000920E-02 0. -1.
    10030    2    1    2    0    0  0.00000000000E+00  0.00000000000E+00  0.55709797440E+03  0.37835489076E+04  0.37423100063E+04 0.  0.
        2    1    3    3  502    0 -0.91709925217E+03 -0.73414678464E+03  0.17510249035E+04  0.21085850119E+04  0.25500000920E-02 0.  1.
       -2    1    3    3    0  502  0.91709925217E+03  0.73414678464E+03 -0.11939269291E+04  0.16749638957E+04  0.25500000920E-02 0. -1.
</event>
<event>
 5   0  0.6729577E-07  0.3610913E+04  0.7818609E-02  0.8087997E-01
       -2   -1    0    0    0  501  0.00000000000E+00  0.00000000000E+00  0.18453775134E+04  0.18453775134E+04  0.25500000920E-02 0.  1.
        2   -1    0    0  501    0  0.00000000000E+00  0.00000000000E+00 -0.17663986739E+04  0.17663986739E+04  0.25500000920E-02 0. -1.
    10030    2    1    2    0    0  0.00000000000E+00  0.00000000000E+00  0.78978839574E+02  0.36117761873E+04  0.36109125675E+04 0.  0.
        3    1    3    3  502    0  0.15773556336E+04  0.86037477417E+03 -0.13768802188E+03  0.18020137482E+04  0.10100000352E+00 0. -1.
       -3    1    3    3    0  502 -0.15773556336E+04 -0.86037477417E+03  0.21666686146E+03  0.18097624391E+04  0.10100000352E+00 0.  1.
</event>
<event>
 5   0  0.6541476E-07  0.3618861E+04  0.7818609E-02  0.8086185E-01
        2   -1    0    0  501    0  0.00000000000E+00  0.00000000000E+00  0.24771919609E+04  0.24771919609E+04  0.25500000920E-02 0. -1.
       -2   -1    0    0    0  501  0.00000000000E+00  0.00000000000E+00 -0.13216734353E+04  0.13216734353E+04  0.25500000920E-02 0.  1.
    10030    2    1    2    0    0  0.00000000000E+00  0.00000000000E+00  0.11555185256E+04  0.37988653962E+04  0.36188610412E+04 0.  0.
        4    1    3    3  502    0  0.10112911737E+04  0.10307870640E+04 -0.56679761804E+03  0.15512875175E+04  0.12699999809E+01 0.  1.
       -4    1    3    3    0  502 -0.10112911737E+04 -0.10307870640E+04  0.17223161436E+04  0.22475778787E+04  0.12699999809E+01 0. -1.
</event>
<event>
 5   0  0.2108068E-07  0.3608050E+04  0.7818609E-02  0.8088650E-01
       -1   -1    0    0    0  501  0.00000000000E+00  0.00000000000E+00  0.16627905388E+04  0.16627905388E+04  0.50400001928E-02 0. -1.
        1   -1    0    0  501    0  0.00000000000E+00  0.00000000000E+00 -0.19572558433E+04  0.19572558433E+04  0.50400001928E-02 0.  1.
    10030    2    1    2    0    0  0.00000000000E+00  0.00000000000E+00 -0.29446530445E+03  0.36200463821E+04  0.36080501650E+04 0.  0.
        5    1    3    3  502    0  0.47797313752E+03 -0.51531231267E+03 -0.18142258048E+04  0.19456213559E+04  0.46999998093E+01 0.  1.
       -5    1    3    3    0  502 -0.47797313752E+03  0.51531231267E+03  0.15197605004E+04  0.16744250262E+04  0.46999998093E+01 0. -1.
</event>
<event>
 5   0  0.6848661E-07  0.3599458E+04  0.7818609E-02  0.8090616E-01
       -2   -1    0    0    0  501  0.00000000000E+00  0.00000000000E+00  0.31028526278E+04  0.31028526278E+04  0.25500000920E-02 0. -1.
        2   -1    0    0  501    0  0.00000000000E+00  0.00000000000E+00 -0.10438858410E+04  0.10438858410E+04  0.25500000920E-02 0.  1.
    10030    2    1    2    0    0  0.00000000000E+00  0.00000000000E+00  0.20589667868E+04  0.41467384688E+04  0.35994576952E+04 0.  0.
        1    1    3    3  502    0  0.45329926063E+02  0.81902136176E+03 -0.81601022931E+03  0.11570321895E+04  0.50400001928E-02 0.  1.
       -1    1    3    3    0  502 -0.45329926063E+02 -0.81902136176E+03  0.28749770161E+04  0.29897062793E+04  0.50400001928E-02 0. -1.
</event>
<event>
 5   0  0.6669864E-07  0.4268322E+04  0.7818609E-02  0.7952502E-01
        2   -1    0    0  501    0  0.00000000000E+00  0.00000000000E+00  0.27854013229E+04  0.27854013229E+04  0.25500000920E-02 0. -1.
       -2   -1    0    0    0  501  0.00000000000E+00  0.00000000000E+00 -0.16351834664E+04  0.16351834664E+04  0.25500000920E-02 0.  1.
    10030    2    1    2    0    0  0.00000000000E+00  0.00000000000E+00  0.11502178565E+04  0.44205847894E+04  0.42683215393E+04 0.  0.
        5    1    3    3  502    0 -0.13118786542E+04 -0.11943433807E+04 -0.65343588359E+03  0.18906301220E+04  0.46999998093E+01 0.  1.
       -5    1    3    3    0  502  0.13118786542E+04  0.11943433807E+04  0.18036537401E+04  0.25299546673E+04  0.46999998093E+01 0. -1.
</event>
<event>
 5   0  0.2086250E-07  0.3583268E+04  0.7818609E-02  0.8094335E-01
        1   -1    0    0  501    0  0.00000000000E+00  0.00000000000E+00  0.17361191337E+04  0.17361191337E+04  0.50400001928E-02 0. -1.
       -1   -1    0    0    0  501  0.00000000000E+00  0.00000000000E+00 -0.18489241337E+04  0.18489241337E+04  0.50400001928E-02 0.  1.
    10030    2    1    2    0    0  0.00000000000E+00  0.00000000000E+00 -0.11280500005E+03  0.35850432674E+04  0.35832680979E+04 0.  0.
        4    1    3    3  502    0 -0.73289919234E+03 -0.15094686272E+04 -0.68465800323E+03  0.18122899759E+04  0.12699999809E+01 0. -1.
       -4    1    3    3    0  502  0.73289919234E+03  0.15094686272E+04  0.57185300318E+03  0.17727532915E+04  0.12699999809E+01 0.  1.
</event>
<event>
 5   0  0.2086250E-07  0.3605251E+04  0.7818609E-02  0.8089290E-01
       -1   -1    0    0    0  501  0.00000000000E+00  0.00000000000E+00  0.27825425436E+04  0.27825425436E+04  0.50400001928E-02 0.  1.
        1   -1    0    0  501    0  0.00000000000E+00  0.00000000000E+00 -0.11678019811E+04  0.11678019812E+04  0.50400001928E-02 0. -1.
    10030    2    1    2    0    0  0.00000000000E+00  0.00000000000E+00  0.16147405625E+04  0.39503445248E+04  0.36052510010E+04 0.  0.
        2    1    3    3  502    0 -0.13775125050E+04  0.91369504384E+03  0.15952829240E+04  0.22972389824E+04  0.25500000920E-02 0.  1.
       -2    1    3    3    0  502  0.13775125050E+04 -0.91369504384E+03  0.19457638514E+02  0.16531055424E+04  0.25500000920E-02 0. -1.
</event>
<event>
 5   0  0.2086250E-07  0.3593197E+04  0.7818609E-02  0.8092052E-01
       -1   -1    0    0    0  501  0.00000000000E+00  0.00000000000E+00  0.22353041071E+04  0.22353041071E+04  0.50400001928E-02 0. -1.
        1   -1    0    0  501    0  0.00000000000E+00  0.00000000000E+00 -0.14439942037E+04  0.14439942037E+04  0.50400001928E-02 0.  1.
    10030    2    1    2    0    0  0.00000000000E+00  0.00000000000E+00  0.79130990341E+03  0.36792983107E+04  0.35931970021E+04 0.  0.
        2    1    3    3  502    0  0.91547602270E+03 -0.12725949365E+04 -0.50296865258E+03  0.16463813914E+04  0.25500000920E-02 0.  1.
       -2    1    3    3    0  502 -0.91547602270E+03  0.12725949365E+04  0.12942785560E+04  0.20329169193E+04  0.25500000920E-02 0. -1.
</event>
<event>
 5   0  0.2108068E-07  0.3263110E+04  0.7818609E-02  0.8172346E-01
       -1   -1    0    0    0  501  0.00000000000E+00  0.00000000000E+00  0.15257484402E+04  0.15257484402E+04  0.50400001928E-02 0.  1.
        1   -1    0    0  501    0  0.00000000000E+00  0.00000000000E+00 -0.17446988549E+04  0.17446988549E+04  0.50400001928E-02 0. -1.
    10030    2    1    2    0    0  0.00000000000E+00  0.00000000000E+00 -0.21895041475E+03  0.32704472951E+04  0.32631099009E+04 0.  0.
        5    1    3    3  502    0 -0.85789763664E+03  0.80184060567E+03 -0.12447237173E+04  0.17112264415E+04  0.46999998093E+01 0. -1.
       -5    1    3    3    0  502  0.85789763664E+03 -0.80184060567E+03  0.10257733025E+04  0.15592208535E+04  0.46999998093E+01 0.  1.
</event>
<event>
 5   0  0.2086250E-07  0.3621901E+04  0.7818609E-02  0.8085493E-01
       -1   -1    0    0    0  501  0.00000000000E+00  0.00000000000E+00  0.14934391584E+04  0.14934391584E+04  0.50400001928E-02 0.  1.
        1   -1    0    0  501    0  0.00000000000E+00  0.00000000000E+00 -0.21959662866E+04  0.21959662866E+04  0.50400001928E-02 0. -1.
    10030    2    1    2    0    0  0.00000000000E+00  0.00000000000E+00 -0.70252712825E+03  0.36894054450E+04  0.36219011820E+04 0.  0.
        2    1    3    3  502    0 -0.73499674361E+03 -0.87052898761E+02  0.13323396890E+04  0.15241153064E+04  0.25500000920E-02 0.  1.
       -2    1    3    3    0  502  0.73499674361E+03  0.87052898761E+02 -0.20348668173E+04  0.21652901386E+04  0.25500000920E-02 0. -1.
</event>
<event>
 5   0  0.6324216E-07  0.3611286E+04  0.7818609E-02  0.8087911E-01
       -2   -1    0    0    0  501  0.00000000000E+00  0.00000000000E+00  0.15768367897E+04  0.15768367897E+04  0.25500000920E-02 0.  1.
        2   -1    0    0  501    0  0.00000000000E+00  0.00000000000E+00 -0.20676495393E+04  0.20676495393E+04  0.25500000920E-02 0. -1.
    10030    2    1    2    0    0  0.00000000000E+00  0.00000000000E+00 -0.49081274959E+03  0.36444863289E+04  0.36112855670E+04 0.  0.
        2    1    3    3  502    0 -0.38071679843E+03 -0.16891215295E+03  0.15276951842E+04  0.15834548215E+04  0.25500000920E-02 0.  1.
       -2    1    3    3    0  502  0.38071679843E+03  0.16891215295E+03 -0.20185079337E+04  0.20610315074E+04  0.25500000920E-02 0. -1.
</event>
<event>
 5   0  0.6324216E-07  0.3613371E+04  0.7818609E-02  0.8087436E-01
       -2   -1    0    0    0  501  0.00000000000E+00  0.00000000000E+00  0.15246858488E+04  0.15246858488E+04  0.25500000920E-02 0.  1.
        2   -1    0    0  501    0  0.00000000000E+00  0.00000000000E+00 -0.21408420616E+04  0.21408420616E+04  0.25500000920E-02 0. -1.
    10030    2    1    2    0    0  0.00000000000E+00  0.00000000000E+00 -0.61615621280E+03  0.36655279105E+04  0.36133705019E+04 0.  0.
        2    1    3    3  502    0  0.61583624879E+03 -0.36145291535E+02 -0.20306915867E+04  0.21223263386E+04  0.25500000920E-02 0. -1.
       -2    1    3    3    0  502 -0.61583624879E+03  0.36145291535E+02  0.14145353739E+04  0.15432015718E+04  0.25500000920E-02 0.  1.
</event>
<event>
 5   0  0.6729577E-07  0.3508117E+04  0.7818609E-02  0.8111869E-01
       -2   -1    0    0    0  501  0.00000000000E+00  0.00000000000E+00  0.16041983943E+04  0.16041983943E+04  0.25500000920E-02 0.  1.
        2   -1    0    0  501    0  0.00000000000E+00  0.00000000000E+00 -0.19179180791E+04  0.19179180791E+04  0.25500000920E-02 0. -1.
    10030    2    1    2    0    0  0.00000000000E+00  0.00000000000E+00 -0.31371968482E+03  0.35221164734E+04  0.35081169324E+04 0.  0.
        3    1    3    3  502    0  0.19531562302E+03 -0.31858266118E+03  0.15637697664E+04  0.16077994269E+04  0.10100000352E+00 0.  1.
       -3    1    3    3    0  502 -0.19531562302E+03  0.31858266118E+03 -0.18774894513E+04  0.19143170465E+04  0.10100000352E+00 0. -1.
</event>
<event>
 5   0  0.2193129E-07  0.3582633E+04  0.7818609E-02  0.8094481E-01
       -1   -1    0    0    0  501  0.00000000000E+00  0.00000000000E+00  0.21671282030E+04  0.21671282030E+04  0.50400001928E-02 0. -1.
        1   -1    0    0  501    0  0.00000000000E+00  0.00000000000E+00 -0.14806761610E+04  0.14806761610E+04  0.50400001928E-02 0.  1.
    10030    2    1    2    0    0  0.00000000000E+00  0.00000000000E+00  0.68645204200E+03  0.36478043639E+04  0.35826331478E+04 0.  0.
        1    1    3    3  502    0 -0.15087273913E+04 -0.90820967771E+03  0.90609460911E+01  0.17610182455E+04  0.50400001928E-02 0. -1.
       -1    1    3    3    0  502  0.15087273913E+04  0.90820967771E+03  0.67739109591E+03  0.18867861185E+04  0.50400001928E-02 0.  1.
</event>
<event>
 5   0  0.2086250E-07  0.3571888E+04  0.7818609E-02  0.8096962E-01
       -1   -1    0    0    0  501  0.00000000000E+00  0.00000000000E+00  0.12483114425E+04  0.12483114425E+04  0.50400001928E-02 0. -1.
        1   -1    0    0  501    0  0.00000000000E+00  0.00000000000E+00 -0.25551284909E+04  0.25551284909E+04  0.50400001928E-02 0.  1.
    10030    2    1    2    0    0  0.00000000000E+00  0.00000000000E+00 -0.13068170484E+04  0.38034399334E+04  0.35718880902E+04 0.  0.
        2    1    3    3  502    0  0.55085486057E+02  0.11564449364E+04 -0.21014142810E+04  0.23992376461E+04  0.25500000920E-02 0.  1.
       -2    1    3    3    0  502 -0.55085486057E+02 -0.11564449364E+04  0.79459723259E+03  0.14042022874E+04  0.25500000920E-02 0. -1.
</event>
<event>
 5   0  0.2086250E-07  0.3618775E+04  0.7818609E-02  0.8086204E-01
        1   -1    0    0  501    0  0.00000000000E+00  0.00000000000E+00  0.20352720405E+04  0.20352720405E+04  0.50400001928E-02 0. -1.
       -1   -1    0    0    0  501  0.00000000000E+00  0.00000000000E+00 -0.16085729697E+04  0.16085729698E+04  0.50400001928E-02 0.  1.
    10030    2    1    2    0    0  0.00000000000E+00  0.00000000000E+00  0.42669907080E+03  0.36438450103E+04  0.36187752572E+04 0.  0.
        2    1    3    3  502    0 -0.50461502528E+03  0.10618133730E+04 -0.11716060680E+04  0.16597423720E+04  0.25500000920E-02 0.  1.
       -2    1    3    3    0  502  0.50461502528E+03 -0.10618133730E+04  0.15983051387E+04  0.19841026383E+04  0.25500000920E-02 0. -1.
</event>
<event>
 5   0  0.6729577E-07  0.3598515E+04  0.7818609E-02  0.8090832E-01
       -2   -1    0    0    0  501  0.00000000000E+00  0.00000000000E+00  0.15651578579E+04  0.15651578579E+04  0.25500000920E-02 0.  1.
        2   -1    0    0  501    0  0.00000000000E+00  0.00000000000E+00 -0.20683706997E+04  0.20683706997E+04  0.25500000920E-02 0. -1.
    10030    2    1    2    0    0  0.00000000000E+00  0.00000000000E+00 -0.50321284179E+03  0.36335285576E+04  0.35985145011E+04 0.  0.
        3    1    3    3  502    0  0.27893416824E+03  0.10591385442E+04 -0.16929932514E+04  0.20163841116E+04  0.10100000352E+00 0. -1.
       -3    1    3    3    0  502 -0.27893416824E+03 -0.10591385442E+04  0.11897804096E+04  0.16171444460E+04  0.10100000352E+00 0.  1.
</event>
<event>
 5   0  0.6324216E-07  0.3630569E+04  0.7818609E-02  0.8083525E-01
        2   -1    0    0  501    0  0.00000000000E+00  0.00000000000E+00  0.14290733536E+04  0.14290733536E+04  0.25500000920E-02 0.  1.
       -2   -1    0    0    0  501  0.00000000000E+00  0.00000000000E+00 -0.23058698677E+04  0.23058698677E+04  0.25500000920E-02 0. -1.
    10030    2    1    2    0    0  0.00000000000E+00  0.00000000000E+00 -0.87679651410E+03  0.37349432213E+04  0.36305686524E+04 0.  0.
        2    1    3    3  502    0  0.39522732248E+03  0.26752277105E+03  0.13633765567E+04  0.14444960037E+04  0.25500000920E-02 0.  1.
       -2    1    3    3    0  502 -0.39522732248E+03 -0.26752277105E+03 -0.22401730708E+04  0.22904472176E+04  0.25500000920E-02 0. -1.
</event>
<event>
 5   0  0.6324216E-07  0.3619418E+04  0.7818609E-02  0.8086058E-01
       -2   -1    0    0    0  501  0.00000000000E+00  0.00000000000E+00  0.19638167311E+04  0.19638167311E+04  0.25500000920E-02 0. -1.
        2   -1    0    0  501    0  0.00000000000E+00  0.00000000000E+00 -0.16676942628E+04  0.16676942628E+04  0.25500000920E-02 0.  1.
    10030    2    1    2    0    0  0.00000000000E+00  0.00000000000E+00  0.29612246827E+03  0.36315109940E+04  0.36194175751E+04 0.  0.
        2    1    3    3  502    0  0.17355377372E+04  0.39494838060E+03 -0.18009492020E+03  0.17889968253E+04  0.25500000920E-02 0.  1.
       -2    1    3    3    0  502 -0.17355377372E+04 -0.39494838060E+03  0.47621738847E+03  0.18425141687E+04  0.25500000920E-02 0. -1.
</event>
<event>
 5   0  0.2086250E-07  0.3578754E+04  0.7818609E-02  0.8095376E-01
       -1   -1    0    0    0  501  0.00000000000E+00  0.00000000000E+00  0.14884142558E+04  0.14884142558E+04  0.50400001928E-02 0.  1.
        1   -1    0    0  501    0  0.00000000000E+00  0.00000000000E+00 -0.21511954598E+04  0.21511954599E+04  0.50400001928E-02 0. -1.
    10030    2    1    2    0    0  0.00000000000E+00  0.00000000000E+00 -0.66278120404E+03  0.36396097157E+04  0.35787539672E+04 0.  0.
        4    1    3    3  502    0 -0.10946682617E+03 -0.15674642926E+04 -0.12020684711E+04  0.19783572773E+04  0.12699999809E+01 0. -1.
       -4    1    3    3    0  502  0.10946682617E+03  0.15674642926E+04  0.53928726710E+03  0.16612524383E+04  0.12699999809E+01 0.  1.
</event>
<event>
 5   0  0.2086250E-07  0.3627676E+04  0.7818609E-02  0.8084181E-01
        3   -1    0    0  501    0  0.00000000000E+00  0.00000000000E+00  0.21904194564E+04  0.21904194587E+04  0.10100000352E+00 0.  1.
       -3   -1    0    0    0  501  0.00000000000E+00  0.00000000000E+00 -0.15019990432E+04  0.15019990466E+04  0.10100000352E+00 0. -1.
    10030    2    1    2    0    0  0.00000000000E+00  0.00000000000E+00  0.68842041321E+03  0.36924185053E+04  0.36276758059E+04 0.  0.
        5    1    3    3  502    0 -0.50605538032E+03  0.57589114286E+03  0.20173979167E+04  0.21581610460E+04  0.46999998093E+01 0.  1.
       -5    1    3    3    0  502  0.50605538032E+03 -0.57589114286E+03 -0.13289775035E+04  0.15342574592E+04  0.46999998093E+01 0. -1.
</event>
<event>
 5   0  0.6848661E-07  0.3296591E+04  0.7818609E-02  0.8163763E-01
        2   -1    0    0  501    0  0.00000000000E+00  0.00000000000E+00  0.12664514728E+04  0.12664514728E+04  0.25500000920E-02 0. -1.
       -2   -1    0    0    0  501  0.00000000000E+00  0.00000000000E+00 -0.21452686846E+04  0.21452686846E+04  0.25500000920E-02 0.  1.
    10030    2    1    2    0    0  0.00000000000E+00  0.00000000000E+00 -0.87881721180E+03  0.34117201574E+04  0.32965913821E+04 0.  0.
        1    1    3    3  502    0  0.12402119715E+04  0.34008385411E+03 -0.15064825337E+04  0.19807252173E+04  0.50400001928E-02 0.  1.
       -1    1    3    3    0  502 -0.12402119715E+04 -0.34008385411E+03  0.62766532194E+03  0.14309949401E+04  0.50400001928E-02 0. -1.
</event>
<event>
 5   0  0.6729577E-07  0.3538208E+04  0.7818609E-02  0.8104794E-01
        2   -1    0    0  501    0  0.00000000000E+00  0.00000000000E+00  0.22104339449E+04  0.22104339449E+04  0.25500000920E-02 0.  1.
       -2   -1    0    0    0  501  0.00000000000E+00  0.00000000000E+00 -0.14158888279E+04  0.14158888279E+04  0.25500000920E-02 0. -1.
    10030    2    1    2    0    0  0.00000000000E+00  0.00000000000E+00  0.79454511697E+03  0.36263227728E+04  0.35382078670E+04 0.  0.
        3    1    3    3  502    0  0.78759658064E+03  0.88231571354E+03 -0.95114387234E+03  0.15177167286E+04  0.10100000352E+00 0. -1.
       -3    1    3    3    0  502 -0.78759658064E+03 -0.88231571354E+03  0.17456889893E+04  0.21086060442E+04  0.10100000352E+00 0.  1.
</event>
<event>
 5   0  0.2086250E-07  0.3587207E+04  0.7818609E-02  0.8093428E-01
        1   -1    0    0  501    0  0.00000000000E+00  0.00000000000E+00  0.16085225688E+04  0.16085225688E+04  0.50400001928E-02 0. -1.
       -1   -1    0    0    0  501  0.00000000000E+00  0.00000000000E+00 -0.19999799693E+04  0.19999799693E+04  0.50400001928E-02 0.  1.
    10030    2    1    2    0    0  0.00000000000E+00  0.00000000000E+00 -0.39145740043E+03  0.36085025381E+04  0.35872066669E+04 0.  0.
        2    1    3    3  502    0  0.37108297841E+03 -0.45986843849E+03 -0.18992494262E+04  0.19890525233E+04  0.25500000920E-02 0.  1.
       -2    1    3    3    0  502 -0.37108297841E+03  0.45986843849E+03  0.15077920258E+04  0.16194500148E+04  0.25500000920E-02 0. -1.
</event>
<event>
 5   0  0.6729577E-07  0.3486917E+04  0.7818609E-02  0.8116897E-01
        2   -1    0    0  501    0  0.00000000000E+00  0.00000000000E+00  0.16594183453E+04  0.16594183453E+04  0.25500000920E-02 0. -1.
       -2   -1    0    0    0  501  0.00000000000E+00  0.00000000000E+00 -0.18317546151E+04  0.18317546151E+04  0.25500000920E-02 0.  1.
    10030    2    1    2    0    0  0.00000000000E+00  0.00000000000E+00 -0.17233626978E+03  0.34911729604E+04  0.34869168114E+04 0.  0.
        3    1    3    3  502    0  0.90292837233E+03  0.13213668208E+04 -0.77864612378E+03  0.17797695685E+04  0.10100000352E+00 0.  1.
       -3    1    3    3    0  502 -0.90292837233E+03 -0.13213668208E+04  0.60630985401E+03  0.17114033919E+04  0.10100000352E+00 0. -1.
</event>
<event>
 5   0  0.6324216E-07  0.3650439E+04  0.7818609E-02  0.8079035E-01
        2   -1    0    0  501    0  0.00000000000E+00  0.00000000000E+00  0.31483116860E+04  0.31483116860E+04  0.25500000920E-02 0.  1.
       -2   -1    0    0    0  501  0.00000000000E+00  0.00000000000E+00 -0.10581629170E+04  0.10581629170E+04  0.25500000920E-02 0. -1.
    10030    2    1    2    0    0  0.00000000000E+00  0.00000000000E+00  0.20901487690E+04  0.42064746030E+04  0.36504392488E+04 0.  0.
        2    1    3    3  502    0  0.12665092905E+04  0.37047251416E+03  0.24981546331E+04  0.28252561366E+04  0.25500000920E-02 0.  1.
       -2    1    3    3    0  502 -0.12665092905E+04 -0.37047251416E+03 -0.40800586407E+03  0.13812184664E+04  0.25500000920E-02 0. -1.
</event>
<event>
 5   0  0.6669864E-07  0.3594220E+04  0.7818609E-02  0.8091817E-01
       -2   -1    0    0    0  501  0.00000000000E+00  0.00000000000E+00  0.17642102864E+04  0.17642102864E+04  0.25500000920E-02 0.  1.
        2   -1    0    0  501    0  0.00000000000E+00  0.00000000000E+00 -0.18306227678E+04  0.18306227678E+04  0.25500000920E-02 0. -1.
    10030    2    1    2    0    0  0.00000000000E+00  0.00000000000E+00 -0.66412481350E+02  0.35948330542E+04  0.35942195356E+04 0.  0.
        5    1    3    3  502    0  0.12459446716E+04 -0.64954642106E+03 -0.11537959662E+04  0.18181187804E+04  0.46999998093E+01 0. -1.
       -5    1    3    3    0  502 -0.12459446716E+04  0.64954642106E+03  0.10873834848E+04  0.17767142739E+04  0.46999998093E+01 0.  1.
</event>
<event>
 5   0  0.2108068E-07  0.3439447E+04  0.7818609E-02  0.8128292E-01
       -1   -1    0    0    0  501  0.00000000000E+00  0.00000000000E+00  0.12927924436E+04  0.12927924437E+04  0.50400001928E-02 0. -1.
        1   -1    0    0  501    0  0.00000000000E+00  0.00000000000E+00 -0.22876444774E+04  0.22876444774E+04  0.50400001928E-02 0.  1.
    10030    2    1    2    0    0  0.00000000000E+00  0.00000000000E+00 -0.99485203377E+03  0.35804369211E+04  0.34394473359E+04 0.  0.
        5    1    3    3  502    0  0.13614798621E+04  0.79488651595E+03 -0.12125771811E+04  0.19889287313E+04  0.46999998093E+01 0. -1.
       -5    1    3    3    0  502 -0.13614798621E+04 -0.79488651595E+03  0.21772514731E+03  0.15915081897E+04  0.46999998093E+01 0.  1.
</event>
<event>
 5   0  0.2108068E-07  0.3625266E+04  0.7818609E-02  0.8084729E-01
       -1   -1    0    0    0  501  0.00000000000E+00  0.00000000000E+00  0.16671487611E+04  0.16671487612E+04  0.50400001928E-02 0. -1.
        1   -1    0    0  501    0  0.00000000000E+00  0.00000000000E+00 -0.19708130775E+04  0.19708130775E+04  0.50400001928E-02 0.  1.
    10030    2    1    2    0    0  0.00000000000E+00  0.00000000000E+00 -0.30366431638E+03  0.36379618387E+04  0.36252661037E+04 0.  0.
        5    1    3    3  502    0  0.86839376248E+03  0.87437418164E+03  0.11821004467E+04  0.17076362295E+04  0.46999998093E+01 0. -1.
       -5    1    3    3    0  502 -0.86839376248E+03 -0.87437418164E+03 -0.14857647631E+04  0.19303256092E+04  0.46999998093E+01 0.  1.
</event>
<event>
 5   0  0.6848661E-07  0.3631775E+04  0.7818609E-02  0.8083252E-01
        2   -1    0    0  501    0  0.00000000000E+00  0.00000000000E+00  0.16737436648E+04  0.16737436648E+04  0.25500000920E-02 0.  1.
       -2   -1    0    0    0  501  0.00000000000E+00  0.00000000000E+00 -0.19701032085E+04  0.19701032085E+04  0.25500000920E-02 0. -1.
    10030    2    1    2    0    0  0.00000000000E+00  0.00000000000E+00 -0.29635954370E+03  0.36438468733E+04  0.36317751936E+04 0.  0.
        1    1    3    3  502    0 -0.12056166249E+04  0.86515663504E+03 -0.11982915274E+04  0.19073306043E+04  0.50400001928E-02 0. -1.
       -1    1    3    3    0  502  0.12056166249E+04 -0.86515663504E+03  0.90193198371E+03  0.17365162690E+04  0.50400001928E-02 0.  1.
</event>
<event>
 5   0  0.2086250E-07  0.3812973E+04  0.7818609E-02  0.8043377E-01
        1   -1    0    0  501    0  0.00000000000E+00  0.00000000000E+00  0.21013619664E+04  0.21013619664E+04  0.50400001928E-02 0. -1.
       -1   -1    0    0    0  501  0.00000000000E+00  0.00000000000E+00 -0.17296829760E+04  0.17296829760E+04  0.50400001928E-02 0.  1.
    10030    2    1    2    0    0  0.00000000000E+00  0.00000000000E+00  0.37167899040E+03  0.38310449425E+04  0.38129726040E+04 0.  0.
        4    1    3    3  502    0  0.15184618037E+04 -0.82598542684E+03 -0.62215504863E+03  0.18371327366E+04  0.12699999809E+01 0.  1.
       -4    1    3    3    0  502 -0.15184618037E+04  0.82598542684E+03  0.99383403903E+03  0.19939122058E+04  0.12699999809E+01 0. -1.
</event>
<event>
 5   0  0.6324216E-07  0.3581206E+04  0.7818609E-02  0.8094810E-01
        2   -1    0    0  501    0  0.00000000000E+00  0.00000000000E+00  0.25283907027E+04  0.25283907027E+04  0.25500000920E-02 0.  1.
       -2   -1    0    0    0  501  0.00000000000E+00  0.00000000000E+00 -0.12681027803E+04  0.12681027803E+04  0.25500000920E-02 0. -1.
    10030    2    1    2    0    0  0.00000000000E+00  0.00000000000E+00  0.12602879224E+04  0.37964934829E+04  0.35812060983E+04 0.  0.
        2    1    3    3  502    0  0.13094187702E+04 -0.50146518981E+03 -0.55045319533E+03  0.15063344823E+04  0.25500000920E-02 0. -1.
       -2    1    3    3    0  502 -0.13094187702E+04  0.50146518981E+03  0.18107411178E+04  0.22901590006E+04  0.25500000920E-02 0.  1.
</event>
<event>
 5   0  0.2193129E-07  0.3590947E+04  0.7818609E-02  0.8092568E-01
       -1   -1    0    0    0  501  0.00000000000E+00  0.00000000000E+00  0.20491105144E+04  0.20491105144E+04  0.50400001928E-02 0. -1.
        1   -1    0    0  501    0  0.00000000000E+00  0.00000000000E+00 -0.15732318032E+04  0.15732318032E+04  0.50400001928E-02 0.  1.
    10030    2    1    2    0    0  0.00000000000E+00  0.00000000000E+00  0.47587871118E+03  0.36223423176E+04  0.35909474124E+04 0.  0.
        1    1    3    3  502    0 -0.84192129432E+03  0.44489830940E+03 -0.12975248586E+04  0.16094523075E+04  0.50400001928E-02 0.  1.
       -1    1    3    3    0  502  0.84192129432E+03 -0.44489830940E+03  0.17734035698E+04  0.20128900101E+04  0.50400001928E-02 0. -1.
</event>
<event>
 5   0  0.6541476E-07  0.3597712E+04  0.7818609E-02  0.8091016E-01
       -2   -1    0    0    0  501  0.00000000000E+00  0.00000000000E+00  0.23199259124E+04  0.23199259124E+04  0.25500000920E-02 0.  1.
        2   -1    0    0  501    0  0.00000000000E+00  0.00000000000E+00 -0.13948218025E+04  0.13948218025E+04  0.25500000920E-02 0. -1.
    10030    2    1    2    0    0  0.00000000000E+00  0.00000000000E+00  0.92510410985E+03  0.37147477149E+04  0.35977121857E+04 0.  0.
        4    1    3    3  502    0 -0.64181416277E+03 -0.42602807462E+03  0.21409958896E+04  0.22753659820E+04  0.12699999809E+01 0.  1.
       -4    1    3    3    0  502  0.64181416277E+03  0.42602807462E+03 -0.12158917798E+04  0.14393817329E+04  0.12699999809E+01 0. -1.
</event>
<event>
 5   0  0.2086250E-07  0.3466405E+04  0.7818609E-02  0.8121798E-01
       -1   -1    0    0    0  501  0.00000000000E+00  0.00000000000E+00  0.16743950551E+04  0.16743950551E+04  0.50400001928E-02 0. -1.
        1   -1    0    0  501    0  0.00000000000E+00  0.00000000000E+00 -0.17940755277E+04  0.17940755277E+04  0.50400001928E-02 0.  1.
    10030    2    1    2    0    0  0.00000000000E+00  0.00000000000E+00 -0.11968047257E+03  0.34684705829E+04  0.34664051651E+04 0.  0.
        4    1    3    3  502    0  0.49597812928E+03 -0.84578714164E+03  0.13702206985E+04  0.16848906698E+04  0.12699999809E+01 0. -1.
       -4    1    3    3    0  502 -0.49597812928E+03  0.84578714164E+03 -0.14899011711E+04  0.17835799130E+04  0.12699999809E+01 0.  1.
</event>
<event>
 5   0  0.6669864E-07  0.3619381E+04  0.7818609E-02  0.8086067E-01
       -2   -1    0    0    0  501  0.00000000000E+00  0.00000000000E+00  0.18017261892E+04  0.18017261892E+04  0.25500000920E-02 0.  1.
        2   -1    0    0  501    0  0.00000000000E+00  0.00000000000E+00 -0.18176903080E+04  0.18176903080E+04  0.25500000920E-02 0. -1.
    10030    2    1    2    0    0  0.00000000000E+00  0.00000000000E+00 -0.15964118761E+02  0.36194164972E+04  0.36193812907E+04 0.  0.
        5    1    3    3  502    0  0.82152846927E+03 -0.99016408528E+03  0.12646748894E+04  0.18040949552E+04  0.46999998093E+01 0.  1.
       -5    1    3    3    0  502 -0.82152846927E+03  0.99016408528E+03 -0.12806390082E+04  0.18153215420E+04  0.46999998093E+01 0. -1.
</event>
<event>
 5   0  0.2086250E-07  0.3596370E+04  0.7818609E-02  0.8091324E-01
        1   -1    0    0  501    0  0.00000000000E+00  0.00000000000E+00  0.24220026056E+04  0.24220026056E+04  0.50400001928E-02 0. -1.
       -1   -1    0    0    0  501  0.00000000000E+00  0.00000000000E+00 -0.13350394803E+04  0.13350394803E+04  0.50400001928E-02 0.  1.
    10030    2    1    2    0    0  0.00000000000E+00  0.00000000000E+00  0.10869631253E+04  0.37570420859E+04  0.35963698919E+04 0.  0.
        4    1    3    3  502    0  0.61210200595E+03  0.13470459174E+03 -0.12172405648E+04  0.13691203009E+04  0.12699999809E+01 0.  1.
       -4    1    3    3    0  502 -0.61210200595E+03 -0.13470459174E+03  0.23042036902E+04  0.23879217850E+04  0.12699999809E+01 0. -1.
</event>
<event>
 5   0  0.2108068E-07  0.3617279E+04  0.7818609E-02  0.8086545E-01
        1   -1    0    0  501    0  0.00000000000E+00  0.00000000000E+00  0.22433667737E+04  0.22433667737E+04  0.50400001928E-02 0. -1.
       -1   -1    0    0    0  501  0.00000000000E+00  0.00000000000E+00 -0.14581547679E+04  0.14581547679E+04  0.50400001928E-02 0.  1.
    10030    2    1    2    0    0  0.00000000000E+00  0.00000000000E+00  0.78521200583E+03  0.37015215417E+04  0.36172785114E+04 0.  0.
        5    1    3    3  502    0 -0.14866445073E+04 -0.69089529730E+03  0.11744053199E+04  0.20166056006E+04  0.46999998093E+01 0. -1.
       -5    1    3    3    0  502  0.14866445073E+04  0.69089529730E+03 -0.38919331406E+03  0.16849159411E+04  0.46999998093E+01 0.  1.
</event>
<event>
 5   0  0.6848661E-07  0.3590069E+04  0.7818609E-02  0.8092770E-01
        2   -1    0    0  501    0  0.00000000000E+00  0.00000000000E+00  0.20470480601E+04  0.20470480601E+04  0.25500000920E-02 0.  1.
       -2   -1    0    0    0  501  0.00000000000E+00  0.00000000000E+00 -0.15740463704E+04  0.15740463704E+04  0.25500000920E-02 0. -1.
    10030    2    1    2    0    0  0.00000000000E+00  0.00000000000E+00  0.47300168975E+03  0.36210944305E+04  0.35900688400E+04 0.  0.
        1    1    3    3  502    0 -0.12196611433E+04  0.88834324353E+03 -0.74422997179E+03  0.16824402734E+04  0.50400001928E-02 0. -1.
       -1    1    3    3    0  502  0.12196611433E+04 -0.88834324353E+03  0.12172316615E+04  0.19386541570E+04  0.50400001928E-02 0.  1.
</event>
<event>
 5   0  0.2108068E-07  0.3614853E+04  0.7818609E-02  0.8087098E-01
       -1   -1    0    0    0  501  0.00000000000E+00  0.00000000000E+00  0.13705795396E+04  0.13705795396E+04  0.50400001928E-02 0. -1.
        1   -1    0    0  501    0  0.00000000000E+00  0.00000000000E+00 -0.23835100742E+04  0.23835100742E+04  0.50400001928E-02 0.  1.
    10030    2    1    2    0    0  0.00000000000E+00  0.00000000000E+00 -0.10129305347E+04  0.37540896138E+04  0.36148527716E+04 0.  0.
        5    1    3    3  502    0  0.82151358067E+03 -0.12318694457E+04  0.56998312354E+03  0.15865969071E+04  0.46999998093E+01 0. -1.
       -5    1    3    3    0  502 -0.82151358067E+03  0.12318694457E+04 -0.15829136582E+04  0.21674927067E+04  0.46999998093E+01 0.  1.
</event>
<event>
 5   0  0.6848661E-07  0.3542698E+04  0.7818609E-02  0.8103745E-01
        2   -1    0    0  501    0  0.00000000000E+00  0.00000000000E+00  0.16573054606E+04  0.16573054606E+04  0.25500000920E-02 0.  1.
       -2   -1    0    0    0  501  0.00000000000E+00  0.00000000000E+00 -0.18932406167E+04  0.18932406167E+04  0.25500000920E-02 0. -1.
    10030    2    1    2    0    0  0.00000000000E+00  0.00000000000E+00 -0.23593515612E+03  0.35505460772E+04  0.35426984135E+04 0.  0.
        1    1    3    3  502    0  0.99433388185E+03  0.63557322640E+03 -0.14418876732E+04  0.18632480395E+04  0.50400001928E-02 0. -1.
       -1    1    3    3    0  502 -0.99433388185E+03 -0.63557322640E+03  0.12059525170E+04  0.16872980377E+04  0.50400001928E-02 0.  1.
</event>
<event>
 5   0  0.2086250E-07  0.3567284E+04  0.7818609E-02  0.8098027E-01
        1   -1    0    0  501    0  0.00000000000E+00  0.00000000000E+00  0.18479133126E+04  0.18479133126E+04  0.50400001928E-02 0. -1.
       -1   -1    0    0    0  501  0.00000000000E+00  0.00000000000E+00 -0.17216058613E+04  0.17216058613E+04  0.50400001928E-02 0.  1.
    10030    2    1    2    0    0  0.00000000000E+00  0.00000000000E+00  0.12630745135E+03  0.35695191739E+04  0.35672837791E+04 0.  0.
        3    1    3    3  502    0 -0.90992989874E+02 -0.14993671432E+04  0.10255239585E+04  0.18188130618E+04  0.10100000352E+00 0. -1.
       -3    1    3    3    0  502  0.90992989874E+02  0.14993671432E+04 -0.89921650710E+03  0.17507061121E+04  0.10100000352E+00 0.  1.
</event>
<event>
 5   0  0.2108068E-07  0.2952460E+04  0.7818609E-02  0.8257438E-01
        1   -1    0    0  501    0  0.00000000000E+00  0.00000000000E+00  0.20067248212E+04  0.20067248212E+04  0.50400001928E-02 0.  1.
       -1   -1    0    0    0  501  0.00000000000E+00  0.00000000000E+00 -0.10859762110E+04  0.10859762110E+04  0.50400001928E-02 0. -1.
    10030    2    1    2    0    0  0.00000000000E+00  0.00000000000E+00  0.92074861018E+03  0.30927010322E+04  0.29524602743E+04 0.  0.
        5    1    3    3  502    0 -0.51437916245E+03  0.94241815320E+03  0.15216601859E+04  0.18623129999E+04  0.46999998093E+01 0.  1.
       -5    1    3    3    0  502  0.51437916245E+03 -0.94241815320E+03 -0.60091157571E+03  0.12303880323E+04  0.46999998093E+01 0. -1.
</event>
<event>
 5   0  0.6541476E-07  0.3708116E+04  0.7818609E-02  0.8066166E-01
        2   -1    0    0  501    0  0.00000000000E+00  0.00000000000E+00  0.25243863382E+04  0.25243863382E+04  0.25500000920E-02 0.  1.
       -2   -1    0    0    0  501  0.00000000000E+00  0.00000000000E+00 -0.13617297242E+04  0.13617297242E+04  0.25500000920E-02 0. -1.
    10030    2    1    2    0    0  0.00000000000E+00  0.00000000000E+00  0.11626566139E+04  0.38861160624E+04  0.37081164556E+04 0.  0.
        4    1    3    3  502    0 -0.52605418019E+03  0.94462773665E+03  0.21597733712E+04  0.24153006416E+04  0.12699999809E+01 0.  1.
       -4    1    3    3    0  502  0.52605418019E+03 -0.94462773665E+03 -0.99711675730E+03  0.14708154208E+04  0.12699999809E+01 0. -1.
</event>
<event>
 5   0  0.6324216E-07  0.3594950E+04  0.7818609E-02  0.8091649E-01
        2   -1    0    0  501    0  0.00000000000E+00  0.00000000000E+00  0.15381473233E+04  0.15381473233E+04  0.25500000920E-02 0.  1.
       -2   -1    0    0    0  501  0.00000000000E+00  0.00000000000E+00 -0.21005245026E+04  0.21005245026E+04  0.25500000920E-02 0. -1.
    10030    2    1    2    0    0  0.00000000000E+00  0.00000000000E+00 -0.56237717932E+03  0.36386718260E+04  0.35949498697E+04 0.  0.
        2    1    3    3  502    0 -0.57626111266E+03  0.15079116897E+04 -0.10813995830E+04  0.19430130190E+04  0.25500000920E-02 0. -1.
       -2    1    3    3    0  502  0.57626111266E+03 -0.15079116897E+04  0.51902240367E+03  0.16956588069E+04  0.25500000920E-02 0.  1.
</event>
<event>
 5   0  0.2086250E-07  0.3596415E+04  0.7818609E-02  0.8091313E-01
        1   -1    0    0  501    0  0.00000000000E+00  0.00000000000E+00  0.21058383557E+04  0.21058383558E+04  0.50400001928E-02 0. -1.
       -1   -1    0    0    0  501  0.00000000000E+00  0.00000000000E+00 -0.15355172443E+04  0.15355172444E+04  0.50400001928E-02 0.  1.
    10030    2    1    2    0    0  0.00000000000E+00  0.00000000000E+00  0.57032111140E+03  0.36413556001E+04  0.35964154983E+04 0.  0.
        4    1    3    3  502    0 -0.70088064927E+03 -0.49304779587E+03 -0.13154860138E+04  0.15699792606E+04  0.12699999809E+01 0.  1.
       -4    1    3    3    0  502  0.70088064927E+03  0.49304779587E+03  0.18858071252E+04  0.20713763395E+04  0.12699999809E+01 0. -1.
</event>
<event>
 5   0  0.6669864E-07  0.3617633E+04  0.7818609E-02  0.8086465E-01
        2   -1    0    0  501    0  0.00000000000E+00  0.00000000000E+00  0.24488053894E+04  0.24488053894E+04  0.25500000920E-02 0. -1.
       -2   -1    0    0    0  501  0.00000000000E+00  0.00000000000E+00 -0.13360868329E+04  0.13360868329E+04  0.25500000920E-02 0.  1.
    10030    2    1    2    0    0  0.00000000000E+00  0.00000000000E+00  0.11127185565E+04  0.37848922223E+04  0.36176327271E+04 0.  0.
        5    1    3    3  502    0 -0.15693945927E+04 -0.39934281675E+01 -0.38454194529E+03  0.16158310347E+04  0.46999998093E+01 0.  1.
       -5    1    3    3    0  502  0.15693945927E+04  0.39934281675E+01  0.14972605018E+04  0.21690611876E+04  0.46999998093E+01 0. -1.
</event>
<event>
 5   0  0.2193129E-07  0.3618742E+04  0.7818609E-02  0.8086212E-01
        1   -1    0    0  501    0  0.00000000000E+00  0.00000000000E+00  0.10108174302E+04  0.10108174302E+04  0.50400001928E-02 0. -1.
       -1   -1    0    0    0  501  0.00000000000E+00  0.00000000000E+00 -0.32387886067E+04  0.32387886067E+04  0.50400001928E-02 0.  1.
    10030    2    1    2    0    0  0.00000000000E+00  0.00000000000E+00 -0.22279711765E+04  0.42496060368E+04  0.36187423098E+04 0.  0.
        1    1    3    3  502    0  0.87358799615E+02  0.15613205594E+04 -0.21828670469E+04  0.26851931017E+04  0.50400001928E-02 0.  1.
       -1    1    3    3    0  502 -0.87358799615E+02 -0.15613205594E+04 -0.45104129631E+02  0.15644129351E+04  0.50400001928E-02 0. -1.
</event>
<event>
 5   0  0.6541476E-07  0.3469891E+04  0.7818609E-02  0.8120963E-01
        2   -1    0    0  501    0  0.00000000000E+00  0.00000000000E+00  0.22025154211E+04  0.22025154211E+04  0.25500000920E-02 0.  1.
       -2   -1    0    0    0  501  0.00000000000E+00  0.00000000000E+00 -0.13666357257E+04  0.13666357257E+04  0.25500000920E-02 0. -1.
    10030    2    1    2    0    0  0.00000000000E+00  0.00000000000E+00  0.83587969542E+03  0.35691511468E+04  0.34698912149E+04 0.  0.
        4    1    3    3  502    0 -0.46979418872E+03  0.11023766414E+04  0.17084587970E+04  0.20868095058E+04  0.12699999809E+01 0.  1.
       -4    1    3    3    0  502  0.46979418872E+03 -0.11023766414E+04 -0.87257910162E+03  0.14823416410E+04  0.12699999809E+01 0. -1.
</event>
<event>
 5   0  0.2086250E-07  0.3540007E+04  0.7818609E-02  0.8104374E-01
       -1   -1    0    0    0  501  0.00000000000E+00  0.00000000000E+00  0.20830845868E+04  0.20830845869E+04  0.50400001928E-02 0. -1.
        1   -1    0    0  501    0  0.00000000000E+00  0.00000000000E+00 -0.15039777953E+04  0.15039777953E+04  0.50400001928E-02 0.  1.
    10030    2    1    2    0    0  0.00000000000E+00  0.00000000000E+00  0.57910679151E+03  0.35870623822E+04  0.35400073245E+04 0.  0.
        2    1    3    3  502    0  0.14330975439E+04 -0.10084190654E+04  0.36767143659E+02  0.17527205723E+04  0.25500000920E-02 0. -1.
       -2    1    3    3    0  502 -0.14330975439E+04  0.10084190654E+04  0.54233964785E+03  0.18343418099E+04  0.25500000920E-02 0.  1.
</event>
<event>
 5   0  0.2086250E-07  0.3595239E+04  0.7818609E-02  0.8091583E-01
       -1   -1    0    0    0  501  0.00000000000E+00  0.00000000000E+00  0.10314118116E+04  0.10314118116E+04  0.50400001928E-02 0. -1.
        1   -1    0    0  501    0  0.00000000000E+00  0.00000000000E+00 -0.31330214702E+04  0.31330214702E+04  0.50400001928E-02 0.  1.
    10030    2    1    2    0    0  0.00000000000E+00  0.00000000000E+00 -0.21016096587E+04  0.41644332818E+04  0.35952387127E+04 0.  0.
        2    1    3    3  502    0  0.80666176816E+03  0.89168168232E+03 -0.25986397265E+04  0.28633420786E+04  0.25500000920E-02 0.  1.
       -2    1    3    3    0  502 -0.80666176816E+03 -0.89168168232E+03  0.49703006787E+03  0.13010912032E+04  0.25500000920E-02 0. -1.
</event>
<event>
 5   0  0.6324216E-07  0.3669428E+04  0.7818609E-02  0.8074771E-01
       -2   -1    0    0    0  501  0.00000000000E+00  0.00000000000E+00  0.14813546884E+04  0.14813546884E+04  0.25500000920E-02 0.  1.
        2   -1    0    0  501    0  0.00000000000E+00  0.00000000000E+00 -0.22723626526E+04  0.22723626526E+04  0.25500000920E-02 0. -1.
    10030    2    1    2    0    0  0.00000000000E+00  0.00000000000E+00 -0.79100796429E+03  0.37537173410E+04  0.36694277860E+04 0.  0.
        2    1    3    3  502    0  0.13558976969E+03 -0.60468227153E+01  0.14762121565E+04  0.14824383564E+04  0.25500000920E-02 0.  1.
       -2    1    3    3    0  502 -0.13558976969E+03  0.60468227153E+01 -0.22672201208E+04  0.22712789846E+04  0.25500000920E-02 0. -1.
</event>
<event>
 5   0  0.2108068E-07  0.3476183E+04  0.7818609E-02  0.8119458E-01
       -1   -1    0    0    0  501  0.00000000000E+00  0.00000000000E+00  0.11832488461E+04  0.11832488461E+04  0.50400001928E-02 0.  1.
        1   -1    0    0  501    0  0.00000000000E+00  0.00000000000E+00 -0.25531073619E+04  0.25531073619E+04  0.50400001928E-02 0. -1.
    10030    2    1    2    0    0  0.00000000000E+00  0.00000000000E+00 -0.13698585158E+04  0.37363562081E+04  0.34761825844E+04 0.  0.
        5    1    3    3  502    0  0.14326040108E+04 -0.36329122492E+03  0.29818905934E+03  0.15077378987E+04  0.46999998093E+01 0.  1.
       -5    1    3    3    0  502 -0.14326040108E+04  0.36329122492E+03 -0.16680475752E+04  0.22286183094E+04  0.46999998093E+01 0. -1.
</event>
<event>
 5   0  0.2193129E-07  0.3628253E+04  0.7818609E-02  0.8084050E-01
        1   -1    0    0  501    0  0.00000000000E+00  0.00000000000E+00  0.23429579754E+04  0.23429579754E+04  0.50400001928E-02 0. -1.
       -1   -1    0    0    0  501  0.00000000000E+00  0.00000000000E+00 -0.14046581426E+04  0.14046581426E+04  0.50400001928E-02 0.  1.
    10030    2    1    2    0    0  0.00000000000E+00  0.00000000000E+00  0.93829983285E+03  0.37476161180E+04  0.36282530220E+04 0.  0.
        1    1    3    3  502    0  0.49520354051E+02  0.17700990646E+04  0.87626388550E+03  0.19757381813E+04  0.50400001928E-02 0. -1.
       -1    1    3    3    0  502 -0.49520354051E+02 -0.17700990646E+04  0.62035947348E+02  0.17718779367E+04  0.50400001928E-02 0.  1.
</event>
<event>
 5   0  0.2108068E-07  0.3599243E+04  0.7818609E-02  0.8090665E-01
       -1   -1    0    0    0  501  0.00000000000E+00  0.00000000000E+00  0.23543027774E+04  0.23543027774E+04  0.50400001928E-02 0. -1.
        1   -1    0    0  501    0  0.00000000000E+00  0.00000000000E+00 -0.13756247149E+04  0.13756247149E+04  0.50400001928E-02 0.  1.
    10030    2    1    2    0    0  0.00000000000E+00  0.00000000000E+00  0.97867806249E+03  0.37299274923E+04  0.35992427465E+04 0.  0.
        5    1    3    3  502    0 -0.17995325483E+04  0.16090545176E+02  0.49578576608E+03  0.18666552745E+04  0.46999998093E+01 0.  1.
       -5    1    3    3    0  502  0.17995325483E+04 -0.16090545176E+02  0.48289229641E+03  0.18632722178E+04  0.46999998093E+01 0. -1.
</event>
<event>
 5   0  0.6324216E-07  0.3604133E+04  0.7818609E-02  0.8089546E-01
       -2   -1    0    0    0  501  0.00000000000E+00  0.00000000000E+00  0.18512945279E+04  0.18512945279E+04  0.25500000920E-02 0. -1.
        2   -1    0    0  501    0  0.00000000000E+00  0.00000000000E+00 -0.17541478550E+04  0.17541478550E+04  0.25500000920E-02 0.  1.
    10030    2    1    2    0    0  0.00000000000E+00  0.00000000000E+00  0.97146672955E+02  0.36054423829E+04  0.36041333633E+04 0.  0.
        2    1    3    3  502    0 -0.13723133402E+04  0.76810873745E+03  0.92878460428E+03  0.18264380026E+04  0.25500000920E-02 0. -1.
       -2    1    3    3    0  502  0.13723133402E+04 -0.76810873745E+03 -0.83163793132E+03  0.17790043803E+04  0.25500000920E-02 0.  1.
</event>
<event>
 5   0  0.6324216E-07  0.3592670E+04  0.7818609E-02  0.8092173E-01
        2   -1    0    0  501    0  0.00000000000E+00  0.00000000000E+00  0.19283663727E+04  0.19283663727E+04  0.25500000920E-02 0.  1.
       -2   -1    0    0    0  501  0.00000000000E+00  0.00000000000E+00 -0.16733435424E+04  0.16733435424E+04  0.25500000920E-02 0. -1.
    10030    2    1    2    0    0  0.00000000000E+00  0.00000000000E+00  0.25502283028E+03  0.36017099150E+04  0.35926699915E+04 0.  0.
        2    1    3    3  502    0 -0.15119300416E+04  0.76110658079E+03 -0.47533663588E+03  0.17581696720E+04  0.25500000920E-02 0. -1.
       -2    1    3    3    0  502  0.15119300416E+04 -0.76110658079E+03  0.73035946617E+03  0.18435402431E+04  0.25500000920E-02 0.  1.
</event>
<event>
 5   0  0.2193129E-07  0.3660656E+04  0.7818609E-02  0.8076737E-01
       -1   -1    0    0    0  501  0.00000000000E+00  0.00000000000E+00  0.11905535547E+04  0.11905535547E+04  0.50400001928E-02 0. -1.
        1   -1    0    0  501    0  0.00000000000E+00  0.00000000000E+00 -0.28139017083E+04  0.28139017083E+04  0.50400001928E-02 0.  1.
    10030    2    1    2    0    0  0.00000000000E+00  0.00000000000E+00 -0.16233481536E+04  0.40044552631E+04  0.36606560513E+04 0.  0.
        1    1    3    3  502    0 -0.15367916703E+04 -0.62293261456E+03 -0.16592497037E+04  0.23458225124E+04  0.50400001928E-02 0. -1.
       -1    1    3    3    0  502  0.15367916703E+04  0.62293261456E+03  0.35901550134E+02  0.16586327507E+04  0.50400001928E-02 0.  1.
</event>
<event>
 5   0  0.6729577E-07  0.3604953E+04  0.7818609E-02  0.8089358E-01
        2   -1    0    0  501    0  0.00000000000E+00  0.00000000000E+00  0.22092771588E+04  0.22092771588E+04  0.25500000920E-02 0. -1.
       -2   -1    0    0    0  501  0.00000000000E+00  0.00000000000E+00 -0.14705814152E+04  0.14705814152E+04  0.25500000920E-02 0.  1.
    10030    2    1    2    0    0  0.00000000000E+00  0.00000000000E+00  0.73869574362E+03  0.36798585740E+04  0.36049532207E+04 0.  0.
        3    1    3    3  502    0  0.43378921438E+03 -0.12126081103E+03  0.21509044836E+04  0.21975594132E+04  0.10100000352E+00 0. -1.
       -3    1    3    3    0  502 -0.43378921438E+03  0.12126081103E+03 -0.14122087400E+04  0.14822991608E+04  0.10100000352E+00 0.  1.
</event>
<event>
 5   0  0.6729577E-07  0.3558295E+04  0.7818609E-02  0.8100112E-01
       -2   -1    0    0    0  501  0.00000000000E+00  0.00000000000E+00  0.20936642020E+04  0.20936642020E+04  0.25500000920E-02 0. -1.
        2   -1    0    0  501    0  0.00000000000E+00  0.00000000000E+00 -0.15118781283E+04  0.15118781283E+04  0.25500000920E-02 0.  1.
    10030    2    1    2    0    0  0.00000000000E+00  0.00000000000E+00  0.58178607369E+03  0.36055423303E+04  0.35582946000E+04 0.  0.
        3    1    3    3  502    0 -0.12538243992E+04 -0.12621198899E+04  0.30965550327E+03  0.18057986547E+04  0.10100000352E+00 0. -1.
       -3    1    3    3    0  502  0.12538243992E+04  0.12621198899E+04  0.27213057042E+03  0.17997436756E+04  0.10100000352E+00 0.  1.
</event>
<event>
 5   0  0.6541476E-07  0.3612703E+04  0.7818609E-02  0.8087588E-01
       -2   -1    0    0    0  501  0.00000000000E+00  0.00000000000E+00  0.11321515391E+04  0.11321515391E+04  0.25500000920E-02 0. -1.
        2   -1    0    0  501    0  0.00000000000E+00  0.00000000000E+00 -0.28820399230E+04  0.28820399230E+04  0.25500000920E-02 0.  1.
    10030    2    1    2    0    0  0.00000000000E+00  0.00000000000E+00 -0.17498883839E+04  0.40141914621E+04  0.36127031068E+04 0.  0.
        4    1    3    3  502    0 -0.73574894223E+03  0.34964913155E+03 -0.26663581767E+04  0.27880187519E+04  0.12699999809E+01 0.  1.
       -4    1    3    3    0  502  0.73574894223E+03 -0.34964913155E+03  0.91646979284E+03  0.12261727102E+04  0.12699999809E+01 0. -1.
</event>
<event>
 5   0  0.2086250E-07  0.3604652E+04  0.7818609E-02  0.8089427E-01
        1   -1    0    0  501    0  0.00000000000E+00  0.00000000000E+00  0.14689791437E+04  0.14689791437E+04  0.50400001928E-02 0. -1.
       -1   -1    0    0    0  501  0.00000000000E+00  0.00000000000E+00 -0.22113172147E+04  0.22113172147E+04  0.50400001928E-02 0.  1.
    10030    2    1    2    0    0  0.00000000000E+00  0.00000000000E+00 -0.74233807098E+03  0.36802963584E+04  0.36046519213E+04 0.  0.
        4    1    3    3  502    0 -0.33119671541E+03 -0.53984678712E+03  0.13516210684E+04  0.14926509784E+04  0.12699999809E+01 0. -1.
       -4    1    3    3    0  502  0.33119671541E+03  0.53984678712E+03 -0.20939591394E+04  0.21876453799E+04  0.12699999809E+01 0.  1.
</event>
<event>
 5   0  0.2086250E-07  0.3573272E+04  0.7818609E-02  0.8096642E-01
       -1   -1    0    0    0  501  0.00000000000E+00  0.00000000000E+00  0.16509303369E+04  0.16509303369E+04  0.50400001928E-02 0.  1.
        1   -1    0    0  501    0  0.00000000000E+00  0.00000000000E+00 -0.19334965977E+04  0.19334965977E+04  0.50400001928E-02 0. -1.
    10030    2    1    2    0    0  0.00000000000E+00  0.00000000000E+00 -0.28256626072E+03  0.35844269346E+04  0.35732719961E+04 0.  0.
        4    1    3    3  502    0 -0.12019107834E+04 -0.11563854709E+04  0.50122375488E+03  0.17415635946E+04  0.12699999809E+01 0.  1.
       -4    1    3    3    0  502  0.12019107834E+04  0.11563854709E+04 -0.78379001560E+03  0.18428633400E+04  0.12699999809E+01 0. -1.
</event>
<event>
 5   0  0.6669864E-07  0.3757268E+04  0.7818609E-02  0.8055388E-01
        2   -1    0    0  501    0  0.00000000000E+00  0.00000000000E+00  0.26315070575E+04  0.26315070575E+04  0.25500000920E-02 0.  1.
       -2   -1    0    0    0  501  0.00000000000E+00  0.00000000000E+00 -0.13411573603E+04  0.13411573603E+04  0.25500000920E-02 0. -1.
    10030    2    1    2    0    0  0.00000000000E+00  0.00000000000E+00  0.12903496972E+04  0.39726644178E+04  0.37572676556E+04 0.  0.
        5    1    3    3  502    0 -0.13091294797E+04  0.11270284888E+04 -0.13555273381E+03  0.17327463296E+04  0.46999998093E+01 0. -1.
       -5    1    3    3    0  502  0.13091294797E+04 -0.11270284888E+04  0.14259024310E+04  0.22399180882E+04  0.46999998093E+01 0.  1.
</event>
<event>
 5   0  0.2086250E-07  0.3586125E+04  0.7818609E-02  0.8093677E-01
        1   -1    0    0  501    0  0.00000000000E+00  0.00000000000E+00  0.97962874691E+03  0.97962874693E+03  0.50400001928E-02 0. -1.
       -1   -1    0    0    0  501  0.00000000000E+00  0.00000000000E+00 -0.32819309929E+04  0.32819309930E+04  0.50400001928E-02 0.  1.
    10030    2    1    2    0    0  0.00000000000E+00  0.00000000000E+00 -0.23023022460E+04  0.42615597399E+04  0.35861254558E+04 0.  0.
        4    1    3    3  502    0  0.90978598470E+03 -0.62481841124E+03 -0.28304507546E+04  0.30380193666E+04  0.12699999809E+01 0.  1.
       -4    1    3    3    0  502 -0.90978598470E+03  0.62481841124E+03  0.52814850855E+03  0.12235403732E+04  0.12699999809E+01 0. -1.
</event>
<event>
 5   0  0.6729577E-07  0.3632886E+04  0.7818609E-02  0.8083000E-01
       -2   -1    0    0    0  501  0.00000000000E+00  0.00000000000E+00  0.17142684124E+04  0.17142684124E+04  0.25500000920E-02 0.  1.
        2   -1    0    0  501    0  0.00000000000E+00  0.00000000000E+00 -0.19247073180E+04  0.19247073180E+04  0.25500000920E-02 0. -1.
    10030    2    1    2    0    0  0.00000000000E+00  0.00000000000E+00 -0.21043890565E+03  0.36389757304E+04  0.36328858822E+04 0.  0.
        3    1    3    3  502    0  0.11048916244E+04  0.70678783161E+03  0.11535216142E+04  0.17466959281E+04  0.10100000352E+00 0.  1.
       -3    1    3    3    0  502 -0.11048916244E+04 -0.70678783161E+03 -0.13639605198E+04  0.18922798023E+04  0.10100000352E+00 0. -1.
</event>
<event>
 5   0  0.6729577E-07  0.3590626E+04  0.7818609E-02  0.8092642E-01
       -2   -1    0    0    0  501  0.00000000000E+00  0.00000000000E+00  0.14475310244E+04  0.14475310244E+04  0.25500000920E-02 0.  1.
        2   -1    0    0  501    0  0.00000000000E+00  0.00000000000E+00 -0.22266523303E+04  0.22266523303E+04  0.25500000920E-02 0. -1.
    10030    2    1    2    0    0  0.00000000000E+00  0.00000000000E+00 -0.77912130593E+03  0.36741833547E+04  0.35906257552E+04 0.  0.
        3    1    3    3  502    0 -0.17342728709E+04 -0.17290283079E+03  0.51219258743E+02  0.17436230103E+04  0.10100000352E+00 0.  1.
       -3    1    3    3    0  502  0.17342728709E+04  0.17290283079E+03 -0.83034056468E+03  0.19305603443E+04  0.10100000352E+00 0. -1.
</event>
<event>
 5   0  0.2086250E-07  0.3579832E+04  0.7818609E-02  0.8095127E-01
       -1   -1    0    0    0  501  0.00000000000E+00  0.00000000000E+00  0.18293112939E+04  0.18293112939E+04  0.50400001928E-02 0.  1.
        1   -1    0    0  501    0  0.00000000000E+00  0.00000000000E+00 -0.17513694795E+04  0.17513694796E+04  0.50400001928E-02 0. -1.
    10030    2    1    2    0    0  0.00000000000E+00  0.00000000000E+00  0.77941814343E+02  0.35806807734E+04  0.35798323808E+04 0.  0.
        4    1    3    3  502    0 -0.13618100145E+04  0.93632312947E+03  0.72657170367E+03  0.18053076114E+04  0.12699999809E+01 0.  1.
       -4    1    3    3    0  502  0.13618100145E+04 -0.93632312947E+03 -0.64862988933E+03  0.17753731620E+04  0.12699999809E+01 0. -1.
</event>
<event>
 5   0  0.2086250E-07  0.3569778E+04  0.7818609E-02  0.8097450E-01
        1   -1    0    0  501    0  0.00000000000E+00  0.00000000000E+00  0.24337083846E+04  0.24337083846E+04  0.50400001928E-02 0.  1.
       -1   -1    0    0    0  501  0.00000000000E+00  0.00000000000E+00 -0.13090427174E+04  0.13090427174E+04  0.50400001928E-02 0. -1.
    10030    2    1    2    0    0  0.00000000000E+00  0.00000000000E+00  0.11246656672E+04  0.37427511020E+04  0.35697777169E+04 0.  0.
        3    1    3    3  502    0 -0.10738940507E+04 -0.14208004918E+04  0.68596944486E+03  0.19085273273E+04  0.10100000352E+00 0.  1.
       -3    1    3    3    0  502  0.10738940507E+04  0.14208004918E+04  0.43869622236E+03  0.18342237746E+04  0.10100000352E+00 0. -1.
</event>
<event>
 5   0  0.2086250E-07  0.3569863E+04  0.7818609E-02  0.8097430E-01
       -1   -1    0    0    0  501  0.00000000000E+00  0.00000000000E+00  0.15118965052E+04  0.15118965052E+04  0.50400001928E-02 0. -1.
        1   -1    0    0  501    0  0.00000000000E+00  0.00000000000E+00 -0.21072737323E+04  0.21072737323E+04  0.50400001928E-02 0.  1.
    10030    2    1    2    0    0  0.00000000000E+00  0.00000000000E+00 -0.59537722705E+03  0.36191702375E+04  0.35698626256E+04 0.  0.
        4    1    3    3  502    0  0.40742632360E+03 -0.22860645087E+03  0.14488132247E+04  0.15222741184E+04  0.12699999809E+01 0. -1.
       -4    1    3    3    0  502 -0.40742632360E+03  0.22860645087E+03 -0.20441904518E+04  0.20968961191E+04  0.12699999809E+01 0.  1.
</event>
<event>
 5   0  0.6669864E-07  0.3641103E+04  0.7818609E-02  0.8081141E-01
        2   -1    0    0  501    0  0.00000000000E+00  0.00000000000E+00  0.19662846663E+04  0.19662846663E+04  0.25500000920E-02 0. -1.
       -2   -1    0    0    0  501  0.00000000000E+00  0.00000000000E+00 -0.16856191655E+04  0.16856191655E+04  0.25500000920E-02 0.  1.
    10030    2    1    2    0    0  0.00000000000E+00  0.00000000000E+00  0.28066550071E+03  0.36519038318E+04  0.36411026453E+04 0.  0.
        5    1    3    3  502    0  0.39650623155E+03 -0.87681267422E+03 -0.14096860826E+04  0.17068258841E+04  0.46999998093E+01 0.  1.
       -5    1    3    3    0  502 -0.39650623155E+03  0.87681267422E+03  0.16903515833E+04  0.19450779477E+04  0.46999998093E+01 0. -1.
</event>
<event>
 5   0  0.2086250E-07  0.3612232E+04  0.7818609E-02  0.8087696E-01
       -1   -1    0    0    0  501  0.00000000000E+00  0.00000000000E+00  0.15029125782E+04  0.15029125782E+04  0.50400001928E-02 0. -1.
        1   -1    0    0  501    0  0.00000000000E+00  0.00000000000E+00 -0.21704887699E+04  0.21704887699E+04  0.50400001928E-02 0.  1.
    10030    2    1    2    0    0  0.00000000000E+00  0.00000000000E+00 -0.66757619165E+03  0.36734013481E+04  0.36122319267E+04 0.  0.
        4    1    3    3  502    0 -0.13894893093E+03 -0.57196755469E+03  0.14026395556E+04  0.15211354393E+04  0.12699999809E+01 0. -1.
       -4    1    3    3    0  502  0.13894893093E+03  0.57196755469E+03 -0.20702157472E+04  0.21522659088E+04  0.12699999809E+01 0.  1.
</event>
<event>
 5   0  0.2086250E-07  0.3679497E+04  0.7818609E-02  0.8072521E-01
        1   -1    0    0  501    0  0.00000000000E+00  0.00000000000E+00  0.19071840314E+04  0.19071840314E+04  0.50400001928E-02 0. -1.
       -1   -1    0    0    0  501  0.00000000000E+00  0.00000000000E+00 -0.17746971144E+04  0.17746971144E+04  0.50400001928E-02 0.  1.
    10030    2    1    2    0    0  0.00000000000E+00  0.00000000000E+00  0.13248691693E+03  0.36818811458E+04  0.36794967032E+04 0.  0.
        2    1    3    3  502    0 -0.74381047343E+03  0.11680971674E+04  0.12782132991E+04  0.18845514721E+04  0.25500000920E-02 0. -1.
       -2    1    3    3    0  502  0.74381047343E+03 -0.11680971674E+04 -0.11457263822E+04  0.17973296737E+04  0.25500000920E-02 0.  1.
</event>
<event>
 5   0  0.2108068E-07  0.3623388E+04  0.7818609E-02  0.8085155E-01
        1   -1    0    0  501    0  0.00000000000E+00  0.00000000000E+00  0.18553779311E+04  0.18553779311E+04  0.50400001928E-02 0. -1.
       -1   -1    0    0    0  501  0.00000000000E+00  0.00000000000E+00 -0.17690382127E+04  0.17690382127E+04  0.50400001928E-02 0.  1.
    10030    2    1    2    0    0  0.00000000000E+00  0.00000000000E+00  0.86339718376E+02  0.36244161439E+04  0.36233876189E+04 0.  0.
        5    1    3    3  502    0  0.12393166750E+04  0.32378457241E+03  0.13247322329E+04  0.18427370537E+04  0.46999998093E+01 0. -1.
       -5    1    3    3    0  502 -0.12393166750E+04 -0.32378457241E+03 -0.12383925145E+04  0.17816790901E+04  0.46999998093E+01 0.  1.
</event>
<event>
 5   0  0.6324216E-07  0.3571234E+04  0.7818609E-02  0.8097113E-01
        2   -1    0    0  501    0  0.00000000000E+00  0.00000000000E+00  0.24032977770E+04  0.24032977770E+04  0.25500000920E-02 0. -1.
       -2   -1    0    0    0  501  0.00000000000E+00  0.00000000000E+00 -0.13266887708E+04  0.13266887708E+04  0.25500000920E-02 0.  1.
    10030    2    1    2    0    0  0.00000000000E+00  0.00000000000E+00  0.10766090062E+04  0.37299865478E+04  0.35712340576E+04 0.  0.
        2    1    3    3  502    0  0.12307758480E+03 -0.48246301695E+03 -0.12527147138E+04  0.13480403588E+04  0.25500000920E-02 0.  1.
       -2    1    3    3    0  502 -0.12307758480E+03  0.48246301695E+03  0.23293237200E+04  0.23819461890E+04  0.25500000920E-02 0. -1.
</event>
<event>
 5   0  0.6541476E-07  0.3594614E+04  0.7818609E-02  0.8091726E-01
       -2   -1    0    0    0  501  0.00000000000E+00  0.00000000000E+00  0.15412306601E+04  0.15412306601E+04  0.25500000920E-02 0.  1.
        2   -1    0    0  501    0  0.00000000000E+00  0.00000000000E+00 -0.20959307472E+04  0.20959307472E+04  0.25500000920E-02 0. -1.
    10030    2    1    2    0    0  0.00000000000E+00  0.00000000000E+00 -0.55470008712E+03  0.36371614072E+04  0.35946141539E+04 0.  0.
        4    1    3    3  502    0  0.15498757899E+04 -0.89822613479E+03 -0.12937969506E+03  0.17960138841E+04  0.12699999809E+01 0.  1.
       -4    1    3    3    0  502 -0.15498757899E+04  0.89822613479E+03 -0.42532039207E+03  0.18411475232E+04  0.12699999809E+01 0. -1.
</event>
<event>
 5   0  0.6729577E-07  0.3611871E+04  0.7818609E-02  0.8087778E-01
       -2   -1    0    0    0  501  0.00000000000E+00  0.00000000000E+00  0.11653594497E+04  0.11653594497E+04  0.25500000920E-02 0. -1.
        2   -1    0    0  501    0  0.00000000000E+00  0.00000000000E+00 -0.27986246493E+04  0.27986246493E+04  0.25500000920E-02 0.  1.
    10030    2    1    2    0    0  0.00000000000E+00  0.00000000000E+00 -0.16332651996E+04  0.39639840989E+04  0.36118713604E+04 0.  0.
        3    1    3    3  502    0 -0.92341728726E+03  0.14568881447E+04 -0.14037434651E+04  0.22238970927E+04  0.10100000352E+00 0. -1.
       -3    1    3    3    0  502  0.92341728726E+03 -0.14568881447E+04 -0.22952173446E+03  0.17400870063E+04  0.10100000352E+00 0.  1.
</event>
<event>
 5   0  0.2193129E-07  0.3604616E+04  0.7818609E-02  0.8089435E-01
       -1   -1    0    0    0  501  0.00000000000E+00  0.00000000000E+00  0.16401271312E+04  0.16401271312E+04  0.50400001928E-02 0. -1.
        1   -1    0    0  501    0  0.00000000000E+00  0.00000000000E+00 -0.19805262816E+04  0.19805262816E+04  0.50400001928E-02 0.  1.
    10030    2    1    2    0    0  0.00000000000E+00  0.00000000000E+00 -0.34039915039E+03  0.36206534128E+04  0.36046164225E+04 0.  0.
        1    1    3    3  502    0  0.11533849549E+04 -0.10590952292E+04 -0.10665459965E+04  0.18945975618E+04  0.50400001928E-02 0.  1.
       -1    1    3    3    0  502 -0.11533849549E+04  0.10590952292E+04  0.72614684607E+03  0.17260558510E+04  0.50400001928E-02 0. -1.
</event>
<event>
 5   0  0.2086250E-07  0.3595239E+04  0.7818609E-02  0.8091583E-01
       -1   -1    0    0    0  501  0.00000000000E+00  0.00000000000E+00  0.17746543022E+04  0.17746543022E+04  0.50400001928E-02 0.  1.
        1   -1    0    0  501    0  0.00000000000E+00  0.00000000000E+00 -0.18208822185E+04  0.18208822185E+04  0.50400001928E-02 0. -1.
    10030    2    1    2    0    0  0.00000000000E+00  0.00000000000E+00 -0.46227916387E+02  0.35955365207E+04  0.35952393316E+04 0.  0.
        3    1    3    3  502    0  0.41645156128E+03 -0.10163279730E+04 -0.14462853495E+04  0.18160660158E+04  0.10100000352E+00 0. -1.
       -3    1    3    3    0  502 -0.41645156128E+03  0.10163279730E+04  0.14000574331E+04  0.17794705049E+04  0.10100000352E+00 0.  1.
</event>
<event>
 5   0  0.2108068E-07  0.3664635E+04  0.7818609E-02  0.8075845E-01
        1   -1    0    0  501    0  0.00000000000E+00  0.00000000000E+00  0.15889992164E+04  0.15889992164E+04  0.50400001928E-02 0. -1.
       -1   -1    0    0    0  501  0.00000000000E+00  0.00000000000E+00 -0.21128945662E+04  0.21128945662E+04  0.50400001928E-02 0.  1.
    10030    2    1    2    0    0  0.00000000000E+00  0.00000000000E+00 -0.52389534979E+03  0.37018937826E+04  0.36646352124E+04 0.  0.
        5    1    3    3  502    0  0.68297548051E+03  0.45051675979E+03 -0.19181118310E+04  0.20853287377E+04  0.46999998093E+01 0.  1.
       -5    1    3    3    0  502 -0.68297548051E+03 -0.45051675979E+03  0.13942164812E+04  0.16165650449E+04  0.46999998093E+01 0. -1.
</event>
<event>
 5   0  0.2108068E-07  0.3567072E+04  0.7818609E-02  0.8098076E-01
        1   -1    0    0  501    0  0.00000000000E+00  0.00000000000E+00  0.22816432182E+04  0.22816432182E+04  0.50400001928E-02 0.  1.
       -1   -1    0    0    0  501  0.00000000000E+00  0.00000000000E+00 -0.13941705470E+04  0.13941705470E+04  0.50400001928E-02 0. -1.
    10030    2    1    2    0    0  0.00000000000E+00  0.00000000000E+00  0.88747267115E+03  0.36758137652E+04  0.35670715011E+04 0.  0.
        5    1    3    3  502    0  0.12908666696E+04 -0.11737761489E+04  0.82500253373E+03  0.19299581542E+04  0.46999998093E+01 0.  1.
       -5    1    3    3    0  502 -0.12908666696E+04  0.11737761489E+04  0.62470137417E+02  0.17458556110E+04  0.46999998093E+01 0. -1.
</event>
<event>
 5   0  0.6324216E-07  0.3585929E+04  0.7818609E-02  0.8093723E-01
       -2   -1    0    0    0  501  0.00000000000E+00  0.00000000000E+00  0.22389127816E+04  0.22389127816E+04  0.25500000920E-02 0. -1.
        2   -1    0    0  501    0  0.00000000000E+00  0.00000000000E+00 -0.14358402954E+04  0.14358402954E+04  0.25500000920E-02 0.  1.
    10030    2    1    2    0    0  0.00000000000E+00  0.00000000000E+00  0.80307248620E+03  0.36747530770E+04  0.35859287164E+04 0.  0.
        2    1    3    3  502    0  0.27115413655E+03  0.13180428657E+03  0.22127504097E+04  0.22331953142E+04  0.25500000920E-02 0. -1.
       -2    1    3    3    0  502 -0.27115413655E+03 -0.13180428657E+03 -0.14096779235E+04  0.14415577629E+04  0.25500000920E-02 0.  1.
</event>
<event>
 5   0  0.6324216E-07  0.3426596E+04  0.7818609E-02  0.8131409E-01
       -2   -1    0    0    0  501  0.00000000000E+00  0.00000000000E+00  0.14502274671E+04  0.14502274671E+04  0.25500000920E-02 0. -1.
        2   -1    0    0  501    0  0.00000000000E+00  0.00000000000E+00 -0.20240898037E+04  0.20240898037E+04  0.25500000920E-02 0.  1.
    10030    2    1    2    0    0  0.00000000000E+00  0.00000000000E+00 -0.57386233665E+03  0.34743172708E+04  0.34265963458E+04 0.  0.
        2    1    3    3  502    0 -0.11146359815E+04 -0.24746905962E+03 -0.15821153103E+04  0.19510876868E+04  0.25500000920E-02 0.  1.
       -2    1    3    3    0  502  0.11146359815E+04  0.24746905962E+03  0.10082529736E+04  0.15232295840E+04  0.25500000920E-02 0. -1.
</event>
<event>
 5   0  0.2086250E-07  0.3575177E+04  0.7818609E-02  0.8096201E-01
       -1   -1    0    0    0  501  0.00000000000E+00  0.00000000000E+00  0.20807416561E+04  0.20807416561E+04  0.50400001928E-02 0. -1.
        1   -1    0    0  501    0  0.00000000000E+00  0.00000000000E+00 -0.15357374429E+04  0.15357374429E+04  0.50400001928E-02 0.  1.
    10030    2    1    2    0    0  0.00000000000E+00  0.00000000000E+00  0.54500421314E+03  0.36164790990E+04  0.35751771259E+04 0.  0.
        3    1    3    3  502    0 -0.16234032335E+04 -0.46754471887E+03 -0.31857415853E+03  0.17191642235E+04  0.10100000352E+00 0.  1.
       -3    1    3    3    0  502  0.16234032335E+04  0.46754471887E+03  0.86357837168E+03  0.18973148755E+04  0.10100000352E+00 0. -1.
</event>
<event>
 5   0  0.2193129E-07  0.3406213E+04  0.7818609E-02  0.8136383E-01
        1   -1    0    0  501    0  0.00000000000E+00  0.00000000000E+00  0.92457466586E+03  0.92457466588E+03  0.50400001928E-02 0. -1.
       -1   -1    0    0    0  501  0.00000000000E+00  0.00000000000E+00 -0.31371967113E+04  0.31371967113E+04  0.50400001928E-02 0.  1.
    10030    2    1    2    0    0  0.00000000000E+00  0.00000000000E+00 -0.22126220454E+04  0.40617713772E+04  0.34062134995E+04 0.  0.
        1    1    3    3  502    0  0.16270344057E+04 -0.24668441263E+03 -0.16294711768E+04  0.23158735874E+04  0.50400001928E-02 0.  1.
       -1    1    3    3    0  502 -0.16270344057E+04  0.24668441263E+03 -0.58315086859E+03  0.17458977898E+04  0.50400001928E-02 0. -1.
</event>
<event>
 5   0  0.6848661E-07  0.3660614E+04  0.7818609E-02  0.8076747E-01
        2   -1    0    0  501    0  0.00000000000E+00  0.00000000000E+00  0.26182849132E+04  0.26182849132E+04  0.25500000920E-02 0.  1.
       -2   -1    0    0    0  501  0.00000000000E+00  0.00000000000E+00 -0.12794728429E+04  0.12794728430E+04  0.25500000920E-02 0. -1.
    10030    2    1    2    0    0  0.00000000000E+00  0.00000000000E+00  0.13388120703E+04  0.38977577562E+04  0.36606143974E+04 0.  0.
        1    1    3    3  502    0  0.88684862483E+03  0.61135676537E+03 -0.90624413514E+03  0.14076704197E+04  0.50400001928E-02 0. -1.
       -1    1    3    3    0  502 -0.88684862483E+03 -0.61135676537E+03  0.22450562054E+04  0.24900873365E+04  0.50400001928E-02 0.  1.
</event>
<event>
 5   0  0.6669864E-07  0.3565728E+04  0.7818609E-02  0.8098388E-01
        2   -1    0    0  501    0  0.00000000000E+00  0.00000000000E+00  0.20660387848E+04  0.20660387848E+04  0.25500000920E-02 0. -1.
       -2   -1    0    0    0  501  0.00000000000E+00  0.00000000000E+00 -0.15385013953E+04  0.15385013953E+04  0.25500000920E-02 0.  1.
    10030    2    1    2    0    0  0.00000000000E+00  0.00000000000E+00  0.52753738941E+03  0.36045401801E+04  0.35657277255E+04 0.  0.
        5    1    3    3  502    0 -0.15437586625E+04  0.71281004796E+03  0.80559967139E+03  0.18815689977E+04  0.46999998093E+01 0. -1.
       -5    1    3    3    0  502  0.15437586625E+04 -0.71281004796E+03 -0.27806228197E+03  0.17229711824E+04  0.46999998093E+01 0.  1.
</event>
<event>
 5   0  0.2086250E-07  0.3846414E+04  0.7818609E-02  0.8036267E-01
        1   -1    0    0  501    0  0.00000000000E+00  0.00000000000E+00  0.18494114297E+04  0.18494114297E+04  0.50400001928E-02 0.  1.
       -1   -1    0    0    0  501  0.00000000000E+00  0.00000000000E+00 -0.19999471308E+04  0.19999471308E+04  0.50400001928E-02 0. -1.
    10030    2    1    2    0    0  0.00000000000E+00  0.00000000000E+00 -0.15053570112E+03  0.38493585605E+04  0.38464139572E+04 0.  0.
        2    1    3    3  502    0  0.46397312575E+03  0.82732223813E+03  0.15990317298E+04  0.18592029529E+04  0.25500000920E-02 0.  1.
       -2    1    3    3    0  502 -0.46397312575E+03 -0.82732223813E+03 -0.17495674309E+04  0.19901556076E+04  0.25500000920E-02 0. -1.
</event>
<event>
 5   0  0.2086250E-07  0.3575234E+04  0.7818609E-02  0.8096188E-01
        1   -1    0    0  501    0  0.00000000000E+00  0.00000000000E+00  0.33886462400E+04  0.33886462400E+04  0.50400001928E-02 0.  1.
       -1   -1    0    0    0  501  0.00000000000E+00  0.00000000000E+00 -0.94302394064E+03  0.94302394065E+03  0.50400001928E-02 0. -1.
    10030    2    1    2    0    0  0.00000000000E+00  0.00000000000E+00  0.24456222993E+04  0.43316701806E+04  0.35752339955E+04 0.  0.
        2    1    3    3  502    0 -0.49676719023E+02  0.72009774551E+03 -0.75861353525E+03  0.10471404086E+04  0.25500000920E-02 0. -1.
       -2    1    3    3    0  502  0.49676719023E+02 -0.72009774551E+03  0.32042358346E+04  0.32845297720E+04  0.25500000920E-02 0.  1.
</event>
<event>
 5   0  0.2086250E-07  0.3647787E+04  0.7818609E-02  0.8079632E-01
        1   -1    0    0  501    0  0.00000000000E+00  0.00000000000E+00  0.21169755019E+04  0.21169755019E+04  0.50400001928E-02 0. -1.
       -1   -1    0    0    0  501  0.00000000000E+00  0.00000000000E+00 -0.15713868409E+04  0.15713868409E+04  0.50400001928E-02 0.  1.
    10030    2    1    2    0    0  0.00000000000E+00  0.00000000000E+00  0.54558866096E+03  0.36883623428E+04  0.36477869708E+04 0.  0.
        3    1    3    3  502    0  0.50617568468E+03 -0.23370376571E+03  0.20287042145E+04  0.21039182670E+04  0.10100000352E+00 0. -1.
       -3    1    3    3    0  502 -0.50617568468E+03  0.23370376571E+03 -0.14831155536E+04  0.15844440758E+04  0.10100000352E+00 0.  1.
</event>
<event>
 5   0  0.6729577E-07  0.3610276E+04  0.7818609E-02  0.8088142E-01
        2   -1    0    0  501    0  0.00000000000E+00  0.00000000000E+00  0.22239618339E+04  0.22239618339E+04  0.25500000920E-02 0.  1.
       -2   -1    0    0    0  501  0.00000000000E+00  0.00000000000E+00 -0.14651888082E+04  0.14651888082E+04  0.25500000920E-02 0. -1.
    10030    2    1    2    0    0  0.00000000000E+00  0.00000000000E+00  0.75877302578E+03  0.36891506421E+04  0.36102764376E+04 0.  0.
        3    1    3    3  502    0 -0.48350610374E+03  0.29090991002E+03 -0.13727512815E+04  0.14842010710E+04  0.10100000352E+00 0. -1.
       -3    1    3    3    0  502  0.48350610374E+03 -0.29090991002E+03  0.21315243073E+04  0.22049495711E+04  0.10100000352E+00 0.  1.
</event>
<event>
 5   0  0.2108068E-07  0.3595186E+04  0.7818609E-02  0.8091595E-01
       -1   -1    0    0    0  501  0.00000000000E+00  0.00000000000E+00  0.15928234690E+04  0.15928234690E+04  0.50400001928E-02 0. -1.
        1   -1    0    0  501    0  0.00000000000E+00  0.00000000000E+00 -0.20286872999E+04  0.20286872999E+04  0.50400001928E-02 0.  1.
    10030    2    1    2    0    0  0.00000000000E+00  0.00000000000E+00 -0.43586383089E+03  0.36215107689E+04  0.35951860829E+04 0.  0.
        5    1    3    3  502    0 -0.12923028572E+04  0.38399437572E+03 -0.14156800777E+04  0.19549093400E+04  0.46999998093E+01 0.  1.
       -5    1    3    3    0  502  0.12923028572E+04 -0.38399437572E+03  0.97981624681E+03  0.16666014289E+04  0.46999998093E+01 0. -1.
</event>
<event>
 5   0  0.2086250E-07  0.3607107E+04  0.7818609E-02  0.8088866E-01
       -1   -1    0    0    0  501  0.00000000000E+00  0.00000000000E+00  0.17679273149E+04  0.17679273149E+04  0.50400001928E-02 0.  1.
        1   -1    0    0  501    0  0.00000000000E+00  0.00000000000E+00 -0.18398977037E+04  0.18398977037E+04  0.50400001928E-02 0. -1.
    10030    2    1    2    0    0  0.00000000000E+00  0.00000000000E+00 -0.71970388814E+02  0.36078250186E+04  0.36071070996E+04 0.  0.
        4    1    3    3  502    0  0.74417440541E+03  0.16251820057E+04  0.20446168819E+03  0.17991159752E+04  0.12699999809E+01 0. -1.
       -4    1    3    3    0  502 -0.74417440541E+03 -0.16251820057E+04 -0.27643207701E+03  0.18087090434E+04  0.12699999809E+01 0.  1.
</event>
<event>
 5   0  0.6729577E-07  0.3607055E+04  0.7818609E-02  0.8088878E-01
        2   -1    0    0  501    0  0.00000000000E+00  0.00000000000E+00  0.17251663673E+04  0.17251663673E+04  0.25500000920E-02 0. -1.
       -2   -1    0    0    0  501  0.00000000000E+00  0.00000000000E+00 -0.18854478986E+04  0.18854478986E+04  0.25500000920E-02 0.  1.
    10030    2    1    2    0    0  0.00000000000E+00  0.00000000000E+00 -0.16028153136E+03  0.36106142659E+04  0.36070549216E+04 0.  0.
        3    1    3    3  502    0  0.64846834023E+03 -0.32169946093E+03 -0.17336514100E+04  0.18787093849E+04  0.10100000352E+00 0.  1.
       -3    1    3    3    0  502 -0.64846834023E+03  0.32169946093E+03  0.15733698786E+04  0.17319048809E+04  0.10100000352E+00 0. -1.
</event>
<event>
 5   0  0.6669864E-07  0.3592097E+04  0.7818609E-02  0.8092304E-01
        2   -1    0    0  501    0  0.00000000000E+00  0.00000000000E+00  0.11169147338E+04  0.11169147338E+04  0.25500000920E-02 0. -1.
       -2   -1    0    0    0  501  0.00000000000E+00  0.00000000000E+00 -0.28881260028E+04  0.28881260028E+04  0.25500000920E-02 0.  1.
    10030    2    1    2    0    0  0.00000000000E+00  0.00000000000E+00 -0.17712112690E+04  0.40050407367E+04  0.35920971511E+04 0.  0.
        5    1    3    3  502    0 -0.14375713866E+04 -0.83264311928E+03 -0.12460036205E+03  0.16659692062E+04  0.46999998093E+01 0. -1.
       -5    1    3    3    0  502  0.14375713866E+04  0.83264311928E+03 -0.16466109070E+04  0.23390715305E+04  0.46999998093E+01 0.  1.
</event>
<event>
 5   0  0.6669864E-07  0.3601322E+04  0.7818609E-02  0.8090189E-01
        2   -1    0    0  501    0  0.00000000000E+00  0.00000000000E+00  0.19096402516E+04  0.19096402516E+04  0.25500000920E-02 0. -1.
       -2   -1    0    0    0  501  0.00000000000E+00  0.00000000000E+00 -0.16979008888E+04  0.16979008888E+04  0.25500000920E-02 0.  1.
    10030    2    1    2    0    0  0.00000000000E+00  0.00000000000E+00  0.21173936273E+03  0.36075411404E+04  0.36013219131E+04 0.  0.
        5    1    3    3  502    0  0.71765836097E+03  0.14986009185E+04  0.80098412568E+03  0.18445692981E+04  0.46999998093E+01 0. -1.
       -5    1    3    3    0  502 -0.71765836097E+03 -0.14986009185E+04 -0.58924476295E+03  0.17629718423E+04  0.46999998093E+01 0.  1.
</event>
<event>
 5   0  0.6669864E-07  0.3593545E+04  0.7818609E-02  0.8091972E-01
       -2   -1    0    0    0  501  0.00000000000E+00  0.00000000000E+00  0.17040783663E+04  0.17040783663E+04  0.25500000920E-02 0.  1.
        2   -1    0    0  501    0  0.00000000000E+00  0.00000000000E+00 -0.18945091015E+04  0.18945091015E+04  0.25500000920E-02 0. -1.
    10030    2    1    2    0    0  0.00000000000E+00  0.00000000000E+00 -0.19043073522E+03  0.35985874677E+04  0.35935453104E+04 0.  0.
        5    1    3    3  502    0  0.54389205166E+03 -0.14025741428E+04 -0.10791096469E+04  0.18513596382E+04  0.46999998093E+01 0. -1.
       -5    1    3    3    0  502 -0.54389205166E+03  0.14025741428E+04  0.88867891172E+03  0.17472278295E+04  0.46999998093E+01 0.  1.
</event>
<event>
 5   0  0.6324216E-07  0.3730101E+04  0.7818609E-02  0.8061324E-01
        2   -1    0    0  501    0  0.00000000000E+00  0.00000000000E+00  0.16178061031E+04  0.16178061031E+04  0.25500000920E-02 0. -1.
       -2   -1    0    0    0  501  0.00000000000E+00  0.00000000000E+00 -0.21500810091E+04  0.21500810091E+04  0.25500000920E-02 0.  1.
    10030    2    1    2    0    0  0.00000000000E+00  0.00000000000E+00 -0.53227490603E+03  0.37678871121E+04  0.37301014349E+04 0.  0.
        2    1    3    3  502    0 -0.16473151187E+03  0.10684768558E+04 -0.18012807083E+04  0.21008073335E+04  0.25500000920E-02 0.  1.
       -2    1    3    3    0  502  0.16473151187E+03 -0.10684768558E+04  0.12690058023E+04  0.16670797787E+04  0.25500000920E-02 0. -1.
</event>
<event>
 5   0  0.6541476E-07  0.3598067E+04  0.7818609E-02  0.8090935E-01
       -2   -1    0    0    0  501  0.00000000000E+00  0.00000000000E+00  0.13348400154E+04  0.13348400154E+04  0.25500000920E-02 0. -1.
        2   -1    0    0  501    0  0.00000000000E+00  0.00000000000E+00 -0.24246514616E+04  0.24246514617E+04  0.25500000920E-02 0.  1.
    10030    2    1    2    0    0  0.00000000000E+00  0.00000000000E+00 -0.10898114462E+04  0.37594914771E+04  0.35980671447E+04 0.  0.
        4    1    3    3  502    0 -0.52602679922E+03 -0.57750446092E+03 -0.22381997913E+04  0.23706023527E+04  0.12699999809E+01 0.  1.
       -4    1    3    3    0  502  0.52602679922E+03  0.57750446092E+03  0.11483883451E+04  0.13888891244E+04  0.12699999809E+01 0. -1.
</event>
<event>
 5   0  0.6729577E-07  0.3640422E+04  0.7818609E-02  0.8081295E-01
       -2   -1    0    0    0  501  0.00000000000E+00  0.00000000000E+00  0.13367297469E+04  0.13367297469E+04  0.25500000920E-02 0. -1.
        2   -1    0    0  501    0  0.00000000000E+00  0.00000000000E+00 -0.24785619034E+04  0.24785619034E+04  0.25500000920E-02 0.  1.
    10030    2    1    2    0    0  0.00000000000E+00  0.00000000000E+00 -0.11418321565E+04  0.38152916503E+04  0.36404216382E+04 0.  0.
        3    1    3    3  502    0  0.24490347124E+02  0.24151682775E+03 -0.24615204670E+04  0.24734617795E+04  0.10100000352E+00 0.  1.
       -3    1    3    3    0  502 -0.24490347124E+02 -0.24151682775E+03  0.13196883105E+04  0.13418298708E+04  0.10100000352E+00 0. -1.
</event>
<event>
 5   0  0.6669864E-07  0.3573688E+04  0.7818609E-02  0.8096545E-01
       -2   -1    0    0    0  501  0.00000000000E+00  0.00000000000E+00  0.17807234644E+04  0.17807234644E+04  0.25500000920E-02 0. -1.
        2   -1    0    0  501    0  0.00000000000E+00  0.00000000000E+00 -0.17929856112E+04  0.17929856112E+04  0.25500000920E-02 0.  1.
    10030    2    1    2    0    0  0.00000000000E+00  0.00000000000E+00 -0.12262146794E+02  0.35737090756E+04  0.35736880386E+04 0.  0.
        5    1    3    3  502    0 -0.11345866568E+03 -0.16037280950E+04  0.77359961441E+03  0.17841791180E+04  0.46999998093E+01 0. -1.
       -5    1    3    3    0  502  0.11345866568E+03  0.16037280950E+04 -0.78586176121E+03  0.17895299577E+04  0.46999998093E+01 0.  1.
</event>
<event>
 5   0  0.6541476E-07  0.3477078E+04  0.7818609E-02  0.8119244E-01
       -2   -1    0    0    0  501  0.00000000000E+00  0.00000000000E+00  0.17688930266E+04  0.17688930266E+04  0.25500000920E-02 0.  1.
        2   -1    0    0  501    0  0.00000000000E+00  0.00000000000E+00 -0.17087059768E+04  0.17087059768E+04  0.25500000920E-02 0. -1.
    10030    2    1    2    0    0  0.00000000000E+00  0.00000000000E+00  0.60187049825E+02  0.34775990034E+04  0.34770781336E+04 0.  0.
        4    1    3    3  502    0 -0.87774368973E+03  0.44868672442E+03 -0.14021694296E+04  0.17140112263E+04  0.12699999809E+01 0. -1.
       -4    1    3    3    0  502  0.87774368973E+03 -0.44868672442E+03  0.14623564795E+04  0.17635877771E+04  0.12699999809E+01 0.  1.
</event>
<event>
 5   0  0.6848661E-07  0.3630217E+04  0.7818609E-02  0.8083605E-01
        2   -1    0    0  501    0  0.00000000000E+00  0.00000000000E+00  0.21922292552E+04  0.21922292552E+04  0.25500000920E-02 0. -1.
       -2   -1    0    0    0  501  0.00000000000E+00  0.00000000000E+00 -0.15028622414E+04  0.15028622414E+04  0.25500000920E-02 0.  1.
    10030    2    1    2    0    0  0.00000000000E+00  0.00000000000E+00  0.68936701381E+03  0.36950914965E+04  0.36302168376E+04 0.  0.
        1    1    3    3  502    0  0.20651827241E+03  0.11651622806E+04  0.17456396287E+04  0.21089121959E+04  0.50400001928E-02 0. -1.
       -1    1    3    3    0  502 -0.20651827241E+03 -0.11651622806E+04 -0.10562726148E+04  0.15861793006E+04  0.50400001928E-02 0.  1.
</event>
<event>
 5   0  0.2086250E-07  0.3586000E+04  0.7818609E-02  0.8093706E-01
       -1   -1    0    0    0  501  0.00000000000E+00  0.00000000000E+00  0.13126301775E+04  0.13126301775E+04  0.50400001928E-02 0.  1.
        1   -1    0    0  501    0  0.00000000000E+00  0.00000000000E+00 -0.24491658496E+04  0.24491658496E+04  0.50400001928E-02 0. -1.
    10030    2    1    2    0    0  0.00000000000E+00  0.00000000000E+00 -0.11365356721E+04  0.37617960271E+04  0.35860000022E+04 0.  0.
        2    1    3    3  502    0 -0.65220064059E+03 -0.15828424445E+04 -0.11274010862E+04  0.20498265997E+04  0.25500000920E-02 0. -1.
       -2    1    3    3    0  502  0.65220064059E+03  0.15828424445E+04 -0.91345859595E+01  0.17119694274E+04  0.25500000920E-02 0.  1.
</event>
<event>
 5   0  0.6729577E-07  0.3555375E+04  0.7818609E-02  0.8100791E-01
        2   -1    0    0  501    0  0.00000000000E+00  0.00000000000E+00  0.10012296721E+04  0.10012296721E+04  0.25500000920E-02 0. -1.
       -2   -1    0    0    0  501  0.00000000000E+00  0.00000000000E+00 -0.31562920074E+04  0.31562920074E+04  0.25500000920E-02 0.  1.
    10030    2    1    2    0    0  0.00000000000E+00  0.00000000000E+00 -0.21550623353E+04  0.41575216795E+04  0.35553752047E+04 0.  0.
        3    1    3    3  502    0  0.74275651061E+03 -0.91483368410E+03 -0.26339542592E+04  0.28855368570E+04  0.10100000352E+00 0.  1.
       -3    1    3    3    0  502 -0.74275651061E+03  0.91483368410E+03  0.47889192384E+03  0.12719848224E+04  0.10100000352E+00 0. -1.
</event>
<event>
 5   0  0.2086250E-07  0.3589785E+04  0.7818609E-02  0.8092836E-01
        1   -1    0    0  501    0  0.00000000000E+00  0.00000000000E+00  0.24479046419E+04  0.24479046419E+04  0.50400001928E-02 0. -1.
       -1   -1    0    0    0  501  0.00000000000E+00  0.00000000000E+00 -0.13160804451E+04  0.13160804451E+04  0.50400001928E-02 0.  1.
    10030    2    1    2    0    0  0.00000000000E+00  0.00000000000E+00  0.11318241968E+04  0.37639850870E+04  0.35897851917E+04 0.  0.
        4    1    3    3  502    0  0.11709782990E+04  0.13059228616E+04  0.96519717772E+03  0.20020569178E+04  0.12699999809E+01 0. -1.
       -4    1    3    3    0  502 -0.11709782990E+04 -0.13059228616E+04  0.16662701905E+03  0.17619281692E+04  0.12699999809E+01 0.  1.
</event>
<event>
 5   0  0.2193129E-07  0.3635194E+04  0.7818609E-02  0.8082477E-01
       -1   -1    0    0    0  501  0.00000000000E+00  0.00000000000E+00  0.14251802346E+04  0.14251802346E+04  0.50400001928E-02 0. -1.
        1   -1    0    0  501    0  0.00000000000E+00  0.00000000000E+00 -0.23180637417E+04  0.23180637417E+04  0.50400001928E-02 0.  1.
    10030    2    1    2    0    0  0.00000000000E+00  0.00000000000E+00 -0.89288350718E+03  0.37432439763E+04  0.36351938750E+04 0.  0.
        1    1    3    3  502    0  0.57297943800E+03 -0.10613741809E+04 -0.18465770063E+04  0.22055990633E+04  0.50400001928E-02 0.  1.
       -1    1    3    3    0  502 -0.57297943800E+03  0.10613741809E+04  0.95369349908E+03  0.15376449130E+04  0.50400001928E-02 0. -1.
</event>
<event>
 5   0  0.2108068E-07  0.3622700E+04  0.7818609E-02  0.8085312E-01
        1   -1    0    0  501    0  0.00000000000E+00  0.00000000000E+00  0.10180993020E+04  0.10180993021E+04  0.50400001928E-02 0. -1.
       -1   -1    0    0    0  501  0.00000000000E+00  0.00000000000E+00 -0.32226600819E+04  0.32226600819E+04  0.50400001928E-02 0.  1.
    10030    2    1    2    0    0  0.00000000000E+00  0.00000000000E+00 -0.22045607799E+04  0.42407593840E+04  0.36226995350E+04 0.  0.
        5    1    3    3  502    0  0.12796166794E+04  0.11876906443E+04 -0.53730248163E+03  0.18266756580E+04  0.46999998093E+01 0. -1.
       -5    1    3    3    0  502 -0.12796166794E+04 -0.11876906443E+04 -0.16672582983E+04  0.24140837260E+04  0.46999998093E+01 0.  1.
</event>
<event>
 5   0  0.6541476E-07  0.3625419E+04  0.7818609E-02  0.8084694E-01
       -2   -1    0    0    0  501  0.00000000000E+00  0.00000000000E+00  0.12951178444E+04  0.12951178444E+04  0.25500000920E-02 0. -1.
        2   -1    0    0  501    0  0.00000000000E+00  0.00000000000E+00 -0.25371554493E+04  0.25371554493E+04  0.25500000920E-02 0.  1.
    10030    2    1    2    0    0  0.00000000000E+00  0.00000000000E+00 -0.12420376049E+04  0.38322732938E+04  0.36254187601E+04 0.  0.
        4    1    3    3  502    0  0.20554840511E+03 -0.13248257255E+04  0.66863387213E+03  0.14981609452E+04  0.12699999809E+01 0. -1.
       -4    1    3    3    0  502 -0.20554840511E+03  0.13248257255E+04 -0.19106714770E+04  0.23341123486E+04  0.12699999809E+01 0.  1.
</event>
<event>
 5   0  0.2086250E-07  0.3619977E+04  0.7818609E-02  0.8085931E-01
        1   -1    0    0  501    0  0.00000000000E+00  0.00000000000E+00  0.17932719843E+04  0.17932719844E+04  0.50400001928E-02 0. -1.
       -1   -1    0    0    0  501  0.00000000000E+00  0.00000000000E+00 -0.18268605647E+04  0.18268605647E+04  0.50400001928E-02 0.  1.
    10030    2    1    2    0    0  0.00000000000E+00  0.00000000000E+00 -0.33588580391E+02  0.36201325491E+04  0.36199767237E+04 0.  0.
        2    1    3    3  502    0 -0.86505256377E+03 -0.13994349422E+04  0.73777365884E+03  0.18030651866E+04  0.25500000920E-02 0. -1.
       -2    1    3    3    0  502  0.86505256377E+03  0.13994349422E+04 -0.77136223923E+03  0.18170673625E+04  0.25500000920E-02 0.  1.
</event>
<event>
 5   0  0.6324216E-07  0.3479347E+04  0.7818609E-02  0.8118702E-01
        2   -1    0    0  501    0  0.00000000000E+00  0.00000000000E+00  0.30533750968E+04  0.30533750968E+04  0.25500000920E-02 0.  1.
       -2   -1    0    0    0  501  0.00000000000E+00  0.00000000000E+00 -0.99118628908E+03  0.99118628908E+03  0.25500000920E-02 0. -1.
    10030    2    1    2    0    0  0.00000000000E+00  0.00000000000E+00  0.20621888077E+04  0.40445613859E+04  0.34793467958E+04 0.  0.
        2    1    3    3  502    0 -0.13656419983E+04  0.37505139055E+03  0.22055827348E+04  0.26211136589E+04  0.25500000920E-02 0.  1.
       -2    1    3    3    0  502  0.13656419983E+04 -0.37505139055E+03 -0.14339392706E+03  0.14234477270E+04  0.25500000920E-02 0. -1.
</event>
<event>
 5   0  0.6848661E-07  0.3593669E+04  0.7818609E-02  0.8091944E-01
       -2   -1    0    0    0  501  0.00000000000E+00  0.00000000000E+00  0.15754590670E+04  0.15754590670E+04  0.25500000920E-02 0.  1.
        2   -1    0    0  501    0  0.00000000000E+00  0.00000000000E+00 -0.20493160097E+04  0.20493160097E+04  0.25500000920E-02 0. -1.
    10030    2    1    2    0    0  0.00000000000E+00  0.00000000000E+00 -0.47385694269E+03  0.36247750767E+04  0.35936685928E+04 0.  0.
        1    1    3    3  502    0 -0.15541700740E+04 -0.30838483438E+03  0.61779518452E+03  0.17006518500E+04  0.50400001928E-02 0.  1.
       -1    1    3    3    0  502  0.15541700740E+04  0.30838483438E+03 -0.10916521272E+04  0.19241232267E+04  0.50400001928E-02 0. -1.
</event>
<event>
 5   0  0.6669864E-07  0.3594845E+04  0.7818609E-02  0.8091673E-01
       -2   -1    0    0    0  501  0.00000000000E+00  0.00000000000E+00  0.12808820201E+04  0.12808820201E+04  0.25500000920E-02 0. -1.
        2   -1    0    0  501    0  0.00000000000E+00  0.00000000000E+00 -0.25222682269E+04  0.25222682269E+04  0.25500000920E-02 0.  1.
    10030    2    1    2    0    0  0.00000000000E+00  0.00000000000E+00 -0.12413862068E+04  0.38031502470E+04  0.35948452104E+04 0.  0.
        5    1    3    3  502    0  0.10021622990E+04 -0.14866369760E+04 -0.75570932936E+03  0.19456457675E+04  0.46999998093E+01 0.  1.
       -5    1    3    3    0  502 -0.10021622990E+04  0.14866369760E+04 -0.48567687744E+03  0.18575044795E+04  0.46999998093E+01 0. -1.
</event>
<event>
 5   0  0.2086250E-07  0.3603493E+04  0.7818609E-02  0.8089692E-01
       -1   -1    0    0    0  501  0.00000000000E+00  0.00000000000E+00  0.15784018911E+04  0.15784018911E+04  0.50400001928E-02 0. -1.
        1   -1    0    0  501    0  0.00000000000E+00  0.00000000000E+00 -0.20566948625E+04  0.20566948625E+04  0.50400001928E-02 0.  1.
    10030    2    1    2    0    0  0.00000000000E+00  0.00000000000E+00 -0.47829297139E+03  0.36350967536E+04  0.36034933387E+04 0.  0.
        2    1    3    3  502    0  0.42789204859E+03  0.83787225494E+03 -0.17892326403E+04  0.20215031442E+04  0.25500000920E-02 0.  1.
       -2    1    3    3    0  502 -0.42789204859E+03 -0.83787225494E+03  0.13109396689E+04  0.16135936094E+04  0.25500000920E-02 0. -1.
</event>
<event>
 5   0  0.2086250E-07  0.3578090E+04  0.7818609E-02  0.8095529E-01
        1   -1    0    0  501    0  0.00000000000E+00  0.00000000000E+00  0.23437885794E+04  0.23437885794E+04  0.50400001928E-02 0. -1.
       -1   -1    0    0    0  501  0.00000000000E+00  0.00000000000E+00 -0.13656017105E+04  0.13656017106E+04  0.50400001928E-02 0.  1.
    10030    2    1    2    0    0  0.00000000000E+00  0.00000000000E+00  0.97818686882E+03  0.37093902899E+04  0.35780898218E+04 0.  0.
        4    1    3    3  502    0  0.14034942065E+04  0.68761642107E+03  0.13917141630E+04  0.20927212558E+04  0.12699999809E+01 0.  1.
       -4    1    3    3    0  502 -0.14034942065E+04 -0.68761642107E+03 -0.41352729414E+03  0.16166690342E+04  0.12699999809E+01 0. -1.
</event>
<event>
 5   0  0.6541476E-07  0.3633833E+04  0.7818609E-02  0.8082786E-01
        2   -1    0    0  501    0  0.00000000000E+00  0.00000000000E+00  0.14876390853E+04  0.14876390853E+04  0.25500000920E-02 0. -1.
       -2   -1    0    0    0  501  0.00000000000E+00  0.00000000000E+00 -0.22190769381E+04  0.22190769381E+04  0.25500000920E-02 0.  1.
    10030    2    1    2    0    0  0.00000000000E+00  0.00000000000E+00 -0.73143785277E+03  0.37067160234E+04  0.36338330101E+04 0.  0.
        4    1    3    3  502    0 -0.56353986233E+02  0.92720984464E+03 -0.19585401646E+04  0.21676658084E+04  0.12699999809E+01 0.  1.
       -4    1    3    3    0  502  0.56353986233E+02 -0.92720984464E+03  0.12271023118E+04  0.15390502150E+04  0.12699999809E+01 0. -1.
</event>
<event>
 5   0  0.6729577E-07  0.3608969E+04  0.7818609E-02  0.8088440E-01
       -2   -1    0    0    0  501  0.00000000000E+00  0.00000000000E+00  0.11595789440E+04  0.11595789440E+04  0.25500000920E-02 0.  1.
        2   -1    0    0  501    0  0.00000000000E+00  0.00000000000E+00 -0.28080581065E+04  0.28080581065E+04  0.25500000920E-02 0. -1.
    10030    2    1    2    0    0  0.00000000000E+00  0.00000000000E+00 -0.16484791626E+04  0.39676370505E+04  0.36089694118E+04 0.  0.
        3    1    3    3  502    0  0.47035845342E+03  0.13630329617E+04  0.36851122288E+03  0.14882528216E+04  0.10100000352E+00 0.  1.
       -3    1    3    3    0  502 -0.47035845342E+03 -0.13630329617E+04 -0.20169903855E+04  0.24793842289E+04  0.10100000352E+00 0. -1.
</event>
<event>
 5   0  0.2193129E-07  0.3615464E+04  0.7818609E-02  0.8086959E-01
        1   -1    0    0  501    0  0.00000000000E+00  0.00000000000E+00  0.10470968493E+04  0.10470968493E+04  0.50400001928E-02 0. -1.
       -1   -1    0    0    0  501  0.00000000000E+00  0.00000000000E+00 -0.31209093563E+04  0.31209093563E+04  0.50400001928E-02 0.  1.
    10030    2    1    2    0    0  0.00000000000E+00  0.00000000000E+00 -0.20738125070E+04  0.41680062056E+04  0.36154636515E+04 0.  0.
        1    1    3    3  502    0  0.12088252616E+04 -0.39548990644E+03 -0.25178404130E+04  0.28208493622E+04  0.50400001928E-02 0.  1.
       -1    1    3    3    0  502 -0.12088252616E+04  0.39548990644E+03  0.44402790596E+03  0.13471568433E+04  0.50400001928E-02 0. -1.
</event>
<event>
 5   0  0.2086250E-07  0.3317109E+04  0.7818609E-02  0.8158556E-01
        1   -1    0    0  501    0  0.00000000000E+00  0.00000000000E+00  0.17538033834E+04  0.17538033834E+04  0.50400001928E-02 0. -1.
       -1   -1    0    0    0  501  0.00000000000E+00  0.00000000000E+00 -0.15684783331E+04  0.15684783331E+04  0.50400001928E-02 0.  1.
    10030    2    1    2    0    0  0.00000000000E+00  0.00000000000E+00  0.18532505024E+03  0.33222817165E+04  0.33171087455E+04 0.  0.
        3    1    3    3  502    0  0.35842590826E+03  0.11134946605E+04  0.12702780485E+04  0.17268311503E+04  0.10100000352E+00 0. -1.
       -3    1    3    3    0  502 -0.35842590826E+03 -0.11134946605E+04 -0.10849529983E+04  0.15954505663E+04  0.10100000352E+00 0.  1.
</event>
<event>
 5   0  0.2086250E-07  0.3624248E+04  0.7818609E-02  0.8084960E-01
       -1   -1    0    0    0  501  0.00000000000E+00  0.00000000000E+00  0.15292424137E+04  0.15292424137E+04  0.50400001928E-02 0.  1.
        1   -1    0    0  501    0  0.00000000000E+00  0.00000000000E+00 -0.21473334218E+04  0.21473334218E+04  0.50400001928E-02 0. -1.
    10030    2    1    2    0    0  0.00000000000E+00  0.00000000000E+00 -0.61809100811E+03  0.36765758355E+04  0.36242479744E+04 0.  0.
        2    1    3    3  502    0 -0.60535617507E+03 -0.15027474343E+04  0.51451806406E+03  0.16998337531E+04  0.25500000920E-02 0.  1.
       -2    1    3    3    0  502  0.60535617507E+03  0.15027474343E+04 -0.11326090722E+04  0.19767420824E+04  0.25500000920E-02 0. -1.
</event>
<event>
 5   0  0.2086250E-07  0.3589774E+04  0.7818609E-02  0.8092838E-01
       -1   -1    0    0    0  501  0.00000000000E+00  0.00000000000E+00  0.12010867757E+04  0.12010867757E+04  0.50400001928E-02 0. -1.
        1   -1    0    0  501    0  0.00000000000E+00  0.00000000000E+00 -0.26822535954E+04  0.26822535954E+04  0.50400001928E-02 0.  1.
    10030    2    1    2    0    0  0.00000000000E+00  0.00000000000E+00 -0.14811668196E+04  0.38833403711E+04  0.35897739888E+04 0.  0.
        2    1    3    3  502    0 -0.87885138914E+03  0.10704908969E+04  0.49439305882E+03  0.14706308242E+04  0.25500000920E-02 0. -1.
       -2    1    3    3    0  502  0.87885138914E+03 -0.10704908969E+04 -0.19755598785E+04  0.24127095469E+04  0.25500000920E-02 0.  1.
</event>
<event>
 5   0  0.6669864E-07  0.3606719E+04  0.7818609E-02  0.8088954E-01
        2   -1    0    0  501    0  0.00000000000E+00  0.00000000000E+00  0.19135554600E+04  0.19135554600E+04  0.25500000920E-02 0. -1.
       -2   -1    0    0    0  501  0.00000000000E+00  0.00000000000E+00 -0.16995092622E+04  0.16995092622E+04  0.25500000920E-02 0.  1.
    10030    2    1    2    0    0  0.00000000000E+00  0.00000000000E+00  0.21404619783E+03  0.36130647222E+04  0.36067188568E+04 0.  0.
        5    1    3    3  502    0 -0.31393632831E+03  0.77858172076E+02 -0.16702080693E+04  0.17012451317E+04  0.46999998093E+01 0.  1.
       -5    1    3    3    0  502  0.31393632831E+03 -0.77858172076E+02  0.18842542672E+04  0.19118195905E+04  0.46999998093E+01 0. -1.
</event>
<event>
 5   0  0.2108068E-07  0.3541334E+04  0.7818609E-02  0.8104064E-01
        1   -1    0    0  501    0  0.00000000000E+00  0.00000000000E+00  0.11022104723E+04  0.11022104723E+04  0.50400001928E-02 0. -1.
       -1   -1    0    0    0  501  0.00000000000E+00  0.00000000000E+00 -0.28445221764E+04  0.28445221764E+04  0.50400001928E-02 0.  1.
    10030    2    1    2    0    0  0.00000000000E+00  0.00000000000E+00 -0.17423117041E+04  0.39467326487E+04  0.35413342861E+04 0.  0.
        5    1    3    3  502    0  0.11891998902E+04  0.53090726888E+03  0.46583523751E+03  0.13831426049E+04  0.46999998093E+01 0. -1.
       -5    1    3    3    0  502 -0.11891998902E+04 -0.53090726888E+03 -0.22081469417E+04  0.25635900438E+04  0.46999998093E+01 0.  1.
</event>
<event>
 5   0  0.2086250E-07  0.3355739E+04  0.7818609E-02  0.8148856E-01
       -1   -1    0    0    0  501  0.00000000000E+00  0.00000000000E+00  0.16276499695E+04  0.16276499695E+04  0.50400001928E-02 0.  1.
        1   -1    0    0  501    0  0.00000000000E+00  0.00000000000E+00 -0.17296382061E+04  0.17296382061E+04  0.50400001928E-02 0. -1.
    10030    2    1    2    0    0  0.00000000000E+00  0.00000000000E+00 -0.10198823659E+03  0.33572881757E+04  0.33557387106E+04 0.  0.
        3    1    3    3  502    0 -0.65987294043E+03 -0.11586712154E+04 -0.10699408360E+04  0.17095978140E+04  0.10100000352E+00 0. -1.
       -3    1    3    3    0  502  0.65987294043E+03  0.11586712154E+04  0.96795259945E+03  0.16476903616E+04  0.10100000352E+00 0.  1.
</event>
<event>
 5   0  0.2108068E-07  0.3509189E+04  0.7818609E-02  0.8111616E-01
        1   -1    0    0  501    0  0.00000000000E+00  0.00000000000E+00  0.25599325695E+04  0.25599325695E+04  0.50400001928E-02 0.  1.
       -1   -1    0    0    0  501  0.00000000000E+00  0.00000000000E+00 -0.12026105218E+04  0.12026105218E+04  0.50400001928E-02 0. -1.
    10030    2    1    2    0    0  0.00000000000E+00  0.00000000000E+00  0.13573220477E+04  0.37625430914E+04  0.35091889908E+04 0.  0.
        5    1    3    3  502    0  0.12336184254E+04 -0.63439831204E+03 -0.47329220483E+03  0.14657091249E+04  0.46999998093E+01 0. -1.
       -5    1    3    3    0  502 -0.12336184254E+04  0.63439831204E+03  0.18306142525E+04  0.22968339664E+04  0.46999998093E+01 0.  1.
</event>
<event>
 5   0  0.2193129E-07  0.3581652E+04  0.7818609E-02  0.8094708E-01
        1   -1    0    0  501    0  0.00000000000E+00  0.00000000000E+00  0.25987130552E+04  0.25987130552E+04  0.50400001928E-02 0.  1.
       -1   -1    0    0    0  501  0.00000000000E+00  0.00000000000E+00 -0.12340943348E+04  0.12340943348E+04  0.50400001928E-02 0. -1.
    10030    2    1    2    0    0  0.00000000000E+00  0.00000000000E+00  0.13646187204E+04  0.38328073900E+04  0.35816516074E+04 0.  0.
        1    1    3    3  502    0  0.71328033000E+03 -0.15392526988E+04  0.12961061064E+04  0.21349376429E+04  0.50400001928E-02 0. -1.
       -1    1    3    3    0  502 -0.71328033000E+03  0.15392526988E+04  0.68512613943E+02  0.16978697471E+04  0.50400001928E-02 0.  1.
</event>
<event>
 5   0  0.6324216E-07  0.3393497E+04  0.7818609E-02  0.8139504E-01
       -2   -1    0    0    0  501  0.00000000000E+00  0.00000000000E+00  0.12471428149E+04  0.12471428149E+04  0.25500000920E-02 0. -1.
        2   -1    0    0  501    0  0.00000000000E+00  0.00000000000E+00 -0.23084408766E+04  0.23084408766E+04  0.25500000920E-02 0.  1.
    10030    2    1    2    0    0  0.00000000000E+00  0.00000000000E+00 -0.10612980617E+04  0.35555836915E+04  0.33934969886E+04 0.  0.
        2    1    3    3  502    0 -0.12030341631E+04  0.11825248569E+04 -0.33945230307E+03  0.17207219708E+04  0.25500000920E-02 0. -1.
       -2    1    3    3    0  502  0.12030341631E+04 -0.11825248569E+04 -0.72184575865E+03  0.18348617207E+04  0.25500000920E-02 0.  1.
</event>
<event>
 5   0  0.6848661E-07  0.3687380E+04  0.7818609E-02  0.8070764E-01
       -2   -1    0    0    0  501  0.00000000000E+00  0.00000000000E+00  0.23212941522E+04  0.23212941522E+04  0.25500000920E-02 0.  1.
        2   -1    0    0  501    0  0.00000000000E+00  0.00000000000E+00 -0.14643521963E+04  0.14643521963E+04  0.25500000920E-02 0. -1.
    10030    2    1    2    0    0  0.00000000000E+00  0.00000000000E+00  0.85694195592E+03  0.37856463485E+04  0.36873796604E+04 0.  0.
        1    1    3    3  502    0  0.19916005304E+03 -0.82011832610E+02  0.23083335746E+04  0.23183603170E+04  0.50400001928E-02 0.  1.
       -1    1    3    3    0  502 -0.19916005304E+03  0.82011832610E+02 -0.14513916187E+04  0.14672860315E+04  0.50400001928E-02 0. -1.
</event>
<event>
 5   0  0.2086250E-07  0.3583083E+04  0.7818609E-02  0.8094378E-01
        3   -1    0    0  501    0  0.00000000000E+00  0.00000000000E+00  0.16308503933E+04  0.16308503964E+04  0.10100000352E+00 0. -1.
       -3   -1    0    0    0  501  0.00000000000E+00  0.00000000000E+00 -0.19680663331E+04  0.19680663357E+04  0.10100000352E+00 0.  1.
    10030    2    1    2    0    0  0.00000000000E+00  0.00000000000E+00 -0.33721593975E+03  0.35989167321E+04  0.35830834563E+04 0.  0.
        4    1    3    3  502    0 -0.37150951418E+03 -0.17133165215E+04 -0.53921993570E+03  0.18341844438E+04  0.12699999809E+01 0.  1.
       -4    1    3    3    0  502  0.37150951418E+03  0.17133165215E+04  0.20200399595E+03  0.17647322883E+04  0.12699999809E+01 0. -1.
</event>
<event>
 5   0  0.2086250E-07  0.3546447E+04  0.7818609E-02  0.8102870E-01
        1   -1    0    0  501    0  0.00000000000E+00  0.00000000000E+00  0.20961487087E+04  0.20961487087E+04  0.50400001928E-02 0.  1.
       -1   -1    0    0    0  501  0.00000000000E+00  0.00000000000E+00 -0.15000473723E+04  0.15000473723E+04  0.50400001928E-02 0. -1.
    10030    2    1    2    0    0  0.00000000000E+00  0.00000000000E+00  0.59610133636E+03  0.35961960810E+04  0.35464474408E+04 0.  0.
        2    1    3    3  502    0  0.19726317065E+03 -0.15213564163E+04 -0.60374117214E+03  0.16486180597E+04  0.25500000920E-02 0. -1.
       -2    1    3    3    0  502 -0.19726317065E+03  0.15213564163E+04  0.11998425085E+04  0.19475780213E+04  0.25500000920E-02 0.  1.
</event>
<event>
 5   0  0.2086250E-07  0.3553175E+04  0.7818609E-02  0.8101303E-01
       -1   -1    0    0    0  501  0.00000000000E+00  0.00000000000E+00  0.10921991254E+04  0.10921991254E+04  0.50400001928E-02 0.  1.
        1   -1    0    0  501    0  0.00000000000E+00  0.00000000000E+00 -0.28898239278E+04  0.28898239278E+04  0.50400001928E-02 0. -1.
    10030    2    1    2    0    0  0.00000000000E+00  0.00000000000E+00 -0.17976248024E+04  0.39820230533E+04  0.35531750121E+04 0.  0.
        3    1    3    3  502    0  0.12823312845E+04  0.11218857026E+04 -0.33482126906E+03  0.17364061580E+04  0.10100000352E+00 0.  1.
       -3    1    3    3    0  502 -0.12823312845E+04 -0.11218857026E+04 -0.14628035334E+04  0.22456168953E+04  0.10100000352E+00 0. -1.
</event>
<event>
 5   0  0.6324216E-07  0.3619012E+04  0.7818609E-02  0.8086151E-01
        2   -1    0    0  501    0  0.00000000000E+00  0.00000000000E+00  0.19487048268E+04  0.19487048268E+04  0.25500000920E-02 0.  1.
       -2   -1    0    0    0  501  0.00000000000E+00  0.00000000000E+00 -0.16802507439E+04  0.16802507439E+04  0.25500000920E-02 0. -1.
    10030    2    1    2    0    0  0.00000000000E+00  0.00000000000E+00  0.26845408293E+03  0.36289555707E+04  0.36190124260E+04 0.  0.
        2    1    3    3  502    0  0.11409685282E+04 -0.93580658994E+03 -0.91591797281E+03  0.17367927018E+04  0.25500000920E-02 0. -1.
       -2    1    3    3    0  502 -0.11409685282E+04  0.93580658994E+03  0.11843720557E+04  0.18921628689E+04  0.25500000920E-02 0.  1.
</event>
<event>
 5   0  0.6848661E-07  0.3595967E+04  0.7818609E-02  0.8091416E-01
        2   -1    0    0  501    0  0.00000000000E+00  0.00000000000E+00  0.24484460591E+04  0.24484460591E+04  0.25500000920E-02 0. -1.
       -2   -1    0    0    0  501  0.00000000000E+00  0.00000000000E+00 -0.13203247335E+04  0.13203247335E+04  0.25500000920E-02 0.  1.
    10030    2    1    2    0    0  0.00000000000E+00  0.00000000000E+00  0.11281213256E+04  0.37687707925E+04  0.35959665684E+04 0.  0.
        1    1    3    3  502    0 -0.15076718178E+04  0.17645697999E+03 -0.44584925690E+03  0.15820849965E+04  0.50400001928E-02 0.  1.
       -1    1    3    3    0  502  0.15076718178E+04 -0.17645697999E+03  0.15739705825E+04  0.21866857961E+04  0.50400001928E-02 0. -1.
</event>
<event>
 5   0  0.2193129E-07  0.3667673E+04  0.7818609E-02  0.8075164E-01
       -1   -1    0    0    0  501  0.00000000000E+00  0.00000000000E+00  0.16108821476E+04  0.16108821476E+04  0.50400001928E-02 0.  1.
        1   -1    0    0  501    0  0.00000000000E+00  0.00000000000E+00 -0.20876492254E+04  0.20876492254E+04  0.50400001928E-02 0. -1.
    10030    2    1    2    0    0  0.00000000000E+00  0.00000000000E+00 -0.47676707776E+03  0.36985313730E+04  0.36676733048E+04 0.  0.
        1    1    3    3  502    0 -0.33783510230E+03  0.16403632961E+04 -0.99168435113E+03  0.19463715349E+04  0.50400001928E-02 0. -1.
       -1    1    3    3    0  502  0.33783510230E+03 -0.16403632961E+04  0.51491727337E+03  0.17521598381E+04  0.50400001928E-02 0.  1.
</event>
<event>
 5   0  0.6324216E-07  0.3559429E+04  0.7818609E-02  0.8099849E-01
       -2   -1    0    0    0  501  0.00000000000E+00  0.00000000000E+00  0.12829409183E+04  0.12829409183E+04  0.25500000920E-02 0. -1.
        2   -1    0    0  501    0  0.00000000000E+00  0.00000000000E+00 -0.24688456303E+04  0.24688456303E+04  0.25500000920E-02 0.  1.
    10030    2    1    2    0    0  0.00000000000E+00  0.00000000000E+00 -0.11859047120E+04  0.37517865485E+04  0.35594286508E+04 0.  0.
        2    1    3    3  502    0 -0.16600882950E+04  0.26349941810E+03 -0.12094163269E+04  0.20707517819E+04  0.25500000920E-02 0.  1.
       -2    1    3    3    0  502  0.16600882950E+04 -0.26349941810E+03  0.23511614879E+02  0.16810347666E+04  0.25500000920E-02 0. -1.
</event>
<event>
 5   0  0.2086250E-07  0.3429740E+04  0.7818609E-02  0.8130646E-01
       -1   -1    0    0    0  501  0.00000000000E+00  0.00000000000E+00  0.16358639961E+04  0.16358639961E+04  0.50400001928E-02 0.  1.
        1   -1    0    0  501    0  0.00000000000E+00  0.00000000000E+00 -0.17976915139E+04  0.17976915139E+04  0.50400001928E-02 0. -1.
    10030    2    1    2    0    0  0.00000000000E+00  0.00000000000E+00 -0.16182751779E+03  0.34335555100E+04  0.34297398290E+04 0.  0.
        4    1    3    3  502    0  0.85337383022E+03  0.14837852030E+04  0.23661959648E+02  0.17118489781E+04  0.12699999809E+01 0. -1.
       -4    1    3    3    0  502 -0.85337383022E+03 -0.14837852030E+04 -0.18548947744E+03  0.17217065318E+04  0.12699999809E+01 0.  1.
</event>
<event>
 5   0  0.2086250E-07  0.3524493E+04  0.7818609E-02  0.8108010E-01
        1   -1    0    0  501    0  0.00000000000E+00  0.00000000000E+00  0.97642282110E+03  0.97642282111E+03  0.50400001928E-02 0. -1.
       -1   -1    0    0    0  501  0.00000000000E+00  0.00000000000E+00 -0.31805005551E+04  0.31805005551E+04  0.50400001928E-02 0.  1.
    10030    2    1    2    0    0  0.00000000000E+00  0.00000000000E+00 -0.22040777340E+04  0.41569233762E+04  0.35244933392E+04 0.  0.
        3    1    3    3  502    0  0.36706772510E+03 -0.54597586576E+03 -0.30302261291E+04  0.31008222723E+04  0.10100000352E+00 0.  1.
       -3    1    3    3    0  502 -0.36706772510E+03  0.54597586576E+03  0.82614839508E+03  0.10561011039E+04  0.10100000352E+00 0. -1.
</event>
<event>
 5   0  0.6669864E-07  0.3561732E+04  0.7818609E-02  0.8099314E-01
       -2   -1    0    0    0  501  0.00000000000E+00  0.00000000000E+00  0.22600214002E+04  0.22600214002E+04  0.25500000920E-02 0.  1.
        2   -1    0    0  501    0  0.00000000000E+00  0.00000000000E+00 -0.14032980944E+04  0.14032980944E+04  0.25500000920E-02 0. -1.
    10030    2    1    2    0    0  0.00000000000E+00  0.00000000000E+00  0.85672330576E+03  0.36633194946E+04  0.35617320080E+04 0.  0.
        5    1    3    3  502    0 -0.87074827398E+03 -0.15379757006E+04  0.20328255353E+03  0.17790215566E+04  0.46999998093E+01 0. -1.
       -5    1    3    3    0  502  0.87074827398E+03  0.15379757006E+04  0.65344075224E+03  0.18842979380E+04  0.46999998093E+01 0.  1.
</event>
<event>
 5   0  0.6324216E-07  0.3588870E+04  0.7818609E-02  0.8093046E-01
        2   -1    0    0  501    0  0.00000000000E+00  0.00000000000E+00  0.18602090876E+04  0.18602090876E+04  0.25500000920E-02 0. -1.
       -2   -1    0    0    0  501  0.00000000000E+00  0.00000000000E+00 -0.17309862089E+04  0.17309862089E+04  0.25500000920E-02 0.  1.
    10030    2    1    2    0    0  0.00000000000E+00  0.00000000000E+00  0.12922287861E+03  0.35911952965E+04  0.35888696139E+04 0.  0.
        2    1    3    3  502    0  0.54667279110E+03 -0.18967840906E+02  0.17747494677E+04  0.18571339727E+04  0.25500000920E-02 0. -1.
       -2    1    3    3    0  502 -0.54667279110E+03  0.18967840906E+02 -0.16455265890E+04  0.17340613238E+04  0.25500000920E-02 0.  1.
</event>
<event>
 5   0  0.2086250E-07  0.3608256E+04  0.7818609E-02  0.8088603E-01
       -3   -1    0    0    0  501  0.00000000000E+00  0.00000000000E+00  0.24390897074E+04  0.24390897094E+04  0.10100000352E+00 0. -1.
        3   -1    0    0  501    0  0.00000000000E+00  0.00000000000E+00 -0.13344638321E+04  0.13344638359E+04  0.10100000352E+00 0.  1.
    10030    2    1    2    0    0  0.00000000000E+00  0.00000000000E+00  0.11046258753E+04  0.37735535454E+04  0.36082555391E+04 0.  0.
        2    1    3    3  502    0 -0.51768398238E+03  0.12870360161E+04  0.17585908709E+04  0.22398884489E+04  0.25500000920E-02 0. -1.
       -2    1    3    3    0  502  0.51768398238E+03 -0.12870360161E+04 -0.65396499569E+03  0.15336650964E+04  0.25500000920E-02 0.  1.
</event>
<event>
 5   0  0.2086250E-07  0.3599050E+04  0.7818609E-02  0.8090709E-01
        1   -1    0    0  501    0  0.00000000000E+00  0.00000000000E+00  0.20937305053E+04  0.20937305054E+04  0.50400001928E-02 0.  1.
       -1   -1    0    0    0  501  0.00000000000E+00  0.00000000000E+00 -0.15466607440E+04  0.15466607440E+04  0.50400001928E-02 0. -1.
    10030    2    1    2    0    0  0.00000000000E+00  0.00000000000E+00  0.54706976133E+03  0.36403912494E+04  0.35990503087E+04 0.  0.
        2    1    3    3  502    0 -0.54245697766E+02  0.48135329838E+03  0.20265457287E+04  0.20836341291E+04  0.25500000920E-02 0.  1.
       -2    1    3    3    0  502  0.54245697766E+02 -0.48135329838E+03 -0.14794759673E+04  0.15567571203E+04  0.25500000920E-02 0. -1.
</event>
<event>
 5   0  0.2193129E-07  0.3637643E+04  0.7818609E-02  0.8081923E-01
        1   -1    0    0  501    0  0.00000000000E+00  0.00000000000E+00  0.18859247788E+04  0.18859247788E+04  0.50400001928E-02 0. -1.
       -1   -1    0    0    0  501  0.00000000000E+00  0.00000000000E+00 -0.17541054949E+04  0.17541054950E+04  0.50400001928E-02 0.  1.
    10030    2    1    2    0    0  0.00000000000E+00  0.00000000000E+00  0.13181928382E+03  0.36400302737E+04  0.36376426529E+04 0.  0.
        1    1    3    3  502    0  0.15093519326E+04  0.59035196036E+03  0.89195272820E+03  0.18499292859E+04  0.50400001928E-02 0. -1.
       -1    1    3    3    0  502 -0.15093519326E+04 -0.59035196036E+03 -0.76013344438E+03  0.17901009878E+04  0.50400001928E-02 0.  1.
</event>
<event>
 5   0  0.6324216E-07  0.3576798E+04  0.7818609E-02  0.8095827E-01
       -2   -1    0    0    0  501  0.00000000000E+00  0.00000000000E+00  0.13634775950E+04  0.13634775950E+04  0.25500000920E-02 0. -1.
        2   -1    0    0  501    0  0.00000000000E+00  0.00000000000E+00 -0.23457453445E+04  0.23457453445E+04  0.25500000920E-02 0.  1.
    10030    2    1    2    0    0  0.00000000000E+00  0.00000000000E+00 -0.98226774952E+03  0.37092229395E+04  0.35767981329E+04 0.  0.
        2    1    3    3  502    0  0.14726203596E+04 -0.31143478921E+03  0.51042279754E+03  0.15893815727E+04  0.25500000920E-02 0. -1.
       -2    1    3    3    0  502 -0.14726203596E+04  0.31143478921E+03 -0.14926905471E+04  0.21198413668E+04  0.25500000920E-02 0.  1.
</event>
<event>
 5   0  0.2193129E-07  0.3600051E+04  0.7818609E-02  0.8090480E-01
       -1   -1    0    0    0  501  0.00000000000E+00  0.00000000000E+00  0.11691740113E+04  0.11691740113E+04  0.50400001928E-02 0. -1.
        1   -1    0    0  501    0  0.00000000000E+00  0.00000000000E+00 -0.27712659851E+04  0.27712659851E+04  0.50400001928E-02 0.  1.
    10030    2    1    2    0    0  0.00000000000E+00  0.00000000000E+00 -0.16020919738E+04  0.39404399963E+04  0.36000512041E+04 0.  0.
        1    1    3    3  502    0 -0.84770703934E+03 -0.76978000027E+03 -0.23212209122E+04  0.25882880436E+04  0.50400001928E-02 0.  1.
       -1    1    3    3    0  502  0.84770703934E+03  0.76978000027E+03  0.71912893837E+03  0.13521519528E+04  0.50400001928E-02 0. -1.
</event>
<event>
 5   0  0.6669864E-07  0.3561381E+04  0.7818609E-02  0.8099395E-01
       -2   -1    0    0    0  501  0.00000000000E+00  0.00000000000E+00  0.14701582623E+04  0.14701582623E+04  0.25500000920E-02 0. -1.
        2   -1    0    0  501    0  0.00000000000E+00  0.00000000000E+00 -0.21568147617E+04  0.21568147617E+04  0.25500000920E-02 0.  1.
    10030    2    1    2    0    0  0.00000000000E+00  0.00000000000E+00 -0.68665649934E+03  0.36269730240E+04  0.35613812164E+04 0.  0.
        5    1    3    3  502    0 -0.13500009272E+04  0.38960039660E+03  0.77068551676E+03  0.16025820503E+04  0.46999998093E+01 0. -1.
       -5    1    3    3    0  502  0.13500009272E+04 -0.38960039660E+03 -0.14573420161E+04  0.20243909737E+04  0.46999998093E+01 0.  1.
</event>
<event>
 5   0  0.2086250E-07  0.3623291E+04  0.7818609E-02  0.8085177E-01
       -1   -1    0    0    0  501  0.00000000000E+00  0.00000000000E+00  0.19337189851E+04  0.19337189851E+04  0.50400001928E-02 0.  1.
        1   -1    0    0  501    0  0.00000000000E+00  0.00000000000E+00 -0.16972781958E+04  0.16972781958E+04  0.50400001928E-02 0. -1.
    10030    2    1    2    0    0  0.00000000000E+00  0.00000000000E+00  0.23644078924E+03  0.36309971809E+04  0.36232908082E+04 0.  0.
        3    1    3    3  502    0  0.62555807674E+03 -0.10694064062E+03 -0.15822386127E+04  0.17047692647E+04  0.10100000352E+00 0. -1.
       -3    1    3    3    0  502 -0.62555807674E+03  0.10694064062E+03  0.18186794020E+04  0.19262279162E+04  0.10100000352E+00 0.  1.
</event>
<event>
 5   0  0.2086250E-07  0.3925464E+04  0.7818609E-02  0.8019754E-01
       -3   -1    0    0    0  501  0.00000000000E+00  0.00000000000E+00  0.21963337028E+04  0.21963337051E+04  0.10100000352E+00 0. -1.
        3   -1    0    0  501    0  0.00000000000E+00  0.00000000000E+00 -0.17539757093E+04  0.17539757122E+04  0.10100000352E+00 0.  1.
    10030    2    1    2    0    0  0.00000000000E+00  0.00000000000E+00  0.44235799349E+03  0.39503094173E+04  0.39254635266E+04 0.  0.
        5    1    3    3  502    0 -0.91057219455E+03 -0.16891315061E+04  0.63608327941E+03  0.20216159365E+04  0.46999998093E+01 0. -1.
       -5    1    3    3    0  502  0.91057219455E+03  0.16891315061E+04 -0.19372528591E+03  0.19286934808E+04  0.46999998093E+01 0.  1.
</event>
<event>
 5   0  0.2108068E-07  0.3701174E+04  0.7818609E-02  0.8067702E-01
       -1   -1    0    0    0  501  0.00000000000E+00  0.00000000000E+00  0.23081428547E+04  0.23081428547E+04  0.50400001928E-02 0. -1.
        1   -1    0    0  501    0  0.00000000000E+00  0.00000000000E+00 -0.14837349409E+04  0.14837349409E+04  0.50400001928E-02 0.  1.
    10030    2    1    2    0    0  0.00000000000E+00  0.00000000000E+00  0.82440791377E+03  0.37918777955E+04  0.37011739770E+04 0.  0.
        5    1    3    3  502    0  0.12743248044E+04  0.12742961020E+04  0.84312549715E+03  0.19896273411E+04  0.46999998093E+01 0. -1.
       -5    1    3    3    0  502 -0.12743248044E+04 -0.12742961020E+04 -0.18717583378E+02  0.18022504544E+04  0.46999998093E+01 0.  1.
</event>
<event>
 5   0  0.6324216E-07  0.3540166E+04  0.7818609E-02  0.8104336E-01
        2   -1    0    0  501    0  0.00000000000E+00  0.00000000000E+00  0.25768879567E+04  0.25768879567E+04  0.25500000920E-02 0. -1.
       -2   -1    0    0    0  501  0.00000000000E+00  0.00000000000E+00 -0.12158830443E+04  0.12158830443E+04  0.25500000920E-02 0.  1.
    10030    2    1    2    0    0  0.00000000000E+00  0.00000000000E+00  0.13610049125E+04  0.37927710010E+04  0.35401663088E+04 0.  0.
        2    1    3    3  502    0  0.23237694815E+03  0.62593861682E+03 -0.10757979610E+04  0.12661514329E+04  0.25500000920E-02 0.  1.
       -2    1    3    3    0  502 -0.23237694815E+03 -0.62593861682E+03  0.24368028734E+04  0.25266195681E+04  0.25500000920E-02 0. -1.
</event>
<event>
 5   0  0.2193129E-07  0.3732387E+04  0.7818609E-02  0.8060822E-01
       -1   -1    0    0    0  501  0.00000000000E+00  0.00000000000E+00  0.13664339371E+04  0.13664339371E+04  0.50400001928E-02 0. -1.
        1   -1    0    0  501    0  0.00000000000E+00  0.00000000000E+00 -0.25487353126E+04  0.25487353126E+04  0.50400001928E-02 0.  1.
    10030    2    1    2    0    0  0.00000000000E+00  0.00000000000E+00 -0.11823013755E+04  0.39151692498E+04  0.37323871331E+04 0.  0.
        1    1    3    3  502    0 -0.18250419556E+04  0.38480966523E+03 -0.52630241949E+03  0.19380017686E+04  0.50400001928E-02 0.  1.
       -1    1    3    3    0  502  0.18250419556E+04 -0.38480966523E+03 -0.65599895603E+03  0.19771674812E+04  0.50400001928E-02 0. -1.
</event>
<event>
 5   0  0.6324216E-07  0.3550767E+04  0.7818609E-02  0.8101863E-01
       -2   -1    0    0    0  501  0.00000000000E+00  0.00000000000E+00  0.14704175210E+04  0.14704175210E+04  0.25500000920E-02 0. -1.
        2   -1    0    0  501    0  0.00000000000E+00  0.00000000000E+00 -0.21436001904E+04  0.21436001904E+04  0.25500000920E-02 0.  1.
    10030    2    1    2    0    0  0.00000000000E+00  0.00000000000E+00 -0.67318266935E+03  0.36140177114E+04  0.35507673976E+04 0.  0.
        2    1    3    3  502    0  0.75065044883E+03  0.90669905929E+03 -0.16893289426E+04  0.20589831366E+04  0.25500000920E-02 0.  1.
       -2    1    3    3    0  502 -0.75065044883E+03 -0.90669905929E+03  0.10161462732E+04  0.15550345749E+04  0.25500000920E-02 0. -1.
</event>
<event>
 5   0  0.2086250E-07  0.3598869E+04  0.7818609E-02  0.8090751E-01
        1   -1    0    0  501    0  0.00000000000E+00  0.00000000000E+00  0.14764582824E+04  0.14764582824E+04  0.50400001928E-02 0. -1.
       -1   -1    0    0    0  501  0.00000000000E+00  0.00000000000E+00 -0.21930615231E+04  0.21930615231E+04  0.50400001928E-02 0.  1.
    10030    2    1    2    0    0  0.00000000000E+00  0.00000000000E+00 -0.71660324068E+03  0.36695198056E+04  0.35988686276E+04 0.  0.
        2    1    3    3  502    0  0.94964627163E+03  0.10907741981E+02  0.12001065849E+04  0.15304257039E+04  0.25500000920E-02 0. -1.
       -2    1    3    3    0  502 -0.94964627163E+03 -0.10907741981E+02 -0.19167098256E+04  0.21390941016E+04  0.25500000920E-02 0.  1.
</event>
<event>
 5   0  0.2086250E-07  0.3599300E+04  0.7818609E-02  0.8090652E-01
       -1   -1    0    0    0  501  0.00000000000E+00  0.00000000000E+00  0.13201668954E+04  0.13201668954E+04  0.50400001928E-02 0.  1.
        1   -1    0    0  501    0  0.00000000000E+00  0.00000000000E+00 -0.24532811312E+04  0.24532811312E+04  0.50400001928E-02 0. -1.
    10030    2    1    2    0    0  0.00000000000E+00  0.00000000000E+00 -0.11331142358E+04  0.37734480266E+04  0.35993002289E+04 0.  0.
        2    1    3    3  502    0  0.14495078210E+04 -0.89670746911E+03 -0.11720687160E+04  0.20685507688E+04  0.25500000920E-02 0. -1.
       -2    1    3    3    0  502 -0.14495078210E+04  0.89670746911E+03  0.38954480158E+02  0.17048972578E+04  0.25500000920E-02 0.  1.
</event>
<event>
 5   0  0.2086250E-07  0.3545645E+04  0.7818609E-02  0.8103057E-01
        1   -1    0    0  501    0  0.00000000000E+00  0.00000000000E+00  0.24405268651E+04  0.24405268651E+04  0.50400001928E-02 0.  1.
       -1   -1    0    0    0  501  0.00000000000E+00  0.00000000000E+00 -0.12877953345E+04  0.12877953345E+04  0.50400001928E-02 0. -1.
    10030    2    1    2    0    0  0.00000000000E+00  0.00000000000E+00  0.11527315306E+04  0.37283221996E+04  0.35456447146E+04 0.  0.
        4    1    3    3  502    0 -0.14985608576E+04 -0.69773879626E+03 -0.97243164912E+02  0.16558930876E+04  0.12699999809E+01 0. -1.
       -4    1    3    3    0  502  0.14985608576E+04  0.69773879626E+03  0.12499746956E+04  0.20724291120E+04  0.12699999809E+01 0.  1.
</event>
<event>
 5   0  0.2086250E-07  0.3418806E+04  0.7818609E-02  0.8133306E-01
        1   -1    0    0  501    0  0.00000000000E+00  0.00000000000E+00  0.17010263645E+04  0.17010263645E+04  0.50400001928E-02 0. -1.
       -1   -1    0    0    0  501  0.00000000000E+00  0.00000000000E+00 -0.17178204399E+04  0.17178204399E+04  0.50400001928E-02 0.  1.
    10030    2    1    2    0    0  0.00000000000E+00  0.00000000000E+00 -0.16794075472E+02  0.34188468044E+04  0.34188055562E+04 0.  0.
        4    1    3    3  502    0  0.10547173268E+04  0.12828960580E+04 -0.41313060741E+03  0.17114115364E+04  0.12699999809E+01 0.  1.
       -4    1    3    3    0  502 -0.10547173268E+04 -0.12828960580E+04  0.39633653194E+03  0.17074352680E+04  0.12699999809E+01 0. -1.
</event>
<event>
 5   0  0.2108068E-07  0.3609824E+04  0.7818609E-02  0.8088245E-01
        1   -1    0    0  501    0  0.00000000000E+00  0.00000000000E+00  0.26101542265E+04  0.26101542265E+04  0.50400001928E-02 0. -1.
       -1   -1    0    0    0  501  0.00000000000E+00  0.00000000000E+00 -0.12480902935E+04  0.12480902935E+04  0.50400001928E-02 0.  1.
    10030    2    1    2    0    0  0.00000000000E+00  0.00000000000E+00  0.13620639330E+04  0.38582445199E+04  0.36098244581E+04 0.  0.
        5    1    3    3  502    0 -0.60445490034E+03  0.39379892498E+03  0.24493497784E+04  0.25533859377E+04  0.46999998093E+01 0. -1.
       -5    1    3    3    0  502  0.60445490034E+03 -0.39379892498E+03 -0.10872858454E+04  0.13048585822E+04  0.46999998093E+01 0.  1.
</event>
<event>
 5   0  0.2086250E-07  0.3616565E+04  0.7818609E-02  0.8086708E-01
       -1   -1    0    0    0  501  0.00000000000E+00  0.00000000000E+00  0.32987045208E+04  0.32987045208E+04  0.50400001928E-02 0.  1.
        1   -1    0    0  501    0  0.00000000000E+00  0.00000000000E+00 -0.99126355170E+03  0.99126355171E+03  0.50400001928E-02 0. -1.
    10030    2    1    2    0    0  0.00000000000E+00  0.00000000000E+00  0.23074409691E+04  0.42899680725E+04  0.36165649776E+04 0.  0.
        3    1    3    3  502    0  0.11298569262E+04  0.14117212590E+04  0.11314665990E+04  0.21330143604E+04  0.10100000352E+00 0. -1.
       -3    1    3    3    0  502 -0.11298569262E+04 -0.14117212590E+04  0.11759743701E+04  0.21569537121E+04  0.10100000352E+00 0.  1.
</event>
<event>
 5   0  0.6669864E-07  0.3594518E+04  0.7818609E-02  0.8091748E-01
       -2   -1    0    0    0  501  0.00000000000E+00  0.00000000000E+00  0.14482828324E+04  0.14482828324E+04  0.25500000920E-02 0.  1.
        2   -1    0    0  501    0  0.00000000000E+00  0.00000000000E+00 -0.22303245240E+04  0.22303245240E+04  0.25500000920E-02 0. -1.
    10030    2    1    2    0    0  0.00000000000E+00  0.00000000000E+00 -0.78204169160E+03  0.36786073564E+04  0.35945184483E+04 0.  0.
        5    1    3    3  502    0 -0.16505488491E+03  0.82978694566E+03  0.12317372420E+04  0.14943186453E+04  0.46999998093E+01 0.  1.
       -5    1    3    3    0  502  0.16505488491E+03 -0.82978694566E+03 -0.20137789336E+04  0.21842887111E+04  0.46999998093E+01 0. -1.
</event>
<event>
 5   0  0.2108068E-07  0.3590122E+04  0.7818609E-02  0.8092758E-01
       -1   -1    0    0    0  501  0.00000000000E+00  0.00000000000E+00  0.25021671938E+04  0.25021671938E+04  0.50400001928E-02 0.  1.
        1   -1    0    0  501    0  0.00000000000E+00  0.00000000000E+00 -0.12877815964E+04  0.12877815964E+04  0.50400001928E-02 0. -1.
    10030    2    1    2    0    0  0.00000000000E+00  0.00000000000E+00  0.12143855974E+04  0.37899487901E+04  0.35901224844E+04 0.  0.
        5    1    3    3  502    0 -0.44505943191E+03 -0.57065086867E+03 -0.11269525101E+04  0.13393148853E+04  0.46999998093E+01 0. -1.
       -5    1    3    3    0  502  0.44505943191E+03  0.57065086867E+03  0.23413381075E+04  0.24506339049E+04  0.46999998093E+01 0.  1.
</event>
<event>
 5   0  0.6848661E-07  0.3571637E+04  0.7818609E-02  0.8097020E-01
       -2   -1    0    0    0  501  0.00000000000E+00  0.00000000000E+00  0.21184392889E+04  0.21184392889E+04  0.25500000920E-02 0. -1.
        2   -1    0    0  501    0  0.00000000000E+00  0.00000000000E+00 -0.15054235553E+04  0.15054235553E+04  0.25500000920E-02 0.  1.
    10030    2    1    2    0    0  0.00000000000E+00  0.00000000000E+00  0.61301573366E+03  0.36238628442E+04  0.35716373869E+04 0.  0.
        1    1    3    3  502    0  0.26573653016E+03  0.86049784873E+03  0.18711580403E+04  0.20766089817E+04  0.50400001928E-02 0. -1.
       -1    1    3    3    0  502 -0.26573653016E+03 -0.86049784873E+03 -0.12581423066E+04  0.15472538625E+04  0.50400001928E-02 0.  1.
</event>
<event>
 5   0  0.2086250E-07  0.3518096E+04  0.7818609E-02  0.8109515E-01
       -1   -1    0    0    0  501  0.00000000000E+00  0.00000000000E+00  0.12378196823E+04  0.12378196824E+04  0.50400001928E-02 0.  1.
        1   -1    0    0  501    0  0.00000000000E+00  0.00000000000E+00 -0.24997578419E+04  0.24997578419E+04  0.50400001928E-02 0. -1.
    10030    2    1    2    0    0  0.00000000000E+00  0.00000000000E+00 -0.12619381595E+04  0.37375775243E+04  0.35180957678E+04 0.  0.
        3    1    3    3  502    0  0.64311620899E+03  0.56770617406E+03 -0.22624712869E+04  0.24196415215E+04  0.10100000352E+00 0. -1.
       -3    1    3    3    0  502 -0.64311620899E+03 -0.56770617406E+03  0.10005331273E+04  0.13179360028E+04  0.10100000352E+00 0.  1.
</event>
<event>
 5   0  0.2086250E-07  0.3607974E+04  0.7818609E-02  0.8088667E-01
       -1   -1    0    0    0  501  0.00000000000E+00  0.00000000000E+00  0.14500679046E+04  0.14500679046E+04  0.50400001928E-02 0. -1.
        1   -1    0    0  501    0  0.00000000000E+00  0.00000000000E+00 -0.22442879141E+04  0.22442879141E+04  0.50400001928E-02 0.  1.
    10030    2    1    2    0    0  0.00000000000E+00  0.00000000000E+00 -0.79422000954E+03  0.36943558187E+04  0.36079744305E+04 0.  0.
        4    1    3    3  502    0  0.10019553186E+04  0.24323536463E+03  0.11186318200E+04  0.15213206975E+04  0.12699999809E+01 0. -1.
       -4    1    3    3    0  502 -0.10019553186E+04 -0.24323536463E+03 -0.19128518296E+04  0.21730351212E+04  0.12699999809E+01 0.  1.
</event>
<event>
 5   0  0.6848661E-07  0.3601800E+04  0.7818609E-02  0.8090079E-01
       -2   -1    0    0    0  501  0.00000000000E+00  0.00000000000E+00  0.23983384222E+04  0.23983384222E+04  0.25500000920E-02 0. -1.
        2   -1    0    0  501    0  0.00000000000E+00  0.00000000000E+00 -0.13522868627E+04  0.13522868627E+04  0.25500000920E-02 0.  1.
    10030    2    1    2    0    0  0.00000000000E+00  0.00000000000E+00  0.10460515595E+04  0.37506252849E+04  0.36018004057E+04 0.  0.
        1    1    3    3  502    0  0.16165117252E+04 -0.11835576943E+03  0.13403941899E+04  0.21032771644E+04  0.50400001928E-02 0. -1.
       -1    1    3    3    0  502 -0.16165117252E+04  0.11835576943E+03 -0.29434263039E+03  0.16473481205E+04  0.50400001928E-02 0.  1.
</event>
<event>
 5   0  0.6729577E-07  0.3597632E+04  0.7818609E-02  0.8091034E-01
       -2   -1    0    0    0  501  0.00000000000E+00  0.00000000000E+00  0.19318576457E+04  0.19318576457E+04  0.25500000920E-02 0.  1.
        2   -1    0    0  501    0  0.00000000000E+00  0.00000000000E+00 -0.16749367403E+04  0.16749367404E+04  0.25500000920E-02 0. -1.
    10030    2    1    2    0    0  0.00000000000E+00  0.00000000000E+00  0.25692090531E+03  0.36067943860E+04  0.35976321923E+04 0.  0.
        3    1    3    3  502    0  0.58746759999E+01 -0.47066459866E+03 -0.16121003212E+04  0.16794127343E+04  0.10100000352E+00 0. -1.
       -3    1    3    3    0  502 -0.58746759999E+01  0.47066459866E+03  0.18690212265E+04  0.19273816518E+04  0.10100000352E+00 0.  1.
</event>
<event>
 5   0  0.6848661E-07  0.3134690E+04  0.7818609E-02  0.8206282E-01
       -2   -1    0    0    0  501  0.00000000000E+00  0.00000000000E+00  0.93947467393E+03  0.93947467393E+03  0.25500000920E-02 0.  1.
        2   -1    0    0  501    0  0.00000000000E+00  0.00000000000E+00 -0.26148338555E+04  0.26148338555E+04  0.25500000920E-02 0. -1.
    10030    2    1    2    0    0  0.00000000000E+00  0.00000000000E+00 -0.16753591816E+04  0.35543085294E+04  0.31346898946E+04 0.  0.
        1    1    3    3  502    0 -0.87534787791E+03  0.42489030798E+03 -0.22309034333E+04  0.24338643778E+04  0.50400001928E-02 0. -1.
       -1    1    3    3    0  502  0.87534787791E+03 -0.42489030798E+03  0.55554425170E+03  0.11204441516E+04  0.50400001928E-02 0.  1.
</event>
<event>
 5   0  0.6729577E-07  0.3635152E+04  0.7818609E-02  0.8082487E-01
        2   -1    0    0  501    0  0.00000000000E+00  0.00000000000E+00  0.10823319683E+04  0.10823319683E+04  0.25500000920E-02 0. -1.
       -2   -1    0    0    0  501  0.00000000000E+00  0.00000000000E+00 -0.30522825365E+04  0.30522825365E+04  0.25500000920E-02 0.  1.
    10030    2    1    2    0    0  0.00000000000E+00  0.00000000000E+00 -0.19699505682E+04  0.41346145049E+04  0.36351522475E+04 0.  0.
        3    1    3    3  502    0  0.11741020509E+04  0.10692587190E+04 -0.19906261483E+04  0.25464528872E+04  0.10100000352E+00 0.  1.
       -3    1    3    3    0  502 -0.11741020509E+04 -0.10692587190E+04  0.20675580110E+02  0.15881616177E+04  0.10100000352E+00 0. -1.
</event>
<event>
 5   0  0.6324216E-07  0.3608985E+04  0.7818609E-02  0.8088437E-01
        2   -1    0    0  501    0  0.00000000000E+00  0.00000000000E+00  0.25623699874E+04  0.25623699874E+04  0.25500000920E-02 0. -1.
       -2   -1    0    0    0  501  0.00000000000E+00  0.00000000000E+00 -0.12707742937E+04  0.12707742937E+04  0.25500000920E-02 0.  1.
    10030    2    1    2    0    0  0.00000000000E+00  0.00000000000E+00  0.12915956937E+04  0.38331442810E+04  0.36089854036E+04 0.  0.
        2    1    3    3  502    0 -0.54870083444E+03 -0.14762722895E+04 -0.28966928912E+03  0.16013621625E+04  0.25500000920E-02 0.  1.
       -2    1    3    3    0  502  0.54870083444E+03  0.14762722895E+04  0.15812649828E+04  0.22317821185E+04  0.25500000920E-02 0. -1.
</event>
<event>
 5   0  0.6848661E-07  0.3682557E+04  0.7818609E-02  0.8071838E-01
        2   -1    0    0  501    0  0.00000000000E+00  0.00000000000E+00  0.27096681831E+04  0.27096681831E+04  0.25500000920E-02 0.  1.
       -2   -1    0    0    0  501  0.00000000000E+00  0.00000000000E+00 -0.12511888846E+04  0.12511888846E+04  0.25500000920E-02 0. -1.
    10030    2    1    2    0    0  0.00000000000E+00  0.00000000000E+00  0.14584792985E+04  0.39608570677E+04  0.36825571070E+04 0.  0.
        1    1    3    3  502    0 -0.48779130947E+03 -0.17414627053E+04  0.35715686465E+03  0.18434190358E+04  0.50400001928E-02 0. -1.
       -1    1    3    3    0  502  0.48779130947E+03  0.17414627053E+04  0.11013224338E+04  0.21174380319E+04  0.50400001928E-02 0.  1.
</event>
<event>
 5   0  0.2108068E-07  0.3551560E+04  0.7818609E-02  0.8101678E-01
       -1   -1    0    0    0  501  0.00000000000E+00  0.00000000000E+00  0.15372643712E+04  0.15372643712E+04  0.50400001928E-02 0.  1.
        1   -1    0    0  501    0  0.00000000000E+00  0.00000000000E+00 -0.20513027675E+04  0.20513027675E+04  0.50400001928E-02 0. -1.
    10030    2    1    2    0    0  0.00000000000E+00  0.00000000000E+00 -0.51403839628E+03  0.35885671387E+04  0.35515600285E+04 0.  0.
        5    1    3    3  502    0  0.78385062507E+03 -0.83684702457E+03  0.11130736881E+04  0.15980268678E+04  0.46999998093E+01 0.  1.
       -5    1    3    3    0  502 -0.78385062507E+03  0.83684702457E+03 -0.16271120844E+04  0.19905402709E+04  0.46999998093E+01 0. -1.
</event>
<event>
 5   0  0.2108068E-07  0.3595816E+04  0.7818609E-02  0.8091451E-01
       -1   -1    0    0    0  501  0.00000000000E+00  0.00000000000E+00  0.21834483131E+04  0.21834483131E+04  0.50400001928E-02 0. -1.
        1   -1    0    0  501    0  0.00000000000E+00  0.00000000000E+00 -0.14804437824E+04  0.14804437824E+04  0.50400001928E-02 0.  1.
    10030    2    1    2    0    0  0.00000000000E+00  0.00000000000E+00  0.70300453063E+03  0.36638920955E+04  0.35958156123E+04 0.  0.
        5    1    3    3  502    0 -0.19911383378E+03  0.12618653722E+04  0.16405621115E+04  0.20792827292E+04  0.46999998093E+01 0.  1.
       -5    1    3    3    0  502  0.19911383378E+03 -0.12618653722E+04 -0.93755758090E+03  0.15846093663E+04  0.46999998093E+01 0. -1.
</event>
<event>
 5   0  0.6324216E-07  0.3574505E+04  0.7818609E-02  0.8096357E-01
        2   -1    0    0  501    0  0.00000000000E+00  0.00000000000E+00  0.22545729732E+04  0.22545729732E+04  0.25500000920E-02 0. -1.
       -2   -1    0    0    0  501  0.00000000000E+00  0.00000000000E+00 -0.14167965480E+04  0.14167965480E+04  0.25500000920E-02 0.  1.
    10030    2    1    2    0    0  0.00000000000E+00  0.00000000000E+00  0.83777642521E+03  0.36713695211E+04  0.35745048359E+04 0.  0.
        2    1    3    3  502    0 -0.17764938626E+03  0.45436840534E+03  0.21848594052E+04  0.22386649085E+04  0.25500000920E-02 0. -1.
       -2    1    3    3    0  502  0.17764938626E+03 -0.45436840534E+03 -0.13470829800E+04  0.14327046126E+04  0.25500000920E-02 0.  1.
</event>
<event>
 5   0  0.2086250E-07  0.3636015E+04  0.7818609E-02  0.8082291E-01
       -1   -1    0    0    0  501  0.00000000000E+00  0.00000000000E+00  0.12302545835E+04  0.12302545835E+04  0.50400001928E-02 0. -1.
        1   -1    0    0  501    0  0.00000000000E+00  0.00000000000E+00 -0.26865591283E+04  0.26865591283E+04  0.50400001928E-02 0.  1.
    10030    2    1    2    0    0  0.00000000000E+00  0.00000000000E+00 -0.14563045449E+04  0.39168137118E+04  0.36360152263E+04 0.  0.
        3    1    3    3  502    0 -0.56368794264E+03  0.11877317607E+04  0.62448662659E+03  0.14554842456E+04  0.10100000352E+00 0. -1.
       -3    1    3    3    0  502  0.56368794264E+03 -0.11877317607E+04 -0.20807911715E+04  0.24613294663E+04  0.10100000352E+00 0.  1.
</event>
<event>
 5   0  0.2108068E-07  0.3574330E+04  0.7818609E-02  0.8096397E-01
       -1   -1    0    0    0  501  0.00000000000E+00  0.00000000000E+00  0.17330054014E+04  0.17330054014E+04  0.50400001928E-02 0. -1.
        1   -1    0    0  501    0  0.00000000000E+00  0.00000000000E+00 -0.18430172245E+04  0.18430172245E+04  0.50400001928E-02 0.  1.
    10030    2    1    2    0    0  0.00000000000E+00  0.00000000000E+00 -0.11001182310E+03  0.35760226258E+04  0.35743300378E+04 0.  0.
        5    1    3    3  502    0 -0.30944579377E+03  0.90308082775E+02 -0.18136848642E+04  0.18421148514E+04  0.46999998093E+01 0.  1.
       -5    1    3    3    0  502  0.30944579377E+03 -0.90308082775E+02  0.17036730411E+04  0.17339077744E+04  0.46999998093E+01 0. -1.
</event>
<event>
 5   0  0.2086250E-07  0.3592561E+04  0.7818609E-02  0.8092198E-01
        1   -1    0    0  501    0  0.00000000000E+00  0.00000000000E+00  0.16412714876E+04  0.16412714876E+04  0.50400001928E-02 0.  1.
       -1   -1    0    0    0  501  0.00000000000E+00  0.00000000000E+00 -0.19659291237E+04  0.19659291237E+04  0.50400001928E-02 0. -1.
    10030    2    1    2    0    0  0.00000000000E+00  0.00000000000E+00 -0.32465763609E+03  0.36072006113E+04  0.35925608790E+04 0.  0.
        2    1    3    3  502    0 -0.12801379039E+04  0.21906761525E+03 -0.14083044899E+04  0.19157414255E+04  0.25500000920E-02 0. -1.
       -2    1    3    3    0  502  0.12801379039E+04 -0.21906761525E+03  0.10836468538E+04  0.16914591857E+04  0.25500000920E-02 0.  1.
</event>
<event>
 5   0  0.6729577E-07  0.3617118E+04  0.7818609E-02  0.8086582E-01
        2   -1    0    0  501    0  0.00000000000E+00  0.00000000000E+00  0.20326444562E+04  0.20326444562E+04  0.25500000920E-02 0.  1.
       -2   -1    0    0    0  501  0.00000000000E+00  0.00000000000E+00 -0.16091777700E+04  0.16091777700E+04  0.25500000920E-02 0. -1.
    10030    2    1    2    0    0  0.00000000000E+00  0.00000000000E+00  0.42346668614E+03  0.36418222262E+04  0.36171183410E+04 0.  0.
        3    1    3    3  502    0 -0.92216624880E+02 -0.51843098251E+03 -0.15302891413E+04  0.16183508444E+04  0.10100000352E+00 0. -1.
       -3    1    3    3    0  502  0.92216624880E+02  0.51843098251E+03  0.19537558274E+04  0.20234713818E+04  0.10100000352E+00 0.  1.
</event>
<event>
 5   0  0.2086250E-07  0.3644815E+04  0.7818609E-02  0.8080303E-01
       -3   -1    0    0    0  501  0.00000000000E+00  0.00000000000E+00  0.15051097615E+04  0.15051097649E+04  0.10100000352E+00 0. -1.
        3   -1    0    0  501    0  0.00000000000E+00  0.00000000000E+00 -0.22065954933E+04  0.22065954956E+04  0.10100000352E+00 0.  1.
    10030    2    1    2    0    0  0.00000000000E+00  0.00000000000E+00 -0.70148573170E+03  0.37117052605E+04  0.36448146330E+04 0.  0.
        4    1    3    3  502    0 -0.12536419503E+04 -0.11541634965E+04 -0.10087082186E+04  0.19802033732E+04  0.12699999809E+01 0.  1.
       -4    1    3    3    0  502  0.12536419503E+04  0.11541634965E+04  0.30722248687E+03  0.17315018873E+04  0.12699999809E+01 0. -1.
</event>
<event>
 5   0  0.6324216E-07  0.3588520E+04  0.7818609E-02  0.8093126E-01
       -2   -1    0    0    0  501  0.00000000000E+00  0.00000000000E+00  0.16834086057E+04  0.16834086057E+04  0.25500000920E-02 0. -1.
        2   -1    0    0  501    0  0.00000000000E+00  0.00000000000E+00 -0.19124109173E+04  0.19124109173E+04  0.25500000920E-02 0.  1.
    10030    2    1    2    0    0  0.00000000000E+00  0.00000000000E+00 -0.22900231164E+03  0.35958195230E+04  0.35885200268E+04 0.  0.
        2    1    3    3  502    0  0.19732023393E+03  0.12703795477E+04  0.11396715604E+04  0.17180368843E+04  0.25500000920E-02 0. -1.
       -2    1    3    3    0  502 -0.19732023393E+03 -0.12703795477E+04 -0.13686738721E+04  0.18777826387E+04  0.25500000920E-02 0.  1.
</event>
<event>
 5   0  0.2193129E-07  0.3586282E+04  0.7818609E-02  0.8093641E-01
        1   -1    0    0  501    0  0.00000000000E+00  0.00000000000E+00  0.22402060464E+04  0.22402060464E+04  0.50400001928E-02 0.  1.
       -1   -1    0    0    0  501  0.00000000000E+00  0.00000000000E+00 -0.14352938288E+04  0.14352938288E+04  0.50400001928E-02 0. -1.
    10030    2    1    2    0    0  0.00000000000E+00  0.00000000000E+00  0.80491221752E+03  0.36754998752E+04  0.35862815917E+04 0.  0.
        1    1    3    3  502    0 -0.16771023289E+04 -0.36652114689E+02  0.10517290989E+04  0.19799367911E+04  0.50400001928E-02 0.  1.
       -1    1    3    3    0  502  0.16771023289E+04  0.36652114689E+02 -0.24681688141E+03  0.16955630841E+04  0.50400001928E-02 0. -1.
</event>
<event>
 5   0  0.6729577E-07  0.3612685E+04  0.7818609E-02  0.8087592E-01
        2   -1    0    0  501    0  0.00000000000E+00  0.00000000000E+00  0.21571549081E+04  0.21571549081E+04  0.25500000920E-02 0.  1.
       -2   -1    0    0    0  501  0.00000000000E+00  0.00000000000E+00 -0.15125821480E+04  0.15125821481E+04  0.25500000920E-02 0. -1.
    10030    2    1    2    0    0  0.00000000000E+00  0.00000000000E+00  0.64457276000E+03  0.36697370561E+04  0.36126854303E+04 0.  0.
        3    1    3    3  502    0  0.75414036299E+03 -0.14212977781E+04 -0.51168996809E+03  0.16883843445E+04  0.10100000352E+00 0. -1.
       -3    1    3    3    0  502 -0.75414036299E+03  0.14212977781E+04  0.11562627281E+04  0.19813527116E+04  0.10100000352E+00 0.  1.
</event>
<event>
 5   0  0.2086250E-07  0.3646768E+04  0.7818609E-02  0.8079862E-01
       -1   -1    0    0    0  501  0.00000000000E+00  0.00000000000E+00  0.20106920510E+04  0.20106920510E+04  0.50400001928E-02 0. -1.
        1   -1    0    0  501    0  0.00000000000E+00  0.00000000000E+00 -0.16535249503E+04  0.16535249503E+04  0.50400001928E-02 0.  1.
    10030    2    1    2    0    0  0.00000000000E+00  0.00000000000E+00  0.35716710070E+03  0.36642170013E+04  0.36467681439E+04 0.  0.
        2    1    3    3  502    0  0.11130927218E+04  0.12052554328E+04 -0.62090783517E+03  0.17541786128E+04  0.25500000920E-02 0.  1.
       -2    1    3    3    0  502 -0.11130927218E+04 -0.12052554328E+04  0.97807493587E+03  0.19100383886E+04  0.25500000920E-02 0. -1.
</event>
<event>
 5   0  0.2086250E-07  0.3592971E+04  0.7818609E-02  0.8092104E-01
       -1   -1    0    0    0  501  0.00000000000E+00  0.00000000000E+00  0.22406065684E+04  0.22406065684E+04  0.50400001928E-02 0.  1.
        1   -1    0    0  501    0  0.00000000000E+00  0.00000000000E+00 -0.14403959162E+04  0.14403959162E+04  0.50400001928E-02 0. -1.
    10030    2    1    2    0    0  0.00000000000E+00  0.00000000000E+00  0.80021065221E+03  0.36810024846E+04  0.35929712222E+04 0.  0.
        3    1    3    3  502    0  0.15637579726E+04  0.75645372438E+03 -0.69155602871E+02  0.17384889248E+04  0.10100000352E+00 0. -1.
       -3    1    3    3    0  502 -0.15637579726E+04 -0.75645372438E+03  0.86936625509E+03  0.19425135597E+04  0.10100000352E+00 0.  1.
</event>
<event>
 5   0  0.2108068E-07  0.3701043E+04  0.7818609E-02  0.8067731E-01
       -1   -1    0    0    0  501  0.00000000000E+00  0.00000000000E+00  0.17347429516E+04  0.17347429516E+04  0.50400001928E-02 0. -1.
        1   -1    0    0  501    0  0.00000000000E+00  0.00000000000E+00 -0.19740276693E+04  0.19740276693E+04  0.50400001928E-02 0.  1.
    10030    2    1    2    0    0  0.00000000000E+00  0.00000000000E+00 -0.23928471778E+03  0.37087706209E+04  0.37010434127E+04 0.  0.
        5    1    3    3  502    0  0.45231272680E+03 -0.16639375363E+04  0.55342474715E+03  0.18109599577E+04  0.46999998093E+01 0. -1.
       -5    1    3    3    0  502 -0.45231272680E+03  0.16639375363E+04 -0.79270946493E+03  0.18978106632E+04  0.46999998093E+01 0.  1.
</event>
<event>
 5   0  0.2086250E-07  0.3544936E+04  0.7818609E-02  0.8103223E-01
        1   -1    0    0  501    0  0.00000000000E+00  0.00000000000E+00  0.21210612012E+04  0.21210612012E+04  0.50400001928E-02 0.  1.
       -1   -1    0    0    0  501  0.00000000000E+00  0.00000000000E+00 -0.14811655521E+04  0.14811655522E+04  0.50400001928E-02 0. -1.
    10030    2    1    2    0    0  0.00000000000E+00  0.00000000000E+00  0.63989564905E+03  0.36022267534E+04  0.35449359854E+04 0.  0.
        2    1    3    3  502    0  0.73394515559E+03  0.15830197993E+04  0.63645492500E+03  0.18573373543E+04  0.25500000920E-02 0.  1.
       -2    1    3    3    0  502 -0.73394515559E+03 -0.15830197993E+04  0.34407240466E+01  0.17448893990E+04  0.25500000920E-02 0. -1.
</event>
<event>
 5   0  0.6541476E-07  0.3588563E+04  0.7818609E-02  0.8093117E-01
       -2   -1    0    0    0  501  0.00000000000E+00  0.00000000000E+00  0.13252744250E+04  0.13252744250E+04  0.25500000920E-02 0.  1.
        2   -1    0    0  501    0  0.00000000000E+00  0.00000000000E+00 -0.24292670182E+04  0.24292670183E+04  0.25500000920E-02 0. -1.
    10030    2    1    2    0    0  0.00000000000E+00  0.00000000000E+00 -0.11039925933E+04  0.37545414432E+04  0.35885626374E+04 0.  0.
        4    1    3    3  502    0 -0.17789885174E+04  0.22979222832E+03 -0.50712653747E+03  0.18640771313E+04  0.12699999809E+01 0.  1.
       -4    1    3    3    0  502  0.17789885174E+04 -0.22979222832E+03 -0.59686605581E+03  0.18904643120E+04  0.12699999809E+01 0. -1.
</event>
<event>
 5   0  0.2086250E-07  0.3630921E+04  0.7818609E-02  0.8083445E-01
        1   -1    0    0  501    0  0.00000000000E+00  0.00000000000E+00  0.16142939030E+04  0.16142939030E+04  0.50400001928E-02 0.  1.
       -1   -1    0    0    0  501  0.00000000000E+00  0.00000000000E+00 -0.20416955496E+04  0.20416955496E+04  0.50400001928E-02 0. -1.
    10030    2    1    2    0    0  0.00000000000E+00  0.00000000000E+00 -0.42740164662E+03  0.36559894526E+04  0.36309209176E+04 0.  0.
        4    1    3    3  502    0  0.10334806030E+04 -0.12279698703E+04 -0.10680297421E+04  0.19278696279E+04  0.12699999809E+01 0. -1.
       -4    1    3    3    0  502 -0.10334806030E+04  0.12279698703E+04  0.64062809548E+03  0.17281198248E+04  0.12699999809E+01 0.  1.
</event>
<event>
 5   0  0.2108068E-07  0.3604965E+04  0.7818609E-02  0.8089355E-01
        1   -1    0    0  501    0  0.00000000000E+00  0.00000000000E+00  0.26354871594E+04  0.26354871594E+04  0.50400001928E-02 0.  1.
       -1   -1    0    0    0  501  0.00000000000E+00  0.00000000000E+00 -0.12327674977E+04  0.12327674977E+04  0.50400001928E-02 0. -1.
    10030    2    1    2    0    0  0.00000000000E+00  0.00000000000E+00  0.14027196618E+04  0.38682546571E+04  0.36049648601E+04 0.  0.
        5    1    3    3  502    0  0.11665874073E+04  0.60746387863E+03 -0.62112401192E+03  0.14545637390E+04  0.46999998093E+01 0. -1.
       -5    1    3    3    0  502 -0.11665874073E+04 -0.60746387863E+03  0.20238436737E+04  0.24136909181E+04  0.46999998093E+01 0.  1.
</event>
<event>
 5   0  0.2086250E-07  0.3588621E+04  0.7818609E-02  0.8093103E-01
        1   -1    0    0  501    0  0.00000000000E+00  0.00000000000E+00  0.13952910881E+04  0.13952910881E+04  0.50400001928E-02 0.  1.
       -1   -1    0    0    0  501  0.00000000000E+00  0.00000000000E+00 -0.23074397680E+04  0.23074397680E+04  0.50400001928E-02 0. -1.
    10030    2    1    2    0    0  0.00000000000E+00  0.00000000000E+00 -0.91214867985E+03  0.37027308561E+04  0.35886209856E+04 0.  0.
        2    1    3    3  502    0 -0.64677164566E+03 -0.93085542191E+02 -0.21803103712E+04  0.22761220957E+04  0.25500000920E-02 0. -1.
       -2    1    3    3    0  502  0.64677164566E+03  0.93085542191E+02  0.12681616913E+04  0.14266087604E+04  0.25500000920E-02 0.  1.
</event>
<event>
 5   0  0.6848661E-07  0.3625805E+04  0.7818609E-02  0.8084606E-01
        2   -1    0    0  501    0  0.00000000000E+00  0.00000000000E+00  0.27704989397E+04  0.27704989397E+04  0.25500000920E-02 0.  1.
       -2   -1    0    0    0  501  0.00000000000E+00  0.00000000000E+00 -0.11862897791E+04  0.11862897791E+04  0.25500000920E-02 0. -1.
    10030    2    1    2    0    0  0.00000000000E+00  0.00000000000E+00  0.15842091606E+04  0.39567887188E+04  0.36258045039E+04 0.  0.
        1    1    3    3  502    0 -0.40852863673E+03 -0.14832654576E+03 -0.11285949397E+04  0.12093894944E+04  0.50400001928E-02 0. -1.
       -1    1    3    3    0  502  0.40852863673E+03  0.14832654576E+03  0.27128041003E+04  0.27473992243E+04  0.50400001928E-02 0.  1.
</event>
<event>
 5   0  0.6729577E-07  0.3606577E+04  0.7818609E-02  0.8088987E-01
        2   -1    0    0  501    0  0.00000000000E+00  0.00000000000E+00  0.26759605677E+04  0.26759605677E+04  0.25500000920E-02 0. -1.
       -2   -1    0    0    0  501  0.00000000000E+00  0.00000000000E+00 -0.12152083823E+04  0.12152083823E+04  0.25500000920E-02 0.  1.
    10030    2    1    2    0    0  0.00000000000E+00  0.00000000000E+00  0.14607521854E+04  0.38911689500E+04  0.36065771655E+04 0.  0.
        3    1    3    3  502    0 -0.87342687804E+03 -0.54113330337E+02 -0.97076181034E+03  0.13069740879E+04  0.10100000352E+00 0.  1.
       -3    1    3    3    0  502  0.87342687804E+03  0.54113330337E+02  0.24315139957E+04  0.25841948621E+04  0.10100000352E+00 0. -1.
</event>
<event>
 5   0  0.6729577E-07  0.3683226E+04  0.7818609E-02  0.8071689E-01
        2   -1    0    0  501    0  0.00000000000E+00  0.00000000000E+00  0.21769251217E+04  0.21769251217E+04  0.25500000920E-02 0. -1.
       -2   -1    0    0    0  501  0.00000000000E+00  0.00000000000E+00 -0.15579486875E+04  0.15579486875E+04  0.25500000920E-02 0.  1.
    10030    2    1    2    0    0  0.00000000000E+00  0.00000000000E+00  0.61897643428E+03  0.37348738092E+04  0.36832255625E+04 0.  0.
        3    1    3    3  502    0 -0.12710588883E+04 -0.64269992572E+03 -0.87430819904E+03  0.16712476564E+04  0.10100000352E+00 0.  1.
       -3    1    3    3    0  502  0.12710588883E+04  0.64269992572E+03  0.14932846333E+04  0.20636261528E+04  0.10100000352E+00 0. -1.
</event>
<event>
 5   0  0.2086250E-07  0.3492690E+04  0.7818609E-02  0.8115525E-01
        1   -1    0    0  501    0  0.00000000000E+00  0.00000000000E+00  0.15823262993E+04  0.15823262993E+04  0.50400001928E-02 0.  1.
       -1   -1    0    0    0  501  0.00000000000E+00  0.00000000000E+00 -0.19273650136E+04  0.19273650136E+04  0.50400001928E-02 0. -1.
    10030    2    1    2    0    0  0.00000000000E+00  0.00000000000E+00 -0.34503871427E+03  0.35096913130E+04  0.34926897082E+04 0.  0.
        4    1    3    3  502    0 -0.15122990793E+04  0.71167553498E+03 -0.68113351750E+03  0.18048476539E+04  0.12699999809E+01 0. -1.
       -4    1    3    3    0  502  0.15122990793E+04 -0.71167553498E+03  0.33609480323E+03  0.17048436591E+04  0.12699999809E+01 0.  1.
</event>
<event>
 5   0  0.6848661E-07  0.3634897E+04  0.7818609E-02  0.8082545E-01
       -2   -1    0    0    0  501  0.00000000000E+00  0.00000000000E+00  0.15197167309E+04  0.15197167309E+04  0.25500000920E-02 0. -1.
        2   -1    0    0  501    0  0.00000000000E+00  0.00000000000E+00 -0.21735093688E+04  0.21735093688E+04  0.25500000920E-02 0.  1.
    10030    2    1    2    0    0  0.00000000000E+00  0.00000000000E+00 -0.65379263789E+03  0.36932260996E+04  0.36348967262E+04 0.  0.
        1    1    3    3  502    0  0.95654660936E+02  0.18140728493E+04 -0.27024829471E+03  0.18365849443E+04  0.50400001928E-02 0. -1.
       -1    1    3    3    0  502 -0.95654660936E+02 -0.18140728493E+04 -0.38354434317E+03  0.18566411554E+04  0.50400001928E-02 0.  1.
</event>
<event>
 5   0  0.2086250E-07  0.3398319E+04  0.7818609E-02  0.8138319E-01
       -1   -1    0    0    0  501  0.00000000000E+00  0.00000000000E+00  0.12203612051E+04  0.12203612051E+04  0.50400001928E-02 0. -1.
        1   -1    0    0  501    0  0.00000000000E+00  0.00000000000E+00 -0.23658096059E+04  0.23658096059E+04  0.50400001928E-02 0.  1.
    10030    2    1    2    0    0  0.00000000000E+00  0.00000000000E+00 -0.11454484008E+04  0.35861708111E+04  0.33983185618E+04 0.  0.
        2    1    3    3  502    0 -0.10956412263E+04  0.21749556852E+03 -0.19238955907E+04  0.22246591341E+04  0.25500000920E-02 0.  1.
       -2    1    3    3    0  502  0.10956412263E+04 -0.21749556852E+03  0.77844718988E+03  0.13615116770E+04  0.25500000920E-02 0. -1.
</event>
<event>
 5   0  0.2086250E-07  0.3586258E+04  0.7818609E-02  0.8093647E-01
       -1   -1    0    0    0  501  0.00000000000E+00  0.00000000000E+00  0.17141710544E+04  0.17141710545E+04  0.50400001928E-02 0. -1.
        1   -1    0    0  501    0  0.00000000000E+00  0.00000000000E+00 -0.18757243858E+04  0.18757243858E+04  0.50400001928E-02 0.  1.
    10030    2    1    2    0    0  0.00000000000E+00  0.00000000000E+00 -0.16155333131E+03  0.35898954402E+04  0.35862584671E+04 0.  0.
        3    1    3    3  502    0  0.34936597825E+03  0.10812276924E+04  0.13077863809E+04  0.17324592745E+04  0.10100000352E+00 0. -1.
       -3    1    3    3    0  502 -0.34936597825E+03 -0.10812276924E+04 -0.14693397122E+04  0.18574361657E+04  0.10100000352E+00 0.  1.
</event>
<event>
 5   0  0.2108068E-07  0.3553806E+04  0.7818609E-02  0.8101156E-01
        1   -1    0    0  501    0  0.00000000000E+00  0.00000000000E+00  0.25226737900E+04  0.25226737900E+04  0.50400001928E-02 0. -1.
       -1   -1    0    0    0  501  0.00000000000E+00  0.00000000000E+00 -0.12516021939E+04  0.12516021939E+04  0.50400001928E-02 0.  1.
    10030    2    1    2    0    0  0.00000000000E+00  0.00000000000E+00  0.12710715961E+04  0.37742759839E+04  0.35538058754E+04 0.  0.
        5    1    3    3  502    0  0.87925852731E+03  0.61895478968E+03  0.21379199994E+04  0.23930993718E+04  0.46999998093E+01 0. -1.
       -5    1    3    3    0  502 -0.87925852731E+03 -0.61895478968E+03 -0.86684840326E+03  0.13811766121E+04  0.46999998093E+01 0.  1.
</event>
<event>
 5   0  0.6324216E-07  0.3611037E+04  0.7818609E-02  0.8087968E-01
       -2   -1    0    0    0  501  0.00000000000E+00  0.00000000000E+00  0.27107209920E+04  0.27107209920E+04  0.25500000920E-02 0. -1.
        2   -1    0    0  501    0  0.00000000000E+00  0.00000000000E+00 -0.12025940817E+04  0.12025940817E+04  0.25500000920E-02 0.  1.
    10030    2    1    2    0    0  0.00000000000E+00  0.00000000000E+00  0.15081269103E+04  0.39133150737E+04  0.36110369824E+04 0.  0.
        2    1    3    3  502    0  0.67775228119E+03  0.12473907332E+04 -0.45492376668E+03  0.14907338560E+04  0.25500000920E-02 0.  1.
       -2    1    3    3    0  502 -0.67775228119E+03 -0.12473907332E+04  0.19630506770E+04  0.24225812177E+04  0.25500000920E-02 0. -1.
</event>
<event>
 5   0  0.6848661E-07  0.3631009E+04  0.7818609E-02  0.8083425E-01
        2   -1    0    0  501    0  0.00000000000E+00  0.00000000000E+00  0.22670981413E+04  0.22670981413E+04  0.25500000920E-02 0. -1.
       -2   -1    0    0    0  501  0.00000000000E+00  0.00000000000E+00 -0.14538659277E+04  0.14538659277E+04  0.25500000920E-02 0.  1.
    10030    2    1    2    0    0  0.00000000000E+00  0.00000000000E+00  0.81323221358E+03  0.37209640689E+04  0.36310090841E+04 0.  0.
        1    1    3    3  502    0 -0.50674646968E+03 -0.74261740279E+03 -0.12097304754E+04  0.15072227488E+04  0.50400001928E-02 0.  1.
       -1    1    3    3    0  502  0.50674646968E+03  0.74261740279E+03  0.20229626890E+04  0.22137413201E+04  0.50400001928E-02 0. -1.
</event>
<event>
 5   0  0.6669864E-07  0.3616740E+04  0.7818609E-02  0.8086668E-01
       -2   -1    0    0    0  501  0.00000000000E+00  0.00000000000E+00  0.28549744116E+04  0.28549744116E+04  0.25500000920E-02 0. -1.
        2   -1    0    0  501    0  0.00000000000E+00  0.00000000000E+00 -0.11454397667E+04  0.11454397667E+04  0.25500000920E-02 0.  1.
    10030    2    1    2    0    0  0.00000000000E+00  0.00000000000E+00  0.17095346449E+04  0.40004141783E+04  0.36167395393E+04 0.  0.
        5    1    3    3  502    0  0.11527789100E+04 -0.76417911261E+03 -0.43385983748E+03  0.14495259156E+04  0.46999998093E+01 0. -1.
       -5    1    3    3    0  502 -0.11527789100E+04  0.76417911261E+03  0.21433944824E+04  0.25508882626E+04  0.46999998093E+01 0.  1.
</event>
<event>
 5   0  0.2086250E-07  0.3579214E+04  0.7818609E-02  0.8095270E-01
       -1   -1    0    0    0  501  0.00000000000E+00  0.00000000000E+00  0.16893068374E+04  0.16893068374E+04  0.50400001928E-02 0. -1.
        1   -1    0    0  501    0  0.00000000000E+00  0.00000000000E+00 -0.18958625616E+04  0.18958625616E+04  0.50400001928E-02 0.  1.
    10030    2    1    2    0    0  0.00000000000E+00  0.00000000000E+00 -0.20655572415E+03  0.35851693990E+04  0.35792142088E+04 0.  0.
        2    1    3    3  502    0 -0.58671347251E+03 -0.81572980319E+03  0.13800796614E+04  0.17071226325E+04  0.25500000920E-02 0. -1.
       -2    1    3    3    0  502  0.58671347251E+03  0.81572980319E+03 -0.15866353855E+04  0.18780467665E+04  0.25500000920E-02 0.  1.
</event>
<event>
 5   0  0.6541476E-07  0.3641366E+04  0.7818609E-02  0.8081081E-01
        2   -1    0    0  501    0  0.00000000000E+00  0.00000000000E+00  0.27476640330E+04  0.27476640330E+04  0.25500000920E-02 0. -1.
       -2   -1    0    0    0  501  0.00000000000E+00  0.00000000000E+00 -0.12064383988E+04  0.12064383988E+04  0.25500000920E-02 0.  1.
    10030    2    1    2    0    0  0.00000000000E+00  0.00000000000E+00  0.15412256342E+04  0.39541024318E+04  0.36413664449E+04 0.  0.
        4    1    3    3  502    0  0.68611481351E+03 -0.96499039087E+03  0.22724836775E+04  0.25624487642E+04  0.12699999809E+01 0. -1.
       -4    1    3    3    0  502 -0.68611481351E+03  0.96499039087E+03 -0.73125804332E+03  0.13916536676E+04  0.12699999809E+01 0.  1.
</event>
<event>
 5   0  0.6848661E-07  0.3679329E+04  0.7818609E-02  0.8072558E-01
        2   -1    0    0  501    0  0.00000000000E+00  0.00000000000E+00  0.23368957989E+04  0.23368957989E+04  0.25500000920E-02 0.  1.
       -2   -1    0    0    0  501  0.00000000000E+00  0.00000000000E+00 -0.14482315693E+04  0.14482315693E+04  0.25500000920E-02 0. -1.
    10030    2    1    2    0    0  0.00000000000E+00  0.00000000000E+00  0.88866422962E+03  0.37851273682E+04  0.36793294336E+04 0.  0.
        1    1    3    3  502    0  0.18898419551E+03 -0.43418825887E+03 -0.13844603403E+04  0.14632036441E+04  0.50400001928E-02 0. -1.
       -1    1    3    3    0  502 -0.18898419551E+03  0.43418825887E+03  0.22731245699E+04  0.23219237241E+04  0.50400001928E-02 0.  1.
</event>
<event>
 5   0  0.2193129E-07  0.3634869E+04  0.7818609E-02  0.8082551E-01
       -1   -1    0    0    0  501  0.00000000000E+00  0.00000000000E+00  0.23354051354E+04  0.23354051354E+04  0.50400001928E-02 0. -1.
        1   -1    0    0  501    0  0.00000000000E+00  0.00000000000E+00 -0.14143445282E+04  0.14143445282E+04  0.50400001928E-02 0.  1.
    10030    2    1    2    0    0  0.00000000000E+00  0.00000000000E+00  0.92106060712E+03  0.37497496636E+04  0.36348686218E+04 0.  0.
        1    1    3    3  502    0 -0.17601726745E+04  0.44423958185E+03  0.37112621994E+03  0.18529142779E+04  0.50400001928E-02 0.  1.
       -1    1    3    3    0  502  0.17601726745E+04 -0.44423958185E+03  0.54993438718E+03  0.18968353857E+04  0.50400001928E-02 0. -1.
</event>
<event>
 5   0  0.2108068E-07  0.3632443E+04  0.7818609E-02  0.8083100E-01
       -1   -1    0    0    0  501  0.00000000000E+00  0.00000000000E+00  0.22623757999E+04  0.22623757999E+04  0.50400001928E-02 0. -1.
        1   -1    0    0  501    0  0.00000000000E+00  0.00000000000E+00 -0.14580514216E+04  0.14580514216E+04  0.50400001928E-02 0.  1.
    10030    2    1    2    0    0  0.00000000000E+00  0.00000000000E+00  0.80432437837E+03  0.37204272215E+04  0.36324428426E+04 0.  0.
        5    1    3    3  502    0  0.54126020997E+03  0.16889493664E+04  0.13712422554E+01  0.17735660539E+04  0.46999998093E+01 0.  1.
       -5    1    3    3    0  502 -0.54126020997E+03 -0.16889493664E+04  0.80295313611E+03  0.19468611676E+04  0.46999998093E+01 0. -1.
</event>
<event>
 5   0  0.6669864E-07  0.3581237E+04  0.7818609E-02  0.8094803E-01
        2   -1    0    0  501    0  0.00000000000E+00  0.00000000000E+00  0.13425252262E+04  0.13425252262E+04  0.25500000920E-02 0. -1.
       -2   -1    0    0    0  501  0.00000000000E+00  0.00000000000E+00 -0.23882709430E+04  0.23882709430E+04  0.25500000920E-02 0.  1.
    10030    2    1    2    0    0  0.00000000000E+00  0.00000000000E+00 -0.10457457168E+04  0.37307961692E+04  0.35812366512E+04 0.  0.
        5    1    3    3  502    0 -0.12460437615E+04  0.69039676355E+03  0.60734005822E+03  0.15485983285E+04  0.46999998093E+01 0. -1.
       -5    1    3    3    0  502  0.12460437615E+04 -0.69039676355E+03 -0.16530857750E+04  0.21821978408E+04  0.46999998093E+01 0.  1.
</event>
<event>
 5   0  0.6669864E-07  0.3613917E+04  0.7818609E-02  0.8087311E-01
        2   -1    0    0  501    0  0.00000000000E+00  0.00000000000E+00  0.28079720096E+04  0.28079720096E+04  0.25500000920E-02 0.  1.
       -2   -1    0    0    0  501  0.00000000000E+00  0.00000000000E+00 -0.11627962868E+04  0.11627962868E+04  0.25500000920E-02 0. -1.
    10030    2    1    2    0    0  0.00000000000E+00  0.00000000000E+00  0.16451757228E+04  0.39707682964E+04  0.36139172243E+04 0.  0.
        5    1    3    3  502    0 -0.37243974212E+03  0.13983755224E+04 -0.36634806267E+03  0.14927821195E+04  0.46999998093E+01 0. -1.
       -5    1    3    3    0  502  0.37243974212E+03 -0.13983755224E+04  0.20115237855E+04  0.24779861769E+04  0.46999998093E+01 0.  1.
</event>
<event>
 5   0  0.6669864E-07  0.3589105E+04  0.7818609E-02  0.8092992E-01
        2   -1    0    0  501    0  0.00000000000E+00  0.00000000000E+00  0.17236460506E+04  0.17236460506E+04  0.25500000920E-02 0. -1.
       -2   -1    0    0    0  501  0.00000000000E+00  0.00000000000E+00 -0.18683761459E+04  0.18683761459E+04  0.25500000920E-02 0.  1.
    10030    2    1    2    0    0  0.00000000000E+00  0.00000000000E+00 -0.14473009530E+03  0.35920221966E+04  0.35891052729E+04 0.  0.
        5    1    3    3  502    0  0.12119736154E+04 -0.13194634343E+04 -0.17508020844E+03  0.18001497072E+04  0.46999998093E+01 0.  1.
       -5    1    3    3    0  502 -0.12119736154E+04  0.13194634343E+04  0.30350113140E+02  0.17918724894E+04  0.46999998093E+01 0. -1.
</event>
<event>
 5   0  0.6541476E-07  0.3640333E+04  0.7818609E-02  0.8081315E-01
        2   -1    0    0  501    0  0.00000000000E+00  0.00000000000E+00  0.31026211657E+04  0.31026211657E+04  0.25500000920E-02 0. -1.
       -2   -1    0    0    0  501  0.00000000000E+00  0.00000000000E+00 -0.10678087843E+04  0.10678087843E+04  0.25500000920E-02 0.  1.
    10030    2    1    2    0    0  0.00000000000E+00  0.00000000000E+00  0.20348123814E+04  0.41704299499E+04  0.36403330260E+04 0.  0.
        4    1    3    3  502    0 -0.77201867565E+03 -0.15585076198E+04  0.40255445642E+03  0.17852200256E+04  0.12699999809E+01 0. -1.
       -4    1    3    3    0  502  0.77201867565E+03  0.15585076198E+04  0.16322579250E+04  0.23852099243E+04  0.12699999809E+01 0.  1.
</event>
<event>
 5   0  0.6541476E-07  0.3614733E+04  0.7818609E-02  0.8087125E-01
       -2   -1    0    0    0  501  0.00000000000E+00  0.00000000000E+00  0.12631250856E+04  0.12631250857E+04  0.25500000920E-02 0.  1.
        2   -1    0    0  501    0  0.00000000000E+00  0.00000000000E+00 -0.25861046481E+04  0.25861046481E+04  0.25500000920E-02 0. -1.
    10030    2    1    2    0    0  0.00000000000E+00  0.00000000000E+00 -0.13229795625E+04  0.38492297338E+04  0.36147329944E+04 0.  0.
        4    1    3    3  502    0  0.66063141925E+03  0.97310762598E+03  0.79983180266E+03  0.14223589031E+04  0.12699999809E+01 0.  1.
       -4    1    3    3    0  502 -0.66063141925E+03 -0.97310762598E+03 -0.21228113651E+04  0.24268708306E+04  0.12699999809E+01 0. -1.
</event>
<event>
 5   0  0.2108068E-07  0.3550264E+04  0.7818609E-02  0.8101980E-01
        1   -1    0    0  501    0  0.00000000000E+00  0.00000000000E+00  0.19756636822E+04  0.19756636822E+04  0.50400001928E-02 0.  1.
       -1   -1    0    0    0  501  0.00000000000E+00  0.00000000000E+00 -0.15949540195E+04  0.15949540195E+04  0.50400001928E-02 0. -1.
    10030    2    1    2    0    0  0.00000000000E+00  0.00000000000E+00  0.38070966269E+03  0.35706177017E+04  0.35502635007E+04 0.  0.
        5    1    3    3  502    0  0.67755112351E+03 -0.47807188147E+03 -0.13881792809E+04  0.16170009446E+04  0.46999998093E+01 0. -1.
       -5    1    3    3    0  502 -0.67755112351E+03  0.47807188147E+03  0.17688889436E+04  0.19536167571E+04  0.46999998093E+01 0.  1.
</event>
<event>
 5   0  0.6729577E-07  0.3683175E+04  0.7818609E-02  0.8071701E-01
        2   -1    0    0  501    0  0.00000000000E+00  0.00000000000E+00  0.27626768613E+04  0.27626768613E+04  0.25500000920E-02 0.  1.
       -2   -1    0    0    0  501  0.00000000000E+00  0.00000000000E+00 -0.12275933633E+04  0.12275933633E+04  0.25500000920E-02 0. -1.
    10030    2    1    2    0    0  0.00000000000E+00  0.00000000000E+00  0.15350834980E+04  0.39902702246E+04  0.36831745980E+04 0.  0.
        3    1    3    3  502    0  0.42089296804E+03  0.11502573828E+04 -0.72232979691E+03  0.14219716182E+04  0.10100000352E+00 0. -1.
       -3    1    3    3    0  502 -0.42089296804E+03 -0.11502573828E+04  0.22574132949E+04  0.25682986064E+04  0.10100000352E+00 0.  1.
</event>
<event>
 5   0  0.6324216E-07  0.3589984E+04  0.7818609E-02  0.8092790E-01
        2   -1    0    0  501    0  0.00000000000E+00  0.00000000000E+00  0.24952329369E+04  0.24952329369E+04  0.25500000920E-02 0. -1.
       -2   -1    0    0    0  501  0.00000000000E+00  0.00000000000E+00 -0.12912609399E+04  0.12912609400E+04  0.25500000920E-02 0.  1.
    10030    2    1    2    0    0  0.00000000000E+00  0.00000000000E+00  0.12039719970E+04  0.37864938769E+04  0.35899843050E+04 0.  0.
        2    1    3    3  502    0  0.14897801391E+04 -0.79874984837E+03  0.12388161891E+04  0.20957365611E+04  0.25500000920E-02 0. -1.
       -2    1    3    3    0  502 -0.14897801391E+04  0.79874984837E+03 -0.34844192100E+02  0.16907573158E+04  0.25500000920E-02 0.  1.
</event>
<event>
 5   0  0.2086250E-07  0.3247189E+04  0.7818609E-02  0.8176465E-01
       -1   -1    0    0    0  501  0.00000000000E+00  0.00000000000E+00  0.99741203976E+03  0.99741203977E+03  0.50400001928E-02 0. -1.
        1   -1    0    0  501    0  0.00000000000E+00  0.00000000000E+00 -0.26428980817E+04  0.26428980817E+04  0.50400001928E-02 0.  1.
    10030    2    1    2    0    0  0.00000000000E+00  0.00000000000E+00 -0.16454860419E+04  0.36403101215E+04  0.32471885480E+04 0.  0.
        3    1    3    3  502    0  0.62719535033E+03 -0.32794281834E+03  0.81536990378E+03  0.10796983791E+04  0.10100000352E+00 0. -1.
       -3    1    3    3    0  502 -0.62719535033E+03  0.32794281834E+03 -0.24608559457E+04  0.25606117424E+04  0.10100000352E+00 0.  1.
</event>
<event>
 5   0  0.6669864E-07  0.3456255E+04  0.7818609E-02  0.8124236E-01
       -2   -1    0    0    0  501  0.00000000000E+00  0.00000000000E+00  0.15847916205E+04  0.15847916205E+04  0.25500000920E-02 0.  1.
        2   -1    0    0  501    0  0.00000000000E+00  0.00000000000E+00 -0.18844276180E+04  0.18844276180E+04  0.25500000920E-02 0. -1.
    10030    2    1    2    0    0  0.00000000000E+00  0.00000000000E+00 -0.29963599754E+03  0.34692192385E+04  0.34562552559E+04 0.  0.
        5    1    3    3  502    0 -0.41662132342E+03 -0.97154373144E+03  0.12223988277E+04  0.16160914371E+04  0.46999998093E+01 0.  1.
       -5    1    3    3    0  502  0.41662132342E+03  0.97154373144E+03 -0.15220348252E+04  0.18531278014E+04  0.46999998093E+01 0. -1.
</event>
<event>
 5   0  0.6324216E-07  0.3560557E+04  0.7818609E-02  0.8099587E-01
       -2   -1    0    0    0  501  0.00000000000E+00  0.00000000000E+00  0.17251436958E+04  0.17251436958E+04  0.25500000920E-02 0.  1.
        2   -1    0    0  501    0  0.00000000000E+00  0.00000000000E+00 -0.18371749371E+04  0.18371749371E+04  0.25500000920E-02 0. -1.
    10030    2    1    2    0    0  0.00000000000E+00  0.00000000000E+00 -0.11203124128E+03  0.35623186328E+04  0.35605565636E+04 0.  0.
        2    1    3    3  502    0 -0.47486792696E+03  0.16386262011E+04 -0.56498673727E+03  0.17971659323E+04  0.25500000920E-02 0. -1.
       -2    1    3    3    0  502  0.47486792696E+03 -0.16386262011E+04  0.45295549599E+03  0.17651527005E+04  0.25500000920E-02 0.  1.
</event>
<event>
 5   0  0.2193129E-07  0.3582124E+04  0.7818609E-02  0.8094599E-01
        1   -1    0    0  501    0  0.00000000000E+00  0.00000000000E+00  0.23780617808E+04  0.23780617808E+04  0.50400001928E-02 0.  1.
       -1   -1    0    0    0  501  0.00000000000E+00  0.00000000000E+00 -0.13489573716E+04  0.13489573716E+04  0.50400001928E-02 0. -1.
    10030    2    1    2    0    0  0.00000000000E+00  0.00000000000E+00  0.10291044092E+04  0.37270191525E+04  0.35821244922E+04 0.  0.
        1    1    3    3  502    0 -0.15210550248E+04 -0.87676575959E+03  0.88325519906E+03  0.19653158353E+04  0.50400001928E-02 0.  1.
       -1    1    3    3    0  502  0.15210550248E+04  0.87676575959E+03  0.14584921016E+03  0.17617033172E+04  0.50400001928E-02 0. -1.
</event>
<event>
 5   0  0.6669864E-07  0.3508434E+04  0.7818609E-02  0.8111794E-01
       -2   -1    0    0    0  501  0.00000000000E+00  0.00000000000E+00  0.22682789369E+04  0.22682789369E+04  0.25500000920E-02 0. -1.
        2   -1    0    0  501    0  0.00000000000E+00  0.00000000000E+00 -0.13566576413E+04  0.13566576413E+04  0.25500000920E-02 0.  1.
    10030    2    1    2    0    0  0.00000000000E+00  0.00000000000E+00  0.91162129555E+03  0.36249365782E+04  0.35084343815E+04 0.  0.
        5    1    3    3  502    0  0.63224631310E+03  0.74773741607E+03  0.19596172358E+04  0.21906547981E+04  0.46999998093E+01 0. -1.
       -5    1    3    3    0  502 -0.63224631310E+03 -0.74773741607E+03 -0.10479959402E+04  0.14342817800E+04  0.46999998093E+01 0.  1.
</event>
<event>
 5   0  0.2086250E-07  0.3601533E+04  0.7818609E-02  0.8090141E-01
       -4   -1    0    0    0  501  0.00000000000E+00  0.00000000000E+00  0.17309108305E+04  0.17309112964E+04  0.12699999809E+01 0. -1.
        4   -1    0    0  501    0  0.00000000000E+00  0.00000000000E+00 -0.18734404468E+04  0.18734408773E+04  0.12699999809E+01 0.  1.
    10030    2    1    2    0    0  0.00000000000E+00  0.00000000000E+00 -0.14252961631E+03  0.36043521738E+04  0.36015329932E+04 0.  0.
        3    1    3    3  502    0  0.55694738597E+03 -0.53486512115E+03 -0.16993414940E+04  0.18665563511E+04  0.10100000352E+00 0.  1.
       -3    1    3    3    0  502 -0.55694738597E+03  0.53486512115E+03  0.15568118777E+04  0.17377958226E+04  0.10100000352E+00 0. -1.
</event>
<event>
 5   0  0.6729577E-07  0.3501064E+04  0.7818609E-02  0.8113538E-01
       -2   -1    0    0    0  501  0.00000000000E+00  0.00000000000E+00  0.19224026976E+04  0.19224026976E+04  0.25500000920E-02 0. -1.
        2   -1    0    0  501    0  0.00000000000E+00  0.00000000000E+00 -0.15940272701E+04  0.15940272701E+04  0.25500000920E-02 0.  1.
    10030    2    1    2    0    0  0.00000000000E+00  0.00000000000E+00  0.32837542757E+03  0.35164299677E+04  0.35010640235E+04 0.  0.
        3    1    3    3  502    0 -0.12214086237E+04 -0.80563444895E+03 -0.80100675783E+03  0.16680820507E+04  0.10100000352E+00 0.  1.
       -3    1    3    3    0  502  0.12214086237E+04  0.80563444895E+03  0.11293821854E+04  0.18483479170E+04  0.10100000352E+00 0. -1.
</event>
<event>
 5   0  0.2086250E-07  0.3570703E+04  0.7818609E-02  0.8097236E-01
        1   -1    0    0  501    0  0.00000000000E+00  0.00000000000E+00  0.24859933173E+04  0.24859933173E+04  0.50400001928E-02 0. -1.
       -1   -1    0    0    0  501  0.00000000000E+00  0.00000000000E+00 -0.12821752588E+04  0.12821752588E+04  0.50400001928E-02 0.  1.
    10030    2    1    2    0    0  0.00000000000E+00  0.00000000000E+00  0.12038180585E+04  0.37681685761E+04  0.35707025219E+04 0.  0.
        2    1    3    3  502    0 -0.17739074785E+04  0.17484050221E+03  0.70829151324E+03  0.19180703353E+04  0.25500000920E-02 0.  1.
       -2    1    3    3    0  502  0.17739074785E+04 -0.17484050221E+03  0.49552654526E+03  0.18500982408E+04  0.25500000920E-02 0. -1.
</event>
<event>
 5   0  0.2108068E-07  0.3622032E+04  0.7818609E-02  0.8085464E-01
        1   -1    0    0  501    0  0.00000000000E+00  0.00000000000E+00  0.24843206233E+04  0.24843206233E+04  0.50400001928E-02 0. -1.
       -1   -1    0    0    0  501  0.00000000000E+00  0.00000000000E+00 -0.13201915149E+04  0.13201915149E+04  0.50400001928E-02 0.  1.
    10030    2    1    2    0    0  0.00000000000E+00  0.00000000000E+00  0.11641291085E+04  0.38045121382E+04  0.36220320303E+04 0.  0.
        5    1    3    3  502    0  0.10186822386E+04  0.17477924151E+03  0.21440958481E+04  0.23802164570E+04  0.46999998093E+01 0. -1.
       -5    1    3    3    0  502 -0.10186822386E+04 -0.17477924151E+03 -0.97996673964E+03  0.14242956811E+04  0.46999998093E+01 0.  1.
</event>
<event>
 5   0  0.6324216E-07  0.3567876E+04  0.7818609E-02  0.8097890E-01
        2   -1    0    0  501    0  0.00000000000E+00  0.00000000000E+00  0.28373797848E+04  0.28373797848E+04  0.25500000920E-02 0.  1.
       -2   -1    0    0    0  501  0.00000000000E+00  0.00000000000E+00 -0.11216103770E+04  0.11216103770E+04  0.25500000920E-02 0. -1.
    10030    2    1    2    0    0  0.00000000000E+00  0.00000000000E+00  0.17157694079E+04  0.39589901618E+04  0.35678759003E+04 0.  0.
        2    1    3    3  502    0  0.16430013225E+04 -0.56470262068E+03  0.13073732926E+04  0.21742969718E+04  0.25500000920E-02 0.  1.
       -2    1    3    3    0  502 -0.16430013225E+04  0.56470262068E+03  0.40839611532E+03  0.17846931900E+04  0.25500000920E-02 0. -1.
</event>
<event>
 5   0  0.6848661E-07  0.3399840E+04  0.7818609E-02  0.8137946E-01
        2   -1    0    0  501    0  0.00000000000E+00  0.00000000000E+00  0.11364974655E+04  0.11364974656E+04  0.25500000920E-02 0. -1.
       -2   -1    0    0    0  501  0.00000000000E+00  0.00000000000E+00 -0.25426608593E+04  0.25426608593E+04  0.25500000920E-02 0.  1.
    10030    2    1    2    0    0  0.00000000000E+00  0.00000000000E+00 -0.14061633938E+04  0.36791583249E+04  0.33998397741E+04 0.  0.
        1    1    3    3  502    0 -0.39850304712E+03 -0.62216884679E+03 -0.23598164273E+04  0.24727782600E+04  0.50400001928E-02 0.  1.
       -1    1    3    3    0  502  0.39850304712E+03  0.62216884679E+03  0.95365303355E+03  0.12063800649E+04  0.50400001928E-02 0. -1.
</event>
<event>
 5   0  0.2086250E-07  0.3081949E+04  0.7818609E-02  0.8220709E-01
       -1   -1    0    0    0  501  0.00000000000E+00  0.00000000000E+00  0.13460583632E+04  0.13460583633E+04  0.50400001928E-02 0.  1.
        1   -1    0    0  501    0  0.00000000000E+00  0.00000000000E+00 -0.17641158269E+04  0.17641158269E+04  0.50400001928E-02 0. -1.
    10030    2    1    2    0    0  0.00000000000E+00  0.00000000000E+00 -0.41805746362E+03  0.31101741901E+04  0.30819492939E+04 0.  0.
        4    1    3    3  502    0  0.82456215685E+02 -0.13792405112E+04  0.47949364027E+03  0.14625386078E+04  0.12699999809E+01 0.  1.
       -4    1    3    3    0  502 -0.82456215685E+02  0.13792405112E+04 -0.89755110389E+03  0.16476355824E+04  0.12699999809E+01 0. -1.
</event>
<event>
 5   0  0.2086250E-07  0.3217471E+04  0.7818609E-02  0.8184218E-01
        1   -1    0    0  501    0  0.00000000000E+00  0.00000000000E+00  0.18392185975E+04  0.18392185975E+04  0.50400001928E-02 0.  1.
       -1   -1    0    0    0  501  0.00000000000E+00  0.00000000000E+00 -0.14071352189E+04  0.14071352189E+04  0.50400001928E-02 0. -1.
    10030    2    1    2    0    0  0.00000000000E+00  0.00000000000E+00  0.43208337859E+03  0.32463538163E+04  0.32174705989E+04 0.  0.
        3    1    3    3  502    0 -0.15301332584E+04  0.16848915700E+03  0.68749731804E+03  0.16859267353E+04  0.10100000352E+00 0.  1.
       -3    1    3    3    0  502  0.15301332584E+04 -0.16848915700E+03 -0.25541393945E+03  0.15604270810E+04  0.10100000352E+00 0. -1.
</event>
<event>
 5   0  0.6324216E-07  0.3587728E+04  0.7818609E-02  0.8093308E-01
       -2   -1    0    0    0  501  0.00000000000E+00  0.00000000000E+00  0.14855004858E+04  0.14855004858E+04  0.25500000920E-02 0. -1.
        2   -1    0    0  501    0  0.00000000000E+00  0.00000000000E+00 -0.21662386912E+04  0.21662386912E+04  0.25500000920E-02 0.  1.
    10030    2    1    2    0    0  0.00000000000E+00  0.00000000000E+00 -0.68073820536E+03  0.36517391770E+04  0.35877283220E+04 0.  0.
        2    1    3    3  502    0  0.10093552725E+04 -0.25362477426E+03 -0.18275416003E+04  0.21031005428E+04  0.25500000920E-02 0.  1.
       -2    1    3    3    0  502 -0.10093552725E+04  0.25362477426E+03  0.11468033950E+04  0.15486386341E+04  0.25500000920E-02 0. -1.
</event>
<event>
 5   0  0.2086250E-07  0.3419706E+04  0.7818609E-02  0.8133087E-01
        1   -1    0    0  501    0  0.00000000000E+00  0.00000000000E+00  0.21881266412E+04  0.21881266412E+04  0.50400001928E-02 0.  1.
       -1   -1    0    0    0  501  0.00000000000E+00  0.00000000000E+00 -0.13361191002E+04  0.13361191002E+04  0.50400001928E-02 0. -1.
    10030    2    1    2    0    0  0.00000000000E+00  0.00000000000E+00  0.85200754097E+03  0.35242457414E+04  0.34197063026E+04 0.  0.
        3    1    3    3  502    0 -0.60932546322E+02  0.16058138309E+04  0.10280249449E+04  0.19076650996E+04  0.10100000352E+00 0.  1.
       -3    1    3    3    0  502  0.60932546322E+02 -0.16058138309E+04 -0.17601740396E+03  0.16165806418E+04  0.10100000352E+00 0. -1.
</event>
<event>
 5   0  0.2193129E-07  0.3604033E+04  0.7818609E-02  0.8089568E-01
       -1   -1    0    0    0  501  0.00000000000E+00  0.00000000000E+00  0.23300964150E+04  0.23300964150E+04  0.50400001928E-02 0.  1.
        1   -1    0    0  501    0  0.00000000000E+00  0.00000000000E+00 -0.13936179983E+04  0.13936179983E+04  0.50400001928E-02 0. -1.
    10030    2    1    2    0    0  0.00000000000E+00  0.00000000000E+00  0.93647841667E+03  0.37237144133E+04  0.36040334637E+04 0.  0.
        1    1    3    3  502    0  0.40579911021E+03 -0.17768858292E+03 -0.13364812715E+04  0.14079873364E+04  0.50400001928E-02 0. -1.
       -1    1    3    3    0  502 -0.40579911021E+03  0.17768858292E+03  0.22729596882E+04  0.23157270769E+04  0.50400001928E-02 0.  1.
</event>
<event>
 5   0  0.2086250E-07  0.3592444E+04  0.7818609E-02  0.8092225E-01
       -1   -1    0    0    0  501  0.00000000000E+00  0.00000000000E+00  0.19226264199E+04  0.19226264199E+04  0.50400001928E-02 0. -1.
        1   -1    0    0  501    0  0.00000000000E+00  0.00000000000E+00 -0.16781284662E+04  0.16781284662E+04  0.50400001928E-02 0.  1.
    10030    2    1    2    0    0  0.00000000000E+00  0.00000000000E+00  0.24449795367E+03  0.36007548861E+04  0.35924443629E+04 0.  0.
        2    1    3    3  502    0 -0.70546512988E+03  0.16277213329E+04 -0.15992730658E+03  0.17812171486E+04  0.25500000920E-02 0.  1.
       -2    1    3    3    0  502  0.70546512988E+03 -0.16277213329E+04  0.40442526026E+03  0.18195377375E+04  0.25500000920E-02 0. -1.
</event>
<event>
 5   0  0.6541476E-07  0.3659509E+04  0.7818609E-02  0.8076995E-01
        2   -1    0    0  501    0  0.00000000000E+00  0.00000000000E+00  0.17647982788E+04  0.17647982788E+04  0.25500000920E-02 0. -1.
       -2   -1    0    0    0  501  0.00000000000E+00  0.00000000000E+00 -0.18971016503E+04  0.18971016503E+04  0.25500000920E-02 0.  1.
    10030    2    1    2    0    0  0.00000000000E+00  0.00000000000E+00 -0.13230337141E+03  0.36618999291E+04  0.36595091076E+04 0.  0.
        4    1    3    3  502    0  0.93561389423E+03  0.14454670831E+04 -0.68562936940E+03  0.18533315117E+04  0.12699999809E+01 0.  1.
       -4    1    3    3    0  502 -0.93561389423E+03 -0.14454670831E+04  0.55332599798E+03  0.18085684174E+04  0.12699999809E+01 0. -1.
</event>
<event>
 5   0  0.2086250E-07  0.3595826E+04  0.7818609E-02  0.8091449E-01
       -1   -1    0    0    0  501  0.00000000000E+00  0.00000000000E+00  0.22851671092E+04  0.22851671092E+04  0.50400001928E-02 0.  1.
        1   -1    0    0  501    0  0.00000000000E+00  0.00000000000E+00 -0.14145532659E+04  0.14145532659E+04  0.50400001928E-02 0. -1.
    10030    2    1    2    0    0  0.00000000000E+00  0.00000000000E+00  0.87061384329E+03  0.36997203751E+04  0.35958256896E+04 0.  0.
        2    1    3    3  502    0  0.15542296305E+01 -0.45992007462E+03 -0.13530033896E+04  0.14290371104E+04  0.25500000920E-02 0. -1.
       -2    1    3    3    0  502 -0.15542296305E+01  0.45992007462E+03  0.22236172328E+04  0.22706832648E+04  0.25500000920E-02 0.  1.
</event>
<event>
 5   0  0.6541476E-07  0.3686695E+04  0.7818609E-02  0.8070917E-01
       -2   -1    0    0    0  501  0.00000000000E+00  0.00000000000E+00  0.22112697086E+04  0.22112697086E+04  0.25500000920E-02 0. -1.
        2   -1    0    0  501    0  0.00000000000E+00  0.00000000000E+00 -0.15366418591E+04  0.15366418591E+04  0.25500000920E-02 0.  1.
    10030    2    1    2    0    0  0.00000000000E+00  0.00000000000E+00  0.67462784951E+03  0.37479115678E+04  0.36866947778E+04 0.  0.
        4    1    3    3  502    0  0.15026109287E+04  0.10676890280E+04  0.34883881852E+03  0.18760302763E+04  0.12699999809E+01 0.  1.
       -4    1    3    3    0  502 -0.15026109287E+04 -0.10676890280E+04  0.32578903099E+03  0.18718812914E+04  0.12699999809E+01 0. -1.
</event>
<event>
 5   0  0.6848661E-07  0.3145989E+04  0.7818609E-02  0.8203229E-01
       -2   -1    0    0    0  501  0.00000000000E+00  0.00000000000E+00  0.12765556836E+04  0.12765556836E+04  0.25500000920E-02 0. -1.
        2   -1    0    0  501    0  0.00000000000E+00  0.00000000000E+00 -0.19382718278E+04  0.19382718278E+04  0.25500000920E-02 0.  1.
    10030    2    1    2    0    0  0.00000000000E+00  0.00000000000E+00 -0.66171614424E+03  0.32148275114E+04  0.31459891406E+04 0.  0.
        1    1    3    3  502    0  0.33315481954E+03  0.10905106467E+04  0.77641354770E+03  0.13795012147E+04  0.50400001928E-02 0. -1.
       -1    1    3    3    0  502 -0.33315481954E+03 -0.10905106467E+04 -0.14381296919E+04  0.18353262967E+04  0.50400001928E-02 0.  1.
</event>
<event>
 5   0  0.6669864E-07  0.3551684E+04  0.7818609E-02  0.8101650E-01
       -2   -1    0    0    0  501  0.00000000000E+00  0.00000000000E+00  0.16930056832E+04  0.16930056832E+04  0.25500000920E-02 0.  1.
        2   -1    0    0  501    0  0.00000000000E+00  0.00000000000E+00 -0.18627312697E+04  0.18627312697E+04  0.25500000920E-02 0. -1.
    10030    2    1    2    0    0  0.00000000000E+00  0.00000000000E+00 -0.16972558643E+03  0.35557369529E+04  0.35516838969E+04 0.  0.
        5    1    3    3  502    0 -0.56258509703E+03  0.12751069219E+04 -0.11866607785E+04  0.18304604740E+04  0.46999998093E+01 0.  1.
       -5    1    3    3    0  502  0.56258509703E+03 -0.12751069219E+04  0.10169351921E+04  0.17252764789E+04  0.46999998093E+01 0. -1.
</event>
<event>
 5   0  0.6729577E-07  0.3625202E+04  0.7818609E-02  0.8084743E-01
        2   -1    0    0  501    0  0.00000000000E+00  0.00000000000E+00  0.27472960764E+04  0.27472960764E+04  0.25500000920E-02 0.  1.
       -2   -1    0    0    0  501  0.00000000000E+00  0.00000000000E+00 -0.11959112918E+04  0.11959112918E+04  0.25500000920E-02 0. -1.
    10030    2    1    2    0    0  0.00000000000E+00  0.00000000000E+00  0.15513847846E+04  0.39432073682E+04  0.36252020080E+04 0.  0.
        3    1    3    3  502    0  0.11897903544E+04 -0.10088827565E+03  0.22590431390E+04  0.25552016448E+04  0.10100000352E+00 0.  1.
       -3    1    3    3    0  502 -0.11897903544E+04  0.10088827565E+03 -0.70765835443E+03  0.13880057234E+04  0.10100000352E+00 0. -1.
</event>
<event>
 5   0  0.6541476E-07  0.3590841E+04  0.7818609E-02  0.8092593E-01
        2   -1    0    0  501    0  0.00000000000E+00  0.00000000000E+00  0.15283435450E+04  0.15283435450E+04  0.25500000920E-02 0.  1.
       -2   -1    0    0    0  501  0.00000000000E+00  0.00000000000E+00 -0.21091689913E+04  0.21091689913E+04  0.25500000920E-02 0. -1.
    10030    2    1    2    0    0  0.00000000000E+00  0.00000000000E+00 -0.58082544627E+03  0.36375125363E+04  0.35908410230E+04 0.  0.
        4    1    3    3  502    0  0.10074818081E+04  0.12494964678E+04  0.52457636213E+03  0.16886216241E+04  0.12699999809E+01 0.  1.
       -4    1    3    3    0  502 -0.10074818081E+04 -0.12494964678E+04 -0.11054018084E+04  0.19488909122E+04  0.12699999809E+01 0. -1.
</event>
<event>
 5   0  0.2086250E-07  0.3629334E+04  0.7818609E-02  0.8083805E-01
        1   -1    0    0  501    0  0.00000000000E+00  0.00000000000E+00  0.21142303194E+04  0.21142303194E+04  0.50400001928E-02 0.  1.
       -1   -1    0    0    0  501  0.00000000000E+00  0.00000000000E+00 -0.15575488177E+04  0.15575488177E+04  0.50400001928E-02 0. -1.
    10030    2    1    2    0    0  0.00000000000E+00  0.00000000000E+00  0.55668150178E+03  0.36717791371E+04  0.36293343380E+04 0.  0.
        3    1    3    3  502    0  0.50935886443E+03  0.16926950497E+04  0.69344885731E+03  0.18988244553E+04  0.10100000352E+00 0.  1.
       -3    1    3    3    0  502 -0.50935886443E+03 -0.16926950497E+04 -0.13676735554E+03  0.17729546818E+04  0.10100000352E+00 0. -1.
</event>
<event>
 5   0  0.2086250E-07  0.3562971E+04  0.7818609E-02  0.8099027E-01
        1   -1    0    0  501    0  0.00000000000E+00  0.00000000000E+00  0.27352767405E+04  0.27352767405E+04  0.50400001928E-02 0. -1.
       -1   -1    0    0    0  501  0.00000000000E+00  0.00000000000E+00 -0.11602815268E+04  0.11602815268E+04  0.50400001928E-02 0.  1.
    10030    2    1    2    0    0  0.00000000000E+00  0.00000000000E+00  0.15749952137E+04  0.38955582672E+04  0.35629712727E+04 0.  0.
        2    1    3    3  502    0 -0.13011817946E+04  0.44564710647E+03 -0.45045508939E+03  0.14472681830E+04  0.25500000920E-02 0. -1.
       -2    1    3    3    0  502  0.13011817946E+04 -0.44564710647E+03  0.20254503031E+04  0.24482900842E+04  0.25500000920E-02 0.  1.
</event>
<event>
 5   0  0.2108068E-07  0.3605437E+04  0.7818609E-02  0.8089247E-01
        1   -1    0    0  501    0  0.00000000000E+00  0.00000000000E+00  0.12911917069E+04  0.12911917070E+04  0.50400001928E-02 0. -1.
       -1   -1    0    0    0  501  0.00000000000E+00  0.00000000000E+00 -0.25168945712E+04  0.25168945712E+04  0.50400001928E-02 0.  1.
    10030    2    1    2    0    0  0.00000000000E+00  0.00000000000E+00 -0.12257028643E+04  0.38080862782E+04  0.36054366713E+04 0.  0.
        5    1    3    3  502    0 -0.15432826247E+04 -0.56032004351E+02 -0.15951295808E+04  0.22202074937E+04  0.46999998093E+01 0.  1.
       -5    1    3    3    0  502  0.15432826247E+04  0.56032004351E+02  0.36942671656E+03  0.15878787845E+04  0.46999998093E+01 0. -1.
</event>
<event>
 5   0  0.6541476E-07  0.3048727E+04  0.7818609E-02  0.8229952E-01
        2   -1    0    0  501    0  0.00000000000E+00  0.00000000000E+00  0.13472119532E+04  0.13472119532E+04  0.25500000920E-02 0. -1.
       -2   -1    0    0    0  501  0.00000000000E+00  0.00000000000E+00 -0.17248096795E+04  0.17248096795E+04  0.25500000920E-02 0.  1.
    10030    2    1    2    0    0  0.00000000000E+00  0.00000000000E+00 -0.37759772627E+03  0.30720216328E+04  0.30487270900E+04 0.  0.
        4    1    3    3  502    0 -0.75676033479E+03  0.45756435912E+02 -0.15213643164E+04  0.16998031803E+04  0.12699999809E+01 0.  1.
       -4    1    3    3    0  502  0.75676033479E+03 -0.45756435912E+02  0.11437665901E+04  0.13722184525E+04  0.12699999809E+01 0. -1.
</event>
<event>
 5   0  0.2193129E-07  0.3667038E+04  0.7818609E-02  0.8075306E-01
        1   -1    0    0  501    0  0.00000000000E+00  0.00000000000E+00  0.23738599974E+04  0.23738599974E+04  0.50400001928E-02 0. -1.
       -1   -1    0    0    0  501  0.00000000000E+00  0.00000000000E+00 -0.14161710329E+04  0.14161710329E+04  0.50400001928E-02 0.  1.
    10030    2    1    2    0    0  0.00000000000E+00  0.00000000000E+00  0.95768896447E+03  0.37900310303E+04  0.36670379133E+04 0.  0.
        1    1    3    3  502    0 -0.13047229749E+04  0.28248211334E+03 -0.82016939910E+03  0.15667724879E+04  0.50400001928E-02 0.  1.
       -1    1    3    3    0  502  0.13047229749E+04 -0.28248211334E+03  0.17778583636E+04  0.22232585424E+04  0.50400001928E-02 0. -1.
</event>
<event>
 5   0  0.2108068E-07  0.3584232E+04  0.7818609E-02  0.8094113E-01
       -1   -1    0    0    0  501  0.00000000000E+00  0.00000000000E+00  0.24914226720E+04  0.24914226720E+04  0.50400001928E-02 0.  1.
        1   -1    0    0  501    0  0.00000000000E+00  0.00000000000E+00 -0.12890944746E+04  0.12890944747E+04  0.50400001928E-02 0. -1.
    10030    2    1    2    0    0  0.00000000000E+00  0.00000000000E+00  0.12023281973E+04  0.37805171466E+04  0.35842316892E+04 0.  0.
        5    1    3    3  502    0 -0.77964216130E+03 -0.15723212716E+04  0.21849994690E+03  0.17685588476E+04  0.46999998093E+01 0. -1.
       -5    1    3    3    0  502  0.77964216130E+03  0.15723212716E+04  0.98382825043E+03  0.20119582990E+04  0.46999998093E+01 0.  1.
</event>
<event>
 5   0  0.2193129E-07  0.3405671E+04  0.7818609E-02  0.8136516E-01
        1   -1    0    0  501    0  0.00000000000E+00  0.00000000000E+00  0.25362621627E+04  0.25362621627E+04  0.50400001928E-02 0. -1.
       -1   -1    0    0    0  501  0.00000000000E+00  0.00000000000E+00 -0.11432767369E+04  0.11432767369E+04  0.50400001928E-02 0.  1.
    10030    2    1    2    0    0  0.00000000000E+00  0.00000000000E+00  0.13929854258E+04  0.36795388996E+04  0.34056714635E+04 0.  0.
        1    1    3    3  502    0  0.14141441280E+04  0.76246737123E+03  0.13062235426E+04  0.20705989593E+04  0.50400001928E-02 0. -1.
       -1    1    3    3    0  502 -0.14141441280E+04 -0.76246737123E+03  0.86761883166E+02  0.16089399403E+04  0.50400001928E-02 0.  1.
</event>
<event>
 5   0  0.2086250E-07  0.3607126E+04  0.7818609E-02  0.8088861E-01
        1   -1    0    0  501    0  0.00000000000E+00  0.00000000000E+00  0.21715119654E+04  0.21715119654E+04  0.50400001928E-02 0.  1.
       -1   -1    0    0    0  501  0.00000000000E+00  0.00000000000E+00 -0.14979605598E+04  0.14979605598E+04  0.50400001928E-02 0. -1.
    10030    2    1    2    0    0  0.00000000000E+00  0.00000000000E+00  0.67355140563E+03  0.36694725252E+04  0.36071258805E+04 0.  0.
        2    1    3    3  502    0  0.13127538120E+04  0.81057175895E+03  0.12869922822E+04  0.20091536232E+04  0.25500000920E-02 0.  1.
       -2    1    3    3    0  502 -0.13127538120E+04 -0.81057175895E+03 -0.61344087660E+03  0.16603189020E+04  0.25500000920E-02 0. -1.
</event>
<event>
 5   0  0.6669864E-07  0.3601399E+04  0.7818609E-02  0.8090171E-01
       -2   -1    0    0    0  501  0.00000000000E+00  0.00000000000E+00  0.25871968167E+04  0.25871968167E+04  0.25500000920E-02 0.  1.
        2   -1    0    0  501    0  0.00000000000E+00  0.00000000000E+00 -0.12532943099E+04  0.12532943099E+04  0.25500000920E-02 0. -1.
    10030    2    1    2    0    0  0.00000000000E+00  0.00000000000E+00  0.13339025068E+04  0.38404911267E+04  0.36013991998E+04 0.  0.
        5    1    3    3  502    0 -0.17504298695E+04  0.41124269649E+03  0.77018557948E+03  0.19561015312E+04  0.46999998093E+01 0.  1.
       -5    1    3    3    0  502  0.17504298695E+04 -0.41124269649E+03  0.56371692734E+03  0.18843895955E+04  0.46999998093E+01 0. -1.
</event>
<event>
 5   0  0.6541476E-07  0.3595493E+04  0.7818609E-02  0.8091525E-01
       -2   -1    0    0    0  501  0.00000000000E+00  0.00000000000E+00  0.12264689043E+04  0.12264689043E+04  0.25500000920E-02 0.  1.
        2   -1    0    0  501    0  0.00000000000E+00  0.00000000000E+00 -0.26351202541E+04  0.26351202541E+04  0.25500000920E-02 0. -1.
    10030    2    1    2    0    0  0.00000000000E+00  0.00000000000E+00 -0.14086513498E+04  0.38615891584E+04  0.35954933184E+04 0.  0.
        4    1    3    3  502    0 -0.12910985329E+04  0.79199195895E+03  0.33569180612E+03  0.15514113853E+04  0.12699999809E+01 0.  1.
       -4    1    3    3    0  502  0.12910985329E+04 -0.79199195895E+03 -0.17443431560E+04  0.23101777731E+04  0.12699999809E+01 0. -1.
</event>
<event>
 5   0  0.2086250E-07  0.3592626E+04  0.7818609E-02  0.8092183E-01
       -1   -1    0    0    0  501  0.00000000000E+00  0.00000000000E+00  0.20616678148E+04  0.20616678149E+04  0.50400001928E-02 0.  1.
        1   -1    0    0  501    0  0.00000000000E+00  0.00000000000E+00 -0.15651120971E+04  0.15651120972E+04  0.50400001928E-02 0. -1.
    10030    2    1    2    0    0  0.00000000000E+00  0.00000000000E+00  0.49655571770E+03  0.36267799120E+04  0.35926264695E+04 0.  0.
        3    1    3    3  502    0 -0.15606830794E+02 -0.13164893784E+04  0.14819235027E+04  0.19822928983E+04  0.10100000352E+00 0.  1.
       -3    1    3    3    0  502  0.15606830794E+02  0.13164893784E+04 -0.98536778498E+03  0.16444870137E+04  0.10100000352E+00 0. -1.
</event>
<event>
 5   0  0.2086250E-07  0.3602922E+04  0.7818609E-02  0.8089823E-01
       -1   -1    0    0    0  501  0.00000000000E+00  0.00000000000E+00  0.17044252390E+04  0.17044252390E+04  0.50400001928E-02 0. -1.
        1   -1    0    0  501    0  0.00000000000E+00  0.00000000000E+00 -0.19040209808E+04  0.19040209808E+04  0.50400001928E-02 0.  1.
    10030    2    1    2    0    0  0.00000000000E+00  0.00000000000E+00 -0.19959574182E+03  0.36084462198E+04  0.36029218228E+04 0.  0.
        2    1    3    3  502    0  0.15795558019E+04 -0.80344203567E+03  0.22434290250E+03  0.17862937536E+04  0.25500000920E-02 0. -1.
       -2    1    3    3    0  502 -0.15795558019E+04  0.80344203567E+03 -0.42393864432E+03  0.18221524663E+04  0.25500000920E-02 0.  1.
</event>
<event>
 5   0  0.6541476E-07  0.3628268E+04  0.7818609E-02  0.8084047E-01
       -2   -1    0    0    0  501  0.00000000000E+00  0.00000000000E+00  0.13307085442E+04  0.13307085442E+04  0.25500000920E-02 0.  1.
        2   -1    0    0  501    0  0.00000000000E+00  0.00000000000E+00 -0.24731800548E+04  0.24731800548E+04  0.25500000920E-02 0. -1.
    10030    2    1    2    0    0  0.00000000000E+00  0.00000000000E+00 -0.11424715106E+04  0.38038885990E+04  0.36282678127E+04 0.  0.
        4    1    3    3  502    0 -0.20585623064E+03 -0.15104214486E+04 -0.16023716117E+04  0.22116387894E+04  0.12699999809E+01 0.  1.
       -4    1    3    3    0  502  0.20585623064E+03  0.15104214486E+04  0.45990010104E+03  0.15922498095E+04  0.12699999809E+01 0. -1.
</event>
<event>
 5   0  0.2193129E-07  0.3771604E+04  0.7818609E-02  0.8052276E-01
       -1   -1    0    0    0  501  0.00000000000E+00  0.00000000000E+00  0.13314658603E+04  0.13314658603E+04  0.50400001928E-02 0.  1.
        1   -1    0    0  501    0  0.00000000000E+00  0.00000000000E+00 -0.26709281885E+04  0.26709281885E+04  0.50400001928E-02 0. -1.
    10030    2    1    2    0    0  0.00000000000E+00  0.00000000000E+00 -0.13394623282E+04  0.40023940489E+04  0.37716042732E+04 0.  0.
        1    1    3    3  502    0  0.10570162607E+04  0.15536578937E+04 -0.83790061534E+03  0.20574775011E+04  0.50400001928E-02 0. -1.
       -1    1    3    3    0  502 -0.10570162607E+04 -0.15536578937E+04 -0.50156171285E+03  0.19449165478E+04  0.50400001928E-02 0.  1.
</event>
<event>
 5   0  0.6541476E-07  0.3601656E+04  0.7818609E-02  0.8090112E-01
       -2   -1    0    0    0  501  0.00000000000E+00  0.00000000000E+00  0.16914159528E+04  0.16914159529E+04  0.25500000920E-02 0.  1.
        2   -1    0    0  501    0  0.00000000000E+00  0.00000000000E+00 -0.19173180072E+04  0.19173180072E+04  0.25500000920E-02 0. -1.
    10030    2    1    2    0    0  0.00000000000E+00  0.00000000000E+00 -0.22590205440E+03  0.36087339601E+04  0.36016564323E+04 0.  0.
        4    1    3    3  502    0 -0.98609007657E+03 -0.57258187436E+03  0.12836161358E+04  0.17169436912E+04  0.12699999809E+01 0.  1.
       -4    1    3    3    0  502  0.98609007657E+03  0.57258187436E+03 -0.15095181902E+04  0.18917902689E+04  0.12699999809E+01 0. -1.
</event>
<event>
 5   0  0.2193129E-07  0.3710598E+04  0.7818609E-02  0.8065617E-01
       -1   -1    0    0    0  501  0.00000000000E+00  0.00000000000E+00  0.14566085299E+04  0.14566085299E+04  0.50400001928E-02 0.  1.
        1   -1    0    0  501    0  0.00000000000E+00  0.00000000000E+00 -0.23631156608E+04  0.23631156608E+04  0.50400001928E-02 0. -1.
    10030    2    1    2    0    0  0.00000000000E+00  0.00000000000E+00 -0.90650713088E+03  0.38197241907E+04  0.37105980265E+04 0.  0.
        1    1    3    3  502    0 -0.54290411173E+03  0.60282451631E+03  0.12643467040E+04  0.15022366191E+04  0.50400001928E-02 0.  1.
       -1    1    3    3    0  502  0.54290411173E+03 -0.60282451631E+03 -0.21708538348E+04  0.23174875715E+04  0.50400001928E-02 0. -1.
</event>
<event>
 5   0  0.2193129E-07  0.3591123E+04  0.7818609E-02  0.8092528E-01
        1   -1    0    0  501    0  0.00000000000E+00  0.00000000000E+00  0.29737263495E+04  0.29737263495E+04  0.50400001928E-02 0. -1.
       -1   -1    0    0    0  501  0.00000000000E+00  0.00000000000E+00 -0.10841753110E+04  0.10841753110E+04  0.50400001928E-02 0.  1.
    10030    2    1    2    0    0  0.00000000000E+00  0.00000000000E+00  0.18895510385E+04  0.40579016605E+04  0.35911227714E+04 0.  0.
        1    1    3    3  502    0  0.38348267234E+03  0.16699475098E+04  0.33809335169E+03  0.17464509040E+04  0.50400001928E-02 0.  1.
       -1    1    3    3    0  502 -0.38348267234E+03 -0.16699475098E+04  0.15514576868E+04  0.23114507565E+04  0.50400001928E-02 0. -1.
</event>
<event>
 5   0  0.6729577E-07  0.3599163E+04  0.7818609E-02  0.8090683E-01
        2   -1    0    0  501    0  0.00000000000E+00  0.00000000000E+00  0.28610775191E+04  0.28610775191E+04  0.25500000920E-02 0.  1.
       -2   -1    0    0    0  501  0.00000000000E+00  0.00000000000E+00 -0.11319142503E+04  0.11319142503E+04  0.25500000920E-02 0. -1.
    10030    2    1    2    0    0  0.00000000000E+00  0.00000000000E+00  0.17291632688E+04  0.39929917694E+04  0.35991634668E+04 0.  0.
        3    1    3    3  502    0 -0.15974030834E+03 -0.16079769717E+04  0.17433304910E+04  0.23770376772E+04  0.10100000352E+00 0.  1.
       -3    1    3    3    0  502  0.15974030834E+03  0.16079769717E+04 -0.14167222208E+02  0.16159540922E+04  0.10100000352E+00 0. -1.
</event>
<event>
 5   0  0.2086250E-07  0.3558610E+04  0.7818609E-02  0.8100039E-01
        3   -1    0    0  501    0  0.00000000000E+00  0.00000000000E+00  0.14404887023E+04  0.14404887058E+04  0.10100000352E+00 0.  1.
       -3   -1    0    0    0  501  0.00000000000E+00  0.00000000000E+00 -0.21978135475E+04  0.21978135498E+04  0.10100000352E+00 0. -1.
    10030    2    1    2    0    0  0.00000000000E+00  0.00000000000E+00 -0.75732484516E+03  0.36383022556E+04  0.35586096136E+04 0.  0.
        4    1    3    3  502    0 -0.53884054477E+03  0.14684218270E+04 -0.12457782980E+04  0.19996442122E+04  0.12699999809E+01 0. -1.
       -4    1    3    3    0  502  0.53884054477E+03 -0.14684218270E+04  0.48845345282E+03  0.16386580434E+04  0.12699999809E+01 0.  1.
</event>
<event>
 5   0  0.6729577E-07  0.3358424E+04  0.7818609E-02  0.8148187E-01
       -2   -1    0    0    0  501  0.00000000000E+00  0.00000000000E+00  0.12729118655E+04  0.12729118655E+04  0.25500000920E-02 0.  1.
        2   -1    0    0  501    0  0.00000000000E+00  0.00000000000E+00 -0.22151984125E+04  0.22151984125E+04  0.25500000920E-02 0. -1.
    10030    2    1    2    0    0  0.00000000000E+00  0.00000000000E+00 -0.94228654700E+03  0.34881102780E+04  0.33584236444E+04 0.  0.
        3    1    3    3  502    0  0.46403052429E+03 -0.15277601464E+04  0.68913669034E+02  0.15981628504E+04  0.10100000352E+00 0.  1.
       -3    1    3    3    0  502 -0.46403052429E+03  0.15277601464E+04 -0.10112002160E+04  0.18899474277E+04  0.10100000352E+00 0. -1.
</event>
<event>
 5   0  0.6541476E-07  0.3577402E+04  0.7818609E-02  0.8095688E-01
        2   -1    0    0  501    0  0.00000000000E+00  0.00000000000E+00  0.21652081164E+04  0.21652081164E+04  0.25500000920E-02 0.  1.
       -2   -1    0    0    0  501  0.00000000000E+00  0.00000000000E+00 -0.14776644615E+04  0.14776644615E+04  0.25500000920E-02 0. -1.
    10030    2    1    2    0    0  0.00000000000E+00  0.00000000000E+00  0.68754365497E+03  0.36428725779E+04  0.35774018982E+04 0.  0.
        4    1    3    3  502    0 -0.48851769897E+03 -0.43777081438E+03 -0.13507610878E+04  0.15016157822E+04  0.12699999809E+01 0. -1.
       -4    1    3    3    0  502  0.48851769897E+03  0.43777081438E+03  0.20383047427E+04  0.21412567957E+04  0.12699999809E+01 0.  1.
</event>
<event>
 5   0  0.6729577E-07  0.3112548E+04  0.7818609E-02  0.8212303E-01
        2   -1    0    0  501    0  0.00000000000E+00  0.00000000000E+00  0.17326191105E+04  0.17326191105E+04  0.25500000920E-02 0. -1.
       -2   -1    0    0    0  501  0.00000000000E+00  0.00000000000E+00 -0.13978773458E+04  0.13978773458E+04  0.25500000920E-02 0.  1.
    10030    2    1    2    0    0  0.00000000000E+00  0.00000000000E+00  0.33474176468E+03  0.31304964563E+04  0.31125481545E+04 0.  0.
        3    1    3    3  502    0 -0.10407860848E+04 -0.10327954378E+02 -0.99629986074E+03  0.14408177413E+04  0.10100000352E+00 0.  1.
       -3    1    3    3    0  502  0.10407860848E+04  0.10327954378E+02  0.13310416254E+04  0.16896787150E+04  0.10100000352E+00 0. -1.
</event>
<event>
 5   0  0.6848661E-07  0.3625785E+04  0.7818609E-02  0.8084611E-01
        2   -1    0    0  501    0  0.00000000000E+00  0.00000000000E+00  0.21548799607E+04  0.21548799607E+04  0.25500000920E-02 0. -1.
       -2   -1    0    0    0  501  0.00000000000E+00  0.00000000000E+00 -0.15251798494E+04  0.15251798494E+04  0.25500000920E-02 0.  1.
    10030    2    1    2    0    0  0.00000000000E+00  0.00000000000E+00  0.62970011132E+03  0.36800598101E+04  0.36257851530E+04 0.  0.
        1    1    3    3  502    0  0.93276625162E+03  0.15407003441E+04  0.10494752166E+03  0.18041131929E+04  0.50400001928E-02 0.  1.
       -1    1    3    3    0  502 -0.93276625162E+03 -0.15407003441E+04  0.52475258966E+03  0.18759466173E+04  0.50400001928E-02 0. -1.
</event>
<event>
 5   0  0.2086250E-07  0.3546753E+04  0.7818609E-02  0.8102799E-01
        1   -1    0    0  501    0  0.00000000000E+00  0.00000000000E+00  0.20746666561E+04  0.20746666561E+04  0.50400001928E-02 0.  1.
       -1   -1    0    0    0  501  0.00000000000E+00  0.00000000000E+00 -0.15158405815E+04  0.15158405816E+04  0.50400001928E-02 0. -1.
    10030    2    1    2    0    0  0.00000000000E+00  0.00000000000E+00  0.55882607457E+03  0.35905072377E+04  0.35467528307E+04 0.  0.
        2    1    3    3  502    0  0.19669480167E+02  0.12459467103E+04  0.15567609727E+04  0.19940598836E+04  0.25500000920E-02 0.  1.
       -2    1    3    3    0  502 -0.19669480167E+02 -0.12459467103E+04 -0.99793489816E+03  0.15964473540E+04  0.25500000920E-02 0. -1.
</event>
<event>
 5   0  0.2086250E-07  0.3616197E+04  0.7818609E-02  0.8086792E-01
       -1   -1    0    0    0  501  0.00000000000E+00  0.00000000000E+00  0.16630055791E+04  0.16630055792E+04  0.50400001928E-02 0. -1.
        1   -1    0    0  501    0  0.00000000000E+00  0.00000000000E+00 -0.19658500641E+04  0.19658500641E+04  0.50400001928E-02 0.  1.
    10030    2    1    2    0    0  0.00000000000E+00  0.00000000000E+00 -0.30284448491E+03  0.36288556432E+04  0.36161966895E+04 0.  0.
        4    1    3    3  502    0  0.12043850589E+04  0.87705183370E+02 -0.15018606086E+04  0.19271280367E+04  0.12699999809E+01 0.  1.
       -4    1    3    3    0  502 -0.12043850589E+04 -0.87705183370E+02  0.11990161237E+04  0.17017276066E+04  0.12699999809E+01 0. -1.
</event>
<event>
 5   0  0.6669864E-07  0.3601543E+04  0.7818609E-02  0.8090138E-01
        2   -1    0    0  501    0  0.00000000000E+00  0.00000000000E+00  0.10804949898E+04  0.10804949898E+04  0.25500000920E-02 0.  1.
       -2   -1    0    0    0  501  0.00000000000E+00  0.00000000000E+00 -0.30011965745E+04  0.30011965745E+04  0.25500000920E-02 0. -1.
    10030    2    1    2    0    0  0.00000000000E+00  0.00000000000E+00 -0.19207015847E+04  0.40816915643E+04  0.36015429261E+04 0.  0.
        5    1    3    3  502    0  0.91430716026E+03  0.76096191590E+03 -0.24925252590E+04  0.27618336078E+04  0.46999998093E+01 0. -1.
       -5    1    3    3    0  502 -0.91430716026E+03 -0.76096191590E+03  0.57182367427E+03  0.13198579565E+04  0.46999998093E+01 0.  1.
</event>
<event>
 5   0  0.2193129E-07  0.3697938E+04  0.7818609E-02  0.8068419E-01
       -1   -1    0    0    0  501  0.00000000000E+00  0.00000000000E+00  0.30289453227E+04  0.30289453227E+04  0.50400001928E-02 0.  1.
        1   -1    0    0  501    0  0.00000000000E+00  0.00000000000E+00 -0.11286721792E+04  0.11286721793E+04  0.50400001928E-02 0. -1.
    10030    2    1    2    0    0  0.00000000000E+00  0.00000000000E+00  0.19002731435E+04  0.41576175020E+04  0.36979379758E+04 0.  0.
        1    1    3    3  502    0 -0.11214755348E+04 -0.93176756934E+03  0.22284830784E+04  0.26630874956E+04  0.50400001928E-02 0.  1.
       -1    1    3    3    0  502  0.11214755348E+04  0.93176756934E+03 -0.32820993494E+03  0.14945300064E+04  0.50400001928E-02 0. -1.
</event>
<event>
 5   0  0.2086250E-07  0.3297471E+04  0.7818609E-02  0.8163539E-01
        1   -1    0    0  501    0  0.00000000000E+00  0.00000000000E+00  0.82902519869E+03  0.82902519870E+03  0.50400001928E-02 0. -1.
       -1   -1    0    0    0  501  0.00000000000E+00  0.00000000000E+00 -0.32789460412E+04  0.32789460412E+04  0.50400001928E-02 0.  1.
    10030    2    1    2    0    0  0.00000000000E+00  0.00000000000E+00 -0.24499208425E+04  0.41079712399E+04  0.32974710876E+04 0.  0.
        4    1    3    3  502    0 -0.55837913123E+03  0.12958263786E+04 -0.16246934422E+03  0.14203348754E+04  0.12699999809E+01 0. -1.
       -4    1    3    3    0  502  0.55837913123E+03 -0.12958263786E+04 -0.22874514983E+04  0.26876363645E+04  0.12699999809E+01 0.  1.
</event>
<event>
 5   0  0.2108068E-07  0.3379958E+04  0.7818609E-02  0.8142843E-01
        1   -1    0    0  501    0  0.00000000000E+00  0.00000000000E+00  0.23422212875E+04  0.23422212875E+04  0.50400001928E-02 0.  1.
       -1   -1    0    0    0  501  0.00000000000E+00  0.00000000000E+00 -0.12193679020E+04  0.12193679020E+04  0.50400001928E-02 0. -1.
    10030    2    1    2    0    0  0.00000000000E+00  0.00000000000E+00  0.11228533855E+04  0.35615891895E+04  0.33799582586E+04 0.  0.
        5    1    3    3  502    0 -0.18781796286E+02 -0.12477056599E+04  0.17623571834E+04  0.21594089704E+04  0.46999998093E+01 0.  1.
       -5    1    3    3    0  502  0.18781796286E+02  0.12477056599E+04 -0.63950379788E+03  0.14021802192E+04  0.46999998093E+01 0. -1.
</event>
<event>
 5   0  0.6541476E-07  0.3602659E+04  0.7818609E-02  0.8089883E-01
        2   -1    0    0  501    0  0.00000000000E+00  0.00000000000E+00  0.14036407563E+04  0.14036407563E+04  0.25500000920E-02 0. -1.
       -2   -1    0    0    0  501  0.00000000000E+00  0.00000000000E+00 -0.23116939267E+04  0.23116939267E+04  0.25500000920E-02 0.  1.
    10030    2    1    2    0    0  0.00000000000E+00  0.00000000000E+00 -0.90805317040E+03  0.37153346829E+04  0.36026589133E+04 0.  0.
        4    1    3    3  502    0  0.10870682600E+04 -0.11679721314E+04  0.40812849243E+03  0.16469507524E+04  0.12699999809E+01 0. -1.
       -4    1    3    3    0  502 -0.10870682600E+04  0.11679721314E+04 -0.13161816628E+04  0.20683839305E+04  0.12699999809E+01 0.  1.
</event>
<event>
 5   0  0.2193129E-07  0.3617787E+04  0.7818609E-02  0.8086429E-01
        1   -1    0    0  501    0  0.00000000000E+00  0.00000000000E+00  0.22994876243E+04  0.22994876243E+04  0.50400001928E-02 0.  1.
       -1   -1    0    0    0  501  0.00000000000E+00  0.00000000000E+00 -0.14229676889E+04  0.14229676889E+04  0.50400001928E-02 0. -1.
    10030    2    1    2    0    0  0.00000000000E+00  0.00000000000E+00  0.87651993534E+03  0.37224553132E+04  0.36177874954E+04 0.  0.
        1    1    3    3  502    0  0.44420333362E+03 -0.17405783703E+04  0.21958619127E+03  0.18097369312E+04  0.50400001928E-02 0. -1.
       -1    1    3    3    0  502 -0.44420333362E+03  0.17405783703E+04  0.65693374407E+03  0.19127183820E+04  0.50400001928E-02 0.  1.
</event>
<event>
 5   0  0.6324216E-07  0.3635649E+04  0.7818609E-02  0.8082374E-01
        2   -1    0    0  501    0  0.00000000000E+00  0.00000000000E+00  0.27064483072E+04  0.27064483072E+04  0.25500000920E-02 0. -1.
       -2   -1    0    0    0  501  0.00000000000E+00  0.00000000000E+00 -0.12209679155E+04  0.12209679155E+04  0.25500000920E-02 0.  1.
    10030    2    1    2    0    0  0.00000000000E+00  0.00000000000E+00  0.14854803917E+04  0.39274162228E+04  0.36356493495E+04 0.  0.
        2    1    3    3  502    0  0.11092576936E+04 -0.54126547678E+03 -0.69892660612E+03  0.14184214282E+04  0.25500000920E-02 0.  1.
       -2    1    3    3    0  502 -0.11092576936E+04  0.54126547678E+03  0.21844069978E+04  0.25089947946E+04  0.25500000920E-02 0. -1.
</event>
<event>
 5   0  0.6669864E-07  0.3593723E+04  0.7818609E-02  0.8091931E-01
        2   -1    0    0  501    0  0.00000000000E+00  0.00000000000E+00  0.16586892151E+04  0.16586892151E+04  0.25500000920E-02 0. -1.
       -2   -1    0    0    0  501  0.00000000000E+00  0.00000000000E+00 -0.19465441848E+04  0.19465441848E+04  0.25500000920E-02 0.  1.
    10030    2    1    2    0    0  0.00000000000E+00  0.00000000000E+00 -0.28785496968E+03  0.36052334000E+04  0.35937233317E+04 0.  0.
        5    1    3    3  502    0 -0.10396290636E+04 -0.94667125138E+03  0.97843847106E+03  0.17130029129E+04  0.46999998093E+01 0. -1.
       -5    1    3    3    0  502  0.10396290636E+04  0.94667125138E+03 -0.12662934407E+04  0.18922304870E+04  0.46999998093E+01 0.  1.
</event>
<event>
 5   0  0.2086250E-07  0.3572890E+04  0.7818609E-02  0.8096730E-01
        1   -1    0    0  501    0  0.00000000000E+00  0.00000000000E+00  0.18324487828E+04  0.18324487828E+04  0.50400001928E-02 0.  1.
       -1   -1    0    0    0  501  0.00000000000E+00  0.00000000000E+00 -0.17415965530E+04  0.17415965530E+04  0.50400001928E-02 0. -1.
    10030    2    1    2    0    0  0.00000000000E+00  0.00000000000E+00  0.90852229845E+02  0.35740453358E+04  0.35728904174E+04 0.  0.
        3    1    3    3  502    0 -0.19503192974E+03  0.17439611428E+04  0.38012140557E+03  0.17955306219E+04  0.10100000352E+00 0.  1.
       -3    1    3    3    0  502  0.19503192974E+03 -0.17439611428E+04 -0.28926917572E+03  0.17785147139E+04  0.10100000352E+00 0. -1.
</event>
<event>
 5   0  0.2108068E-07  0.3596798E+04  0.7818609E-02  0.8091225E-01
        1   -1    0    0  501    0  0.00000000000E+00  0.00000000000E+00  0.27080622777E+04  0.27080622777E+04  0.50400001928E-02 0. -1.
       -1   -1    0    0    0  501  0.00000000000E+00  0.00000000000E+00 -0.11943003566E+04  0.11943003566E+04  0.50400001928E-02 0.  1.
    10030    2    1    2    0    0  0.00000000000E+00  0.00000000000E+00  0.15137619211E+04  0.39023626343E+04  0.35967984341E+04 0.  0.
        5    1    3    3  502    0 -0.24558193092E+03 -0.13822469314E+04 -0.46257149766E+03  0.14781446292E+04  0.46999998093E+01 0.  1.
       -5    1    3    3    0  502  0.24558193092E+03  0.13822469314E+04  0.19763334188E+04  0.24242180051E+04  0.46999998093E+01 0. -1.
</event>
<event>
 5   0  0.6324216E-07  0.3578839E+04  0.7818609E-02  0.8095356E-01
       -2   -1    0    0    0  501  0.00000000000E+00  0.00000000000E+00  0.12893266999E+04  0.12893266999E+04  0.25500000920E-02 0.  1.
        2   -1    0    0  501    0  0.00000000000E+00  0.00000000000E+00 -0.24834834510E+04  0.24834834510E+04  0.25500000920E-02 0. -1.
    10030    2    1    2    0    0  0.00000000000E+00  0.00000000000E+00 -0.11941567511E+04  0.37728101509E+04  0.35788386508E+04 0.  0.
        2    1    3    3  502    0 -0.10267542952E+04  0.36785833529E+03 -0.20925849866E+04  0.23597576282E+04  0.25500000920E-02 0. -1.
       -2    1    3    3    0  502  0.10267542952E+04 -0.36785833529E+03  0.89842823557E+03  0.14130525227E+04  0.25500000920E-02 0.  1.
</event>
<event>
 5   0  0.2086250E-07  0.3561798E+04  0.7818609E-02  0.8099299E-01
       -1   -1    0    0    0  501  0.00000000000E+00  0.00000000000E+00  0.15084006698E+04  0.15084006698E+04  0.50400001928E-02 0. -1.
        1   -1    0    0  501    0  0.00000000000E+00  0.00000000000E+00 -0.21026256410E+04  0.21026256410E+04  0.50400001928E-02 0.  1.
    10030    2    1    2    0    0  0.00000000000E+00  0.00000000000E+00 -0.59422497122E+03  0.36110263108E+04  0.35617983801E+04 0.  0.
        4    1    3    3  502    0 -0.62265530579E+03 -0.15742360049E+02 -0.19886002408E+04  0.20838617954E+04  0.12699999809E+01 0.  1.
       -4    1    3    3    0  502  0.62265530579E+03  0.15742360049E+02  0.13943752696E+04  0.15271645154E+04  0.12699999809E+01 0. -1.
</event>
<event>
 5   0  0.6729577E-07  0.3581343E+04  0.7818609E-02  0.8094779E-01
       -2   -1    0    0    0  501  0.00000000000E+00  0.00000000000E+00  0.11103546951E+04  0.11103546951E+04  0.25500000920E-02 0. -1.
        2   -1    0    0  501    0  0.00000000000E+00  0.00000000000E+00 -0.28878198600E+04  0.28878198600E+04  0.25500000920E-02 0.  1.
    10030    2    1    2    0    0  0.00000000000E+00  0.00000000000E+00 -0.17774651649E+04  0.39981745550E+04  0.35813429548E+04 0.  0.
        3    1    3    3  502    0 -0.10375941467E+04 -0.12977312256E+04 -0.14334164318E+03  0.16677094423E+04  0.10100000352E+00 0. -1.
       -3    1    3    3    0  502  0.10375941467E+04  0.12977312256E+04 -0.16341235217E+04  0.23304651127E+04  0.10100000352E+00 0.  1.
</event>
<event>
 5   0  0.6669864E-07  0.3680318E+04  0.7818609E-02  0.8072338E-01
        2   -1    0    0  501    0  0.00000000000E+00  0.00000000000E+00  0.18569045591E+04  0.18569045591E+04  0.25500000920E-02 0. -1.
       -2   -1    0    0    0  501  0.00000000000E+00  0.00000000000E+00 -0.18235646893E+04  0.18235646893E+04  0.25500000920E-02 0.  1.
    10030    2    1    2    0    0  0.00000000000E+00  0.00000000000E+00  0.33339869809E+02  0.36804692485E+04  0.36803182393E+04 0.  0.
        5    1    3    3  502    0  0.70217147959E+03  0.17001203388E+04 -0.35385466100E+02  0.18397630756E+04  0.46999998093E+01 0.  1.
       -5    1    3    3    0  502 -0.70217147959E+03 -0.17001203388E+04  0.68725335909E+02  0.18407061729E+04  0.46999998093E+01 0. -1.
</event>
<event>
 5   0  0.6541476E-07  0.3505098E+04  0.7818609E-02  0.8112583E-01
        2   -1    0    0  501    0  0.00000000000E+00  0.00000000000E+00  0.12911108700E+04  0.12911108700E+04  0.25500000920E-02 0. -1.
       -2   -1    0    0    0  501  0.00000000000E+00  0.00000000000E+00 -0.23789030507E+04  0.23789030507E+04  0.25500000920E-02 0.  1.
    10030    2    1    2    0    0  0.00000000000E+00  0.00000000000E+00 -0.10877921807E+04  0.36700139207E+04  0.35050977661E+04 0.  0.
        4    1    3    3  502    0  0.16662557116E+04  0.54188112726E+03 -0.50496155585E+03  0.18234667637E+04  0.12699999809E+01 0. -1.
       -4    1    3    3    0  502 -0.16662557116E+04 -0.54188112726E+03 -0.58283062481E+03  0.18465471569E+04  0.12699999809E+01 0.  1.
</event>
<event>
 5   0  0.2193129E-07  0.3387760E+04  0.7818609E-02  0.8140917E-01
        1   -1    0    0  501    0  0.00000000000E+00  0.00000000000E+00  0.92961909754E+03  0.92961909755E+03  0.50400001928E-02 0.  1.
       -1   -1    0    0    0  501  0.00000000000E+00  0.00000000000E+00 -0.30864565659E+04  0.30864565659E+04  0.50400001928E-02 0. -1.
    10030    2    1    2    0    0  0.00000000000E+00  0.00000000000E+00 -0.21568374684E+04  0.40160756635E+04  0.33877597125E+04 0.  0.
        1    1    3    3  502    0 -0.25505709549E+03 -0.12756907034E+04  0.20757370927E+03  0.13173942985E+04  0.50400001928E-02 0.  1.
       -1    1    3    3    0  502  0.25505709549E+03  0.12756907034E+04 -0.23644111776E+04  0.26986813650E+04  0.50400001928E-02 0. -1.
</event>
<event>
 5   0  0.6848661E-07  0.3020586E+04  0.7818609E-02  0.8237877E-01
        2   -1    0    0  501    0  0.00000000000E+00  0.00000000000E+00  0.18013519866E+04  0.18013519866E+04  0.25500000920E-02 0.  1.
       -2   -1    0    0    0  501  0.00000000000E+00  0.00000000000E+00 -0.12662629389E+04  0.12662629389E+04  0.25500000920E-02 0. -1.
    10030    2    1    2    0    0  0.00000000000E+00  0.00000000000E+00  0.53508904772E+03  0.30676149255E+04  0.30205862083E+04 0.  0.
        1    1    3    3  502    0  0.80714618594E+03  0.92473905277E+03  0.11612213490E+04  0.16896929611E+04  0.50400001928E-02 0.  1.
       -1    1    3    3    0  502 -0.80714618594E+03 -0.92473905277E+03 -0.62613230131E+03  0.13779219644E+04  0.50400001928E-02 0. -1.
</event>
<event>
 5   0  0.2193129E-07  0.3569780E+04  0.7818609E-02  0.8097449E-01
       -1   -1    0    0    0  501  0.00000000000E+00  0.00000000000E+00  0.11459837863E+04  0.11459837864E+04  0.50400001928E-02 0. -1.
        1   -1    0    0  501    0  0.00000000000E+00  0.00000000000E+00 -0.27799983982E+04  0.27799983982E+04  0.50400001928E-02 0.  1.
    10030    2    1    2    0    0  0.00000000000E+00  0.00000000000E+00 -0.16340146119E+04  0.39259821846E+04  0.35697804361E+04 0.  0.
        1    1    3    3  502    0 -0.17066625475E+04 -0.35024006261E+03 -0.39039949365E+03  0.17854346577E+04  0.50400001928E-02 0. -1.
       -1    1    3    3    0  502  0.17066625475E+04  0.35024006261E+03 -0.12436151182E+04  0.21405475268E+04  0.50400001928E-02 0.  1.
</event>
<event>
 5   0  0.6541476E-07  0.3616125E+04  0.7818609E-02  0.8086808E-01
       -2   -1    0    0    0  501  0.00000000000E+00  0.00000000000E+00  0.15937854717E+04  0.15937854717E+04  0.25500000920E-02 0. -1.
        2   -1    0    0  501    0  0.00000000000E+00  0.00000000000E+00 -0.20511486261E+04  0.20511486261E+04  0.25500000920E-02 0.  1.
    10030    2    1    2    0    0  0.00000000000E+00  0.00000000000E+00 -0.45736315447E+03  0.36449340978E+04  0.36161254849E+04 0.  0.
        4    1    3    3  502    0  0.88571322827E+03 -0.99095674363E+02 -0.18143581458E+04  0.20214363630E+04  0.12699999809E+01 0.  1.
       -4    1    3    3    0  502 -0.88571322827E+03  0.99095674363E+02  0.13569949914E+04  0.16234977348E+04  0.12699999809E+01 0. -1.
</event>
<event>
 5   0  0.2193129E-07  0.3575617E+04  0.7818609E-02  0.8096100E-01
        1   -1    0    0  501    0  0.00000000000E+00  0.00000000000E+00  0.11866209034E+04  0.11866209034E+04  0.50400001928E-02 0. -1.
       -1   -1    0    0    0  501  0.00000000000E+00  0.00000000000E+00 -0.26935800390E+04  0.26935800390E+04  0.50400001928E-02 0.  1.
    10030    2    1    2    0    0  0.00000000000E+00  0.00000000000E+00 -0.15069591356E+04  0.38802009425E+04  0.35756165227E+04 0.  0.
        1    1    3    3  502    0 -0.11376529937E+04 -0.55624712266E+02 -0.22488729863E+04  0.25208685311E+04  0.50400001928E-02 0.  1.
       -1    1    3    3    0  502  0.11376529937E+04  0.55624712266E+02  0.74191385067E+03  0.13593324114E+04  0.50400001928E-02 0. -1.
</event>
<event>
 5   0  0.6669864E-07  0.2936005E+04  0.7818609E-02  0.8262245E-01
        2   -1    0    0  501    0  0.00000000000E+00  0.00000000000E+00  0.23466622751E+04  0.23466622751E+04  0.25500000920E-02 0. -1.
       -2   -1    0    0    0  501  0.00000000000E+00  0.00000000000E+00 -0.91833907602E+03  0.91833907602E+03  0.25500000920E-02 0.  1.
    10030    2    1    2    0    0  0.00000000000E+00  0.00000000000E+00  0.14283231990E+04  0.32650013511E+04  0.29360052217E+04 0.  0.
        5    1    3    3  502    0 -0.29923055497E+03 -0.56236016012E+03 -0.75662264847E+03  0.98908432244E+03  0.46999998093E+01 0.  1.
       -5    1    3    3    0  502  0.29923055497E+03  0.56236016012E+03  0.21849458475E+04  0.22759170286E+04  0.46999998093E+01 0. -1.
</event>
<event>
 5   0  0.6669864E-07  0.3188871E+04  0.7818609E-02  0.8191762E-01
       -2   -1    0    0    0  501  0.00000000000E+00  0.00000000000E+00  0.15675772184E+04  0.15675772184E+04  0.25500000920E-02 0.  1.
        2   -1    0    0  501    0  0.00000000000E+00  0.00000000000E+00 -0.16217541692E+04  0.16217541692E+04  0.25500000920E-02 0. -1.
    10030    2    1    2    0    0  0.00000000000E+00  0.00000000000E+00 -0.54176950793E+02  0.31893313877E+04  0.31888712044E+04 0.  0.
        5    1    3    3  502    0 -0.97783182363E+03  0.83065059651E+03  0.91965644848E+03  0.15785834036E+04  0.46999998093E+01 0.  1.
       -5    1    3    3    0  502  0.97783182363E+03 -0.83065059651E+03 -0.97383339928E+03  0.16107479841E+04  0.46999998093E+01 0. -1.
</event>
<event>
 5   0  0.6324216E-07  0.3613112E+04  0.7818609E-02  0.8087495E-01
       -2   -1    0    0    0  501  0.00000000000E+00  0.00000000000E+00  0.20373054304E+04  0.20373054304E+04  0.25500000920E-02 0. -1.
        2   -1    0    0  501    0  0.00000000000E+00  0.00000000000E+00 -0.16019416898E+04  0.16019416898E+04  0.25500000920E-02 0.  1.
    10030    2    1    2    0    0  0.00000000000E+00  0.00000000000E+00  0.43536374057E+03  0.36392471202E+04  0.36131119572E+04 0.  0.
        2    1    3    3  502    0  0.33778740795E+02 -0.15302761714E+04 -0.74882057817E+03  0.17040007108E+04  0.25500000920E-02 0. -1.
       -2    1    3    3    0  502 -0.33778740795E+02  0.15302761714E+04  0.11841843187E+04  0.19352464094E+04  0.25500000920E-02 0.  1.
</event>
<event>
 5   0  0.6324216E-07  0.3607458E+04  0.7818609E-02  0.8088785E-01
        2   -1    0    0  501    0  0.00000000000E+00  0.00000000000E+00  0.14950182605E+04  0.14950182605E+04  0.25500000920E-02 0. -1.
       -2   -1    0    0    0  501  0.00000000000E+00  0.00000000000E+00 -0.21761867846E+04  0.21761867846E+04  0.25500000920E-02 0.  1.
    10030    2    1    2    0    0  0.00000000000E+00  0.00000000000E+00 -0.68116852416E+03  0.36712050451E+04  0.36074583746E+04 0.  0.
        2    1    3    3  502    0  0.46543539747E+03  0.11161130332E+04  0.10213849769E+04  0.15828978751E+04  0.25500000920E-02 0. -1.
       -2    1    3    3    0  502 -0.46543539747E+03 -0.11161130332E+04 -0.17025535010E+04  0.20883071699E+04  0.25500000920E-02 0.  1.
</event>
<event>
 5   0  0.6848661E-07  0.3613837E+04  0.7818609E-02  0.8087329E-01
       -2   -1    0    0    0  501  0.00000000000E+00  0.00000000000E+00  0.27579955040E+04  0.27579955040E+04  0.25500000920E-02 0. -1.
        2   -1    0    0  501    0  0.00000000000E+00  0.00000000000E+00 -0.11838145323E+04  0.11838145323E+04  0.25500000920E-02 0.  1.
    10030    2    1    2    0    0  0.00000000000E+00  0.00000000000E+00  0.15741809717E+04  0.39418100363E+04  0.36138373830E+04 0.  0.
        1    1    3    3  502    0 -0.50029840448E+03  0.91971056835E+03  0.23934241064E+04  0.26124021468E+04  0.50400001928E-02 0. -1.
       -1    1    3    3    0  502  0.50029840448E+03 -0.91971056835E+03 -0.81924313469E+03  0.13294078896E+04  0.50400001928E-02 0.  1.
</event>
<event>
 5   0  0.2108068E-07  0.3596313E+04  0.7818609E-02  0.8091337E-01
        1   -1    0    0  501    0  0.00000000000E+00  0.00000000000E+00  0.22360785800E+04  0.22360785800E+04  0.50400001928E-02 0.  1.
       -1   -1    0    0    0  501  0.00000000000E+00  0.00000000000E+00 -0.14459984429E+04  0.14459984429E+04  0.50400001928E-02 0. -1.
    10030    2    1    2    0    0  0.00000000000E+00  0.00000000000E+00  0.79008013706E+03  0.36820770229E+04  0.35963126365E+04 0.  0.
        5    1    3    3  502    0 -0.14285086098E+04  0.80205248212E+03 -0.36386468993E+03  0.16781968403E+04  0.46999998093E+01 0. -1.
       -5    1    3    3    0  502  0.14285086098E+04 -0.80205248212E+03  0.11539448270E+04  0.20038801826E+04  0.46999998093E+01 0.  1.
</event>
<event>
 5   0  0.2086250E-07  0.3170585E+04  0.7818609E-02  0.8196629E-01
        1   -1    0    0  501    0  0.00000000000E+00  0.00000000000E+00  0.16320162606E+04  0.16320162606E+04  0.50400001928E-02 0.  1.
       -1   -1    0    0    0  501  0.00000000000E+00  0.00000000000E+00 -0.15399068002E+04  0.15399068002E+04  0.50400001928E-02 0. -1.
    10030    2    1    2    0    0  0.00000000000E+00  0.00000000000E+00  0.92109460377E+02  0.31719230608E+04  0.31705853956E+04 0.  0.
        3    1    3    3  502    0  0.16307167958E+03 -0.95780116788E+03  0.12992513724E+04  0.16223531024E+04  0.10100000352E+00 0.  1.
       -3    1    3    3    0  502 -0.16307167958E+03  0.95780116788E+03 -0.12071419120E+04  0.15495699584E+04  0.10100000352E+00 0. -1.
</event>
<event>
 5   0  0.6729577E-07  0.3575664E+04  0.7818609E-02  0.8096089E-01
        2   -1    0    0  501    0  0.00000000000E+00  0.00000000000E+00  0.97732995571E+03  0.97732995572E+03  0.25500000920E-02 0. -1.
       -2   -1    0    0    0  501  0.00000000000E+00  0.00000000000E+00 -0.32704845133E+04  0.32704845133E+04  0.25500000920E-02 0.  1.
    10030    2    1    2    0    0  0.00000000000E+00  0.00000000000E+00 -0.22931545576E+04  0.42478144690E+04  0.35756635662E+04 0.  0.
        3    1    3    3  502    0  0.47566796019E+02  0.15649800764E+04 -0.21719054781E+04  0.26774238842E+04  0.10100000352E+00 0.  1.
       -3    1    3    3    0  502 -0.47566796019E+02 -0.15649800764E+04 -0.12124907956E+03  0.15703905849E+04  0.10100000352E+00 0. -1.
</event>
<event>
 5   0  0.2193129E-07  0.3605606E+04  0.7818609E-02  0.8089209E-01
       -1   -1    0    0    0  501  0.00000000000E+00  0.00000000000E+00  0.18515597772E+04  0.18515597772E+04  0.50400001928E-02 0. -1.
        1   -1    0    0  501    0  0.00000000000E+00  0.00000000000E+00 -0.17553300957E+04  0.17553300957E+04  0.50400001928E-02 0.  1.
    10030    2    1    2    0    0  0.00000000000E+00  0.00000000000E+00  0.96229681490E+02  0.36068898728E+04  0.36056059689E+04 0.  0.
        1    1    3    3  502    0  0.17649656682E+04 -0.33517299343E+03  0.19868041275E+03  0.18074619365E+04  0.50400001928E-02 0. -1.
       -1    1    3    3    0  502 -0.17649656682E+04  0.33517299343E+03 -0.10245073126E+03  0.17994279363E+04  0.50400001928E-02 0.  1.
</event>
<event>
 5   0  0.6324216E-07  0.3640836E+04  0.7818609E-02  0.8081201E-01
        2   -1    0    0  501    0  0.00000000000E+00  0.00000000000E+00  0.26756422937E+04  0.26756422937E+04  0.25500000920E-02 0. -1.
       -2   -1    0    0    0  501  0.00000000000E+00  0.00000000000E+00 -0.12385521173E+04  0.12385521173E+04  0.25500000920E-02 0.  1.
    10030    2    1    2    0    0  0.00000000000E+00  0.00000000000E+00  0.14370901765E+04  0.39141944110E+04  0.36408364028E+04 0.  0.
        2    1    3    3  502    0  0.67497346757E+03 -0.18996301530E+03  0.25246324795E+04  0.26201992835E+04  0.25500000920E-02 0. -1.
       -2    1    3    3    0  502 -0.67497346757E+03  0.18996301530E+03 -0.10875423030E+04  0.12939951275E+04  0.25500000920E-02 0.  1.
</event>
<event>
 5   0  0.2086250E-07  0.3661293E+04  0.7818609E-02  0.8076594E-01
       -1   -1    0    0    0  501  0.00000000000E+00  0.00000000000E+00  0.12736851673E+04  0.12736851673E+04  0.50400001928E-02 0.  1.
        1   -1    0    0  501    0  0.00000000000E+00  0.00000000000E+00 -0.26311577296E+04  0.26311577296E+04  0.50400001928E-02 0. -1.
    10030    2    1    2    0    0  0.00000000000E+00  0.00000000000E+00 -0.13574725623E+04  0.39048428970E+04  0.36612929810E+04 0.  0.
        4    1    3    3  502    0 -0.10780348016E+04  0.14676807887E+04 -0.47915438937E+03  0.18830391585E+04  0.12699999809E+01 0.  1.
       -4    1    3    3    0  502  0.10780348016E+04 -0.14676807887E+04 -0.87831817290E+03  0.20218037384E+04  0.12699999809E+01 0. -1.
</event>
<event>
 5   0  0.2193129E-07  0.3594592E+04  0.7818609E-02  0.8091732E-01
       -1   -1    0    0    0  501  0.00000000000E+00  0.00000000000E+00  0.13986710493E+04  0.13986710493E+04  0.50400001928E-02 0. -1.
        1   -1    0    0  501    0  0.00000000000E+00  0.00000000000E+00 -0.23095301313E+04  0.23095301313E+04  0.50400001928E-02 0.  1.
    10030    2    1    2    0    0  0.00000000000E+00  0.00000000000E+00 -0.91085908204E+03  0.37082011806E+04  0.35945920114E+04 0.  0.
        1    1    3    3  502    0  0.53238974189E+03 -0.14224588551E+04  0.53590257617E+03  0.16105960396E+04  0.50400001928E-02 0. -1.
       -1    1    3    3    0  502 -0.53238974189E+03  0.14224588551E+04 -0.14467616582E+04  0.20976051410E+04  0.50400001928E-02 0.  1.
</event>
<event>
 5   0  0.2086250E-07  0.3701733E+04  0.7818609E-02  0.8067578E-01
       -1   -1    0    0    0  501  0.00000000000E+00  0.00000000000E+00  0.17706260004E+04  0.17706260004E+04  0.50400001928E-02 0. -1.
        1   -1    0    0  501    0  0.00000000000E+00  0.00000000000E+00 -0.19347431958E+04  0.19347431958E+04  0.50400001928E-02 0.  1.
    10030    2    1    2    0    0  0.00000000000E+00  0.00000000000E+00 -0.16411719545E+03  0.37053691962E+04  0.37017328950E+04 0.  0.
        2    1    3    3  502    0 -0.11813492014E+04 -0.73661373257E+02  0.13422568305E+04  0.17895992101E+04  0.25500000920E-02 0. -1.
       -2    1    3    3    0  502  0.11813492014E+04  0.73661373257E+02 -0.15063740259E+04  0.19157699861E+04  0.25500000920E-02 0.  1.
</event>
<event>
 5   0  0.2108068E-07  0.3589389E+04  0.7818609E-02  0.8092927E-01
       -1   -1    0    0    0  501  0.00000000000E+00  0.00000000000E+00  0.20417611256E+04  0.20417611256E+04  0.50400001928E-02 0. -1.
        1   -1    0    0  501    0  0.00000000000E+00  0.00000000000E+00 -0.15775244533E+04  0.15775244533E+04  0.50400001928E-02 0.  1.
    10030    2    1    2    0    0  0.00000000000E+00  0.00000000000E+00  0.46423667233E+03  0.36192855790E+04  0.35893888636E+04 0.  0.
        5    1    3    3  502    0  0.50635276372E+03 -0.11817861437E+03  0.19641410708E+04  0.20318049961E+04  0.46999998093E+01 0. -1.
       -5    1    3    3    0  502 -0.50635276372E+03  0.11817861437E+03 -0.14999043985E+04  0.15874805828E+04  0.46999998093E+01 0.  1.
</event>
<event>
 5   0  0.6541476E-07  0.3699768E+04  0.7818609E-02  0.8068013E-01
       -2   -1    0    0    0  501  0.00000000000E+00  0.00000000000E+00  0.16025517400E+04  0.16025517400E+04  0.25500000920E-02 0.  1.
        2   -1    0    0  501    0  0.00000000000E+00  0.00000000000E+00 -0.21353885193E+04  0.21353885193E+04  0.25500000920E-02 0. -1.
    10030    2    1    2    0    0  0.00000000000E+00  0.00000000000E+00 -0.53283677932E+03  0.37379402594E+04  0.36997678778E+04 0.  0.
        4    1    3    3  502    0  0.69153178452E+03 -0.21510220442E+03 -0.19862102204E+04  0.21141234164E+04  0.12699999809E+01 0. -1.
       -4    1    3    3    0  502 -0.69153178452E+03  0.21510220442E+03  0.14533734411E+04  0.16238168430E+04  0.12699999809E+01 0.  1.
</event>
<event>
 5   0  0.6541476E-07  0.3595214E+04  0.7818609E-02  0.8091589E-01
        2   -1    0    0  501    0  0.00000000000E+00  0.00000000000E+00  0.24504491886E+04  0.24504491886E+04  0.25500000920E-02 0.  1.
       -2   -1    0    0    0  501  0.00000000000E+00  0.00000000000E+00 -0.13186936483E+04  0.13186936483E+04  0.25500000920E-02 0. -1.
    10030    2    1    2    0    0  0.00000000000E+00  0.00000000000E+00  0.11317555404E+04  0.37691428369E+04  0.35952144751E+04 0.  0.
        4    1    3    3  502    0 -0.47101006431E+03 -0.31960994621E+03  0.23534737794E+04  0.24213305106E+04  0.12699999809E+01 0.  1.
       -4    1    3    3    0  502  0.47101006431E+03  0.31960994621E+03 -0.12217182390E+04  0.13478123263E+04  0.12699999809E+01 0. -1.
</event>
<event>
 5   0  0.2086250E-07  0.3616006E+04  0.7818609E-02  0.8086835E-01
       -1   -1    0    0    0  501  0.00000000000E+00  0.00000000000E+00  0.27090805973E+04  0.27090805973E+04  0.50400001928E-02 0.  1.
        1   -1    0    0  501    0  0.00000000000E+00  0.00000000000E+00 -0.12066359215E+04  0.12066359215E+04  0.50400001928E-02 0. -1.
    10030    2    1    2    0    0  0.00000000000E+00  0.00000000000E+00  0.15024446758E+04  0.39157165187E+04  0.36160055104E+04 0.  0.
        2    1    3    3  502    0  0.17969971157E+04  0.64301784306E+02  0.54707458848E+03  0.18795275892E+04  0.25500000920E-02 0.  1.
       -2    1    3    3    0  502 -0.17969971157E+04 -0.64301784306E+02  0.95537008729E+03  0.20361889296E+04  0.25500000920E-02 0. -1.
</event>
<event>
 5   0  0.6541476E-07  0.3569577E+04  0.7818609E-02  0.8097496E-01
       -2   -1    0    0    0  501  0.00000000000E+00  0.00000000000E+00  0.17859143693E+04  0.17859143693E+04  0.25500000920E-02 0.  1.
        2   -1    0    0  501    0  0.00000000000E+00  0.00000000000E+00 -0.17836630914E+04  0.17836630914E+04  0.25500000920E-02 0. -1.
    10030    2    1    2    0    0  0.00000000000E+00  0.00000000000E+00  0.22512779275E+01  0.35695774607E+04  0.35695767507E+04 0.  0.
        4    1    3    3  502    0 -0.40402921652E+03 -0.16882408428E+04 -0.41368907796E+03  0.17845271130E+04  0.12699999809E+01 0. -1.
       -4    1    3    3    0  502  0.40402921652E+03  0.16882408428E+04  0.41594035589E+03  0.17850503476E+04  0.12699999809E+01 0.  1.
</event>
<event>
 5   0  0.6848661E-07  0.3667638E+04  0.7818609E-02  0.8075172E-01
       -2   -1    0    0    0  501  0.00000000000E+00  0.00000000000E+00  0.18519852864E+04  0.18519852864E+04  0.25500000920E-02 0. -1.
        2   -1    0    0  501    0  0.00000000000E+00  0.00000000000E+00 -0.18158307399E+04  0.18158307399E+04  0.25500000920E-02 0.  1.
    10030    2    1    2    0    0  0.00000000000E+00  0.00000000000E+00  0.36154546464E+02  0.36678160263E+04  0.36676378300E+04 0.  0.
        1    1    3    3  502    0 -0.39175200405E+03  0.67338580444E+03 -0.16421159533E+04  0.18175430884E+04  0.50400001928E-02 0.  1.
       -1    1    3    3    0  502  0.39175200405E+03 -0.67338580444E+03  0.16782704998E+04  0.18502729379E+04  0.50400001928E-02 0. -1.
</event>
<event>
 5   0  0.6541476E-07  0.3491133E+04  0.7818609E-02  0.8115895E-01
       -2   -1    0    0    0  501  0.00000000000E+00  0.00000000000E+00  0.18485553809E+04  0.18485553809E+04  0.25500000920E-02 0.  1.
        2   -1    0    0  501    0  0.00000000000E+00  0.00000000000E+00 -0.16483152158E+04  0.16483152159E+04  0.25500000920E-02 0. -1.
    10030    2    1    2    0    0  0.00000000000E+00  0.00000000000E+00  0.20024016506E+03  0.34968705968E+04  0.34911327455E+04 0.  0.
        4    1    3    3  502    0  0.10402259563E+03  0.23848085148E+03  0.18290237404E+04  0.18474369469E+04  0.12699999809E+01 0.  1.
       -4    1    3    3    0  502 -0.10402259563E+03 -0.23848085148E+03 -0.16287835754E+04  0.16494336498E+04  0.12699999809E+01 0. -1.
</event>
<event>
 5   0  0.2108068E-07  0.3448392E+04  0.7818609E-02  0.8126130E-01
       -1   -1    0    0    0  501  0.00000000000E+00  0.00000000000E+00  0.26969124649E+04  0.26969124649E+04  0.50400001928E-02 0.  1.
        1   -1    0    0  501    0  0.00000000000E+00  0.00000000000E+00 -0.11023169269E+04  0.11023169269E+04  0.50400001928E-02 0. -1.
    10030    2    1    2    0    0  0.00000000000E+00  0.00000000000E+00  0.15945955380E+04  0.37992293919E+04  0.34483922402E+04 0.  0.
        5    1    3    3  502    0  0.35499680316E+03 -0.11173372298E+03  0.26521252808E+04  0.26781145887E+04  0.46999998093E+01 0.  1.
       -5    1    3    3    0  502 -0.35499680316E+03  0.11173372298E+03 -0.10575297428E+04  0.11211148032E+04  0.46999998093E+01 0. -1.
</event>
<event>
 5   0  0.6669864E-07  0.3597491E+04  0.7818609E-02  0.8091067E-01
        2   -1    0    0  501    0  0.00000000000E+00  0.00000000000E+00  0.19487061172E+04  0.19487061172E+04  0.25500000920E-02 0. -1.
       -2   -1    0    0    0  501  0.00000000000E+00  0.00000000000E+00 -0.16603251329E+04  0.16603251329E+04  0.25500000920E-02 0.  1.
    10030    2    1    2    0    0  0.00000000000E+00  0.00000000000E+00  0.28838098428E+03  0.36090312501E+04  0.35974912053E+04 0.  0.
        5    1    3    3  502    0  0.82422835793E+03  0.65925932977E+03  0.16053957717E+04  0.19212737763E+04  0.46999998093E+01 0. -1.
       -5    1    3    3    0  502 -0.82422835793E+03 -0.65925932977E+03 -0.13170147874E+04  0.16877574737E+04  0.46999998093E+01 0.  1.
</event>
<event>
 5   0  0.2108068E-07  0.3112169E+04  0.7818609E-02  0.8212406E-01
       -1   -1    0    0    0  501  0.00000000000E+00  0.00000000000E+00  0.13491567008E+04  0.13491567008E+04  0.50400001928E-02 0.  1.
        1   -1    0    0  501    0  0.00000000000E+00  0.00000000000E+00 -0.17947497870E+04  0.17947497870E+04  0.50400001928E-02 0. -1.
    10030    2    1    2    0    0  0.00000000000E+00  0.00000000000E+00 -0.44559308619E+03  0.31439064878E+04  0.31121688267E+04 0.  0.
        5    1    3    3  502    0  0.81835974191E+03  0.32610020818E+03  0.10729856368E+04  0.13882990599E+04  0.46999998093E+01 0.  1.
       -5    1    3    3    0  502 -0.81835974191E+03 -0.32610020818E+03 -0.15185787230E+04  0.17556074279E+04  0.46999998093E+01 0. -1.
</event>
<event>
 5   0  0.2086250E-07  0.3540131E+04  0.7818609E-02  0.8104345E-01
       -1   -1    0    0    0  501  0.00000000000E+00  0.00000000000E+00  0.18763082095E+04  0.18763082095E+04  0.50400001928E-02 0. -1.
        1   -1    0    0  501    0  0.00000000000E+00  0.00000000000E+00 -0.16698387832E+04  0.16698387832E+04  0.50400001928E-02 0.  1.
    10030    2    1    2    0    0  0.00000000000E+00  0.00000000000E+00  0.20646942624E+03  0.35461469927E+04  0.35401311939E+04 0.  0.
        3    1    3    3  502    0  0.29513460273E+03 -0.98466946050E+03 -0.13402045556E+04  0.16890312730E+04  0.10100000352E+00 0.  1.
       -3    1    3    3    0  502 -0.29513460273E+03  0.98466946050E+03  0.15466739818E+04  0.18571157197E+04  0.10100000352E+00 0. -1.
</event>
<event>
 5   0  0.6729577E-07  0.3587801E+04  0.7818609E-02  0.8093292E-01
       -2   -1    0    0    0  501  0.00000000000E+00  0.00000000000E+00  0.19529275666E+04  0.19529275666E+04  0.25500000920E-02 0.  1.
        2   -1    0    0  501    0  0.00000000000E+00  0.00000000000E+00 -0.16478233485E+04  0.16478233485E+04  0.25500000920E-02 0. -1.
    10030    2    1    2    0    0  0.00000000000E+00  0.00000000000E+00  0.30510421807E+03  0.36007509151E+04  0.35878013558E+04 0.  0.
        3    1    3    3  502    0  0.96558469438E+03 -0.13667814869E+04 -0.49602664242E+03  0.17454191116E+04  0.10100000352E+00 0.  1.
       -3    1    3    3    0  502 -0.96558469438E+03  0.13667814869E+04  0.80113086049E+03  0.18553318035E+04  0.10100000352E+00 0. -1.
</event>
<event>
 5   0  0.2193129E-07  0.3542458E+04  0.7818609E-02  0.8103801E-01
       -1   -1    0    0    0  501  0.00000000000E+00  0.00000000000E+00  0.15060050294E+04  0.15060050294E+04  0.50400001928E-02 0. -1.
        1   -1    0    0  501    0  0.00000000000E+00  0.00000000000E+00 -0.20831619053E+04  0.20831619054E+04  0.50400001928E-02 0.  1.
    10030    2    1    2    0    0  0.00000000000E+00  0.00000000000E+00 -0.57715687591E+03  0.35891669348E+04  0.35424580769E+04 0.  0.
        1    1    3    3  502    0  0.36973705362E+03  0.98496679403E+03  0.11551262801E+04  0.15624281734E+04  0.50400001928E-02 0. -1.
       -1    1    3    3    0  502 -0.36973705362E+03 -0.98496679403E+03 -0.17322831560E+04  0.20267387614E+04  0.50400001928E-02 0.  1.
</event>
<event>
 5   0  0.2086250E-07  0.3658269E+04  0.7818609E-02  0.8077273E-01
       -1   -1    0    0    0  501  0.00000000000E+00  0.00000000000E+00  0.12440712282E+04  0.12440712282E+04  0.50400001928E-02 0.  1.
        1   -1    0    0  501    0  0.00000000000E+00  0.00000000000E+00 -0.26893427275E+04  0.26893427275E+04  0.50400001928E-02 0. -1.
    10030    2    1    2    0    0  0.00000000000E+00  0.00000000000E+00 -0.14452714993E+04  0.39334139557E+04  0.36582694870E+04 0.  0.
        4    1    3    3  502    0  0.10479967877E+04  0.25173791118E+02 -0.23343063877E+04  0.25588901718E+04  0.12699999809E+01 0. -1.
       -4    1    3    3    0  502 -0.10479967877E+04 -0.25173791118E+02  0.88903488840E+03  0.13745237839E+04  0.12699999809E+01 0.  1.
</event>
<event>
 5   0  0.2108068E-07  0.3605998E+04  0.7818609E-02  0.8089119E-01
        1   -1    0    0  501    0  0.00000000000E+00  0.00000000000E+00  0.26339180065E+04  0.26339180065E+04  0.50400001928E-02 0. -1.
       -1   -1    0    0    0  501  0.00000000000E+00  0.00000000000E+00 -0.12342088517E+04  0.12342088517E+04  0.50400001928E-02 0.  1.
    10030    2    1    2    0    0  0.00000000000E+00  0.00000000000E+00  0.13997091548E+04  0.38681268581E+04  0.36059977361E+04 0.  0.
        5    1    3    3  502    0 -0.48356450961E+03 -0.51977597694E+03 -0.10779633705E+04  0.12907473879E+04  0.46999998093E+01 0.  1.
       -5    1    3    3    0  502  0.48356450961E+03  0.51977597694E+03  0.24776725253E+04  0.25773794703E+04  0.46999998093E+01 0. -1.
</event>
<event>
 5   0  0.2193129E-07  0.3630184E+04  0.7818609E-02  0.8083613E-01
       -1   -1    0    0    0  501  0.00000000000E+00  0.00000000000E+00  0.12131260608E+04  0.12131260608E+04  0.50400001928E-02 0. -1.
        1   -1    0    0  501    0  0.00000000000E+00  0.00000000000E+00 -0.27157590892E+04  0.27157590892E+04  0.50400001928E-02 0.  1.
    10030    2    1    2    0    0  0.00000000000E+00  0.00000000000E+00 -0.15026330284E+04  0.39288851500E+04  0.36301835358E+04 0.  0.
        1    1    3    3  502    0  0.41461760232E+03  0.31612391346E+03  0.11303360048E+04  0.12447897689E+04  0.50400001928E-02 0. -1.
       -1    1    3    3    0  502 -0.41461760232E+03 -0.31612391346E+03 -0.26329690333E+04  0.26840953811E+04  0.50400001928E-02 0.  1.
</event>
<event>
 5   0  0.2193129E-07  0.3627000E+04  0.7818609E-02  0.8084335E-01
        1   -1    0    0  501    0  0.00000000000E+00  0.00000000000E+00  0.16188536827E+04  0.16188536827E+04  0.50400001928E-02 0. -1.
       -1   -1    0    0    0  501  0.00000000000E+00  0.00000000000E+00 -0.20315503474E+04  0.20315503474E+04  0.50400001928E-02 0.  1.
    10030    2    1    2    0    0  0.00000000000E+00  0.00000000000E+00 -0.41269666466E+03  0.36504040301E+04  0.36270002820E+04 0.  0.
        1    1    3    3  502    0  0.74437328364E+03  0.10242150065E+04 -0.15130614252E+04  0.19729325486E+04  0.50400001928E-02 0.  1.
       -1    1    3    3    0  502 -0.74437328364E+03 -0.10242150065E+04  0.11003647605E+04  0.16774714815E+04  0.50400001928E-02 0. -1.
</event>
<event>
 5   0  0.6541476E-07  0.3613771E+04  0.7818609E-02  0.8087344E-01
        2   -1    0    0  501    0  0.00000000000E+00  0.00000000000E+00  0.14402217737E+04  0.14402217737E+04  0.25500000920E-02 0.  1.
       -2   -1    0    0    0  501  0.00000000000E+00  0.00000000000E+00 -0.22668979420E+04  0.22668979420E+04  0.25500000920E-02 0. -1.
    10030    2    1    2    0    0  0.00000000000E+00  0.00000000000E+00 -0.82667616822E+03  0.37071197157E+04  0.36137713125E+04 0.  0.
        4    1    3    3  502    0 -0.14565980814E+04 -0.87545958191E+03 -0.10429735060E+04  0.19939665989E+04  0.12699999809E+01 0. -1.
       -4    1    3    3    0  502  0.14565980814E+04  0.87545958191E+03  0.21629733779E+03  0.17131531168E+04  0.12699999809E+01 0.  1.
</event>
<event>
 5   0  0.2086250E-07  0.3555142E+04  0.7818609E-02  0.8100845E-01
       -1   -1    0    0    0  501  0.00000000000E+00  0.00000000000E+00  0.10828113169E+04  0.10828113169E+04  0.50400001928E-02 0. -1.
        1   -1    0    0  501    0  0.00000000000E+00  0.00000000000E+00 -0.29181063427E+04  0.29181063427E+04  0.50400001928E-02 0.  1.
    10030    2    1    2    0    0  0.00000000000E+00  0.00000000000E+00 -0.18352950258E+04  0.40009176595E+04  0.35551419503E+04 0.  0.
        4    1    3    3  502    0  0.16982627286E+04 -0.52502897845E+03 -0.91507253375E+03  0.19992776391E+04  0.12699999809E+01 0. -1.
       -4    1    3    3    0  502 -0.16982627286E+04  0.52502897845E+03 -0.92022249204E+03  0.20016400204E+04  0.12699999809E+01 0.  1.
</event>
<event>
 5   0  0.2193129E-07  0.3622058E+04  0.7818609E-02  0.8085458E-01
        1   -1    0    0  501    0  0.00000000000E+00  0.00000000000E+00  0.19456640412E+04  0.19456640412E+04  0.50400001928E-02 0. -1.
       -1   -1    0    0    0  501  0.00000000000E+00  0.00000000000E+00 -0.16857105759E+04  0.16857105759E+04  0.50400001928E-02 0.  1.
    10030    2    1    2    0    0  0.00000000000E+00  0.00000000000E+00  0.25995346528E+03  0.36313746171E+04  0.36220582278E+04 0.  0.
        1    1    3    3  502    0 -0.13494835125E+04  0.69666813445E+03  0.11191116743E+04  0.18864949456E+04  0.50400001928E-02 0. -1.
       -1    1    3    3    0  502  0.13494835125E+04 -0.69666813445E+03 -0.85915820904E+03  0.17448796716E+04  0.50400001928E-02 0.  1.
</event>
<event>
 5   0  0.2086250E-07  0.3593631E+04  0.7818609E-02  0.8091952E-01
        1   -1    0    0  501    0  0.00000000000E+00  0.00000000000E+00  0.12456968842E+04  0.12456968842E+04  0.50400001928E-02 0.  1.
       -1   -1    0    0    0  501  0.00000000000E+00  0.00000000000E+00 -0.25917585741E+04  0.25917585741E+04  0.50400001928E-02 0. -1.
    10030    2    1    2    0    0  0.00000000000E+00  0.00000000000E+00 -0.13460616899E+04  0.38374554583E+04  0.35936307992E+04 0.  0.
        3    1    3    3  502    0 -0.70442301046E+03  0.15782581657E+04 -0.11977295162E+04  0.21027759319E+04  0.10100000352E+00 0.  1.
       -3    1    3    3    0  502  0.70442301046E+03 -0.15782581657E+04 -0.14833217365E+03  0.17346795264E+04  0.10100000352E+00 0. -1.
</event>
<event>
 5   0  0.2108068E-07  0.3622445E+04  0.7818609E-02  0.8085370E-01
        1   -1    0    0  501    0  0.00000000000E+00  0.00000000000E+00  0.20172336692E+04  0.20172336692E+04  0.50400001928E-02 0.  1.
       -1   -1    0    0    0  501  0.00000000000E+00  0.00000000000E+00 -0.16262499566E+04  0.16262499566E+04  0.50400001928E-02 0. -1.
    10030    2    1    2    0    0  0.00000000000E+00  0.00000000000E+00  0.39098371260E+03  0.36434836258E+04  0.36224445707E+04 0.  0.
        5    1    3    3  502    0 -0.21991307303E+03 -0.17974093030E+04  0.15703216321E+03  0.18176146876E+04  0.46999998093E+01 0. -1.
       -5    1    3    3    0  502  0.21991307303E+03  0.17974093030E+04  0.23395154939E+03  0.18258689382E+04  0.46999998093E+01 0.  1.
</event>
<event>
 5   0  0.6541476E-07  0.3697142E+04  0.7818609E-02  0.8068595E-01
        2   -1    0    0  501    0  0.00000000000E+00  0.00000000000E+00  0.16146625947E+04  0.16146625947E+04  0.25500000920E-02 0.  1.
       -2   -1    0    0    0  501  0.00000000000E+00  0.00000000000E+00 -0.21163649818E+04  0.21163649818E+04  0.25500000920E-02 0. -1.
    10030    2    1    2    0    0  0.00000000000E+00  0.00000000000E+00 -0.50170238708E+03  0.37310275765E+04  0.36971423412E+04 0.  0.
        4    1    3    3  502    0  0.44917569326E+03 -0.17525810498E+03  0.15500888243E+04  0.16233456757E+04  0.12699999809E+01 0.  1.
       -4    1    3    3    0  502 -0.44917569326E+03  0.17525810498E+03 -0.20517912114E+04  0.21076819007E+04  0.12699999809E+01 0. -1.
</event>
<event>
 5   0  0.2086250E-07  0.3624282E+04  0.7818609E-02  0.8084952E-01
        1   -1    0    0  501    0  0.00000000000E+00  0.00000000000E+00  0.21489615607E+04  0.21489615607E+04  0.50400001928E-02 0. -1.
       -1   -1    0    0    0  501  0.00000000000E+00  0.00000000000E+00 -0.15281121471E+04  0.15281121471E+04  0.50400001928E-02 0.  1.
    10030    2    1    2    0    0  0.00000000000E+00  0.00000000000E+00  0.62084941361E+03  0.36770737079E+04  0.36242815921E+04 0.  0.
        2    1    3    3  502    0  0.51611378818E+03  0.52638563959E+03  0.19899529094E+04  0.21221140086E+04  0.25500000920E-02 0. -1.
       -2    1    3    3    0  502 -0.51611378818E+03 -0.52638563959E+03 -0.13691034958E+04  0.15549596992E+04  0.25500000920E-02 0.  1.
</event>
<event>
 5   0  0.2086250E-07  0.3591389E+04  0.7818609E-02  0.8092467E-01
        1   -1    0    0  501    0  0.00000000000E+00  0.00000000000E+00  0.28863557751E+04  0.28863557752E+04  0.50400001928E-02 0. -1.
       -1   -1    0    0    0  501  0.00000000000E+00  0.00000000000E+00 -0.11171588501E+04  0.11171588501E+04  0.50400001928E-02 0.  1.
    10030    2    1    2    0    0  0.00000000000E+00  0.00000000000E+00  0.17691969251E+04  0.40035146253E+04  0.35913885330E+04 0.  0.
        4    1    3    3  502    0  0.30982081124E+03  0.14277936817E+04  0.20483997671E+04  0.25160538451E+04  0.12699999809E+01 0. -1.
       -4    1    3    3    0  502 -0.30982081124E+03 -0.14277936817E+04 -0.27920284207E+03  0.14874607802E+04  0.12699999809E+01 0.  1.
</event>
<event>
 5   0  0.6541476E-07  0.4160894E+04  0.7818609E-02  0.7972853E-01
       -2   -1    0    0    0  501  0.00000000000E+00  0.00000000000E+00  0.26057732149E+04  0.26057732149E+04  0.25500000920E-02 0. -1.
        2   -1    0    0  501    0  0.00000000000E+00  0.00000000000E+00 -0.16610266360E+04  0.16610266360E+04  0.25500000920E-02 0.  1.
    10030    2    1    2    0    0  0.00000000000E+00  0.00000000000E+00  0.94474657894E+03  0.42667998509E+04  0.41608935181E+04 0.  0.
        4    1    3    3  502    0  0.15436375949E+02  0.12066686288E+04  0.22101964940E+04  0.25181853817E+04  0.12699999809E+01 0. -1.
       -4    1    3    3    0  502 -0.15436375949E+02 -0.12066686288E+04 -0.12654499150E+04  0.17486144692E+04  0.12699999809E+01 0.  1.
</event>
<event>
 5   0  0.6669864E-07  0.3602166E+04  0.7818609E-02  0.8089996E-01
       -2   -1    0    0    0  501  0.00000000000E+00  0.00000000000E+00  0.16681904846E+04  0.16681904846E+04  0.25500000920E-02 0. -1.
        2   -1    0    0  501    0  0.00000000000E+00  0.00000000000E+00 -0.19445620395E+04  0.19445620395E+04  0.25500000920E-02 0.  1.
    10030    2    1    2    0    0  0.00000000000E+00  0.00000000000E+00 -0.27637155484E+03  0.36127525241E+04  0.36021659546E+04 0.  0.
        5    1    3    3  502    0 -0.10730131649E+04  0.29719473333E+03 -0.15580426700E+04  0.19149937371E+04  0.46999998093E+01 0.  1.
       -5    1    3    3    0  502  0.10730131649E+04 -0.29719473333E+03  0.12816711151E+04  0.16977587870E+04  0.46999998093E+01 0. -1.
</event>
<event>
 5   0  0.2086250E-07  0.3641241E+04  0.7818609E-02  0.8081110E-01
       -1   -1    0    0    0  501  0.00000000000E+00  0.00000000000E+00  0.30454988286E+04  0.30454988286E+04  0.50400001928E-02 0. -1.
        1   -1    0    0  501    0  0.00000000000E+00  0.00000000000E+00 -0.10883794713E+04  0.10883794713E+04  0.50400001928E-02 0.  1.
    10030    2    1    2    0    0  0.00000000000E+00  0.00000000000E+00  0.19571193573E+04  0.41338782999E+04  0.36412406703E+04 0.  0.
        4    1    3    3  502    0  0.28158499565E+03 -0.11154415949E+04 -0.62343483775E+03  0.13085001609E+04  0.12699999809E+01 0.  1.
       -4    1    3    3    0  502 -0.28158499565E+03  0.11154415949E+04  0.25805541951E+04  0.28253781389E+04  0.12699999809E+01 0. -1.
</event>
<event>
 5   0  0.6541476E-07  0.3609704E+04  0.7818609E-02  0.8088273E-01
       -2   -1    0    0    0  501  0.00000000000E+00  0.00000000000E+00  0.13731299853E+04  0.13731299853E+04  0.25500000920E-02 0. -1.
        2   -1    0    0  501    0  0.00000000000E+00  0.00000000000E+00 -0.23723103445E+04  0.23723103445E+04  0.25500000920E-02 0.  1.
    10030    2    1    2    0    0  0.00000000000E+00  0.00000000000E+00 -0.99918035915E+03  0.37454403298E+04  0.36097038485E+04 0.  0.
        4    1    3    3  502    0  0.89876522795E+03 -0.34849451717E+02 -0.21231973457E+04  0.23058538550E+04  0.12699999809E+01 0.  1.
       -4    1    3    3    0  502 -0.89876522795E+03  0.34849451717E+02  0.11240169865E+04  0.14395864747E+04  0.12699999809E+01 0. -1.
</event>
<event>
 5   0  0.6729577E-07  0.3623220E+04  0.7818609E-02  0.8085193E-01
       -2   -1    0    0    0  501  0.00000000000E+00  0.00000000000E+00  0.12304586806E+04  0.12304586806E+04  0.25500000920E-02 0.  1.
        2   -1    0    0  501    0  0.00000000000E+00  0.00000000000E+00 -0.26672423561E+04  0.26672423561E+04  0.25500000920E-02 0. -1.
    10030    2    1    2    0    0  0.00000000000E+00  0.00000000000E+00 -0.14367836755E+04  0.38977010367E+04  0.36232203965E+04 0.  0.
        3    1    3    3  502    0 -0.12764803468E+04 -0.11979499107E+04 -0.12200280969E+04  0.21337653647E+04  0.10100000352E+00 0.  1.
       -3    1    3    3    0  502  0.12764803468E+04  0.11979499107E+04 -0.21675557858E+03  0.17639356721E+04  0.10100000352E+00 0. -1.
</event>
<event>
 5   0  0.2108068E-07  0.3457294E+04  0.7818609E-02  0.8123986E-01
        1   -1    0    0  501    0  0.00000000000E+00  0.00000000000E+00  0.22048686291E+04  0.22048686291E+04  0.50400001928E-02 0.  1.
       -1   -1    0    0    0  501  0.00000000000E+00  0.00000000000E+00 -0.13552828429E+04  0.13552828430E+04  0.50400001928E-02 0. -1.
    10030    2    1    2    0    0  0.00000000000E+00  0.00000000000E+00  0.84958578618E+03  0.35601514721E+04  0.34572941003E+04 0.  0.
        5    1    3    3  502    0 -0.10819854169E+03 -0.10230532260E+04 -0.10057284612E+04  0.14386996404E+04  0.46999998093E+01 0. -1.
       -5    1    3    3    0  502  0.10819854169E+03  0.10230532260E+04  0.18553142474E+04  0.21214518317E+04  0.46999998093E+01 0.  1.
</event>
<event>
 5   0  0.6324216E-07  0.3606858E+04  0.7818609E-02  0.8088923E-01
        2   -1    0    0  501    0  0.00000000000E+00  0.00000000000E+00  0.13099717648E+04  0.13099717648E+04  0.25500000920E-02 0.  1.
       -2   -1    0    0    0  501  0.00000000000E+00  0.00000000000E+00 -0.24827680242E+04  0.24827680242E+04  0.25500000920E-02 0. -1.
    10030    2    1    2    0    0  0.00000000000E+00  0.00000000000E+00 -0.11727962594E+04  0.37927397890E+04  0.36068579181E+04 0.  0.
        2    1    3    3  502    0  0.12255660805E+04 -0.67112351499E+03  0.61250796765E+03  0.15256424878E+04  0.25500000920E-02 0.  1.
       -2    1    3    3    0  502 -0.12255660805E+04  0.67112351499E+03 -0.17853042270E+04  0.22670973012E+04  0.25500000920E-02 0. -1.
</event>
<event>
 5   0  0.2086250E-07  0.3609604E+04  0.7818609E-02  0.8088295E-01
       -3   -1    0    0    0  501  0.00000000000E+00  0.00000000000E+00  0.15189176071E+04  0.15189176105E+04  0.10100000352E+00 0. -1.
        3   -1    0    0  501    0  0.00000000000E+00  0.00000000000E+00 -0.21444945835E+04  0.21444945859E+04  0.10100000352E+00 0.  1.
    10030    2    1    2    0    0  0.00000000000E+00  0.00000000000E+00 -0.62557697639E+03  0.36634121963E+04  0.36096041842E+04 0.  0.
        3    1    3    3  502    0  0.13365240490E+04  0.10025426613E+04 -0.10055486990E+04  0.19500042352E+04  0.10100000352E+00 0.  1.
       -3    1    3    3    0  502 -0.13365240490E+04 -0.10025426613E+04  0.37997172259E+03  0.17134079611E+04  0.10100000352E+00 0. -1.
</event>
<event>
 5   0  0.6324216E-07  0.3569335E+04  0.7818609E-02  0.8097552E-01
       -2   -1    0    0    0  501  0.00000000000E+00  0.00000000000E+00  0.14842230222E+04  0.14842230222E+04  0.25500000920E-02 0. -1.
        2   -1    0    0  501    0  0.00000000000E+00  0.00000000000E+00 -0.21459293191E+04  0.21459293191E+04  0.25500000920E-02 0.  1.
    10030    2    1    2    0    0  0.00000000000E+00  0.00000000000E+00 -0.66170629695E+03  0.36301523413E+04  0.35693347836E+04 0.  0.
        2    1    3    3  502    0  0.14236514653E+04  0.10332426654E+04 -0.63708793555E+03  0.18708968271E+04  0.25500000920E-02 0. -1.
       -2    1    3    3    0  502 -0.14236514653E+04 -0.10332426654E+04 -0.24618361394E+02  0.17592555141E+04  0.25500000920E-02 0.  1.
</event>
<event>
 5   0  0.2086250E-07  0.3611704E+04  0.7818609E-02  0.8087816E-01
       -1   -1    0    0    0  501  0.00000000000E+00  0.00000000000E+00  0.20008509738E+04  0.20008509738E+04  0.50400001928E-02 0.  1.
        1   -1    0    0  501    0  0.00000000000E+00  0.00000000000E+00 -0.16298568080E+04  0.16298568080E+04  0.50400001928E-02 0. -1.
    10030    2    1    2    0    0  0.00000000000E+00  0.00000000000E+00  0.37099416579E+03  0.36307077818E+04  0.36117035213E+04 0.  0.
        3    1    3    3  502    0  0.13217697683E+04 -0.11950987140E+04 -0.10889933016E+03  0.17852717807E+04  0.10100000352E+00 0. -1.
       -3    1    3    3    0  502 -0.13217697683E+04  0.11950987140E+04  0.47989349595E+03  0.18454360011E+04  0.10100000352E+00 0.  1.
</event>
<event>
 5   0  0.6729577E-07  0.3656734E+04  0.7818609E-02  0.8077618E-01
        2   -1    0    0  501    0  0.00000000000E+00  0.00000000000E+00  0.23591937415E+04  0.23591937415E+04  0.25500000920E-02 0.  1.
       -2   -1    0    0    0  501  0.00000000000E+00  0.00000000000E+00 -0.14169782834E+04  0.14169782834E+04  0.25500000920E-02 0. -1.
    10030    2    1    2    0    0  0.00000000000E+00  0.00000000000E+00  0.94221545807E+03  0.37761720249E+04  0.36567342250E+04 0.  0.
        3    1    3    3  502    0  0.37531819429E+03 -0.45441025540E+03 -0.13161961179E+04  0.14421250494E+04  0.10100000352E+00 0. -1.
       -3    1    3    3    0  502 -0.37531819429E+03  0.45441025540E+03  0.22584115760E+04  0.23340469755E+04  0.10100000352E+00 0.  1.
</event>
<event>
 5   0  0.2086250E-07  0.3775459E+04  0.7818609E-02  0.8051442E-01
       -1   -1    0    0    0  501  0.00000000000E+00  0.00000000000E+00  0.27776387176E+04  0.27776387177E+04  0.50400001928E-02 0. -1.
        1   -1    0    0  501    0  0.00000000000E+00  0.00000000000E+00 -0.12829321294E+04  0.12829321294E+04  0.50400001928E-02 0.  1.
    10030    2    1    2    0    0  0.00000000000E+00  0.00000000000E+00  0.14947065883E+04  0.40605708470E+04  0.37754586236E+04 0.  0.
        4    1    3    3  502    0 -0.85728646863E+02 -0.10764941754E+04 -0.91790420771E+03  0.14172998476E+04  0.12699999809E+01 0.  1.
       -4    1    3    3    0  502  0.85728646863E+02  0.10764941754E+04  0.24126107960E+04  0.26432709994E+04  0.12699999809E+01 0. -1.
</event>
<event>
 5   0  0.2086250E-07  0.3543358E+04  0.7818609E-02  0.8103591E-01
       -1   -1    0    0    0  501  0.00000000000E+00  0.00000000000E+00  0.18322238651E+04  0.18322238651E+04  0.50400001928E-02 0. -1.
        1   -1    0    0  501    0  0.00000000000E+00  0.00000000000E+00 -0.17131351241E+04  0.17131351241E+04  0.50400001928E-02 0.  1.
    10030    2    1    2    0    0  0.00000000000E+00  0.00000000000E+00  0.11908874103E+03  0.35453589893E+04  0.35433583271E+04 0.  0.
        3    1    3    3  502    0 -0.87193195700E+03  0.31493661534E+03  0.15701639010E+04  0.18234212611E+04  0.10100000352E+00 0. -1.
       -3    1    3    3    0  502  0.87193195700E+03 -0.31493661534E+03 -0.14510751600E+04  0.17219377281E+04  0.10100000352E+00 0.  1.
</event>
<event>
 5   0  0.6324216E-07  0.3591144E+04  0.7818609E-02  0.8092523E-01
        2   -1    0    0  501    0  0.00000000000E+00  0.00000000000E+00  0.25331296972E+04  0.25331296972E+04  0.25500000920E-02 0.  1.
       -2   -1    0    0    0  501  0.00000000000E+00  0.00000000000E+00 -0.12727653313E+04  0.12727653313E+04  0.25500000920E-02 0. -1.
    10030    2    1    2    0    0  0.00000000000E+00  0.00000000000E+00  0.12603643659E+04  0.38058950286E+04  0.35911444741E+04 0.  0.
        2    1    3    3  502    0 -0.89634089669E+03 -0.45702942733E+03  0.22063213933E+04  0.24249035014E+04  0.25500000920E-02 0.  1.
       -2    1    3    3    0  502  0.89634089669E+03  0.45702942733E+03 -0.94595702739E+03  0.13809915272E+04  0.25500000920E-02 0. -1.
</event>
<event>
 5   0  0.2108068E-07  0.3599308E+04  0.7818609E-02  0.8090650E-01
        1   -1    0    0  501    0  0.00000000000E+00  0.00000000000E+00  0.21599151505E+04  0.21599151505E+04  0.50400001928E-02 0. -1.
       -1   -1    0    0    0  501  0.00000000000E+00  0.00000000000E+00 -0.14994819717E+04  0.14994819717E+04  0.50400001928E-02 0.  1.
    10030    2    1    2    0    0  0.00000000000E+00  0.00000000000E+00  0.66043317881E+03  0.36593971222E+04  0.35993076159E+04 0.  0.
        5    1    3    3  502    0  0.11795177696E+04  0.95037481078E+03  0.13181683733E+04  0.20080000997E+04  0.46999998093E+01 0. -1.
       -5    1    3    3    0  502 -0.11795177696E+04 -0.95037481078E+03 -0.65773519451E+03  0.16513970225E+04  0.46999998093E+01 0.  1.
</event>
<event>
 5   0  0.6541476E-07  0.3764388E+04  0.7818609E-02  0.8053841E-01
        2   -1    0    0  501    0  0.00000000000E+00  0.00000000000E+00  0.29769945871E+04  0.29769945871E+04  0.25500000920E-02 0.  1.
       -2   -1    0    0    0  501  0.00000000000E+00  0.00000000000E+00 -0.11900102537E+04  0.11900102537E+04  0.25500000920E-02 0. -1.
    10030    2    1    2    0    0  0.00000000000E+00  0.00000000000E+00  0.17869843334E+04  0.41670048409E+04  0.37643879099E+04 0.  0.
        4    1    3    3  502    0 -0.97549073340E+03  0.66054854980E+03 -0.73141168422E+03  0.13866763221E+04  0.12699999809E+01 0. -1.
       -4    1    3    3    0  502  0.97549073340E+03 -0.66054854980E+03  0.25183960176E+04  0.27803285187E+04  0.12699999809E+01 0.  1.
</event>
<event>
 5   0  0.6729577E-07  0.3635494E+04  0.7818609E-02  0.8082409E-01
        2   -1    0    0  501    0  0.00000000000E+00  0.00000000000E+00  0.27188998468E+04  0.27188998468E+04  0.25500000920E-02 0.  1.
       -2   -1    0    0    0  501  0.00000000000E+00  0.00000000000E+00 -0.12152727518E+04  0.12152727518E+04  0.25500000920E-02 0. -1.
    10030    2    1    2    0    0  0.00000000000E+00  0.00000000000E+00  0.15036270950E+04  0.39341725987E+04  0.36354944087E+04 0.  0.
        3    1    3    3  502    0  0.90719040979E+02  0.89566148609E+03 -0.95709070199E+03  0.13139490341E+04  0.10100000352E+00 0. -1.
       -3    1    3    3    0  502 -0.90719040979E+02 -0.89566148609E+03  0.24607177970E+04  0.26202235646E+04  0.10100000352E+00 0.  1.
</event>
<event>
 5   0  0.6669864E-07  0.3628910E+04  0.7818609E-02  0.8083902E-01
        2   -1    0    0  501    0  0.00000000000E+00  0.00000000000E+00  0.19972828475E+04  0.19972828475E+04  0.25500000920E-02 0. -1.
       -2   -1    0    0    0  501  0.00000000000E+00  0.00000000000E+00 -0.16483624878E+04  0.16483624878E+04  0.25500000920E-02 0.  1.
    10030    2    1    2    0    0  0.00000000000E+00  0.00000000000E+00  0.34892035971E+03  0.36456453353E+04  0.36289095461E+04 0.  0.
        5    1    3    3  502    0 -0.14204431973E+04  0.10156140058E+04  0.66977897822E+03  0.18702290381E+04  0.46999998093E+01 0. -1.
       -5    1    3    3    0  502  0.14204431973E+04 -0.10156140058E+04 -0.32085861850E+03  0.17754162972E+04  0.46999998093E+01 0.  1.
</event>
<event>
 5   0  0.2086250E-07  0.3605257E+04  0.7818609E-02  0.8089289E-01
       -1   -1    0    0    0  501  0.00000000000E+00  0.00000000000E+00  0.18241972935E+04  0.18241972935E+04  0.50400001928E-02 0. -1.
        1   -1    0    0  501    0  0.00000000000E+00  0.00000000000E+00 -0.17813146443E+04  0.17813146443E+04  0.50400001928E-02 0.  1.
    10030    2    1    2    0    0  0.00000000000E+00  0.00000000000E+00  0.42882649163E+02  0.36055119378E+04  0.36052569135E+04 0.  0.
        4    1    3    3  502    0  0.53523304606E+03  0.21427231174E+03  0.17295084800E+04  0.18230710991E+04  0.12699999809E+01 0. -1.
       -4    1    3    3    0  502 -0.53523304606E+03 -0.21427231174E+03 -0.16866258308E+04  0.17824408387E+04  0.12699999809E+01 0.  1.
</event>
<event>
 5   0  0.2086250E-07  0.3594934E+04  0.7818609E-02  0.8091653E-01
       -1   -1    0    0    0  501  0.00000000000E+00  0.00000000000E+00  0.14228792618E+04  0.14228792618E+04  0.50400001928E-02 0. -1.
        1   -1    0    0  501    0  0.00000000000E+00  0.00000000000E+00 -0.22706694507E+04  0.22706694507E+04  0.50400001928E-02 0.  1.
    10030    2    1    2    0    0  0.00000000000E+00  0.00000000000E+00 -0.84779018892E+03  0.36935487125E+04  0.35949344760E+04 0.  0.
        3    1    3    3  502    0  0.30334513302E+03  0.10278137757E+04  0.10587668076E+04  0.15064549745E+04  0.10100000352E+00 0. -1.
       -3    1    3    3    0  502 -0.30334513302E+03 -0.10278137757E+04 -0.19065569965E+04  0.21870937379E+04  0.10100000352E+00 0.  1.
</event>
<event>
 5   0  0.2108068E-07  0.3556181E+04  0.7818609E-02  0.8100603E-01
       -1   -1    0    0    0  501  0.00000000000E+00  0.00000000000E+00  0.13242947414E+04  0.13242947414E+04  0.50400001928E-02 0.  1.
        1   -1    0    0  501    0  0.00000000000E+00  0.00000000000E+00 -0.23873883756E+04  0.23873883756E+04  0.50400001928E-02 0. -1.
    10030    2    1    2    0    0  0.00000000000E+00  0.00000000000E+00 -0.10630936341E+04  0.37116831170E+04  0.35561810255E+04 0.  0.
        5    1    3    3  502    0 -0.17758656195E+04 -0.77956213580E+02 -0.48716800737E+03  0.18431306593E+04  0.46999998093E+01 0.  1.
       -5    1    3    3    0  502  0.17758656195E+04  0.77956213580E+02 -0.57592562678E+03  0.18685524577E+04  0.46999998093E+01 0. -1.
</event>
<event>
 5   0  0.6324216E-07  0.3625367E+04  0.7818609E-02  0.8084706E-01
        2   -1    0    0  501    0  0.00000000000E+00  0.00000000000E+00  0.21373947124E+04  0.21373947124E+04  0.25500000920E-02 0. -1.
       -2   -1    0    0    0  501  0.00000000000E+00  0.00000000000E+00 -0.15373020054E+04  0.15373020054E+04  0.25500000920E-02 0.  1.
    10030    2    1    2    0    0  0.00000000000E+00  0.00000000000E+00  0.60009270701E+03  0.36746967178E+04  0.36253668381E+04 0.  0.
        2    1    3    3  502    0  0.11237364821E+04  0.43625417119E+03  0.16722468713E+04  0.20614342050E+04  0.25500000920E-02 0. -1.
       -2    1    3    3    0  502 -0.11237364821E+04 -0.43625417119E+03 -0.10721541642E+04  0.16132625128E+04  0.25500000920E-02 0.  1.
</event>
<event>
 5   0  0.6541476E-07  0.3583632E+04  0.7818609E-02  0.8094251E-01
        2   -1    0    0  501    0  0.00000000000E+00  0.00000000000E+00  0.29080452961E+04  0.29080452961E+04  0.25500000920E-02 0. -1.
       -2   -1    0    0    0  501  0.00000000000E+00  0.00000000000E+00 -0.11040423143E+04  0.11040423143E+04  0.25500000920E-02 0.  1.
    10030    2    1    2    0    0  0.00000000000E+00  0.00000000000E+00  0.18040029818E+04  0.40120876104E+04  0.35836322684E+04 0.  0.
        4    1    3    3  502    0  0.12150198831E+04 -0.13110388700E+04  0.76258510621E+03  0.19433563472E+04  0.12699999809E+01 0. -1.
       -4    1    3    3    0  502 -0.12150198831E+04  0.13110388700E+04  0.10414178756E+04  0.20687312632E+04  0.12699999809E+01 0.  1.
</event>
<event>
 5   0  0.6669864E-07  0.3056738E+04  0.7818609E-02  0.8227712E-01
       -2   -1    0    0    0  501  0.00000000000E+00  0.00000000000E+00  0.91265574902E+03  0.91265574903E+03  0.25500000920E-02 0. -1.
        2   -1    0    0  501    0  0.00000000000E+00  0.00000000000E+00 -0.25594663110E+04  0.25594663110E+04  0.25500000920E-02 0.  1.
    10030    2    1    2    0    0  0.00000000000E+00  0.00000000000E+00 -0.16468105619E+04  0.34721220600E+04  0.30567378973E+04 0.  0.
        5    1    3    3  502    0  0.13965847503E+04 -0.41233579828E+03 -0.13506103405E+04  0.19861118189E+04  0.46999998093E+01 0.  1.
       -5    1    3    3    0  502 -0.13965847503E+04  0.41233579828E+03 -0.29620022148E+03  0.14860102411E+04  0.46999998093E+01 0. -1.
</event>
<event>
 5   0  0.6541476E-07  0.3543611E+04  0.7818609E-02  0.8103532E-01
       -2   -1    0    0    0  501  0.00000000000E+00  0.00000000000E+00  0.19163757915E+04  0.19163757915E+04  0.25500000920E-02 0. -1.
        2   -1    0    0  501    0  0.00000000000E+00  0.00000000000E+00 -0.16381413641E+04  0.16381413641E+04  0.25500000920E-02 0.  1.
    10030    2    1    2    0    0  0.00000000000E+00  0.00000000000E+00  0.27823442743E+03  0.35545171556E+04  0.35436108439E+04 0.  0.
        4    1    3    3  502    0 -0.72653120811E+03 -0.14478605279E+04  0.85906233719E+03  0.18336132135E+04  0.12699999809E+01 0. -1.
       -4    1    3    3    0  502  0.72653120811E+03  0.14478605279E+04 -0.58082790976E+03  0.17209039422E+04  0.12699999809E+01 0.  1.
</event>
<event>
 5   0  0.6324216E-07  0.3592462E+04  0.7818609E-02  0.8092220E-01
       -2   -1    0    0    0  501  0.00000000000E+00  0.00000000000E+00  0.11720706408E+04  0.11720706408E+04  0.25500000920E-02 0. -1.
        2   -1    0    0  501    0  0.00000000000E+00  0.00000000000E+00 -0.27527745846E+04  0.27527745846E+04  0.25500000920E-02 0.  1.
    10030    2    1    2    0    0  0.00000000000E+00  0.00000000000E+00 -0.15807039437E+04  0.39248452254E+04  0.35924622594E+04 0.  0.
        2    1    3    3  502    0  0.96820152342E+03 -0.87554956678E+02  0.85981474497E+03  0.12978295173E+04  0.25500000920E-02 0. -1.
       -2    1    3    3    0  502 -0.96820152342E+03  0.87554956678E+02 -0.24405186887E+04  0.26270157080E+04  0.25500000920E-02 0.  1.
</event>
<event>
 5   0  0.6669864E-07  0.3620921E+04  0.7818609E-02  0.8085716E-01
        2   -1    0    0  501    0  0.00000000000E+00  0.00000000000E+00  0.23975147420E+04  0.23975147420E+04  0.25500000920E-02 0. -1.
       -2   -1    0    0    0  501  0.00000000000E+00  0.00000000000E+00 -0.13671517766E+04  0.13671517766E+04  0.25500000920E-02 0.  1.
    10030    2    1    2    0    0  0.00000000000E+00  0.00000000000E+00  0.10303629654E+04  0.37646665187E+04  0.36209206228E+04 0.  0.
        5    1    3    3  502    0 -0.10693294397E+04  0.26035334719E+03 -0.97941756298E+03  0.14732719262E+04  0.46999998093E+01 0.  1.
       -5    1    3    3    0  502  0.10693294397E+04 -0.26035334719E+03  0.20097805284E+04  0.22913945924E+04  0.46999998093E+01 0. -1.
</event>
<event>
 5   0  0.6669864E-07  0.3595674E+04  0.7818609E-02  0.8091483E-01
        2   -1    0    0  501    0  0.00000000000E+00  0.00000000000E+00  0.14758725450E+04  0.14758725451E+04  0.25500000920E-02 0. -1.
       -2   -1    0    0    0  501  0.00000000000E+00  0.00000000000E+00 -0.21900389189E+04  0.21900389189E+04  0.25500000920E-02 0.  1.
    10030    2    1    2    0    0  0.00000000000E+00  0.00000000000E+00 -0.71416637390E+03  0.36659114640E+04  0.35956742417E+04 0.  0.
        5    1    3    3  502    0 -0.14190187515E+03 -0.11606226105E+04  0.10352488790E+04  0.15617116628E+04  0.46999998093E+01 0. -1.
       -5    1    3    3    0  502  0.14190187515E+03  0.11606226105E+04 -0.17494152529E+04  0.21041998012E+04  0.46999998093E+01 0.  1.
</event>
<event>
 5   0  0.2086250E-07  0.3479468E+04  0.7818609E-02  0.8118673E-01
        1   -1    0    0  501    0  0.00000000000E+00  0.00000000000E+00  0.18146945343E+04  0.18146945343E+04  0.50400001928E-02 0.  1.
       -1   -1    0    0    0  501  0.00000000000E+00  0.00000000000E+00 -0.16678695100E+04  0.16678695100E+04  0.50400001928E-02 0. -1.
    10030    2    1    2    0    0  0.00000000000E+00  0.00000000000E+00  0.14682502426E+03  0.34825640443E+04  0.34794675936E+04 0.  0.
        2    1    3    3  502    0  0.14599718124E+04 -0.92544253597E+03  0.27034152353E+03  0.17495845563E+04  0.25500000920E-02 0.  1.
       -2    1    3    3    0  502 -0.14599718124E+04  0.92544253597E+03 -0.12351649927E+03  0.17329794880E+04  0.25500000920E-02 0. -1.
</event>
<event>
 5   0  0.2086250E-07  0.3613503E+04  0.7818609E-02  0.8087406E-01
       -1   -1    0    0    0  501  0.00000000000E+00  0.00000000000E+00  0.14124944212E+04  0.14124944212E+04  0.50400001928E-02 0. -1.
        1   -1    0    0  501    0  0.00000000000E+00  0.00000000000E+00 -0.23110539559E+04  0.23110539559E+04  0.50400001928E-02 0.  1.
    10030    2    1    2    0    0  0.00000000000E+00  0.00000000000E+00 -0.89855953471E+03  0.37235483771E+04  0.36135029098E+04 0.  0.
        2    1    3    3  502    0  0.56473228358E+03 -0.89919252604E+03  0.10570455228E+04  0.14982706659E+04  0.25500000920E-02 0. -1.
       -2    1    3    3    0  502 -0.56473228358E+03  0.89919252604E+03 -0.19556050575E+04  0.22252777112E+04  0.25500000920E-02 0.  1.
</event>
<event>
 5   0  0.2086250E-07  0.3614113E+04  0.7818609E-02  0.8087267E-01
        1   -1    0    0  501    0  0.00000000000E+00  0.00000000000E+00  0.18350359111E+04  0.18350359111E+04  0.50400001928E-02 0.  1.
       -1   -1    0    0    0  501  0.00000000000E+00  0.00000000000E+00 -0.17795034730E+04  0.17795034730E+04  0.50400001928E-02 0. -1.
    10030    2    1    2    0    0  0.00000000000E+00  0.00000000000E+00  0.55532438169E+02  0.36145393841E+04  0.36141127691E+04 0.  0.
        2    1    3    3  502    0  0.16639032234E+04  0.68832500616E+03 -0.12419751600E+03  0.18049349778E+04  0.25500000920E-02 0. -1.
       -2    1    3    3    0  502 -0.16639032234E+04 -0.68832500616E+03  0.17972995417E+03  0.18096044063E+04  0.25500000920E-02 0.  1.
</event>
<event>
 5   0  0.2108068E-07  0.3633340E+04  0.7818609E-02  0.8082897E-01
        1   -1    0    0  501    0  0.00000000000E+00  0.00000000000E+00  0.24846545752E+04  0.24846545752E+04  0.50400001928E-02 0. -1.
       -1   -1    0    0    0  501  0.00000000000E+00  0.00000000000E+00 -0.13282692897E+04  0.13282692898E+04  0.50400001928E-02 0.  1.
    10030    2    1    2    0    0  0.00000000000E+00  0.00000000000E+00  0.11563852855E+04  0.38129238650E+04  0.36333402637E+04 0.  0.
        5    1    3    3  502    0  0.27930929386E+03  0.17910122421E+04  0.70468988474E+03  0.19448260736E+04  0.46999998093E+01 0.  1.
       -5    1    3    3    0  502 -0.27930929386E+03 -0.17910122421E+04  0.45169540071E+03  0.18680977913E+04  0.46999998093E+01 0. -1.
</event>
<event>
 5   0  0.6729577E-07  0.3607505E+04  0.7818609E-02  0.8088775E-01
        2   -1    0    0  501    0  0.00000000000E+00  0.00000000000E+00  0.14706973582E+04  0.14706973582E+04  0.25500000920E-02 0.  1.
       -2   -1    0    0    0  501  0.00000000000E+00  0.00000000000E+00 -0.22122318221E+04  0.22122318221E+04  0.25500000920E-02 0. -1.
    10030    2    1    2    0    0  0.00000000000E+00  0.00000000000E+00 -0.74153446386E+03  0.36829291803E+04  0.36075052302E+04 0.  0.
        3    1    3    3  502    0 -0.14437267112E+04  0.70915300740E+03 -0.12040921289E+04  0.20092492801E+04  0.10100000352E+00 0.  1.
       -3    1    3    3    0  502  0.14437267112E+04 -0.70915300740E+03  0.46255766499E+03  0.16736799002E+04  0.10100000352E+00 0. -1.
</event>
<event>
 5   0  0.2086250E-07  0.3596241E+04  0.7818609E-02  0.8091353E-01
       -1   -1    0    0    0  501  0.00000000000E+00  0.00000000000E+00  0.14643252458E+04  0.14643252458E+04  0.50400001928E-02 0. -1.
        1   -1    0    0  501    0  0.00000000000E+00  0.00000000000E+00 -0.22080052679E+04  0.22080052679E+04  0.50400001928E-02 0.  1.
    10030    2    1    2    0    0  0.00000000000E+00  0.00000000000E+00 -0.74368002215E+03  0.36723305137E+04  0.35962412915E+04 0.  0.
        3    1    3    3  502    0 -0.83155750674E+03 -0.30964524156E+03  0.12251772272E+04  0.15127548747E+04  0.10100000352E+00 0. -1.
       -3    1    3    3    0  502  0.83155750674E+03  0.30964524156E+03 -0.19688572493E+04  0.21595756391E+04  0.10100000352E+00 0.  1.
</event>
<event>
 5   0  0.2086250E-07  0.3625859E+04  0.7818609E-02  0.8084594E-01
        1   -1    0    0  501    0  0.00000000000E+00  0.00000000000E+00  0.26139708569E+04  0.26139708569E+04  0.50400001928E-02 0. -1.
       -1   -1    0    0    0  501  0.00000000000E+00  0.00000000000E+00 -0.12573644812E+04  0.12573644812E+04  0.50400001928E-02 0.  1.
    10030    2    1    2    0    0  0.00000000000E+00  0.00000000000E+00  0.13566063757E+04  0.38713353382E+04  0.36258594073E+04 0.  0.
        2    1    3    3  502    0  0.25858333670E+03 -0.31566132510E+02 -0.12372771001E+04  0.12644035690E+04  0.25500000920E-02 0.  1.
       -2    1    3    3    0  502 -0.25858333670E+03  0.31566132510E+02  0.25938834759E+04  0.26069317692E+04  0.25500000920E-02 0. -1.
</event>
<event>
 5   0  0.2108068E-07  0.3604518E+04  0.7818609E-02  0.8089458E-01
        1   -1    0    0  501    0  0.00000000000E+00  0.00000000000E+00  0.16811396721E+04  0.16811396721E+04  0.50400001928E-02 0.  1.
       -1   -1    0    0    0  501  0.00000000000E+00  0.00000000000E+00 -0.19321042005E+04  0.19321042005E+04  0.50400001928E-02 0. -1.
    10030    2    1    2    0    0  0.00000000000E+00  0.00000000000E+00 -0.25096452838E+03  0.36132438726E+04  0.36045177331E+04 0.  0.
        5    1    3    3  502    0  0.50642582175E+03 -0.13106204138E+04 -0.12568961871E+04  0.18852063805E+04  0.46999998093E+01 0. -1.
       -5    1    3    3    0  502 -0.50642582175E+03  0.13106204138E+04  0.10059316587E+04  0.17280374921E+04  0.46999998093E+01 0.  1.
</event>
<event>
 5   0  0.6324216E-07  0.3597562E+04  0.7818609E-02  0.8091050E-01
       -2   -1    0    0    0  501  0.00000000000E+00  0.00000000000E+00  0.20369791817E+04  0.20369791817E+04  0.25500000920E-02 0. -1.
        2   -1    0    0  501    0  0.00000000000E+00  0.00000000000E+00 -0.15884369028E+04  0.15884369028E+04  0.25500000920E-02 0.  1.
    10030    2    1    2    0    0  0.00000000000E+00  0.00000000000E+00  0.44854227888E+03  0.36254160845E+04  0.35975618980E+04 0.  0.
        2    1    3    3  502    0  0.10974813482E+04  0.52368470587E+03 -0.11114731962E+04  0.16474476158E+04  0.25500000920E-02 0.  1.
       -2    1    3    3    0  502 -0.10974813482E+04 -0.52368470587E+03  0.15600154751E+04  0.19779684688E+04  0.25500000920E-02 0. -1.
</event>
<event>
 5   0  0.6541476E-07  0.3584334E+04  0.7818609E-02  0.8094090E-01
        2   -1    0    0  501    0  0.00000000000E+00  0.00000000000E+00  0.24081956857E+04  0.24081956857E+04  0.25500000920E-02 0.  1.
       -2   -1    0    0    0  501  0.00000000000E+00  0.00000000000E+00 -0.13337217052E+04  0.13337217052E+04  0.25500000920E-02 0. -1.
    10030    2    1    2    0    0  0.00000000000E+00  0.00000000000E+00  0.10744739805E+04  0.37419173909E+04  0.35843341677E+04 0.  0.
        4    1    3    3  502    0  0.14968349569E+04 -0.85014282051E+03  0.16714669392E+02  0.17214931590E+04  0.12699999809E+01 0. -1.
       -4    1    3    3    0  502 -0.14968349569E+04  0.85014282051E+03  0.10577593111E+04  0.20204242319E+04  0.12699999809E+01 0.  1.
</event>
<event>
 5   0  0.2086250E-07  0.3412682E+04  0.7818609E-02  0.8134801E-01
        1   -1    0    0  501    0  0.00000000000E+00  0.00000000000E+00  0.15670983525E+04  0.15670983525E+04  0.50400001928E-02 0.  1.
       -1   -1    0    0    0  501  0.00000000000E+00  0.00000000000E+00 -0.18579556337E+04  0.18579556337E+04  0.50400001928E-02 0. -1.
    10030    2    1    2    0    0  0.00000000000E+00  0.00000000000E+00 -0.29085728120E+03  0.34250539861E+04  0.34126817680E+04 0.  0.
        3    1    3    3  502    0  0.11964936787E+03  0.55292026883E+03 -0.17610979106E+04  0.18497304278E+04  0.10100000352E+00 0. -1.
       -3    1    3    3    0  502 -0.11964936787E+03 -0.55292026883E+03  0.14702406294E+04  0.15753235583E+04  0.10100000352E+00 0.  1.
</event>
<event>
 5   0  0.6324216E-07  0.3613635E+04  0.7818609E-02  0.8087376E-01
        2   -1    0    0  501    0  0.00000000000E+00  0.00000000000E+00  0.21564499074E+04  0.21564499074E+04  0.25500000920E-02 0. -1.
       -2   -1    0    0    0  501  0.00000000000E+00  0.00000000000E+00 -0.15138719257E+04  0.15138719257E+04  0.25500000920E-02 0.  1.
    10030    2    1    2    0    0  0.00000000000E+00  0.00000000000E+00  0.64257798170E+03  0.36703218331E+04  0.36136347209E+04 0.  0.
        2    1    3    3  502    0 -0.12484420848E+04  0.13027931426E+04  0.41608781307E+03  0.18517577270E+04  0.25500000920E-02 0.  1.
       -2    1    3    3    0  502  0.12484420848E+04 -0.13027931426E+04  0.22649016864E+03  0.18185641061E+04  0.25500000920E-02 0. -1.
</event>
<event>
 5   0  0.2108068E-07  0.3550764E+04  0.7818609E-02  0.8101864E-01
        1   -1    0    0  501    0  0.00000000000E+00  0.00000000000E+00  0.11082354424E+04  0.11082354425E+04  0.50400001928E-02 0. -1.
       -1   -1    0    0    0  501  0.00000000000E+00  0.00000000000E+00 -0.28441433672E+04  0.28441433672E+04  0.50400001928E-02 0.  1.
    10030    2    1    2    0    0  0.00000000000E+00  0.00000000000E+00 -0.17359079247E+04  0.39523788096E+04  0.35507635702E+04 0.  0.
        5    1    3    3  502    0 -0.12995929512E+04 -0.68459763620E+03  0.24199966897E+03  0.14886912682E+04  0.46999998093E+01 0. -1.
       -5    1    3    3    0  502  0.12995929512E+04  0.68459763620E+03 -0.19779075937E+04  0.24636875414E+04  0.46999998093E+01 0.  1.
</event>
<event>
 5   0  0.2086250E-07  0.3586768E+04  0.7818609E-02  0.8093529E-01
        1   -1    0    0  501    0  0.00000000000E+00  0.00000000000E+00  0.14488669999E+04  0.14488669999E+04  0.50400001928E-02 0. -1.
       -1   -1    0    0    0  501  0.00000000000E+00  0.00000000000E+00 -0.22198212069E+04  0.22198212069E+04  0.50400001928E-02 0.  1.
    10030    2    1    2    0    0  0.00000000000E+00  0.00000000000E+00 -0.77095420702E+03  0.36686882068E+04  0.35867677328E+04 0.  0.
        4    1    3    3  502    0  0.11528549369E+04  0.62834919668E+03  0.86403229626E+03  0.15717667258E+04  0.12699999809E+01 0. -1.
       -4    1    3    3    0  502 -0.11528549369E+04 -0.62834919668E+03 -0.16349865033E+04  0.20969214810E+04  0.12699999809E+01 0.  1.
</event>
<event>
 5   0  0.2086250E-07  0.3601196E+04  0.7818609E-02  0.8090218E-01
        1   -1    0    0  501    0  0.00000000000E+00  0.00000000000E+00  0.24032137874E+04  0.24032137875E+04  0.50400001928E-02 0.  1.
       -1   -1    0    0    0  501  0.00000000000E+00  0.00000000000E+00 -0.13490908440E+04  0.13490908440E+04  0.50400001928E-02 0. -1.
    10030    2    1    2    0    0  0.00000000000E+00  0.00000000000E+00  0.10541229434E+04  0.37523046315E+04  0.36011963106E+04 0.  0.
        2    1    3    3  502    0 -0.13362504024E+04  0.73149968648E+03  0.15272876242E+04  0.21571426509E+04  0.25500000920E-02 0.  1.
       -2    1    3    3    0  502  0.13362504024E+04 -0.73149968648E+03 -0.47316468081E+03  0.15951619806E+04  0.25500000920E-02 0. -1.
</event>
<event>
 5   0  0.2108068E-07  0.3601295E+04  0.7818609E-02  0.8090195E-01
        1   -1    0    0  501    0  0.00000000000E+00  0.00000000000E+00  0.24974788813E+04  0.24974788813E+04  0.50400001928E-02 0.  1.
       -1   -1    0    0    0  501  0.00000000000E+00  0.00000000000E+00 -0.12982420117E+04  0.12982420117E+04  0.50400001928E-02 0. -1.
    10030    2    1    2    0    0  0.00000000000E+00  0.00000000000E+00  0.11992368696E+04  0.37957208930E+04  0.36012953265E+04 0.  0.
        5    1    3    3  502    0  0.17889280400E+04 -0.18729973606E+02  0.38439948582E+03  0.18298632186E+04  0.46999998093E+01 0.  1.
       -5    1    3    3    0  502 -0.17889280400E+04  0.18729973606E+02  0.81483738382E+03  0.19658576744E+04  0.46999998093E+01 0. -1.
</event>
<event>
 5   0  0.2193129E-07  0.3596493E+04  0.7818609E-02  0.8091295E-01
       -1   -1    0    0    0  501  0.00000000000E+00  0.00000000000E+00  0.23566354721E+04  0.23566354721E+04  0.50400001928E-02 0.  1.
        1   -1    0    0  501    0  0.00000000000E+00  0.00000000000E+00 -0.13721641802E+04  0.13721641802E+04  0.50400001928E-02 0. -1.
    10030    2    1    2    0    0  0.00000000000E+00  0.00000000000E+00  0.98447129186E+03  0.37287996523E+04  0.35964931701E+04 0.  0.
        1    1    3    3  502    0 -0.29567826787E+03 -0.88020038669E+03 -0.11043878330E+04  0.14428620324E+04  0.50400001928E-02 0. -1.
       -1    1    3    3    0  502  0.29567826787E+03  0.88020038669E+03  0.20888591248E+04  0.22859376199E+04  0.50400001928E-02 0.  1.
</event>
<event>
 5   0  0.6729577E-07  0.3586678E+04  0.7818609E-02  0.8093550E-01
        2   -1    0    0  501    0  0.00000000000E+00  0.00000000000E+00  0.18576971426E+04  0.18576971426E+04  0.25500000920E-02 0.  1.
       -2   -1    0    0    0  501  0.00000000000E+00  0.00000000000E+00 -0.17312109028E+04  0.17312109028E+04  0.25500000920E-02 0. -1.
    10030    2    1    2    0    0  0.00000000000E+00  0.00000000000E+00  0.12648623977E+03  0.35889080453E+04  0.35866784340E+04 0.  0.
        3    1    3    3  502    0 -0.13870857684E+04 -0.40601647139E+03 -0.99911797607E+03  0.17570125339E+04  0.10100000352E+00 0. -1.
       -3    1    3    3    0  502  0.13870857684E+04  0.40601647139E+03  0.11256042158E+04  0.18318955114E+04  0.10100000352E+00 0.  1.
</event>
<event>
 5   0  0.6729577E-07  0.3582011E+04  0.7818609E-02  0.8094625E-01
       -2   -1    0    0    0  501  0.00000000000E+00  0.00000000000E+00  0.16965655451E+04  0.16965655451E+04  0.25500000920E-02 0.  1.
        2   -1    0    0  501    0  0.00000000000E+00  0.00000000000E+00 -0.18907024836E+04  0.18907024836E+04  0.25500000920E-02 0. -1.
    10030    2    1    2    0    0  0.00000000000E+00  0.00000000000E+00 -0.19413693845E+03  0.35872680287E+04  0.35820109937E+04 0.  0.
        3    1    3    3  502    0 -0.95467588128E+03  0.14773110571E+04 -0.43497540113E+03  0.18119209716E+04  0.10100000352E+00 0. -1.
       -3    1    3    3    0  502  0.95467588128E+03 -0.14773110571E+04  0.24083846268E+03  0.17753470571E+04  0.10100000352E+00 0.  1.
</event>
<event>
 5   0  0.2108068E-07  0.3645428E+04  0.7818609E-02  0.8080165E-01
        1   -1    0    0  501    0  0.00000000000E+00  0.00000000000E+00  0.19818054996E+04  0.19818054996E+04  0.50400001928E-02 0.  1.
       -1   -1    0    0    0  501  0.00000000000E+00  0.00000000000E+00 -0.16763932765E+04  0.16763932765E+04  0.50400001928E-02 0. -1.
    10030    2    1    2    0    0  0.00000000000E+00  0.00000000000E+00  0.30541222312E+03  0.36581987761E+04  0.36454275002E+04 0.  0.
        5    1    3    3  502    0  0.56006455110E+03 -0.51974407306E+03  0.18133320121E+04  0.19677401452E+04  0.46999998093E+01 0.  1.
       -5    1    3    3    0  502 -0.56006455110E+03  0.51974407306E+03 -0.15079197890E+04  0.16904586309E+04  0.46999998093E+01 0. -1.
</event>
<event>
 5   0  0.2086250E-07  0.3592658E+04  0.7818609E-02  0.8092176E-01
        1   -1    0    0  501    0  0.00000000000E+00  0.00000000000E+00  0.12327017303E+04  0.12327017303E+04  0.50400001928E-02 0.  1.
       -1   -1    0    0    0  501  0.00000000000E+00  0.00000000000E+00 -0.26176633206E+04  0.26176633206E+04  0.50400001928E-02 0. -1.
    10030    2    1    2    0    0  0.00000000000E+00  0.00000000000E+00 -0.13849615902E+04  0.38503650509E+04  0.35926581272E+04 0.  0.
        3    1    3    3  502    0  0.70248602120E+03  0.32003399421E+03 -0.24308312557E+04  0.25504605410E+04  0.10100000352E+00 0. -1.
       -3    1    3    3    0  502 -0.70248602120E+03 -0.32003399421E+03  0.10458696655E+04  0.12999045099E+04  0.10100000352E+00 0.  1.
</event>
<event>
 5   0  0.2086250E-07  0.3575991E+04  0.7818609E-02  0.8096014E-01
        1   -1    0    0  501    0  0.00000000000E+00  0.00000000000E+00  0.22512997489E+04  0.22512997489E+04  0.50400001928E-02 0. -1.
       -1   -1    0    0    0  501  0.00000000000E+00  0.00000000000E+00 -0.14200363641E+04  0.14200363642E+04  0.50400001928E-02 0.  1.
    10030    2    1    2    0    0  0.00000000000E+00  0.00000000000E+00  0.83126338476E+03  0.36713361131E+04  0.35759907774E+04 0.  0.
        3    1    3    3  502    0 -0.27510917696E+03  0.74157960701E+03  0.20619139993E+04  0.22084190552E+04  0.10100000352E+00 0. -1.
       -3    1    3    3    0  502  0.27510917696E+03 -0.74157960701E+03 -0.12306506146E+04  0.14629170578E+04  0.10100000352E+00 0.  1.
</event>
<event>
 5   0  0.6324216E-07  0.3601350E+04  0.7818609E-02  0.8090183E-01
        2   -1    0    0  501    0  0.00000000000E+00  0.00000000000E+00  0.21451189824E+04  0.21451189824E+04  0.25500000920E-02 0. -1.
       -2   -1    0    0    0  501  0.00000000000E+00  0.00000000000E+00 -0.15115385349E+04  0.15115385349E+04  0.25500000920E-02 0.  1.
    10030    2    1    2    0    0  0.00000000000E+00  0.00000000000E+00  0.63358044752E+03  0.36566575173E+04  0.36013497491E+04 0.  0.
        2    1    3    3  502    0  0.12721991485E+04  0.12381580847E+04  0.10657176473E+02  0.17752858056E+04  0.25500000920E-02 0.  1.
       -2    1    3    3    0  502 -0.12721991485E+04 -0.12381580847E+04  0.62292327105E+03  0.18813717117E+04  0.25500000920E-02 0. -1.
</event>
<event>
 5   0  0.6324216E-07  0.3586118E+04  0.7818609E-02  0.8093679E-01
       -2   -1    0    0    0  501  0.00000000000E+00  0.00000000000E+00  0.14950538923E+04  0.14950538923E+04  0.25500000920E-02 0. -1.
        2   -1    0    0  501    0  0.00000000000E+00  0.00000000000E+00 -0.21504650412E+04  0.21504650412E+04  0.25500000920E-02 0.  1.
    10030    2    1    2    0    0  0.00000000000E+00  0.00000000000E+00 -0.65541114890E+03  0.36455189335E+04  0.35861183082E+04 0.  0.
        2    1    3    3  502    0  0.26620958885E+03 -0.16481176808E+04  0.33727161562E+03  0.17032062640E+04  0.25500000920E-02 0. -1.
       -2    1    3    3    0  502 -0.26620958885E+03  0.16481176808E+04 -0.99268276452E+03  0.19423126695E+04  0.25500000920E-02 0.  1.
</event>
<event>
 5   0  0.2086250E-07  0.3595855E+04  0.7818609E-02  0.8091442E-01
        1   -1    0    0  501    0  0.00000000000E+00  0.00000000000E+00  0.18973948395E+04  0.18973948395E+04  0.50400001928E-02 0.  1.
       -1   -1    0    0    0  501  0.00000000000E+00  0.00000000000E+00 -0.17036747968E+04  0.17036747968E+04  0.50400001928E-02 0. -1.
    10030    2    1    2    0    0  0.00000000000E+00  0.00000000000E+00  0.19372004271E+03  0.36010696364E+04  0.35958552628E+04 0.  0.
        4    1    3    3  502    0 -0.14989571496E+04  0.90913826076E+03 -0.30263854918E+03  0.17790437369E+04  0.12699999809E+01 0. -1.
       -4    1    3    3    0  502  0.14989571496E+04 -0.90913826076E+03  0.49635859189E+03  0.18220258994E+04  0.12699999809E+01 0.  1.
</event>
<event>
 5   0  0.6848661E-07  0.3671598E+04  0.7818609E-02  0.8074285E-01
        2   -1    0    0  501    0  0.00000000000E+00  0.00000000000E+00  0.24057270640E+04  0.24057270640E+04  0.25500000920E-02 0.  1.
       -2   -1    0    0    0  501  0.00000000000E+00  0.00000000000E+00 -0.14008897869E+04  0.14008897869E+04  0.25500000920E-02 0. -1.
    10030    2    1    2    0    0  0.00000000000E+00  0.00000000000E+00  0.10048372772E+04  0.38066168509E+04  0.36715982754E+04 0.  0.
        1    1    3    3  502    0 -0.14553840578E+04  0.82975470273E+03  0.12807056354E+04  0.21087537900E+04  0.50400001928E-02 0. -1.
       -1    1    3    3    0  502  0.14553840578E+04 -0.82975470273E+03 -0.27586835827E+03  0.16978630609E+04  0.50400001928E-02 0.  1.
</event>
<event>
 5   0  0.6669864E-07  0.3486079E+04  0.7818609E-02  0.8117097E-01
        2   -1    0    0  501    0  0.00000000000E+00  0.00000000000E+00  0.28354220007E+04  0.28354220007E+04  0.25500000920E-02 0. -1.
       -2   -1    0    0    0  501  0.00000000000E+00  0.00000000000E+00 -0.10715110362E+04  0.10715110362E+04  0.25500000920E-02 0.  1.
    10030    2    1    2    0    0  0.00000000000E+00  0.00000000000E+00  0.17639109645E+04  0.39069330369E+04  0.34860785797E+04 0.  0.
        5    1    3    3  502    0 -0.12474649260E+04 -0.87700127114E+03 -0.64286271896E+02  0.15262551510E+04  0.46999998093E+01 0.  1.
       -5    1    3    3    0  502  0.12474649260E+04  0.87700127114E+03  0.18281972364E+04  0.23806778859E+04  0.46999998093E+01 0. -1.
</event>
<event>
 5   0  0.6669864E-07  0.3543421E+04  0.7818609E-02  0.8103576E-01
        2   -1    0    0  501    0  0.00000000000E+00  0.00000000000E+00  0.25330174366E+04  0.25330174366E+04  0.25500000920E-02 0. -1.
       -2   -1    0    0    0  501  0.00000000000E+00  0.00000000000E+00 -0.12392172063E+04  0.12392172063E+04  0.25500000920E-02 0.  1.
    10030    2    1    2    0    0  0.00000000000E+00  0.00000000000E+00  0.12938002304E+04  0.37722346429E+04  0.35434213925E+04 0.  0.
        5    1    3    3  502    0 -0.21078137402E+03 -0.12115144293E+04  0.20046977969E+04  0.23518144797E+04  0.46999998093E+01 0. -1.
       -5    1    3    3    0  502  0.21078137402E+03  0.12115144293E+04 -0.71089756649E+03  0.14204201632E+04  0.46999998093E+01 0.  1.
</event>
<event>
 5   0  0.6324216E-07  0.3596398E+04  0.7818609E-02  0.8091317E-01
       -2   -1    0    0    0  501  0.00000000000E+00  0.00000000000E+00  0.12571857577E+04  0.12571857577E+04  0.25500000920E-02 0. -1.
        2   -1    0    0  501    0  0.00000000000E+00  0.00000000000E+00 -0.25720304317E+04  0.25720304317E+04  0.25500000920E-02 0.  1.
    10030    2    1    2    0    0  0.00000000000E+00  0.00000000000E+00 -0.13148446741E+04  0.38292161894E+04  0.35963982132E+04 0.  0.
        2    1    3    3  502    0 -0.17855255168E+04  0.19504296398E+03 -0.74887134712E+03  0.19460091016E+04  0.25500000920E-02 0. -1.
       -2    1    3    3    0  502  0.17855255168E+04 -0.19504296398E+03 -0.56597332696E+03  0.18832070878E+04  0.25500000920E-02 0.  1.
</event>
<event>
 5   0  0.2086250E-07  0.3450123E+04  0.7818609E-02  0.8125713E-01
        3   -1    0    0  501    0  0.00000000000E+00  0.00000000000E+00  0.19344320552E+04  0.19344320579E+04  0.10100000352E+00 0. -1.
       -3   -1    0    0    0  501  0.00000000000E+00  0.00000000000E+00 -0.15383518003E+04  0.15383518036E+04  0.10100000352E+00 0.  1.
    10030    2    1    2    0    0  0.00000000000E+00  0.00000000000E+00  0.39608025490E+03  0.34727838615E+04  0.34501229225E+04 0.  0.
        4    1    3    3  502    0 -0.10678317984E+04 -0.75475641712E+03 -0.93447807315E+03  0.16072252117E+04  0.12699999809E+01 0.  1.
       -4    1    3    3    0  502  0.10678317984E+04  0.75475641712E+03  0.13305583280E+04  0.18655586499E+04  0.12699999809E+01 0. -1.
</event>
<event>
 5   0  0.6729577E-07  0.3390593E+04  0.7818609E-02  0.8140219E-01
        2   -1    0    0  501    0  0.00000000000E+00  0.00000000000E+00  0.18255734379E+04  0.18255734379E+04  0.25500000920E-02 0.  1.
       -2   -1    0    0    0  501  0.00000000000E+00  0.00000000000E+00 -0.15743163852E+04  0.15743163852E+04  0.25500000920E-02 0. -1.
    10030    2    1    2    0    0  0.00000000000E+00  0.00000000000E+00  0.25125705269E+03  0.33998898231E+04  0.33905929721E+04 0.  0.
        3    1    3    3  502    0  0.91596057605E+03 -0.75290723583E+03 -0.10893774283E+04  0.16101541151E+04  0.10100000352E+00 0. -1.
       -3    1    3    3    0  502 -0.91596057605E+03  0.75290723583E+03  0.13406344810E+04  0.17897357080E+04  0.10100000352E+00 0.  1.
</event>
<event>
 5   0  0.2086250E-07  0.3612060E+04  0.7818609E-02  0.8087735E-01
       -1   -1    0    0    0  501  0.00000000000E+00  0.00000000000E+00  0.13568998081E+04  0.13568998081E+04  0.50400001928E-02 0. -1.
        1   -1    0    0  501    0  0.00000000000E+00  0.00000000000E+00 -0.24038211482E+04  0.24038211482E+04  0.50400001928E-02 0.  1.
    10030    2    1    2    0    0  0.00000000000E+00  0.00000000000E+00 -0.10469213401E+04  0.37607209564E+04  0.36120600520E+04 0.  0.
        3    1    3    3  502    0 -0.22700286159E+03  0.16312236185E+04 -0.12951283260E+04  0.20951797498E+04  0.10100000352E+00 0.  1.
       -3    1    3    3    0  502  0.22700286159E+03 -0.16312236185E+04  0.24820698583E+03  0.16655412066E+04  0.10100000352E+00 0. -1.
</event>
<event>
 5   0  0.6541476E-07  0.3623946E+04  0.7818609E-02  0.8085028E-01
        2   -1    0    0  501    0  0.00000000000E+00  0.00000000000E+00  0.30602044331E+04  0.30602044331E+04  0.25500000920E-02 0. -1.
       -2   -1    0    0    0  501  0.00000000000E+00  0.00000000000E+00 -0.10728847117E+04  0.10728847117E+04  0.25500000920E-02 0.  1.
    10030    2    1    2    0    0  0.00000000000E+00  0.00000000000E+00  0.19873197213E+04  0.41330891448E+04  0.36239462198E+04 0.  0.
        4    1    3    3  502    0  0.94481182529E+03  0.13454486485E+04  0.18624914163E+04  0.24843062089E+04  0.12699999809E+01 0.  1.
       -4    1    3    3    0  502 -0.94481182529E+03 -0.13454486485E+04  0.12482830500E+03  0.16487829358E+04  0.12699999809E+01 0. -1.
</event>
<event>
 5   0  0.2086250E-07  0.3629294E+04  0.7818609E-02  0.8083814E-01
       -1   -1    0    0    0  501  0.00000000000E+00  0.00000000000E+00  0.10847542010E+04  0.10847542010E+04  0.50400001928E-02 0. -1.
        1   -1    0    0  501    0  0.00000000000E+00  0.00000000000E+00 -0.30356589324E+04  0.30356589324E+04  0.50400001928E-02 0.  1.
    10030    2    1    2    0    0  0.00000000000E+00  0.00000000000E+00 -0.19509047314E+04  0.41204131334E+04  0.36292940248E+04 0.  0.
        2    1    3    3  502    0 -0.11291194960E+04 -0.13841015066E+04 -0.13385704314E+04  0.22321331987E+04  0.25500000920E-02 0.  1.
       -2    1    3    3    0  502  0.11291194960E+04  0.13841015066E+04 -0.61233430000E+03  0.18882799347E+04  0.25500000920E-02 0. -1.
</event>
<event>
 5   0  0.2193129E-07  0.3622818E+04  0.7818609E-02  0.8085285E-01
       -1   -1    0    0    0  501  0.00000000000E+00  0.00000000000E+00  0.14382589806E+04  0.14382589806E+04  0.50400001928E-02 0.  1.
        1   -1    0    0  501    0  0.00000000000E+00  0.00000000000E+00 -0.22813714259E+04  0.22813714259E+04  0.50400001928E-02 0. -1.
    10030    2    1    2    0    0  0.00000000000E+00  0.00000000000E+00 -0.84311244530E+03  0.37196304065E+04  0.36228182077E+04 0.  0.
        1    1    3    3  502    0 -0.12544414412E+04 -0.81965471236E+03  0.62335605099E+03  0.16229694832E+04  0.50400001928E-02 0.  1.
       -1    1    3    3    0  502  0.12544414412E+04  0.81965471236E+03 -0.14664684963E+04  0.20966609234E+04  0.50400001928E-02 0. -1.
</event>
<event>
 5   0  0.6669864E-07  0.3604863E+04  0.7818609E-02  0.8089379E-01
        2   -1    0    0  501    0  0.00000000000E+00  0.00000000000E+00  0.23220478497E+04  0.23220478497E+04  0.25500000920E-02 0.  1.
       -2   -1    0    0    0  501  0.00000000000E+00  0.00000000000E+00 -0.13990923159E+04  0.13990923159E+04  0.25500000920E-02 0. -1.
    10030    2    1    2    0    0  0.00000000000E+00  0.00000000000E+00  0.92295553377E+03  0.37211401655E+04  0.36048629952E+04 0.  0.
        5    1    3    3  502    0 -0.15779293536E+04 -0.85270776340E+03  0.64545583866E+03  0.19062022202E+04  0.46999998093E+01 0.  1.
       -5    1    3    3    0  502  0.15779293536E+04  0.85270776340E+03  0.27749969511E+03  0.18149379453E+04  0.46999998093E+01 0. -1.
</event>
<event>
 5   0  0.2108068E-07  0.3612819E+04  0.7818609E-02  0.8087562E-01
       -1   -1    0    0    0  501  0.00000000000E+00  0.00000000000E+00  0.16940576236E+04  0.16940576236E+04  0.50400001928E-02 0.  1.
        1   -1    0    0  501    0  0.00000000000E+00  0.00000000000E+00 -0.19262121798E+04  0.19262121798E+04  0.50400001928E-02 0. -1.
    10030    2    1    2    0    0  0.00000000000E+00  0.00000000000E+00 -0.23215455614E+03  0.36202698034E+04  0.36128185274E+04 0.  0.
        5    1    3    3  502    0  0.11008199665E+04 -0.12002902309E+04 -0.89909217672E+03  0.18603467605E+04  0.46999998093E+01 0. -1.
       -5    1    3    3    0  502 -0.11008199665E+04  0.12002902309E+04  0.66693762058E+03  0.17599230429E+04  0.46999998093E+01 0.  1.
</event>
<event>
 5   0  0.6729577E-07  0.3323561E+04  0.7818609E-02  0.8156926E-01
        2   -1    0    0  501    0  0.00000000000E+00  0.00000000000E+00  0.16601159637E+04  0.16601159637E+04  0.25500000920E-02 0. -1.
       -2   -1    0    0    0  501  0.00000000000E+00  0.00000000000E+00 -0.16634472027E+04  0.16634472027E+04  0.25500000920E-02 0.  1.
    10030    2    1    2    0    0  0.00000000000E+00  0.00000000000E+00 -0.33312389922E+01  0.33235631664E+04  0.33235614969E+04 0.  0.
        3    1    3    3  502    0 -0.30717867368E+03 -0.11641527133E+04 -0.11470503961E+04  0.16629296133E+04  0.10100000352E+00 0.  1.
       -3    1    3    3    0  502  0.30717867368E+03  0.11641527133E+04  0.11437191571E+04  0.16606335531E+04  0.10100000352E+00 0. -1.
</event>
<event>
 5   0  0.6848661E-07  0.3670088E+04  0.7818609E-02  0.8074623E-01
        2   -1    0    0  501    0  0.00000000000E+00  0.00000000000E+00  0.25013132649E+04  0.25013132649E+04  0.25500000920E-02 0.  1.
       -2   -1    0    0    0  501  0.00000000000E+00  0.00000000000E+00 -0.13462470459E+04  0.13462470459E+04  0.25500000920E-02 0. -1.
    10030    2    1    2    0    0  0.00000000000E+00  0.00000000000E+00  0.11550662189E+04  0.38475603108E+04  0.36700875160E+04 0.  0.
        1    1    3    3  502    0 -0.14385479991E+04  0.74546407581E+03  0.14807326281E+04  0.21949273678E+04  0.50400001928E-02 0.  1.
       -1    1    3    3    0  502  0.14385479991E+04 -0.74546407581E+03 -0.32566640920E+03  0.16526329430E+04  0.50400001928E-02 0. -1.
</event>
<event>
 5   0  0.2086250E-07  0.3603737E+04  0.7818609E-02  0.8089636E-01
       -1   -1    0    0    0  501  0.00000000000E+00  0.00000000000E+00  0.14919951898E+04  0.14919951898E+04  0.50400001928E-02 0.  1.
        1   -1    0    0  501    0  0.00000000000E+00  0.00000000000E+00 -0.21760998128E+04  0.21760998128E+04  0.50400001928E-02 0. -1.
    10030    2    1    2    0    0  0.00000000000E+00  0.00000000000E+00 -0.68410462302E+03  0.36680950026E+04  0.36037372008E+04 0.  0.
        2    1    3    3  502    0  0.81469938300E+03 -0.18674379501E+03  0.12827389758E+04  0.15310217535E+04  0.25500000920E-02 0.  1.
       -2    1    3    3    0  502 -0.81469938300E+03  0.18674379501E+03 -0.19668435988E+04  0.21370732491E+04  0.25500000920E-02 0. -1.
</event>
<event>
 5   0  0.2086250E-07  0.3468899E+04  0.7818609E-02  0.8121200E-01
       -1   -1    0    0    0  501  0.00000000000E+00  0.00000000000E+00  0.11296531372E+04  0.11296531373E+04  0.50400001928E-02 0.  1.
        1   -1    0    0  501    0  0.00000000000E+00  0.00000000000E+00 -0.26630432765E+04  0.26630432765E+04  0.50400001928E-02 0. -1.
    10030    2    1    2    0    0  0.00000000000E+00  0.00000000000E+00 -0.15333901393E+04  0.37926964138E+04  0.34688990715E+04 0.  0.
        2    1    3    3  502    0  0.13756265210E+04  0.70246129557E+03 -0.16293385123E+04  0.22451156284E+04  0.25500000920E-02 0. -1.
       -2    1    3    3    0  502 -0.13756265210E+04 -0.70246129557E+03  0.95948373054E+02  0.15475807854E+04  0.25500000920E-02 0.  1.
</event>
<event>
 5   0  0.6729577E-07  0.3424054E+04  0.7818609E-02  0.8132028E-01
        2   -1    0    0  501    0  0.00000000000E+00  0.00000000000E+00  0.18188444913E+04  0.18188444913E+04  0.25500000920E-02 0.  1.
       -2   -1    0    0    0  501  0.00000000000E+00  0.00000000000E+00 -0.16114826012E+04  0.16114826012E+04  0.25500000920E-02 0. -1.
    10030    2    1    2    0    0  0.00000000000E+00  0.00000000000E+00  0.20736189014E+03  0.34303270924E+04  0.34240538850E+04 0.  0.
        3    1    3    3  502    0  0.16082852742E+04  0.55262359757E+03 -0.94321932248E+02  0.17031943521E+04  0.10100000352E+00 0. -1.
       -3    1    3    3    0  502 -0.16082852742E+04 -0.55262359757E+03  0.30168382239E+03  0.17271327404E+04  0.10100000352E+00 0.  1.
</event>
<event>
 5   0  0.6669864E-07  0.3266163E+04  0.7818609E-02  0.8171559E-01
        2   -1    0    0  501    0  0.00000000000E+00  0.00000000000E+00  0.27084806168E+04  0.27084806168E+04  0.25500000920E-02 0.  1.
       -2   -1    0    0    0  501  0.00000000000E+00  0.00000000000E+00 -0.98466857678E+03  0.98466857678E+03  0.25500000920E-02 0. -1.
    10030    2    1    2    0    0  0.00000000000E+00  0.00000000000E+00  0.17238120400E+04  0.36931491936E+04  0.32661633481E+04 0.  0.
        5    1    3    3  502    0  0.51412343590E+03 -0.97717287895E+03 -0.49861365439E+03  0.12115392726E+04  0.46999998093E+01 0. -1.
       -5    1    3    3    0  502 -0.51412343590E+03  0.97717287895E+03  0.22224256944E+04  0.24816099210E+04  0.46999998093E+01 0.  1.
</event>
<event>
 5   0  0.2086250E-07  0.3567561E+04  0.7818609E-02  0.8097963E-01
       -1   -1    0    0    0  501  0.00000000000E+00  0.00000000000E+00  0.99130703637E+03  0.99130703638E+03  0.50400001928E-02 0.  1.
        1   -1    0    0  501    0  0.00000000000E+00  0.00000000000E+00 -0.32097758491E+04  0.32097758491E+04  0.50400001928E-02 0. -1.
    10030    2    1    2    0    0  0.00000000000E+00  0.00000000000E+00 -0.22184688127E+04  0.42010828855E+04  0.35675612871E+04 0.  0.
        4    1    3    3  502    0 -0.32346534612E+03  0.10154138288E+04 -0.27936970137E+04  0.29900568040E+04  0.12699999809E+01 0. -1.
       -4    1    3    3    0  502  0.32346534612E+03 -0.10154138288E+04  0.57522820100E+03  0.12110260815E+04  0.12699999809E+01 0.  1.
</event>
<event>
 5   0  0.2086250E-07  0.3604536E+04  0.7818609E-02  0.8089453E-01
        1   -1    0    0  501    0  0.00000000000E+00  0.00000000000E+00  0.24495810894E+04  0.24495810894E+04  0.50400001928E-02 0. -1.
       -1   -1    0    0    0  501  0.00000000000E+00  0.00000000000E+00 -0.13260102530E+04  0.13260102530E+04  0.50400001928E-02 0.  1.
    10030    2    1    2    0    0  0.00000000000E+00  0.00000000000E+00  0.11235708364E+04  0.37755913424E+04  0.36045358315E+04 0.  0.
        4    1    3    3  502    0  0.69246319480E+03  0.34104116474E+03  0.22676767073E+04  0.23954485205E+04  0.12699999809E+01 0. -1.
       -4    1    3    3    0  502 -0.69246319480E+03 -0.34104116474E+03 -0.11441058709E+04  0.13801428220E+04  0.12699999809E+01 0.  1.
</event>
<event>
 5   0  0.2193129E-07  0.3568425E+04  0.7818609E-02  0.8097763E-01
        1   -1    0    0  501    0  0.00000000000E+00  0.00000000000E+00  0.28837097592E+04  0.28837097592E+04  0.50400001928E-02 0. -1.
       -1   -1    0    0    0  501  0.00000000000E+00  0.00000000000E+00 -0.11039301118E+04  0.11039301118E+04  0.50400001928E-02 0.  1.
    10030    2    1    2    0    0  0.00000000000E+00  0.00000000000E+00  0.17797796473E+04  0.39876398710E+04  0.35684248833E+04 0.  0.
        1    1    3    3  502    0 -0.76876371660E+02 -0.53720571384E+03  0.27892471813E+04  0.28415488372E+04  0.50400001928E-02 0. -1.
       -1    1    3    3    0  502  0.76876371660E+02  0.53720571384E+03 -0.10094675340E+04  0.11460910338E+04  0.50400001928E-02 0.  1.
</event>
<event>
 5   0  0.2193129E-07  0.3606877E+04  0.7818609E-02  0.8088918E-01
        1   -1    0    0  501    0  0.00000000000E+00  0.00000000000E+00  0.17083642327E+04  0.17083642327E+04  0.50400001928E-02 0.  1.
       -1   -1    0    0    0  501  0.00000000000E+00  0.00000000000E+00 -0.19038039832E+04  0.19038039832E+04  0.50400001928E-02 0. -1.
    10030    2    1    2    0    0  0.00000000000E+00  0.00000000000E+00 -0.19543975045E+03  0.36121682159E+04  0.36068771152E+04 0.  0.
        1    1    3    3  502    0  0.37311903334E+03  0.47173707588E+03  0.16049615386E+04  0.17139589325E+04  0.50400001928E-02 0.  1.
       -1    1    3    3    0  502 -0.37311903334E+03 -0.47173707588E+03 -0.18004012891E+04  0.18982092834E+04  0.50400001928E-02 0. -1.
</event>
<event>
 5   0  0.2086250E-07  0.3602163E+04  0.7818609E-02  0.8089996E-01
        1   -1    0    0  501    0  0.00000000000E+00  0.00000000000E+00  0.16896131615E+04  0.16896131615E+04  0.50400001928E-02 0.  1.
       -1   -1    0    0    0  501  0.00000000000E+00  0.00000000000E+00 -0.19199036316E+04  0.19199036316E+04  0.50400001928E-02 0. -1.
    10030    2    1    2    0    0  0.00000000000E+00  0.00000000000E+00 -0.23029047008E+03  0.36095167931E+04  0.36021629306E+04 0.  0.
        2    1    3    3  502    0  0.10031307207E+04 -0.79777753846E+03 -0.13831036375E+04  0.18856553014E+04  0.25500000920E-02 0. -1.
       -2    1    3    3    0  502 -0.10031307207E+04  0.79777753846E+03  0.11528131674E+04  0.17238614917E+04  0.25500000920E-02 0.  1.
</event>
<event>
 5   0  0.2108068E-07  0.3591212E+04  0.7818609E-02  0.8092508E-01
        1   -1    0    0  501    0  0.00000000000E+00  0.00000000000E+00  0.16244133739E+04  0.16244133739E+04  0.50400001928E-02 0. -1.
       -1   -1    0    0    0  501  0.00000000000E+00  0.00000000000E+00 -0.19848400785E+04  0.19848400785E+04  0.50400001928E-02 0.  1.
    10030    2    1    2    0    0  0.00000000000E+00  0.00000000000E+00 -0.36042670455E+03  0.36092534524E+04  0.35912119228E+04 0.  0.
        5    1    3    3  502    0  0.11770299616E+04  0.37099139112E+03 -0.14910451070E+04  0.19355288022E+04  0.46999998093E+01 0.  1.
       -5    1    3    3    0  502 -0.11770299616E+04 -0.37099139112E+03  0.11306184025E+04  0.16737246503E+04  0.46999998093E+01 0. -1.
</event>
<event>
 5   0  0.2086250E-07  0.3179489E+04  0.7818609E-02  0.8194255E-01
       -1   -1    0    0    0  501  0.00000000000E+00  0.00000000000E+00  0.23134227844E+04  0.23134227845E+04  0.50400001928E-02 0. -1.
        1   -1    0    0  501    0  0.00000000000E+00  0.00000000000E+00 -0.10924452911E+04  0.10924452911E+04  0.50400001928E-02 0.  1.
    10030    2    1    2    0    0  0.00000000000E+00  0.00000000000E+00  0.12209774934E+04  0.34058680755E+04  0.31794891585E+04 0.  0.
        2    1    3    3  502    0  0.57654572332E+03 -0.14008510023E+04  0.93975669008E+02  0.15177680745E+04  0.25500000920E-02 0.  1.
       -2    1    3    3    0  502 -0.57654572332E+03  0.14008510023E+04  0.11270018244E+04  0.18881000010E+04  0.25500000920E-02 0. -1.
</event>
<event>
 5   0  0.6848661E-07  0.3577432E+04  0.7818609E-02  0.8095681E-01
        2   -1    0    0  501    0  0.00000000000E+00  0.00000000000E+00  0.20791287825E+04  0.20791287825E+04  0.25500000920E-02 0. -1.
       -2   -1    0    0    0  501  0.00000000000E+00  0.00000000000E+00 -0.15388676755E+04  0.15388676755E+04  0.25500000920E-02 0.  1.
    10030    2    1    2    0    0  0.00000000000E+00  0.00000000000E+00  0.54026110697E+03  0.36179964581E+04  0.35774315237E+04 0.  0.
        1    1    3    3  502    0  0.14254116543E+04 -0.10161754375E+04  0.64184848208E+03  0.18645053977E+04  0.50400001928E-02 0. -1.
       -1    1    3    3    0  502 -0.14254116543E+04  0.10161754375E+04 -0.10158737511E+03  0.17534910604E+04  0.50400001928E-02 0.  1.
</event>
<event>
 5   0  0.6848661E-07  0.3638784E+04  0.7818609E-02  0.8081665E-01
       -2   -1    0    0    0  501  0.00000000000E+00  0.00000000000E+00  0.95126423001E+03  0.95126423002E+03  0.25500000920E-02 0. -1.
        2   -1    0    0  501    0  0.00000000000E+00  0.00000000000E+00 -0.34797761024E+04  0.34797761024E+04  0.25500000920E-02 0.  1.
    10030    2    1    2    0    0  0.00000000000E+00  0.00000000000E+00 -0.25285118724E+04  0.44310403324E+04  0.36387836070E+04 0.  0.
        1    1    3    3  502    0 -0.28851560296E+03  0.87479238943E+03  0.64632564197E+03  0.11252732172E+04  0.50400001928E-02 0. -1.
       -1    1    3    3    0  502  0.28851560296E+03 -0.87479238943E+03 -0.31748375143E+04  0.33057671152E+04  0.50400001928E-02 0.  1.
</event>
<event>
 5   0  0.6324216E-07  0.3640850E+04  0.7818609E-02  0.8081198E-01
       -2   -1    0    0    0  501  0.00000000000E+00  0.00000000000E+00  0.11454934375E+04  0.11454934375E+04  0.25500000920E-02 0. -1.
        2   -1    0    0  501    0  0.00000000000E+00  0.00000000000E+00 -0.28930306792E+04  0.28930306792E+04  0.25500000920E-02 0.  1.
    10030    2    1    2    0    0  0.00000000000E+00  0.00000000000E+00 -0.17475372417E+04  0.40385241167E+04  0.36408502620E+04 0.  0.
        2    1    3    3  502    0 -0.15251032158E+04  0.89882387782E+03 -0.13445345475E+04  0.22229703848E+04  0.25500000920E-02 0. -1.
       -2    1    3    3    0  502  0.15251032158E+04 -0.89882387782E+03 -0.40300269419E+03  0.18155537320E+04  0.25500000920E-02 0.  1.
</event>
<event>
 5   0  0.2086250E-07  0.3566755E+04  0.7818609E-02  0.8098150E-01
        1   -1    0    0  501    0  0.00000000000E+00  0.00000000000E+00  0.20505351704E+04  0.20505351704E+04  0.50400001928E-02 0.  1.
       -1   -1    0    0    0  501  0.00000000000E+00  0.00000000000E+00 -0.15510269992E+04  0.15510269992E+04  0.50400001928E-02 0. -1.
    10030    2    1    2    0    0  0.00000000000E+00  0.00000000000E+00  0.49950817120E+03  0.36015621696E+04  0.35667550586E+04 0.  0.
        4    1    3    3  502    0  0.11326803332E+04  0.54295143518E+03  0.15280754972E+04  0.19780741483E+04  0.12699999809E+01 0.  1.
       -4    1    3    3    0  502 -0.11326803332E+04 -0.54295143518E+03 -0.10285673260E+04  0.16234880213E+04  0.12699999809E+01 0. -1.
</event>
<event>
 5   0  0.2086250E-07  0.3603872E+04  0.7818609E-02  0.8089605E-01
        1   -1    0    0  501    0  0.00000000000E+00  0.00000000000E+00  0.15776901888E+04  0.15776901888E+04  0.50400001928E-02 0.  1.
       -1   -1    0    0    0  501  0.00000000000E+00  0.00000000000E+00 -0.20580552890E+04  0.20580552890E+04  0.50400001928E-02 0. -1.
    10030    2    1    2    0    0  0.00000000000E+00  0.00000000000E+00 -0.48036510023E+03  0.36357454778E+04  0.36038721605E+04 0.  0.
        4    1    3    3  502    0  0.86211705139E+03 -0.14600496194E+04 -0.85547935947E+03  0.18991675147E+04  0.12699999809E+01 0. -1.
       -4    1    3    3    0  502 -0.86211705139E+03  0.14600496194E+04  0.37511425924E+03  0.17365779631E+04  0.12699999809E+01 0.  1.
</event>
<event>
 5   0  0.2193129E-07  0.2924093E+04  0.7818609E-02  0.8265745E-01
        1   -1    0    0  501    0  0.00000000000E+00  0.00000000000E+00  0.13561122435E+04  0.13561122435E+04  0.50400001928E-02 0.  1.
       -1   -1    0    0    0  501  0.00000000000E+00  0.00000000000E+00 -0.15762560494E+04  0.15762560494E+04  0.50400001928E-02 0. -1.
    10030    2    1    2    0    0  0.00000000000E+00  0.00000000000E+00 -0.22014380586E+03  0.29323682929E+04  0.29240931090E+04 0.  0.
        1    1    3    3  502    0  0.37533377366E+03 -0.13581493566E+03  0.13004144597E+04  0.13602936835E+04  0.50400001928E-02 0.  1.
       -1    1    3    3    0  502 -0.37533377366E+03  0.13581493566E+03 -0.15205582656E+04  0.15720746094E+04  0.50400001928E-02 0. -1.
</event>
<event>
 5   0  0.2086250E-07  0.3626700E+04  0.7818609E-02  0.8084403E-01
       -1   -1    0    0    0  501  0.00000000000E+00  0.00000000000E+00  0.11993998593E+04  0.11993998593E+04  0.50400001928E-02 0. -1.
        1   -1    0    0  501    0  0.00000000000E+00  0.00000000000E+00 -0.27415702029E+04  0.27415702029E+04  0.50400001928E-02 0.  1.
    10030    2    1    2    0    0  0.00000000000E+00  0.00000000000E+00 -0.15421703437E+04  0.39409700622E+04  0.36267003822E+04 0.  0.
        2    1    3    3  502    0 -0.12184511615E+04 -0.80239058806E+03 -0.19413393665E+04  0.24284259150E+04  0.25500000920E-02 0.  1.
       -2    1    3    3    0  502  0.12184511615E+04  0.80239058806E+03  0.39916902278E+03  0.15125441473E+04  0.25500000920E-02 0. -1.
</event>
<event>
 5   0  0.2086250E-07  0.3699844E+04  0.7818609E-02  0.8067996E-01
        1   -1    0    0  501    0  0.00000000000E+00  0.00000000000E+00  0.14241530232E+04  0.14241530232E+04  0.50400001928E-02 0. -1.
       -1   -1    0    0    0  501  0.00000000000E+00  0.00000000000E+00 -0.24029803467E+04  0.24029803467E+04  0.50400001928E-02 0.  1.
    10030    2    1    2    0    0  0.00000000000E+00  0.00000000000E+00 -0.97882732351E+03  0.38271333700E+04  0.36998441727E+04 0.  0.
        2    1    3    3  502    0 -0.12867613481E+04  0.12196858583E+04  0.56790174764E+02  0.17738696356E+04  0.25500000920E-02 0.  1.
       -2    1    3    3    0  502  0.12867613481E+04 -0.12196858583E+04 -0.10356174983E+04  0.20532637344E+04  0.25500000920E-02 0. -1.
</event>
<event>
 5   0  0.6729577E-07  0.3596721E+04  0.7818609E-02  0.8091243E-01
       -2   -1    0    0    0  501  0.00000000000E+00  0.00000000000E+00  0.19130403551E+04  0.19130403551E+04  0.25500000920E-02 0.  1.
        2   -1    0    0  501    0  0.00000000000E+00  0.00000000000E+00 -0.16905548590E+04  0.16905548590E+04  0.25500000920E-02 0. -1.
    10030    2    1    2    0    0  0.00000000000E+00  0.00000000000E+00  0.22248549609E+03  0.36035952141E+04  0.35967205439E+04 0.  0.
        3    1    3    3  502    0  0.44890169910E+03  0.17224479784E+04 -0.14568429860E+03  0.17859349649E+04  0.10100000352E+00 0.  1.
       -3    1    3    3    0  502 -0.44890169910E+03 -0.17224479784E+04  0.36816979469E+03  0.18176602492E+04  0.10100000352E+00 0. -1.
</event>
<event>
 5   0  0.6848661E-07  0.3599941E+04  0.7818609E-02  0.8090505E-01
        2   -1    0    0  501    0  0.00000000000E+00  0.00000000000E+00  0.19037236127E+04  0.19037236127E+04  0.25500000920E-02 0. -1.
       -2   -1    0    0    0  501  0.00000000000E+00  0.00000000000E+00 -0.17018715621E+04  0.17018715621E+04  0.25500000920E-02 0.  1.
    10030    2    1    2    0    0  0.00000000000E+00  0.00000000000E+00  0.20185205060E+03  0.36055951749E+04  0.35999405988E+04 0.  0.
        1    1    3    3  502    0 -0.10961596781E+04 -0.81606976034E+03 -0.10723905593E+04  0.17371117999E+04  0.50400001928E-02 0.  1.
       -1    1    3    3    0  502  0.10961596781E+04  0.81606976034E+03  0.12742426099E+04  0.18684833750E+04  0.50400001928E-02 0. -1.
</event>
<event>
 5   0  0.6729577E-07  0.3716453E+04  0.7818609E-02  0.8064325E-01
       -2   -1    0    0    0  501  0.00000000000E+00  0.00000000000E+00  0.15492636962E+04  0.15492636962E+04  0.25500000920E-02 0.  1.
        2   -1    0    0  501    0  0.00000000000E+00  0.00000000000E+00 -0.22288044697E+04  0.22288044697E+04  0.25500000920E-02 0. -1.
    10030    2    1    2    0    0  0.00000000000E+00  0.00000000000E+00 -0.67954077345E+03  0.37780681659E+04  0.37164530676E+04 0.  0.
        3    1    3    3  502    0  0.16182622620E+04 -0.25507668840E+02 -0.12679145078E+04  0.20559743673E+04  0.10100000352E+00 0. -1.
       -3    1    3    3    0  502 -0.16182622620E+04  0.25507668840E+02  0.58837373439E+03  0.17220937986E+04  0.10100000352E+00 0.  1.
</event>
<event>
 5   0  0.2193129E-07  0.3623872E+04  0.7818609E-02  0.8085045E-01
        1   -1    0    0  501    0  0.00000000000E+00  0.00000000000E+00  0.28036991224E+04  0.28036991224E+04  0.50400001928E-02 0.  1.
       -1   -1    0    0    0  501  0.00000000000E+00  0.00000000000E+00 -0.11709933192E+04  0.11709933192E+04  0.50400001928E-02 0. -1.
    10030    2    1    2    0    0  0.00000000000E+00  0.00000000000E+00  0.16327058032E+04  0.39746924416E+04  0.36238724819E+04 0.  0.
        1    1    3    3  502    0  0.73266088808E+03  0.78841381161E+03  0.24151080187E+04  0.26440754636E+04  0.50400001928E-02 0.  1.
       -1    1    3    3    0  502 -0.73266088808E+03 -0.78841381161E+03 -0.78240221545E+03  0.13306169780E+04  0.50400001928E-02 0. -1.
</event>
<event>
 5   0  0.6324216E-07  0.3590281E+04  0.7818609E-02  0.8092722E-01
        2   -1    0    0  501    0  0.00000000000E+00  0.00000000000E+00  0.13349920928E+04  0.13349920928E+04  0.25500000920E-02 0.  1.
       -2   -1    0    0    0  501  0.00000000000E+00  0.00000000000E+00 -0.24138934280E+04  0.24138934280E+04  0.25500000920E-02 0. -1.
    10030    2    1    2    0    0  0.00000000000E+00  0.00000000000E+00 -0.10789013352E+04  0.37488855209E+04  0.35902805681E+04 0.  0.
        2    1    3    3  502    0 -0.73071450470E+03  0.60467832362E+03  0.10520016640E+04  0.14164346309E+04  0.25500000920E-02 0.  1.
       -2    1    3    3    0  502  0.73071450470E+03 -0.60467832362E+03 -0.21309029992E+04  0.23324508900E+04  0.25500000920E-02 0. -1.
</event>
<event>
 5   0  0.6324216E-07  0.3636283E+04  0.7818609E-02  0.8082231E-01
        2   -1    0    0  501    0  0.00000000000E+00  0.00000000000E+00  0.20376385059E+04  0.20376385059E+04  0.25500000920E-02 0. -1.
       -2   -1    0    0    0  501  0.00000000000E+00  0.00000000000E+00 -0.16222889513E+04  0.16222889513E+04  0.25500000920E-02 0.  1.
    10030    2    1    2    0    0  0.00000000000E+00  0.00000000000E+00  0.41534955453E+03  0.36599274572E+04  0.36362829565E+04 0.  0.
        2    1    3    3  502    0  0.40529343686E+03  0.24363273898E+03 -0.15593085250E+04  0.16294363313E+04  0.25500000920E-02 0.  1.
       -2    1    3    3    0  502 -0.40529343686E+03 -0.24363273898E+03  0.19746580795E+04  0.20304911259E+04  0.25500000920E-02 0. -1.
</event>
<event>
 5   0  0.2193129E-07  0.3604632E+04  0.7818609E-02  0.8089432E-01
       -1   -1    0    0    0  501  0.00000000000E+00  0.00000000000E+00  0.11671812231E+04  0.11671812231E+04  0.50400001928E-02 0.  1.
        1   -1    0    0  501    0  0.00000000000E+00  0.00000000000E+00 -0.27830664303E+04  0.27830664303E+04  0.50400001928E-02 0. -1.
    10030    2    1    2    0    0  0.00000000000E+00  0.00000000000E+00 -0.16158852072E+04  0.39502476534E+04  0.36046319535E+04 0.  0.
        1    1    3    3  502    0  0.35516156809E+03  0.15201784657E+04 -0.17950026667E+04  0.23788898420E+04  0.50400001928E-02 0. -1.
       -1    1    3    3    0  502 -0.35516156809E+03 -0.15201784657E+04  0.17911745951E+03  0.15713578113E+04  0.50400001928E-02 0.  1.
</event>
<event>
 5   0  0.2086250E-07  0.3607876E+04  0.7818609E-02  0.8088690E-01
        1   -1    0    0  501    0  0.00000000000E+00  0.00000000000E+00  0.18843993146E+04  0.18843993146E+04  0.50400001928E-02 0.  1.
       -1   -1    0    0    0  501  0.00000000000E+00  0.00000000000E+00 -0.17269122996E+04  0.17269122996E+04  0.50400001928E-02 0. -1.
    10030    2    1    2    0    0  0.00000000000E+00  0.00000000000E+00  0.15748701503E+03  0.36113116142E+04  0.36078760254E+04 0.  0.
        4    1    3    3  502    0  0.35185961239E+03  0.16556319188E+04 -0.54576447143E+03  0.17784214092E+04  0.12699999809E+01 0. -1.
       -4    1    3    3    0  502 -0.35185961239E+03 -0.16556319188E+04  0.70325148647E+03  0.18328902050E+04  0.12699999809E+01 0.  1.
</event>
<event>
 5   0  0.2108068E-07  0.3592241E+04  0.7818609E-02  0.8092271E-01
        1   -1    0    0  501    0  0.00000000000E+00  0.00000000000E+00  0.18382502353E+04  0.18382502353E+04  0.50400001928E-02 0.  1.
       -1   -1    0    0    0  501  0.00000000000E+00  0.00000000000E+00 -0.17549562116E+04  0.17549562116E+04  0.50400001928E-02 0. -1.
    10030    2    1    2    0    0  0.00000000000E+00  0.00000000000E+00  0.83294023684E+02  0.35932064469E+04  0.35922408989E+04 0.  0.
        5    1    3    3  502    0  0.12300921020E+04 -0.83143263372E+03  0.10526707728E+04  0.18200397385E+04  0.46999998093E+01 0.  1.
       -5    1    3    3    0  502 -0.12300921020E+04  0.83143263372E+03 -0.96937674914E+03  0.17731667084E+04  0.46999998093E+01 0. -1.
</event>
<event>
 5   0  0.6541476E-07  0.3599790E+04  0.7818609E-02  0.8090540E-01
        2   -1    0    0  501    0  0.00000000000E+00  0.00000000000E+00  0.23613437334E+04  0.23613437334E+04  0.25500000920E-02 0. -1.
       -2   -1    0    0    0  501  0.00000000000E+00  0.00000000000E+00 -0.13719402666E+04  0.13719402666E+04  0.25500000920E-02 0.  1.
    10030    2    1    2    0    0  0.00000000000E+00  0.00000000000E+00  0.98940346683E+03  0.37332840000E+04  0.35997903001E+04 0.  0.
        4    1    3    3  502    0  0.24713420257E+03  0.12616214555E+04  0.18011214093E+04  0.22128723314E+04  0.12699999809E+01 0. -1.
       -4    1    3    3    0  502 -0.24713420257E+03 -0.12616214555E+04 -0.81171794249E+03  0.15204116686E+04  0.12699999809E+01 0.  1.
</event>
<event>
 5   0  0.2108068E-07  0.3591221E+04  0.7818609E-02  0.8092506E-01
        1   -1    0    0  501    0  0.00000000000E+00  0.00000000000E+00  0.18768261479E+04  0.18768261479E+04  0.50400001928E-02 0.  1.
       -1   -1    0    0    0  501  0.00000000000E+00  0.00000000000E+00 -0.17179090384E+04  0.17179090384E+04  0.50400001928E-02 0. -1.
    10030    2    1    2    0    0  0.00000000000E+00  0.00000000000E+00  0.15891710952E+03  0.35947351864E+04  0.35912207413E+04 0.  0.
        5    1    3    3  502    0  0.10700962809E+04  0.88115491194E+03 -0.10629972835E+04  0.17468615697E+04  0.46999998093E+01 0. -1.
       -5    1    3    3    0  502 -0.10700962809E+04 -0.88115491194E+03  0.12219143930E+04  0.18478736166E+04  0.46999998093E+01 0.  1.
</event>
<event>
 5   0  0.6848661E-07  0.3586872E+04  0.7818609E-02  0.8093505E-01
       -2   -1    0    0    0  501  0.00000000000E+00  0.00000000000E+00  0.17260376182E+04  0.17260376182E+04  0.25500000920E-02 0.  1.
        2   -1    0    0  501    0  0.00000000000E+00  0.00000000000E+00 -0.18634662483E+04  0.18634662483E+04  0.25500000920E-02 0. -1.
    10030    2    1    2    0    0  0.00000000000E+00  0.00000000000E+00 -0.13742863008E+03  0.35895038664E+04  0.35868720884E+04 0.  0.
        1    1    3    3  502    0 -0.38995902619E+03  0.21806443750E+03  0.16694517647E+04  0.17282040781E+04  0.50400001928E-02 0.  1.
       -1    1    3    3    0  502  0.38995902619E+03 -0.21806443750E+03 -0.18068803948E+04  0.18612997883E+04  0.50400001928E-02 0. -1.
</event>
<event>
 5   0  0.2108068E-07  0.3633541E+04  0.7818609E-02  0.8082852E-01
       -1   -1    0    0    0  501  0.00000000000E+00  0.00000000000E+00  0.16205864227E+04  0.16205864227E+04  0.50400001928E-02 0. -1.
        1   -1    0    0  501    0  0.00000000000E+00  0.00000000000E+00 -0.20367038454E+04  0.20367038454E+04  0.50400001928E-02 0.  1.
    10030    2    1    2    0    0  0.00000000000E+00  0.00000000000E+00 -0.41611742266E+03  0.36572902681E+04  0.36335407519E+04 0.  0.
        5    1    3    3  502    0 -0.92716521455E+03 -0.23012513563E+03 -0.17634875855E+04  0.20056179765E+04  0.46999998093E+01 0.  1.
       -5    1    3    3    0  502  0.92716521455E+03  0.23012513563E+03  0.13473701629E+04  0.16516722916E+04  0.46999998093E+01 0. -1.
</event>
<event>
 5   0  0.2086250E-07  0.3630162E+04  0.7818609E-02  0.8083617E-01
       -1   -1    0    0    0  501  0.00000000000E+00  0.00000000000E+00  0.17897328147E+04  0.17897328147E+04  0.50400001928E-02 0.  1.
        1   -1    0    0  501    0  0.00000000000E+00  0.00000000000E+00 -0.18407884628E+04  0.18407884628E+04  0.50400001928E-02 0. -1.
    10030    2    1    2    0    0  0.00000000000E+00  0.00000000000E+00 -0.51055648105E+02  0.36305212775E+04  0.36301622646E+04 0.  0.
        3    1    3    3  502    0  0.10090584415E+04 -0.12313874632E+04  0.84634132665E+03  0.18029996324E+04  0.10100000352E+00 0.  1.
       -3    1    3    3    0  502 -0.10090584415E+04  0.12313874632E+04 -0.89739697476E+03  0.18275216451E+04  0.10100000352E+00 0. -1.
</event>
<event>
 5   0  0.2086250E-07  0.3575146E+04  0.7818609E-02  0.8096209E-01
        1   -1    0    0  501    0  0.00000000000E+00  0.00000000000E+00  0.12706329433E+04  0.12706329433E+04  0.50400001928E-02 0.  1.
       -1   -1    0    0    0  501  0.00000000000E+00  0.00000000000E+00 -0.25148239117E+04  0.25148239117E+04  0.50400001928E-02 0. -1.
    10030    2    1    2    0    0  0.00000000000E+00  0.00000000000E+00 -0.12441909684E+04  0.37854568549E+04  0.35751464914E+04 0.  0.
        3    1    3    3  502    0  0.42165431566E+02  0.26822669611E+03 -0.24928623381E+04  0.25076056570E+04  0.10100000352E+00 0. -1.
       -3    1    3    3    0  502 -0.42165431566E+02 -0.26822669611E+03  0.12486713698E+04  0.12778511979E+04  0.10100000352E+00 0.  1.
</event>
<event>
 5   0  0.2086250E-07  0.3642146E+04  0.7818609E-02  0.8080905E-01
       -3   -1    0    0    0  501  0.00000000000E+00  0.00000000000E+00  0.17211801060E+04  0.17211801090E+04  0.10100000352E+00 0. -1.
        3   -1    0    0  501    0  0.00000000000E+00  0.00000000000E+00 -0.19267636544E+04  0.19267636570E+04  0.10100000352E+00 0.  1.
    10030    2    1    2    0    0  0.00000000000E+00  0.00000000000E+00 -0.20558354832E+03  0.36479437660E+04  0.36421462251E+04 0.  0.
        2    1    3    3  502    0 -0.49019231589E+03  0.12032282075E+04 -0.13808561259E+04  0.18959984879E+04  0.25500000920E-02 0.  1.
       -2    1    3    3    0  502  0.49019231589E+03 -0.12032282075E+04  0.11752725776E+04  0.17519452781E+04  0.25500000920E-02 0. -1.
</event>
<event>
 5   0  0.6541476E-07  0.3574696E+04  0.7818609E-02  0.8096312E-01
        2   -1    0    0  501    0  0.00000000000E+00  0.00000000000E+00  0.22842110920E+04  0.22842110920E+04  0.25500000920E-02 0.  1.
       -2   -1    0    0    0  501  0.00000000000E+00  0.00000000000E+00 -0.13985631719E+04  0.13985631719E+04  0.25500000920E-02 0. -1.
    10030    2    1    2    0    0  0.00000000000E+00  0.00000000000E+00  0.88564792011E+03  0.36827742638E+04  0.35746963563E+04 0.  0.
        4    1    3    3  502    0  0.51087341329E+02 -0.29505058528E+03 -0.13725372311E+04  0.14048219916E+04  0.12699999809E+01 0. -1.
       -4    1    3    3    0  502 -0.51087341329E+02  0.29505058528E+03  0.22581851512E+04  0.22779522722E+04  0.12699999809E+01 0.  1.
</event>
<event>
 5   0  0.6729577E-07  0.3609111E+04  0.7818609E-02  0.8088408E-01
       -2   -1    0    0    0  501  0.00000000000E+00  0.00000000000E+00  0.20678406568E+04  0.20678406568E+04  0.25500000920E-02 0. -1.
        2   -1    0    0  501    0  0.00000000000E+00  0.00000000000E+00 -0.15747930334E+04  0.15747930334E+04  0.25500000920E-02 0.  1.
    10030    2    1    2    0    0  0.00000000000E+00  0.00000000000E+00  0.49304762332E+03  0.36426336902E+04  0.36091112815E+04 0.  0.
        3    1    3    3  502    0  0.13182522792E+04  0.10519424245E+03 -0.99271046036E+03  0.16535806508E+04  0.10100000352E+00 0.  1.
       -3    1    3    3    0  502 -0.13182522792E+04 -0.10519424245E+03  0.14857580837E+04  0.19890530394E+04  0.10100000352E+00 0. -1.
</event>
<event>
 5   0  0.6324216E-07  0.3676600E+04  0.7818609E-02  0.8073167E-01
       -2   -1    0    0    0  501  0.00000000000E+00  0.00000000000E+00  0.15598700666E+04  0.15598700666E+04  0.25500000920E-02 0. -1.
        2   -1    0    0  501    0  0.00000000000E+00  0.00000000000E+00 -0.21664288736E+04  0.21664288736E+04  0.25500000920E-02 0.  1.
    10030    2    1    2    0    0  0.00000000000E+00  0.00000000000E+00 -0.60655880703E+03  0.37262989402E+04  0.36766003597E+04 0.  0.
        2    1    3    3  502    0 -0.31696635000E+03 -0.31937530293E+03  0.15031942212E+04  0.15690956370E+04  0.25500000920E-02 0. -1.
       -2    1    3    3    0  502  0.31696635000E+03  0.31937530293E+03 -0.21097530283E+04  0.21572033032E+04  0.25500000920E-02 0.  1.
</event>
<event>
 5   0  0.6848661E-07  0.3240435E+04  0.7818609E-02  0.8178219E-01
        2   -1    0    0  501    0  0.00000000000E+00  0.00000000000E+00  0.21862338081E+04  0.21862338081E+04  0.25500000920E-02 0. -1.
       -2   -1    0    0    0  501  0.00000000000E+00  0.00000000000E+00 -0.12007425670E+04  0.12007425670E+04  0.25500000920E-02 0.  1.
    10030    2    1    2    0    0  0.00000000000E+00  0.00000000000E+00  0.98549124115E+03  0.33869763752E+04  0.32404345356E+04 0.  0.
        1    1    3    3  502    0 -0.18671496069E+03 -0.15994780205E+04  0.30602896074E+03  0.16391601934E+04  0.50400001928E-02 0. -1.
       -1    1    3    3    0  502  0.18671496069E+03  0.15994780205E+04  0.67946228041E+03  0.17478161818E+04  0.50400001928E-02 0.  1.
</event>
<event>
 5   0  0.6669864E-07  0.3609229E+04  0.7818609E-02  0.8088381E-01
       -2   -1    0    0    0  501  0.00000000000E+00  0.00000000000E+00  0.13836729699E+04  0.13836729699E+04  0.25500000920E-02 0. -1.
        2   -1    0    0  501    0  0.00000000000E+00  0.00000000000E+00 -0.23536153762E+04  0.23536153762E+04  0.25500000920E-02 0.  1.
    10030    2    1    2    0    0  0.00000000000E+00  0.00000000000E+00 -0.96994240627E+03  0.37372883462E+04  0.36092292683E+04 0.  0.
        5    1    3    3  502    0 -0.10084481566E+04  0.27970156278E+03  0.10373659227E+04  0.14735504050E+04  0.46999998093E+01 0. -1.
       -5    1    3    3    0  502  0.10084481566E+04 -0.27970156278E+03 -0.20073083289E+04  0.22637379411E+04  0.46999998093E+01 0.  1.
</event>
<event>
 5   0  0.6729577E-07  0.3600018E+04  0.7818609E-02  0.8090487E-01
        2   -1    0    0  501    0  0.00000000000E+00  0.00000000000E+00  0.21622938033E+04  0.21622938033E+04  0.25500000920E-02 0.  1.
       -2   -1    0    0    0  501  0.00000000000E+00  0.00000000000E+00 -0.14984241572E+04  0.14984241572E+04  0.25500000920E-02 0. -1.
    10030    2    1    2    0    0  0.00000000000E+00  0.00000000000E+00  0.66386964608E+03  0.36607179605E+04  0.36000184832E+04 0.  0.
        3    1    3    3  502    0 -0.42348797761E+03  0.30311361978E+03 -0.14201413552E+04  0.15126207101E+04  0.10100000352E+00 0. -1.
       -3    1    3    3    0  502  0.42348797761E+03 -0.30311361978E+03  0.20840110012E+04  0.21480972504E+04  0.10100000352E+00 0.  1.
</event>
<event>
 5   0  0.2086250E-07  0.3594155E+04  0.7818609E-02  0.8091832E-01
        1   -1    0    0  501    0  0.00000000000E+00  0.00000000000E+00  0.21884985362E+04  0.21884985362E+04  0.50400001928E-02 0. -1.
       -1   -1    0    0    0  501  0.00000000000E+00  0.00000000000E+00 -0.14756633122E+04  0.14756633122E+04  0.50400001928E-02 0.  1.
    10030    2    1    2    0    0  0.00000000000E+00  0.00000000000E+00  0.71283522401E+03  0.36641618484E+04  0.35941546982E+04 0.  0.
        3    1    3    3  502    0  0.98949202267E+03  0.44878892324E+03  0.18157252352E+04  0.21159782845E+04  0.10100000352E+00 0. -1.
       -3    1    3    3    0  502 -0.98949202267E+03 -0.44878892324E+03 -0.11028900112E+04  0.15481835639E+04  0.10100000352E+00 0.  1.
</event>
<event>
 5   0  0.2086250E-07  0.3584514E+04  0.7818609E-02  0.8094048E-01
       -1   -1    0    0    0  501  0.00000000000E+00  0.00000000000E+00  0.18608166911E+04  0.18608166911E+04  0.50400001928E-02 0. -1.
        1   -1    0    0  501    0  0.00000000000E+00  0.00000000000E+00 -0.17262229573E+04  0.17262229573E+04  0.50400001928E-02 0.  1.
    10030    2    1    2    0    0  0.00000000000E+00  0.00000000000E+00  0.13459373385E+03  0.35870396484E+04  0.35845136303E+04 0.  0.
        3    1    3    3  502    0  0.15567830756E+04 -0.27180506277E+03  0.91331143456E+03  0.18252641791E+04  0.10100000352E+00 0. -1.
       -3    1    3    3    0  502 -0.15567830756E+04  0.27180506277E+03 -0.77871770071E+03  0.17617754693E+04  0.10100000352E+00 0.  1.
</event>
<event>
 5   0  0.2108068E-07  0.3583046E+04  0.7818609E-02  0.8094386E-01
        1   -1    0    0  501    0  0.00000000000E+00  0.00000000000E+00  0.14273600332E+04  0.14273600332E+04  0.50400001928E-02 0.  1.
       -1   -1    0    0    0  501  0.00000000000E+00  0.00000000000E+00 -0.22485955716E+04  0.22485955716E+04  0.50400001928E-02 0. -1.
    10030    2    1    2    0    0  0.00000000000E+00  0.00000000000E+00 -0.82123553844E+03  0.36759556048E+04  0.35830464410E+04 0.  0.
        5    1    3    3  502    0  0.12463085157E+03 -0.56546676822E+03  0.13287039801E+04  0.14494005216E+04  0.46999998093E+01 0.  1.
       -5    1    3    3    0  502 -0.12463085157E+03  0.56546676822E+03 -0.21499395186E+04  0.22265550832E+04  0.46999998093E+01 0. -1.
</event>
<event>
 5   0  0.2086250E-07  0.3583932E+04  0.7818609E-02  0.8094182E-01
       -1   -1    0    0    0  501  0.00000000000E+00  0.00000000000E+00  0.15436334979E+04  0.15436334979E+04  0.50400001928E-02 0.  1.
        1   -1    0    0  501    0  0.00000000000E+00  0.00000000000E+00 -0.20802494777E+04  0.20802494777E+04  0.50400001928E-02 0. -1.
    10030    2    1    2    0    0  0.00000000000E+00  0.00000000000E+00 -0.53661597973E+03  0.36238829756E+04  0.35839323530E+04 0.  0.
        3    1    3    3  502    0 -0.17677218476E+03 -0.80870906762E+03 -0.18753271786E+04  0.20499050706E+04  0.10100000352E+00 0. -1.
       -3    1    3    3    0  502  0.17677218476E+03  0.80870906762E+03  0.13387111989E+04  0.15739779050E+04  0.10100000352E+00 0.  1.
</event>
<event>
 5   0  0.6324216E-07  0.3509719E+04  0.7818609E-02  0.8111491E-01
       -2   -1    0    0    0  501  0.00000000000E+00  0.00000000000E+00  0.22051469415E+04  0.22051469415E+04  0.25500000920E-02 0. -1.
        2   -1    0    0  501    0  0.00000000000E+00  0.00000000000E+00 -0.13965200459E+04  0.13965200459E+04  0.25500000920E-02 0.  1.
    10030    2    1    2    0    0  0.00000000000E+00  0.00000000000E+00  0.80862689563E+03  0.36016669874E+04  0.35097190247E+04 0.  0.
        2    1    3    3  502    0  0.13698487260E+04 -0.41829451872E+03 -0.63619073613E+03  0.15672250921E+04  0.25500000920E-02 0.  1.
       -2    1    3    3    0  502 -0.13698487260E+04  0.41829451872E+03  0.14448176318E+04  0.20344418954E+04  0.25500000920E-02 0. -1.
</event>
<event>
 5   0  0.6729577E-07  0.3596683E+04  0.7818609E-02  0.8091252E-01
        2   -1    0    0  501    0  0.00000000000E+00  0.00000000000E+00  0.21506028227E+04  0.21506028227E+04  0.25500000920E-02 0. -1.
       -2   -1    0    0    0  501  0.00000000000E+00  0.00000000000E+00 -0.15037795721E+04  0.15037795721E+04  0.25500000920E-02 0.  1.
    10030    2    1    2    0    0  0.00000000000E+00  0.00000000000E+00  0.64682325057E+03  0.36543823947E+04  0.35966832456E+04 0.  0.
        3    1    3    3  502    0 -0.39888059991E+03 -0.34028516882E+03 -0.14243976107E+04  0.15178301264E+04  0.10100000352E+00 0.  1.
       -3    1    3    3    0  502  0.39888059991E+03  0.34028516882E+03  0.20712208612E+04  0.21365522683E+04  0.10100000352E+00 0. -1.
</event>
<event>
 5   0  0.2086250E-07  0.3467635E+04  0.7818609E-02  0.8121503E-01
        1   -1    0    0  501    0  0.00000000000E+00  0.00000000000E+00  0.13037824452E+04  0.13037824452E+04  0.50400001928E-02 0.  1.
       -1   -1    0    0    0  501  0.00000000000E+00  0.00000000000E+00 -0.23056933004E+04  0.23056933004E+04  0.50400001928E-02 0. -1.
    10030    2    1    2    0    0  0.00000000000E+00  0.00000000000E+00 -0.10019108551E+04  0.36094757456E+04  0.34676346112E+04 0.  0.
        3    1    3    3  502    0 -0.11238372980E+04  0.12397485499E+04 -0.28362296947E+02  0.16735564434E+04  0.10100000352E+00 0.  1.
       -3    1    3    3    0  502  0.11238372980E+04 -0.12397485499E+04 -0.97354855819E+03  0.19359193022E+04  0.10100000352E+00 0. -1.
</event>
<event>
 5   0  0.2086250E-07  0.3538906E+04  0.7818609E-02  0.8104631E-01
       -1   -1    0    0    0  501  0.00000000000E+00  0.00000000000E+00  0.15657952012E+04  0.15657952012E+04  0.50400001928E-02 0.  1.
        1   -1    0    0  501    0  0.00000000000E+00  0.00000000000E+00 -0.19996000184E+04  0.19996000184E+04  0.50400001928E-02 0. -1.
    10030    2    1    2    0    0  0.00000000000E+00  0.00000000000E+00 -0.43380481724E+03  0.35653952196E+04  0.35389061096E+04 0.  0.
        2    1    3    3  502    0 -0.10138649233E+04  0.81767162824E+03  0.98974982909E+03  0.16358831555E+04  0.25500000920E-02 0.  1.
       -2    1    3    3    0  502  0.10138649233E+04 -0.81767162824E+03 -0.14235546463E+04  0.19295120641E+04  0.25500000920E-02 0. -1.
</event>
<event>
 5   0  0.6324216E-07  0.3623375E+04  0.7818609E-02  0.8085158E-01
       -2   -1    0    0    0  501  0.00000000000E+00  0.00000000000E+00  0.13875201717E+04  0.13875201717E+04  0.25500000920E-02 0. -1.
        2   -1    0    0  501    0  0.00000000000E+00  0.00000000000E+00 -0.23655228717E+04  0.23655228717E+04  0.25500000920E-02 0.  1.
    10030    2    1    2    0    0  0.00000000000E+00  0.00000000000E+00 -0.97800269997E+03  0.37530430434E+04  0.36233745051E+04 0.  0.
        2    1    3    3  502    0 -0.45925272360E+03  0.88478771808E+03  0.10778971931E+04  0.14682045938E+04  0.25500000920E-02 0.  1.
       -2    1    3    3    0  502  0.45925272360E+03 -0.88478771808E+03 -0.20558998931E+04  0.22848384496E+04  0.25500000920E-02 0. -1.
</event>
<event>
 5   0  0.2086250E-07  0.3621422E+04  0.7818609E-02  0.8085602E-01
       -1   -1    0    0    0  501  0.00000000000E+00  0.00000000000E+00  0.21698609376E+04  0.21698609376E+04  0.50400001928E-02 0. -1.
        1   -1    0    0  501    0  0.00000000000E+00  0.00000000000E+00 -0.15110068804E+04  0.15110068804E+04  0.50400001928E-02 0.  1.
    10030    2    1    2    0    0  0.00000000000E+00  0.00000000000E+00  0.65885405723E+03  0.36808678180E+04  0.36214222654E+04 0.  0.
        4    1    3    3  502    0 -0.13375955761E+04 -0.34434051366E+03 -0.86066464790E+03  0.16274143798E+04  0.12699999809E+01 0.  1.
       -4    1    3    3    0  502  0.13375955761E+04  0.34434051366E+03  0.15195187051E+04  0.20534534382E+04  0.12699999809E+01 0. -1.
</event>
<event>
 5   0  0.6848661E-07  0.3593286E+04  0.7818609E-02  0.8092031E-01
       -2   -1    0    0    0  501  0.00000000000E+00  0.00000000000E+00  0.14469248040E+04  0.14469248040E+04  0.25500000920E-02 0.  1.
        2   -1    0    0  501    0  0.00000000000E+00  0.00000000000E+00 -0.22308869925E+04  0.22308869925E+04  0.25500000920E-02 0. -1.
    10030    2    1    2    0    0  0.00000000000E+00  0.00000000000E+00 -0.78396218857E+03  0.36778117965E+04  0.35932858079E+04 0.  0.
        1    1    3    3  502    0  0.11715756219E+04 -0.12683537467E+04  0.11630418963E+03  0.17305598312E+04  0.50400001928E-02 0. -1.
       -1    1    3    3    0  502 -0.11715756219E+04  0.12683537467E+04 -0.90026637820E+03  0.19472519653E+04  0.50400001928E-02 0.  1.
</event>
<event>
 5   0  0.2086250E-07  0.3594973E+04  0.7818609E-02  0.8091644E-01
       -1   -1    0    0    0  501  0.00000000000E+00  0.00000000000E+00  0.33311739068E+04  0.33311739068E+04  0.50400001928E-02 0. -1.
        1   -1    0    0  501    0  0.00000000000E+00  0.00000000000E+00 -0.96991568322E+03  0.96991568323E+03  0.50400001928E-02 0.  1.
    10030    2    1    2    0    0  0.00000000000E+00  0.00000000000E+00  0.23612582236E+04  0.43010895901E+04  0.35949730546E+04 0.  0.
        4    1    3    3  502    0  0.79422604048E+02  0.56463838754E+03  0.32201026800E+04  0.32701968353E+04  0.12699999809E+01 0. -1.
       -4    1    3    3    0  502 -0.79422604048E+02 -0.56463838754E+03 -0.85884445640E+03  0.10308927548E+04  0.12699999809E+01 0.  1.
</event>
<event>
 5   0  0.2086250E-07  0.3553823E+04  0.7818609E-02  0.8101152E-01
        1   -1    0    0  501    0  0.00000000000E+00  0.00000000000E+00  0.14870138300E+04  0.14870138300E+04  0.50400001928E-02 0. -1.
       -1   -1    0    0    0  501  0.00000000000E+00  0.00000000000E+00 -0.21233258743E+04  0.21233258743E+04  0.50400001928E-02 0.  1.
    10030    2    1    2    0    0  0.00000000000E+00  0.00000000000E+00 -0.63631204430E+03  0.36103397043E+04  0.35538232600E+04 0.  0.
        3    1    3    3  502    0 -0.10962432915E+04  0.22982179841E+03 -0.17195306039E+04  0.20521581131E+04  0.10100000352E+00 0.  1.
       -3    1    3    3    0  502  0.10962432915E+04 -0.22982179841E+03  0.10832185596E+04  0.15581815912E+04  0.10100000352E+00 0. -1.
</event>
<event>
 5   0  0.2086250E-07  0.3602191E+04  0.7818609E-02  0.8089990E-01
        1   -1    0    0  501    0  0.00000000000E+00  0.00000000000E+00  0.22110008888E+04  0.22110008888E+04  0.50400001928E-02 0. -1.
       -1   -1    0    0    0  501  0.00000000000E+00  0.00000000000E+00 -0.14671842711E+04  0.14671842712E+04  0.50400001928E-02 0.  1.
    10030    2    1    2    0    0  0.00000000000E+00  0.00000000000E+00  0.74381661768E+03  0.36781851600E+04  0.36021914039E+04 0.  0.
        2    1    3    3  502    0  0.89853934232E+03  0.53573980351E+03 -0.11251583833E+04  0.15363500494E+04  0.25500000920E-02 0.  1.
       -2    1    3    3    0  502 -0.89853934232E+03 -0.53573980351E+03  0.18689750010E+04  0.21418351106E+04  0.25500000920E-02 0. -1.
</event>
<event>
 5   0  0.6848661E-07  0.3586758E+04  0.7818609E-02  0.8093532E-01
        2   -1    0    0  501    0  0.00000000000E+00  0.00000000000E+00  0.22912152284E+04  0.22912152284E+04  0.25500000920E-02 0.  1.
       -2   -1    0    0    0  501  0.00000000000E+00  0.00000000000E+00 -0.14037127982E+04  0.14037127982E+04  0.25500000920E-02 0. -1.
    10030    2    1    2    0    0  0.00000000000E+00  0.00000000000E+00  0.88750243015E+03  0.36949280266E+04  0.35867579453E+04 0.  0.
        1    1    3    3  502    0 -0.10709061808E+04 -0.13653504649E+04 -0.22884513482E+02  0.17353805464E+04  0.50400001928E-02 0.  1.
       -1    1    3    3    0  502  0.10709061808E+04  0.13653504649E+04  0.91038694364E+03  0.19595474802E+04  0.50400001928E-02 0. -1.
</event>
<event>
 5   0  0.6669864E-07  0.3622980E+04  0.7818609E-02  0.8085248E-01
        2   -1    0    0  501    0  0.00000000000E+00  0.00000000000E+00  0.16243252464E+04  0.16243252464E+04  0.25500000920E-02 0.  1.
       -2   -1    0    0    0  501  0.00000000000E+00  0.00000000000E+00 -0.20202205952E+04  0.20202205952E+04  0.25500000920E-02 0. -1.
    10030    2    1    2    0    0  0.00000000000E+00  0.00000000000E+00 -0.39589534878E+03  0.36445458415E+04  0.36229796113E+04 0.  0.
        5    1    3    3  502    0  0.64240140493E+03 -0.15497891014E+03  0.14987384325E+04  0.16379673400E+04  0.46999998093E+01 0.  1.
       -5    1    3    3    0  502 -0.64240140493E+03  0.15497891014E+03 -0.18946337813E+04  0.20065785016E+04  0.46999998093E+01 0. -1.
</event>
<event>
 5   0  0.2108068E-07  0.3600575E+04  0.7818609E-02  0.8090360E-01
       -1   -1    0    0    0  501  0.00000000000E+00  0.00000000000E+00  0.21315025958E+04  0.21315025958E+04  0.50400001928E-02 0. -1.
        1   -1    0    0  501    0  0.00000000000E+00  0.00000000000E+00 -0.15205398770E+04  0.15205398770E+04  0.50400001928E-02 0.  1.
    10030    2    1    2    0    0  0.00000000000E+00  0.00000000000E+00  0.61096271880E+03  0.36520424728E+04  0.36005747845E+04 0.  0.
        5    1    3    3  502    0  0.17761583861E+04 -0.48118385557E+02  0.11583371702E+02  0.17768540334E+04  0.46999998093E+01 0.  1.
       -5    1    3    3    0  502 -0.17761583861E+04  0.48118385557E+02  0.59937934710E+03  0.18751884394E+04  0.46999998093E+01 0. -1.
</event>
<event>
 5   0  0.6541476E-07  0.3566848E+04  0.7818609E-02  0.8098128E-01
       -2   -1    0    0    0  501  0.00000000000E+00  0.00000000000E+00  0.12215357448E+04  0.12215357448E+04  0.25500000920E-02 0.  1.
        2   -1    0    0  501    0  0.00000000000E+00  0.00000000000E+00 -0.26037722205E+04  0.26037722205E+04  0.25500000920E-02 0. -1.
    10030    2    1    2    0    0  0.00000000000E+00  0.00000000000E+00 -0.13822364756E+04  0.38253079653E+04  0.35668478177E+04 0.  0.
        4    1    3    3  502    0 -0.10013729117E+04  0.10043296652E+04 -0.18507531858E+04  0.23316763824E+04  0.12699999809E+01 0. -1.
       -4    1    3    3    0  502  0.10013729117E+04 -0.10043296652E+04  0.46851671017E+03  0.14936315829E+04  0.12699999809E+01 0.  1.
</event>
<event>
 5   0  0.2193129E-07  0.2925274E+04  0.7818609E-02  0.8265397E-01
        1   -1    0    0  501    0  0.00000000000E+00  0.00000000000E+00  0.25617822610E+04  0.25617822610E+04  0.50400001928E-02 0. -1.
       -1   -1    0    0    0  501  0.00000000000E+00  0.00000000000E+00 -0.83508537678E+03  0.83508537680E+03  0.50400001928E-02 0.  1.
    10030    2    1    2    0    0  0.00000000000E+00  0.00000000000E+00  0.17266968842E+04  0.33968676378E+04  0.29252739391E+04 0.  0.
        1    1    3    3  502    0  0.14444048064E+04  0.16500104854E+03  0.67691557104E+03  0.16036662000E+04  0.50400001928E-02 0.  1.
       -1    1    3    3    0  502 -0.14444048064E+04 -0.16500104854E+03  0.10497813132E+04  0.17932014377E+04  0.50400001928E-02 0. -1.
</event>
<event>
 5   0  0.2108068E-07  0.3577815E+04  0.7818609E-02  0.8095592E-01
        1   -1    0    0  501    0  0.00000000000E+00  0.00000000000E+00  0.14331007554E+04  0.14331007554E+04  0.50400001928E-02 0.  1.
       -1   -1    0    0    0  501  0.00000000000E+00  0.00000000000E+00 -0.22330528725E+04  0.22330528725E+04  0.50400001928E-02 0. -1.
    10030    2    1    2    0    0  0.00000000000E+00  0.00000000000E+00 -0.79995211707E+03  0.36661536279E+04  0.35778148406E+04 0.  0.
        5    1    3    3  502    0 -0.83247351065E+03  0.86774588554E+01 -0.20224469513E+04  0.21870988101E+04  0.46999998093E+01 0. -1.
       -5    1    3    3    0  502  0.83247351065E+03 -0.86774588554E+01  0.12224948342E+04  0.14790548178E+04  0.46999998093E+01 0.  1.
</event>
<event>
 5   0  0.2086250E-07  0.3582388E+04  0.7818609E-02  0.8094538E-01
        1   -1    0    0  501    0  0.00000000000E+00  0.00000000000E+00  0.22642023430E+04  0.22642023430E+04  0.50400001928E-02 0.  1.
       -1   -1    0    0    0  501  0.00000000000E+00  0.00000000000E+00 -0.14170008247E+04  0.14170008247E+04  0.50400001928E-02 0. -1.
    10030    2    1    2    0    0  0.00000000000E+00  0.00000000000E+00  0.84720151831E+03  0.36812031677E+04  0.35823883583E+04 0.  0.
        2    1    3    3  502    0 -0.35451189786E+03 -0.16912039252E+04 -0.61139018321E+02  0.17290423309E+04  0.25500000920E-02 0. -1.
       -2    1    3    3    0  502  0.35451189786E+03  0.16912039252E+04  0.90834053663E+03  0.19521608368E+04  0.25500000920E-02 0.  1.
</event>
<event>
 5   0  0.2086250E-07  0.3590118E+04  0.7818609E-02  0.8092759E-01
       -1   -1    0    0    0  501  0.00000000000E+00  0.00000000000E+00  0.14354993498E+04  0.14354993498E+04  0.50400001928E-02 0.  1.
        1   -1    0    0  501    0  0.00000000000E+00  0.00000000000E+00 -0.22446800773E+04  0.22446800773E+04  0.50400001928E-02 0. -1.
    10030    2    1    2    0    0  0.00000000000E+00  0.00000000000E+00 -0.80918072754E+03  0.36801794271E+04  0.35901179878E+04 0.  0.
        2    1    3    3  502    0  0.10407370597E+03  0.17902290917E+04 -0.48714163820E+03  0.18582407037E+04  0.25500000920E-02 0. -1.
       -2    1    3    3    0  502 -0.10407370597E+03 -0.17902290917E+04 -0.32203908934E+03  0.18219387235E+04  0.25500000920E-02 0.  1.
</event>
<event>
 5   0  0.2086250E-07  0.3604694E+04  0.7818609E-02  0.8089417E-01
        3   -1    0    0  501    0  0.00000000000E+00  0.00000000000E+00  0.19869877477E+04  0.19869877503E+04  0.10100000352E+00 0.  1.
       -3   -1    0    0    0  501  0.00000000000E+00  0.00000000000E+00 -0.16348638784E+04  0.16348638815E+04  0.10100000352E+00 0. -1.
    10030    2    1    2    0    0  0.00000000000E+00  0.00000000000E+00  0.35212386939E+03  0.36218516318E+04  0.36046938876E+04 0.  0.
        2    1    3    3  502    0 -0.13705807753E+03 -0.17508213646E+04 -0.23119951264E+03  0.17713310198E+04  0.25500000920E-02 0. -1.
       -2    1    3    3    0  502  0.13705807753E+03  0.17508213646E+04  0.58332338203E+03  0.18505206119E+04  0.25500000920E-02 0.  1.
</event>
<event>
 5   0  0.2108068E-07  0.3586151E+04  0.7818609E-02  0.8093671E-01
        1   -1    0    0  501    0  0.00000000000E+00  0.00000000000E+00  0.99161517135E+03  0.99161517136E+03  0.50400001928E-02 0.  1.
       -1   -1    0    0    0  501  0.00000000000E+00  0.00000000000E+00 -0.32423064402E+04  0.32423064402E+04  0.50400001928E-02 0. -1.
    10030    2    1    2    0    0  0.00000000000E+00  0.00000000000E+00 -0.22506912688E+04  0.42339216115E+04  0.35861512831E+04 0.  0.
        5    1    3    3  502    0 -0.10676706043E+04  0.12732876476E+04 -0.19207757954E+04  0.25397999328E+04  0.46999998093E+01 0. -1.
       -5    1    3    3    0  502  0.10676706043E+04 -0.12732876476E+04 -0.32991547346E+03  0.16941216787E+04  0.46999998093E+01 0.  1.
</event>
<event>
 5   0  0.2086250E-07  0.3585213E+04  0.7818609E-02  0.8093887E-01
        1   -1    0    0  501    0  0.00000000000E+00  0.00000000000E+00  0.20183225510E+04  0.20183225510E+04  0.50400001928E-02 0.  1.
       -1   -1    0    0    0  501  0.00000000000E+00  0.00000000000E+00 -0.15921330845E+04  0.15921330845E+04  0.50400001928E-02 0. -1.
    10030    2    1    2    0    0  0.00000000000E+00  0.00000000000E+00  0.42618946650E+03  0.36104556354E+04  0.35852130249E+04 0.  0.
        2    1    3    3  502    0 -0.80475819977E+03  0.14303247366E+04  0.93926364316E+03  0.18909470652E+04  0.25500000920E-02 0.  1.
       -2    1    3    3    0  502  0.80475819977E+03 -0.14303247366E+04 -0.51307417667E+03  0.17195085702E+04  0.25500000920E-02 0. -1.
</event>
<event>
 5   0  0.2086250E-07  0.3592718E+04  0.7818609E-02  0.8092162E-01
       -1   -1    0    0    0  501  0.00000000000E+00  0.00000000000E+00  0.13738345513E+04  0.13738345513E+04  0.50400001928E-02 0. -1.
        1   -1    0    0  501    0  0.00000000000E+00  0.00000000000E+00 -0.23488308954E+04  0.23488308954E+04  0.50400001928E-02 0.  1.
    10030    2    1    2    0    0  0.00000000000E+00  0.00000000000E+00 -0.97499634404E+03  0.37226654467E+04  0.35927176562E+04 0.  0.
        2    1    3    3  502    0  0.77960514764E+03 -0.12776314999E+03  0.11841739681E+04  0.14235082000E+04  0.25500000920E-02 0. -1.
       -2    1    3    3    0  502 -0.77960514764E+03  0.12776314999E+03 -0.21591703121E+04  0.22991572468E+04  0.25500000920E-02 0.  1.
</event>
<event>
 5   0  0.2086250E-07  0.3624995E+04  0.7818609E-02  0.8084790E-01
        1   -1    0    0  501    0  0.00000000000E+00  0.00000000000E+00  0.28743472948E+04  0.28743472948E+04  0.50400001928E-02 0. -1.
       -1   -1    0    0    0  501  0.00000000000E+00  0.00000000000E+00 -0.11429194602E+04  0.11429194602E+04  0.50400001928E-02 0.  1.
    10030    2    1    2    0    0  0.00000000000E+00  0.00000000000E+00  0.17314278347E+04  0.40172667550E+04  0.36249951496E+04 0.  0.
        2    1    3    3  502    0 -0.16397189574E+04  0.11760688569E+03  0.19806999108E+02  0.16440504725E+04  0.25500000920E-02 0.  1.
       -2    1    3    3    0  502  0.16397189574E+04 -0.11760688569E+03  0.17116208355E+04  0.23732162825E+04  0.25500000920E-02 0. -1.
</event>
<event>
 5   0  0.6848661E-07  0.3507485E+04  0.7818609E-02  0.8112018E-01
       -2   -1    0    0    0  501  0.00000000000E+00  0.00000000000E+00  0.10878644786E+04  0.10878644786E+04  0.25500000920E-02 0. -1.
        2   -1    0    0  501    0  0.00000000000E+00  0.00000000000E+00 -0.28272028545E+04  0.28272028545E+04  0.25500000920E-02 0.  1.
    10030    2    1    2    0    0  0.00000000000E+00  0.00000000000E+00 -0.17393383758E+04  0.39150673331E+04  0.35074854578E+04 0.  0.
        1    1    3    3  502    0 -0.92512791385E+03 -0.88144368943E+03  0.47108069141E+03  0.13618816588E+04  0.50400001928E-02 0. -1.
       -1    1    3    3    0  502  0.92512791385E+03  0.88144368943E+03 -0.22104190672E+04  0.25531856743E+04  0.50400001928E-02 0.  1.
</event>
<event>
 5   0  0.2108068E-07  0.3639839E+04  0.7818609E-02  0.8081427E-01
       -1   -1    0    0    0  501  0.00000000000E+00  0.00000000000E+00  0.18082990722E+04  0.18082990722E+04  0.50400001928E-02 0. -1.
        1   -1    0    0  501    0  0.00000000000E+00  0.00000000000E+00 -0.18316141475E+04  0.18316141475E+04  0.50400001928E-02 0.  1.
    10030    2    1    2    0    0  0.00000000000E+00  0.00000000000E+00 -0.23315075371E+02  0.36399132197E+04  0.36398385478E+04 0.  0.
        5    1    3    3  502    0 -0.10917877387E+04  0.65688189301E+03  0.12878266176E+04  0.18116329029E+04  0.46999998093E+01 0. -1.
       -5    1    3    3    0  502  0.10917877387E+04 -0.65688189301E+03 -0.13111416930E+04  0.18282803168E+04  0.46999998093E+01 0.  1.
</event>
<event>
 5   0  0.2086250E-07  0.3667489E+04  0.7818609E-02  0.8075205E-01
       -1   -1    0    0    0  501  0.00000000000E+00  0.00000000000E+00  0.29939236957E+04  0.29939236957E+04  0.50400001928E-02 0. -1.
        1   -1    0    0  501    0  0.00000000000E+00  0.00000000000E+00 -0.11231476019E+04  0.11231476020E+04  0.50400001928E-02 0.  1.
    10030    2    1    2    0    0  0.00000000000E+00  0.00000000000E+00  0.18707760937E+04  0.41170712977E+04  0.36674886335E+04 0.  0.
        2    1    3    3  502    0  0.11094673017E+04 -0.89852100463E+03 -0.35649359249E+03  0.14715112540E+04  0.25500000920E-02 0.  1.
       -2    1    3    3    0  502 -0.11094673017E+04  0.89852100463E+03  0.22272696862E+04  0.26455600436E+04  0.25500000920E-02 0. -1.
</event>
<event>
 5   0  0.2193129E-07  0.3498637E+04  0.7818609E-02  0.8114113E-01
        1   -1    0    0  501    0  0.00000000000E+00  0.00000000000E+00  0.91004939911E+03  0.91004939913E+03  0.50400001928E-02 0.  1.
       -1   -1    0    0    0  501  0.00000000000E+00  0.00000000000E+00 -0.33625814023E+04  0.33625814024E+04  0.50400001928E-02 0. -1.
    10030    2    1    2    0    0  0.00000000000E+00  0.00000000000E+00 -0.24525320032E+04  0.42726308015E+04  0.34986369830E+04 0.  0.
        1    1    3    3  502    0 -0.12426030024E+04  0.57916167172E+03  0.10067746573E+03  0.13746368305E+04  0.50400001928E-02 0.  1.
       -1    1    3    3    0  502  0.12426030024E+04 -0.57916167172E+03 -0.25532094690E+04  0.28979939710E+04  0.50400001928E-02 0. -1.
</event>
<event>
 5   0  0.6669864E-07  0.3590533E+04  0.7818609E-02  0.8092664E-01
       -2   -1    0    0    0  501  0.00000000000E+00  0.00000000000E+00  0.14141961459E+04  0.14141961459E+04  0.25500000920E-02 0. -1.
        2   -1    0    0  501    0  0.00000000000E+00  0.00000000000E+00 -0.22790201829E+04  0.22790201829E+04  0.25500000920E-02 0.  1.
    10030    2    1    2    0    0  0.00000000000E+00  0.00000000000E+00 -0.86482403702E+03  0.36932163288E+04  0.35905328625E+04 0.  0.
        5    1    3    3  502    0 -0.15275610459E+04  0.88075119797E+03 -0.85431083114E+02  0.17653571825E+04  0.46999998093E+01 0.  1.
       -5    1    3    3    0  502  0.15275610459E+04 -0.88075119797E+03 -0.77939295391E+03  0.19278591464E+04  0.46999998093E+01 0. -1.
</event>
<event>
 5   0  0.6669864E-07  0.3584484E+04  0.7818609E-02  0.8094055E-01
        2   -1    0    0  501    0  0.00000000000E+00  0.00000000000E+00  0.11924908636E+04  0.11924908636E+04  0.25500000920E-02 0.  1.
       -2   -1    0    0    0  501  0.00000000000E+00  0.00000000000E+00 -0.26936319615E+04  0.26936319615E+04  0.25500000920E-02 0. -1.
    10030    2    1    2    0    0  0.00000000000E+00  0.00000000000E+00 -0.15011410979E+04  0.38861228252E+04  0.35844840656E+04 0.  0.
        5    1    3    3  502    0  0.14035443193E+04 -0.11139779097E+04 -0.78853093096E+03  0.19577248425E+04  0.46999998093E+01 0. -1.
       -5    1    3    3    0  502 -0.14035443193E+04  0.11139779097E+04 -0.71261016696E+03  0.19283979827E+04  0.46999998093E+01 0.  1.
</event>
<event>
 5   0  0.6541476E-07  0.3608301E+04  0.7818609E-02  0.8088593E-01
        2   -1    0    0  501    0  0.00000000000E+00  0.00000000000E+00  0.18878963651E+04  0.18878963651E+04  0.25500000920E-02 0. -1.
       -2   -1    0    0    0  501  0.00000000000E+00  0.00000000000E+00 -0.17241199974E+04  0.17241199974E+04  0.25500000920E-02 0.  1.
    10030    2    1    2    0    0  0.00000000000E+00  0.00000000000E+00  0.16377636775E+03  0.36120163625E+04  0.36083014708E+04 0.  0.
        4    1    3    3  502    0  0.16820871263E+04  0.50853421206E+03  0.49088454768E+03  0.18245529308E+04  0.12699999809E+01 0.  1.
       -4    1    3    3    0  502 -0.16820871263E+04 -0.50853421206E+03 -0.32710817993E+03  0.17874634317E+04  0.12699999809E+01 0. -1.
</event>
<event>
 5   0  0.2108068E-07  0.3586459E+04  0.7818609E-02  0.8093600E-01
        1   -1    0    0  501    0  0.00000000000E+00  0.00000000000E+00  0.18571278454E+04  0.18571278454E+04  0.50400001928E-02 0. -1.
       -1   -1    0    0    0  501  0.00000000000E+00  0.00000000000E+00 -0.17315298729E+04  0.17315298729E+04  0.50400001928E-02 0.  1.
    10030    2    1    2    0    0  0.00000000000E+00  0.00000000000E+00  0.12559797248E+03  0.35886577183E+04  0.35864591687E+04 0.  0.
        5    1    3    3  502    0 -0.81060217092E+02  0.16698563843E+04  0.71177899128E+03  0.18170422465E+04  0.46999998093E+01 0.  1.
       -5    1    3    3    0  502  0.81060217092E+02 -0.16698563843E+04 -0.58618101880E+03  0.17716154718E+04  0.46999998093E+01 0. -1.
</event>
<event>
 5   0  0.6324216E-07  0.3563678E+04  0.7818609E-02  0.8098863E-01
        2   -1    0    0  501    0  0.00000000000E+00  0.00000000000E+00  0.23301302820E+04  0.23301302820E+04  0.25500000920E-02 0. -1.
       -2   -1    0    0    0  501  0.00000000000E+00  0.00000000000E+00 -0.13625637628E+04  0.13625637628E+04  0.25500000920E-02 0.  1.
    10030    2    1    2    0    0  0.00000000000E+00  0.00000000000E+00  0.96756651922E+03  0.36926940448E+04  0.35636784843E+04 0.  0.
        2    1    3    3  502    0 -0.12338669835E+03  0.85961089638E+03 -0.11284352387E+04  0.14239105514E+04  0.25500000920E-02 0.  1.
       -2    1    3    3    0  502  0.12338669835E+03 -0.85961089638E+03  0.20960017579E+04  0.22687834934E+04  0.25500000920E-02 0. -1.
</event>
<event>
 5   0  0.2086250E-07  0.3516082E+04  0.7818609E-02  0.8109989E-01
       -1   -1    0    0    0  501  0.00000000000E+00  0.00000000000E+00  0.18234770507E+04  0.18234770507E+04  0.50400001928E-02 0. -1.
        1   -1    0    0  501    0  0.00000000000E+00  0.00000000000E+00 -0.16949528028E+04  0.16949528028E+04  0.50400001928E-02 0.  1.
    10030    2    1    2    0    0  0.00000000000E+00  0.00000000000E+00  0.12852424792E+03  0.35184298535E+04  0.35160816475E+04 0.  0.
        2    1    3    3  502    0 -0.12610250035E+04  0.79255554481E+03  0.99889831429E+03  0.17933561257E+04  0.25500000920E-02 0. -1.
       -2    1    3    3    0  502  0.12610250035E+04 -0.79255554481E+03 -0.87037406637E+03  0.17250737279E+04  0.25500000920E-02 0.  1.
</event>
<event>
 5   0  0.6324216E-07  0.3215749E+04  0.7818609E-02  0.8184670E-01
        2   -1    0    0  501    0  0.00000000000E+00  0.00000000000E+00  0.24389302823E+04  0.24389302823E+04  0.25500000920E-02 0. -1.
       -2   -1    0    0    0  501  0.00000000000E+00  0.00000000000E+00 -0.10599975217E+04  0.10599975217E+04  0.25500000920E-02 0.  1.
    10030    2    1    2    0    0  0.00000000000E+00  0.00000000000E+00  0.13789327606E+04  0.34989278041E+04  0.32157487806E+04 0.  0.
        2    1    3    3  502    0 -0.12044368480E+04  0.65109812339E+03 -0.22777739157E+03  0.13879767387E+04  0.25500000920E-02 0.  1.
       -2    1    3    3    0  502  0.12044368480E+04 -0.65109812339E+03  0.16067101522E+04  0.21109510653E+04  0.25500000920E-02 0. -1.
</event>
<event>
 5   0  0.2108068E-07  0.3608918E+04  0.7818609E-02  0.8088452E-01
        1   -1    0    0  501    0  0.00000000000E+00  0.00000000000E+00  0.21690786232E+04  0.21690786232E+04  0.50400001928E-02 0.  1.
       -1   -1    0    0    0  501  0.00000000000E+00  0.00000000000E+00 -0.15011314446E+04  0.15011314446E+04  0.50400001928E-02 0. -1.
    10030    2    1    2    0    0  0.00000000000E+00  0.00000000000E+00  0.66794717862E+03  0.36702100679E+04  0.36089179138E+04 0.  0.
        5    1    3    3  502    0 -0.13158523769E+04 -0.12341544217E+04  0.37263799795E+03  0.18421416292E+04  0.46999998093E+01 0.  1.
       -5    1    3    3    0  502  0.13158523769E+04  0.12341544217E+04  0.29530918067E+03  0.18280684387E+04  0.46999998093E+01 0. -1.
</event>
<event>
 5   0  0.6541476E-07  0.3602455E+04  0.7818609E-02  0.8089930E-01
        2   -1    0    0  501    0  0.00000000000E+00  0.00000000000E+00  0.21878731160E+04  0.21878731160E+04  0.25500000920E-02 0.  1.
       -2   -1    0    0    0  501  0.00000000000E+00  0.00000000000E+00 -0.14829106908E+04  0.14829106908E+04  0.25500000920E-02 0. -1.
    10030    2    1    2    0    0  0.00000000000E+00  0.00000000000E+00  0.70496242512E+03  0.36707838068E+04  0.36024549595E+04 0.  0.
        4    1    3    3  502    0 -0.60232300282E+03  0.65604572711E+03 -0.12428551480E+04  0.15290125989E+04  0.12699999809E+01 0. -1.
       -4    1    3    3    0  502  0.60232300282E+03 -0.65604572711E+03  0.19478175731E+04  0.21417712079E+04  0.12699999809E+01 0.  1.
</event>
<event>
 5   0  0.2193129E-07  0.3590905E+04  0.7818609E-02  0.8092578E-01
       -1   -1    0    0    0  501  0.00000000000E+00  0.00000000000E+00  0.14533297388E+04  0.14533297388E+04  0.50400001928E-02 0.  1.
        1   -1    0    0  501    0  0.00000000000E+00  0.00000000000E+00 -0.22181132531E+04  0.22181132531E+04  0.50400001928E-02 0. -1.
    10030    2    1    2    0    0  0.00000000000E+00  0.00000000000E+00 -0.76478351430E+03  0.36714429920E+04  0.35909051532E+04 0.  0.
        1    1    3    3  502    0  0.80726536051E+03  0.87093049877E+03 -0.17592396561E+04  0.21225271408E+04  0.50400001928E-02 0. -1.
       -1    1    3    3    0  502 -0.80726536051E+03 -0.87093049877E+03  0.99445614178E+03  0.15489158511E+04  0.50400001928E-02 0.  1.
</event>
<event>
 5   0  0.2108068E-07  0.3258790E+04  0.7818609E-02  0.8173461E-01
        1   -1    0    0  501    0  0.00000000000E+00  0.00000000000E+00  0.27277632609E+04  0.27277632609E+04  0.50400001928E-02 0. -1.
       -1   -1    0    0    0  501  0.00000000000E+00  0.00000000000E+00 -0.97329867913E+03  0.97329867914E+03  0.50400001928E-02 0.  1.
    10030    2    1    2    0    0  0.00000000000E+00  0.00000000000E+00  0.17544645818E+04  0.37010619401E+04  0.32587901920E+04 0.  0.
        5    1    3    3  502    0 -0.33369506722E+03  0.15910378456E+04  0.10024316593E+04  0.19098809245E+04  0.46999998093E+01 0. -1.
       -5    1    3    3    0  502  0.33369506722E+03 -0.15910378456E+04  0.75203292249E+03  0.17911810156E+04  0.46999998093E+01 0.  1.
</event>
<event>
 5   0  0.2193129E-07  0.3601650E+04  0.7818609E-02  0.8090114E-01
        1   -1    0    0  501    0  0.00000000000E+00  0.00000000000E+00  0.14197800154E+04  0.14197800154E+04  0.50400001928E-02 0.  1.
       -1   -1    0    0    0  501  0.00000000000E+00  0.00000000000E+00 -0.22841359514E+04  0.22841359514E+04  0.50400001928E-02 0. -1.
    10030    2    1    2    0    0  0.00000000000E+00  0.00000000000E+00 -0.86435593599E+03  0.37039159668E+04  0.36016499420E+04 0.  0.
        1    1    3    3  502    0  0.34196442966E+03 -0.17208531996E+04 -0.14828314775E+02  0.17545641296E+04  0.50400001928E-02 0.  1.
       -1    1    3    3    0  502 -0.34196442966E+03  0.17208531996E+04 -0.84952762122E+03  0.19493518372E+04  0.50400001928E-02 0. -1.
</event>
<event>
 5   0  0.6324216E-07  0.3588614E+04  0.7818609E-02  0.8093105E-01
        2   -1    0    0  501    0  0.00000000000E+00  0.00000000000E+00  0.21188538960E+04  0.21188538960E+04  0.25500000920E-02 0. -1.
       -2   -1    0    0    0  501  0.00000000000E+00  0.00000000000E+00 -0.15194708752E+04  0.15194708752E+04  0.25500000920E-02 0.  1.
    10030    2    1    2    0    0  0.00000000000E+00  0.00000000000E+00  0.59938302080E+03  0.36383247713E+04  0.35886135394E+04 0.  0.
        2    1    3    3  502    0  0.24070136892E+02 -0.30299507959E+02 -0.15190477727E+04  0.15195405778E+04  0.25500000920E-02 0.  1.
       -2    1    3    3    0  502 -0.24070136892E+02  0.30299507959E+02  0.21184307935E+04  0.21187841935E+04  0.25500000920E-02 0. -1.
</event>
<event>
 5   0  0.6729577E-07  0.3613078E+04  0.7818609E-02  0.8087502E-01
       -2   -1    0    0    0  501  0.00000000000E+00  0.00000000000E+00  0.12506379997E+04  0.12506379997E+04  0.25500000920E-02 0. -1.
        2   -1    0    0  501    0  0.00000000000E+00  0.00000000000E+00 -0.26095352808E+04  0.26095352808E+04  0.25500000920E-02 0.  1.
    10030    2    1    2    0    0  0.00000000000E+00  0.00000000000E+00 -0.13588972811E+04  0.38601732806E+04  0.36130784569E+04 0.  0.
        3    1    3    3  502    0 -0.17762579516E+04  0.32916622782E+03 -0.69214664244E+03  0.19345567195E+04  0.10100000352E+00 0. -1.
       -3    1    3    3    0  502  0.17762579516E+04 -0.32916622782E+03 -0.66675063864E+03  0.19256165611E+04  0.10100000352E+00 0.  1.
</event>
<event>
 5   0  0.2108068E-07  0.3676392E+04  0.7818609E-02  0.8073214E-01
        1   -1    0    0  501    0  0.00000000000E+00  0.00000000000E+00  0.23033894132E+04  0.23033894133E+04  0.50400001928E-02 0.  1.
       -1   -1    0    0    0  501  0.00000000000E+00  0.00000000000E+00 -0.14669530403E+04  0.14669530403E+04  0.50400001928E-02 0. -1.
    10030    2    1    2    0    0  0.00000000000E+00  0.00000000000E+00  0.83643637291E+03  0.37703424536E+04  0.36763917652E+04 0.  0.
        5    1    3    3  502    0 -0.14912747511E+04  0.11802890667E+03 -0.67730840295E+03  0.16421327500E+04  0.46999998093E+01 0. -1.
       -5    1    3    3    0  502  0.14912747511E+04 -0.11802890667E+03  0.15137447759E+04  0.21282097036E+04  0.46999998093E+01 0.  1.
</event>
<event>
 5   0  0.6669864E-07  0.3507156E+04  0.7818609E-02  0.8112096E-01
       -2   -1    0    0    0  501  0.00000000000E+00  0.00000000000E+00  0.14346091637E+04  0.14346091637E+04  0.25500000920E-02 0. -1.
        2   -1    0    0  501    0  0.00000000000E+00  0.00000000000E+00 -0.21434659314E+04  0.21434659314E+04  0.25500000920E-02 0.  1.
    10030    2    1    2    0    0  0.00000000000E+00  0.00000000000E+00 -0.70885676771E+03  0.35780750951E+04  0.35071560372E+04 0.  0.
        5    1    3    3  502    0  0.25288516311E+03 -0.24287503163E+03 -0.21073319554E+04  0.21363073859E+04  0.46999998093E+01 0.  1.
       -5    1    3    3    0  502 -0.25288516311E+03  0.24287503163E+03  0.13984751877E+04  0.14417677092E+04  0.46999998093E+01 0. -1.
</event>
<event>
 5   0  0.6669864E-07  0.3583150E+04  0.7818609E-02  0.8094362E-01
       -2   -1    0    0    0  501  0.00000000000E+00  0.00000000000E+00  0.24054507591E+04  0.24054507591E+04  0.25500000920E-02 0. -1.
        2   -1    0    0  501    0  0.00000000000E+00  0.00000000000E+00 -0.13343617478E+04  0.13343617478E+04  0.25500000920E-02 0.  1.
    10030    2    1    2    0    0  0.00000000000E+00  0.00000000000E+00  0.10710890113E+04  0.37398125069E+04  0.35831502783E+04 0.  0.
        5    1    3    3  502    0  0.43332828077E+03 -0.65618714748E+03 -0.11446093475E+04  0.13887071757E+04  0.46999998093E+01 0.  1.
       -5    1    3    3    0  502 -0.43332828077E+03  0.65618714748E+03  0.22156983588E+04  0.23511053312E+04  0.46999998093E+01 0. -1.
</event>
<event>
 5   0  0.6669864E-07  0.3622711E+04  0.7818609E-02  0.8085309E-01
        2   -1    0    0  501    0  0.00000000000E+00  0.00000000000E+00  0.20618841954E+04  0.20618841954E+04  0.25500000920E-02 0.  1.
       -2   -1    0    0    0  501  0.00000000000E+00  0.00000000000E+00 -0.15912673508E+04  0.15912673508E+04  0.25500000920E-02 0. -1.
    10030    2    1    2    0    0  0.00000000000E+00  0.00000000000E+00  0.47061684454E+03  0.36531515462E+04  0.36227111402E+04 0.  0.
        5    1    3    3  502    0  0.14798841007E+04 -0.10441235589E+04  0.26266483849E+03  0.18300999604E+04  0.46999998093E+01 0. -1.
       -5    1    3    3    0  502 -0.14798841007E+04  0.10441235589E+04  0.20795200605E+03  0.18230515858E+04  0.46999998093E+01 0.  1.
</event>
<event>
 5   0  0.2193129E-07  0.3587166E+04  0.7818609E-02  0.8093438E-01
        1   -1    0    0  501    0  0.00000000000E+00  0.00000000000E+00  0.15830138551E+04  0.15830138551E+04  0.50400001928E-02 0. -1.
       -1   -1    0    0    0  501  0.00000000000E+00  0.00000000000E+00 -0.20321613854E+04  0.20321613854E+04  0.50400001928E-02 0.  1.
    10030    2    1    2    0    0  0.00000000000E+00  0.00000000000E+00 -0.44914753030E+03  0.36151752404E+04  0.35871658053E+04 0.  0.
        1    1    3    3  502    0  0.12106925379E+04  0.88805130003E+03  0.76417194114E+03  0.16847463573E+04  0.50400001928E-02 0. -1.
       -1    1    3    3    0  502 -0.12106925379E+04 -0.88805130003E+03 -0.12133194714E+04  0.19304288831E+04  0.50400001928E-02 0.  1.
</event>
<event>
 5   0  0.6541476E-07  0.3451170E+04  0.7818609E-02  0.8125460E-01
       -2   -1    0    0    0  501  0.00000000000E+00  0.00000000000E+00  0.11435485068E+04  0.11435485068E+04  0.25500000920E-02 0. -1.
        2   -1    0    0  501    0  0.00000000000E+00  0.00000000000E+00 -0.26038635595E+04  0.26038635595E+04  0.25500000920E-02 0.  1.
    10030    2    1    2    0    0  0.00000000000E+00  0.00000000000E+00 -0.14603150527E+04  0.37474120663E+04  0.34511704016E+04 0.  0.
        4    1    3    3  502    0  0.11820990928E+04  0.10968078866E+04 -0.63186993154E+02  0.16137967698E+04  0.12699999809E+01 0. -1.
       -4    1    3    3    0  502 -0.11820990928E+04 -0.10968078866E+04 -0.13971280596E+04  0.21336152964E+04  0.12699999809E+01 0.  1.
</event>
<event>
 5   0  0.2193129E-07  0.3593035E+04  0.7818609E-02  0.8092089E-01
       -1   -1    0    0    0  501  0.00000000000E+00  0.00000000000E+00  0.15650559721E+04  0.15650559721E+04  0.50400001928E-02 0. -1.
        1   -1    0    0  501    0  0.00000000000E+00  0.00000000000E+00 -0.20622105802E+04  0.20622105802E+04  0.50400001928E-02 0.  1.
    10030    2    1    2    0    0  0.00000000000E+00  0.00000000000E+00 -0.49715460815E+03  0.36272665523E+04  0.35930349201E+04 0.  0.
        1    1    3    3  502    0  0.14011543982E+04  0.92967016196E+03 -0.88702224511E+03  0.19011387958E+04  0.50400001928E-02 0.  1.
       -1    1    3    3    0  502 -0.14011543982E+04 -0.92967016196E+03  0.38986763696E+03  0.17261277565E+04  0.50400001928E-02 0. -1.
</event>
<event>
 5   0  0.2086250E-07  0.3642684E+04  0.7818609E-02  0.8080784E-01
        1   -1    0    0  501    0  0.00000000000E+00  0.00000000000E+00  0.10381359335E+04  0.10381359335E+04  0.50400001928E-02 0. -1.
       -1   -1    0    0    0  501  0.00000000000E+00  0.00000000000E+00 -0.31954260022E+04  0.31954260022E+04  0.50400001928E-02 0.  1.
    10030    2    1    2    0    0  0.00000000000E+00  0.00000000000E+00 -0.21572900687E+04  0.42335619356E+04  0.36426839312E+04 0.  0.
        3    1    3    3  502    0 -0.36465443510E+02 -0.69138108031E+03  0.87923790714E+03  0.11191053723E+04  0.10100000352E+00 0. -1.
       -3    1    3    3    0  502  0.36465443510E+02  0.69138108031E+03 -0.30365279758E+04  0.31144565633E+04  0.10100000352E+00 0.  1.
</event>
<event>
 5   0  0.2086250E-07  0.3476708E+04  0.7818609E-02  0.8119332E-01
        1   -1    0    0  501    0  0.00000000000E+00  0.00000000000E+00  0.15934563485E+04  0.15934563485E+04  0.50400001928E-02 0. -1.
       -1   -1    0    0    0  501  0.00000000000E+00  0.00000000000E+00 -0.18964271675E+04  0.18964271675E+04  0.50400001928E-02 0.  1.
    10030    2    1    2    0    0  0.00000000000E+00  0.00000000000E+00 -0.30297081900E+03  0.34898835160E+04  0.34767075859E+04 0.  0.
        4    1    3    3  502    0 -0.50971708044E+01 -0.35612053181E+03 -0.18594107676E+04  0.18932136250E+04  0.12699999809E+01 0.  1.
       -4    1    3    3    0  502  0.50971708044E+01  0.35612053181E+03  0.15564399486E+04  0.15966698910E+04  0.12699999809E+01 0. -1.
</event>
<event>
 5   0  0.6541476E-07  0.3499242E+04  0.7818609E-02  0.8113970E-01
       -2   -1    0    0    0  501  0.00000000000E+00  0.00000000000E+00  0.17974052008E+04  0.17974052008E+04  0.25500000920E-02 0.  1.
        2   -1    0    0  501    0  0.00000000000E+00  0.00000000000E+00 -0.17031074273E+04  0.17031074273E+04  0.25500000920E-02 0. -1.
    10030    2    1    2    0    0  0.00000000000E+00  0.00000000000E+00  0.94297773486E+02  0.35005126280E+04  0.34992422878E+04 0.  0.
        4    1    3    3  502    0  0.13431940889E+04  0.40789265438E+03  0.10918583038E+04  0.17783989841E+04  0.12699999809E+01 0. -1.
       -4    1    3    3    0  502 -0.13431940889E+04 -0.40789265438E+03 -0.99756053034E+03  0.17221136439E+04  0.12699999809E+01 0.  1.
</event>
<event>
 5   0  0.2086250E-07  0.3473301E+04  0.7818609E-02  0.8120147E-01
        1   -1    0    0  501    0  0.00000000000E+00  0.00000000000E+00  0.20093203451E+04  0.20093203451E+04  0.50400001928E-02 0. -1.
       -1   -1    0    0    0  501  0.00000000000E+00  0.00000000000E+00 -0.15009825088E+04  0.15009825088E+04  0.50400001928E-02 0.  1.
    10030    2    1    2    0    0  0.00000000000E+00  0.00000000000E+00  0.50833783624E+03  0.35103028539E+04  0.34733008465E+04 0.  0.
        4    1    3    3  502    0 -0.81034114106E+03 -0.82127612904E+03 -0.10576597390E+04  0.15651814532E+04  0.12699999809E+01 0.  1.
       -4    1    3    3    0  502  0.81034114106E+03  0.82127612904E+03  0.15659975752E+04  0.19451214007E+04  0.12699999809E+01 0. -1.
</event>
<event>
 5   0  0.2086250E-07  0.3587559E+04  0.7818609E-02  0.8093347E-01
       -1   -1    0    0    0  501  0.00000000000E+00  0.00000000000E+00  0.12801333961E+04  0.12801333961E+04  0.50400001928E-02 0.  1.
        1   -1    0    0  501    0  0.00000000000E+00  0.00000000000E+00 -0.25135228762E+04  0.25135228762E+04  0.50400001928E-02 0. -1.
    10030    2    1    2    0    0  0.00000000000E+00  0.00000000000E+00 -0.12333894801E+04  0.37936562723E+04  0.35875588222E+04 0.  0.
        3    1    3    3  502    0  0.94211500298E+03  0.15262093645E+04 -0.64563217064E+03  0.19062362427E+04  0.10100000352E+00 0. -1.
       -3    1    3    3    0  502 -0.94211500298E+03 -0.15262093645E+04 -0.58775730944E+03  0.18874200296E+04  0.10100000352E+00 0.  1.
</event>
<event>
 5   0  0.6848661E-07  0.3619292E+04  0.7818609E-02  0.8086087E-01
        2   -1    0    0  501    0  0.00000000000E+00  0.00000000000E+00  0.19058672101E+04  0.19058672102E+04  0.25500000920E-02 0.  1.
       -2   -1    0    0    0  501  0.00000000000E+00  0.00000000000E+00 -0.17182824553E+04  0.17182824553E+04  0.25500000920E-02 0. -1.
    10030    2    1    2    0    0  0.00000000000E+00  0.00000000000E+00  0.18758475489E+03  0.36241496654E+04  0.36192917480E+04 0.  0.
        1    1    3    3  502    0 -0.16713343436E+04  0.67136566277E+03 -0.81736511673E+02  0.18029895171E+04  0.50400001928E-02 0.  1.
       -1    1    3    3    0  502  0.16713343436E+04 -0.67136566277E+03  0.26932126657E+03  0.18211601483E+04  0.50400001928E-02 0. -1.
</event>
<event>
 5   0  0.6669864E-07  0.3604478E+04  0.7818609E-02  0.8089467E-01
       -2   -1    0    0    0  501  0.00000000000E+00  0.00000000000E+00  0.23105733738E+04  0.23105733738E+04  0.25500000920E-02 0.  1.
        2   -1    0    0  501    0  0.00000000000E+00  0.00000000000E+00 -0.14057398943E+04  0.14057398943E+04  0.25500000920E-02 0. -1.
    10030    2    1    2    0    0  0.00000000000E+00  0.00000000000E+00  0.90483347952E+03  0.37163132682E+04  0.36044778653E+04 0.  0.
        5    1    3    3  502    0 -0.98368834903E+03  0.38892586025E+03 -0.10520124640E+04  0.14918640713E+04  0.46999998093E+01 0. -1.
       -5    1    3    3    0  502  0.98368834903E+03 -0.38892586025E+03  0.19568459435E+04  0.22244491969E+04  0.46999998093E+01 0.  1.
</event>
<event>
 5   0  0.2086250E-07  0.3576657E+04  0.7818609E-02  0.8095860E-01
        1   -1    0    0  501    0  0.00000000000E+00  0.00000000000E+00  0.22494375521E+04  0.22494375521E+04  0.50400001928E-02 0. -1.
       -1   -1    0    0    0  501  0.00000000000E+00  0.00000000000E+00 -0.14217416770E+04  0.14217416770E+04  0.50400001928E-02 0.  1.
    10030    2    1    2    0    0  0.00000000000E+00  0.00000000000E+00  0.82769587511E+03  0.36711792291E+04  0.35766571642E+04 0.  0.
        4    1    3    3  502    0 -0.10164682394E+04 -0.79723048399E+03 -0.85549613041E+03  0.15494061341E+04  0.12699999809E+01 0.  1.
       -4    1    3    3    0  502  0.10164682394E+04  0.79723048399E+03  0.16831920055E+04  0.21217730950E+04  0.12699999809E+01 0. -1.
</event>
<event>
 5   0  0.6541476E-07  0.3616753E+04  0.7818609E-02  0.8086665E-01
        2   -1    0    0  501    0  0.00000000000E+00  0.00000000000E+00  0.19678132245E+04  0.19678132245E+04  0.25500000920E-02 0.  1.
       -2   -1    0    0    0  501  0.00000000000E+00  0.00000000000E+00 -0.16618573700E+04  0.16618573700E+04  0.25500000920E-02 0. -1.
    10030    2    1    2    0    0  0.00000000000E+00  0.00000000000E+00  0.30595585445E+03  0.36296705946E+04  0.36167526374E+04 0.  0.
        4    1    3    3  502    0  0.15740726620E+04 -0.73322683249E+03  0.65965439877E+03  0.18575445814E+04  0.12699999809E+01 0. -1.
       -4    1    3    3    0  502 -0.15740726620E+04  0.73322683249E+03 -0.35369854432E+03  0.17721260131E+04  0.12699999809E+01 0.  1.
</event>
<event>
 5   0  0.6324216E-07  0.3602412E+04  0.7818609E-02  0.8089939E-01
        2   -1    0    0  501    0  0.00000000000E+00  0.00000000000E+00  0.20214781065E+04  0.20214781065E+04  0.25500000920E-02 0.  1.
       -2   -1    0    0    0  501  0.00000000000E+00  0.00000000000E+00 -0.16049361696E+04  0.16049361696E+04  0.25500000920E-02 0. -1.
    10030    2    1    2    0    0  0.00000000000E+00  0.00000000000E+00  0.41654193682E+03  0.36264142761E+04  0.36024121525E+04 0.  0.
        2    1    3    3  502    0  0.16742552943E+03 -0.17843456601E+04  0.38953341889E+03  0.18340275426E+04  0.25500000920E-02 0.  1.
       -2    1    3    3    0  502 -0.16742552943E+03  0.17843456601E+04  0.27008517923E+02  0.17923867335E+04  0.25500000920E-02 0. -1.
</event>
<event>
 5   0  0.2193129E-07  0.3520676E+04  0.7818609E-02  0.8108907E-01
       -1   -1    0    0    0  501  0.00000000000E+00  0.00000000000E+00  0.10120717291E+04  0.10120717291E+04  0.50400001928E-02 0. -1.
        1   -1    0    0  501    0  0.00000000000E+00  0.00000000000E+00 -0.30618291634E+04  0.30618291634E+04  0.50400001928E-02 0.  1.
    10030    2    1    2    0    0  0.00000000000E+00  0.00000000000E+00 -0.20497574343E+04  0.40739008925E+04  0.35206764893E+04 0.  0.
        1    1    3    3  502    0  0.19551448711E+03 -0.92448342442E+03 -0.27434865194E+04  0.29016570781E+04  0.50400001928E-02 0.  1.
       -1    1    3    3    0  502 -0.19551448711E+03  0.92448342442E+03  0.69372908512E+03  0.11722438143E+04  0.50400001928E-02 0. -1.
</event>
<event>
 5   0  0.6324216E-07  0.3565569E+04  0.7818609E-02  0.8098424E-01
       -2   -1    0    0    0  501  0.00000000000E+00  0.00000000000E+00  0.91497767676E+03  0.91497767676E+03  0.25500000920E-02 0. -1.
        2   -1    0    0  501    0  0.00000000000E+00  0.00000000000E+00 -0.34736582071E+04  0.34736582071E+04  0.25500000920E-02 0.  1.
    10030    2    1    2    0    0  0.00000000000E+00  0.00000000000E+00 -0.25586805304E+04  0.43886358839E+04  0.35655685192E+04 0.  0.
        2    1    3    3  502    0 -0.11330936039E+03 -0.13696779998E+04  0.11833148016E+03  0.13794416165E+04  0.25500000920E-02 0. -1.
       -2    1    3    3    0  502  0.11330936039E+03  0.13696779998E+04 -0.26770120105E+04  0.30091942674E+04  0.25500000920E-02 0.  1.
</event>
<event>
 5   0  0.2086250E-07  0.3277420E+04  0.7818609E-02  0.8168665E-01
        1   -1    0    0  501    0  0.00000000000E+00  0.00000000000E+00  0.11837006285E+04  0.11837006286E+04  0.50400001928E-02 0. -1.
       -1   -1    0    0    0  501  0.00000000000E+00  0.00000000000E+00 -0.22686224836E+04  0.22686224836E+04  0.50400001928E-02 0.  1.
    10030    2    1    2    0    0  0.00000000000E+00  0.00000000000E+00 -0.10849218550E+04  0.34523231121E+04  0.32774196312E+04 0.  0.
        2    1    3    3  502    0  0.13429653371E+04  0.58284085514E+03  0.23311316754E+03  0.14824308105E+04  0.25500000920E-02 0.  1.
       -2    1    3    3    0  502 -0.13429653371E+04 -0.58284085514E+03 -0.13180350225E+04  0.19698923016E+04  0.25500000920E-02 0. -1.
</event>
<event>
 5   0  0.2193129E-07  0.3601431E+04  0.7818609E-02  0.8090164E-01
        1   -1    0    0  501    0  0.00000000000E+00  0.00000000000E+00  0.21723915565E+04  0.21723915565E+04  0.50400001928E-02 0.  1.
       -1   -1    0    0    0  501  0.00000000000E+00  0.00000000000E+00 -0.14926297625E+04  0.14926297625E+04  0.50400001928E-02 0. -1.
    10030    2    1    2    0    0  0.00000000000E+00  0.00000000000E+00  0.67976179394E+03  0.36650213190E+04  0.36014309895E+04 0.  0.
        1    1    3    3  502    0  0.11653063934E+04 -0.25241724579E+03 -0.10333614241E+04  0.15778115507E+04  0.50400001928E-02 0. -1.
       -1    1    3    3    0  502 -0.11653063934E+04  0.25241724579E+03  0.17131232181E+04  0.20872097683E+04  0.50400001928E-02 0.  1.
</event>
<event>
 5   0  0.6848661E-07  0.3594817E+04  0.7818609E-02  0.8091680E-01
       -2   -1    0    0    0  501  0.00000000000E+00  0.00000000000E+00  0.13375903172E+04  0.13375903172E+04  0.25500000920E-02 0.  1.
        2   -1    0    0  501    0  0.00000000000E+00  0.00000000000E+00 -0.24152963872E+04  0.24152963872E+04  0.25500000920E-02 0. -1.
    10030    2    1    2    0    0  0.00000000000E+00  0.00000000000E+00 -0.10777060700E+04  0.37528867044E+04  0.35948168580E+04 0.  0.
        1    1    3    3  502    0 -0.52474447485E+03  0.60644935492E+03 -0.22181680698E+04  0.23586875948E+04  0.50400001928E-02 0. -1.
       -1    1    3    3    0  502  0.52474447485E+03 -0.60644935492E+03  0.11404619998E+04  0.13941991095E+04  0.50400001928E-02 0.  1.
</event>
<event>
 5   0  0.6324216E-07  0.3583375E+04  0.7818609E-02  0.8094310E-01
       -2   -1    0    0    0  501  0.00000000000E+00  0.00000000000E+00  0.18109248029E+04  0.18109248029E+04  0.25500000920E-02 0. -1.
        2   -1    0    0  501    0  0.00000000000E+00  0.00000000000E+00 -0.17726549387E+04  0.17726549387E+04  0.25500000920E-02 0.  1.
    10030    2    1    2    0    0  0.00000000000E+00  0.00000000000E+00  0.38269864258E+02  0.35835797416E+04  0.35833753895E+04 0.  0.
        2    1    3    3  502    0  0.24756013861E+03 -0.16032142846E+04  0.77981142135E+03  0.17999133083E+04  0.25500000920E-02 0. -1.
       -2    1    3    3    0  502 -0.24756013861E+03  0.16032142846E+04 -0.74154155709E+03  0.17836664333E+04  0.25500000920E-02 0.  1.
</event>
<event>
 5   0  0.2193129E-07  0.3667361E+04  0.7818609E-02  0.8075234E-01
        1   -1    0    0  501    0  0.00000000000E+00  0.00000000000E+00  0.21413869609E+04  0.21413869609E+04  0.50400001928E-02 0.  1.
       -1   -1    0    0    0  501  0.00000000000E+00  0.00000000000E+00 -0.15701899162E+04  0.15701899162E+04  0.50400001928E-02 0. -1.
    10030    2    1    2    0    0  0.00000000000E+00  0.00000000000E+00  0.57119704474E+03  0.37115768771E+04  0.36673610199E+04 0.  0.
        1    1    3    3  502    0  0.56521669618E+03 -0.85367764949E+03  0.18251720442E+04  0.20927227322E+04  0.50400001928E-02 0.  1.
       -1    1    3    3    0  502 -0.56521669618E+03  0.85367764949E+03 -0.12539749995E+04  0.16188541448E+04  0.50400001928E-02 0. -1.
</event>
<event>
 5   0  0.2086250E-07  0.3105294E+04  0.7818609E-02  0.8214287E-01
        1   -1    0    0  501    0  0.00000000000E+00  0.00000000000E+00  0.19429954154E+04  0.19429954154E+04  0.50400001928E-02 0.  1.
       -1   -1    0    0    0  501  0.00000000000E+00  0.00000000000E+00 -0.12407196362E+04  0.12407196362E+04  0.50400001928E-02 0. -1.
    10030    2    1    2    0    0  0.00000000000E+00  0.00000000000E+00  0.70227577916E+03  0.31837150516E+04  0.31052939088E+04 0.  0.
        2    1    3    3  502    0  0.12646805649E+04 -0.72992581966E+03 -0.18992424857E+03  0.14725080148E+04  0.25500000920E-02 0.  1.
       -2    1    3    3    0  502 -0.12646805649E+04  0.72992581966E+03  0.89220002773E+03  0.17112070368E+04  0.25500000920E-02 0. -1.
</event>
<event>
 5   0  0.6848661E-07  0.3582511E+04  0.7818609E-02  0.8094509E-01
       -2   -1    0    0    0  501  0.00000000000E+00  0.00000000000E+00  0.11907746554E+04  0.11907746554E+04  0.25500000920E-02 0. -1.
        2   -1    0    0  501    0  0.00000000000E+00  0.00000000000E+00 -0.26945455806E+04  0.26945455806E+04  0.25500000920E-02 0.  1.
    10030    2    1    2    0    0  0.00000000000E+00  0.00000000000E+00 -0.15037709253E+04  0.38853202360E+04  0.35825111780E+04 0.  0.
        1    1    3    3  502    0 -0.10107603783E+04 -0.61925887940E+03 -0.22083326746E+04  0.25063621653E+04  0.50400001928E-02 0.  1.
       -1    1    3    3    0  502  0.10107603783E+04  0.61925887940E+03  0.70456174933E+03  0.13789580707E+04  0.50400001928E-02 0. -1.
</event>
<event>
 5   0  0.2086250E-07  0.3560535E+04  0.7818609E-02  0.8099592E-01
       -1   -1    0    0    0  501  0.00000000000E+00  0.00000000000E+00  0.12703462181E+04  0.12703462182E+04  0.50400001928E-02 0.  1.
        1   -1    0    0  501    0  0.00000000000E+00  0.00000000000E+00 -0.24948732541E+04  0.24948732541E+04  0.50400001928E-02 0. -1.
    10030    2    1    2    0    0  0.00000000000E+00  0.00000000000E+00 -0.12245270359E+04  0.37652194723E+04  0.35605352424E+04 0.  0.
        2    1    3    3  502    0  0.17521121710E+04  0.25910334367E+03 -0.42214748255E+03  0.18207800800E+04  0.25500000920E-02 0.  1.
       -2    1    3    3    0  502 -0.17521121710E+04 -0.25910334367E+03 -0.80237955339E+03  0.19444393923E+04  0.25500000920E-02 0. -1.
</event>
<event>
 5   0  0.2086250E-07  0.3610627E+04  0.7818609E-02  0.8088062E-01
       -1   -1    0    0    0  501  0.00000000000E+00  0.00000000000E+00  0.13523763363E+04  0.13523763363E+04  0.50400001928E-02 0. -1.
        1   -1    0    0  501    0  0.00000000000E+00  0.00000000000E+00 -0.24099486464E+04  0.24099486464E+04  0.50400001928E-02 0.  1.
    10030    2    1    2    0    0  0.00000000000E+00  0.00000000000E+00 -0.10575723101E+04  0.37623249827E+04  0.36106273810E+04 0.  0.
        3    1    3    3  502    0  0.10389496709E+04 -0.12324024638E+04  0.31834335371E+03  0.16430382688E+04  0.10100000352E+00 0. -1.
       -3    1    3    3    0  502 -0.10389496709E+04  0.12324024638E+04 -0.13759156638E+04  0.21192867139E+04  0.10100000352E+00 0.  1.
</event>
<event>
 5   0  0.6541476E-07  0.3612384E+04  0.7818609E-02  0.8087661E-01
       -2   -1    0    0    0  501  0.00000000000E+00  0.00000000000E+00  0.22466177077E+04  0.22466177077E+04  0.25500000920E-02 0.  1.
        2   -1    0    0  501    0  0.00000000000E+00  0.00000000000E+00 -0.14521074575E+04  0.14521074575E+04  0.25500000920E-02 0. -1.
    10030    2    1    2    0    0  0.00000000000E+00  0.00000000000E+00  0.79451025023E+03  0.36987251652E+04  0.36123844356E+04 0.  0.
        4    1    3    3  502    0  0.27023119540E+03  0.46151638002E+03 -0.13691768693E+04  0.14699214879E+04  0.12699999809E+01 0. -1.
       -4    1    3    3    0  502 -0.27023119540E+03 -0.46151638002E+03  0.21636871196E+04  0.22288036774E+04  0.12699999809E+01 0.  1.
</event>
<event>
 5   0  0.6541476E-07  0.3592483E+04  0.7818609E-02  0.8092216E-01
       -2   -1    0    0    0  501  0.00000000000E+00  0.00000000000E+00  0.13492452461E+04  0.13492452461E+04  0.25500000920E-02 0. -1.
        2   -1    0    0  501    0  0.00000000000E+00  0.00000000000E+00 -0.23913248326E+04  0.23913248326E+04  0.25500000920E-02 0.  1.
    10030    2    1    2    0    0  0.00000000000E+00  0.00000000000E+00 -0.10420795866E+04  0.37405700787E+04  0.35924830757E+04 0.  0.
        4    1    3    3  502    0 -0.55935086794E+03  0.10730408999E+04 -0.19032358925E+04  0.22553488957E+04  0.12699999809E+01 0.  1.
       -4    1    3    3    0  502  0.55935086794E+03 -0.10730408999E+04  0.86115630590E+03  0.14852211830E+04  0.12699999809E+01 0. -1.
</event>
<event>
 5   0  0.6541476E-07  0.3509642E+04  0.7818609E-02  0.8111509E-01
       -2   -1    0    0    0  501  0.00000000000E+00  0.00000000000E+00  0.15526586813E+04  0.15526586813E+04  0.25500000920E-02 0.  1.
        2   -1    0    0  501    0  0.00000000000E+00  0.00000000000E+00 -0.19833052774E+04  0.19833052774E+04  0.25500000920E-02 0. -1.
    10030    2    1    2    0    0  0.00000000000E+00  0.00000000000E+00 -0.43064659605E+03  0.35359639587E+04  0.35096416664E+04 0.  0.
        4    1    3    3  502    0 -0.11432154143E+04  0.86694580897E+03 -0.12332762962E+04  0.18919589199E+04  0.12699999809E+01 0. -1.
       -4    1    3    3    0  502  0.11432154143E+04 -0.86694580897E+03  0.80262970011E+03  0.16440050388E+04  0.12699999809E+01 0.  1.
</event>
<event>
 5   0  0.6729577E-07  0.3598669E+04  0.7818609E-02  0.8090797E-01
       -2   -1    0    0    0  501  0.00000000000E+00  0.00000000000E+00  0.20012128205E+04  0.20012128205E+04  0.25500000920E-02 0. -1.
        2   -1    0    0  501    0  0.00000000000E+00  0.00000000000E+00 -0.16178214906E+04  0.16178214907E+04  0.25500000920E-02 0.  1.
    10030    2    1    2    0    0  0.00000000000E+00  0.00000000000E+00  0.38339132988E+03  0.36190343112E+04  0.35986692587E+04 0.  0.
        3    1    3    3  502    0 -0.29527386746E+03 -0.89045319372E+03  0.17358036941E+04  0.19730960498E+04  0.10100000352E+00 0. -1.
       -3    1    3    3    0  502  0.29527386746E+03  0.89045319372E+03 -0.13524123643E+04  0.16459382614E+04  0.10100000352E+00 0.  1.
</event>
<event>
 5   0  0.2193129E-07  0.3532030E+04  0.7818609E-02  0.8106241E-01
        1   -1    0    0  501    0  0.00000000000E+00  0.00000000000E+00  0.10725384985E+04  0.10725384985E+04  0.50400001928E-02 0.  1.
       -1   -1    0    0    0  501  0.00000000000E+00  0.00000000000E+00 -0.29078764759E+04  0.29078764759E+04  0.50400001928E-02 0. -1.
    10030    2    1    2    0    0  0.00000000000E+00  0.00000000000E+00 -0.18353379774E+04  0.39804149744E+04  0.35320302769E+04 0.  0.
        1    1    3    3  502    0 -0.10484767830E+04  0.13504742139E+04 -0.41909752227E+03  0.17603201130E+04  0.50400001928E-02 0.  1.
       -1    1    3    3    0  502  0.10484767830E+04 -0.13504742139E+04 -0.14162404552E+04  0.22200948615E+04  0.50400001928E-02 0. -1.
</event>
<event>
 5   0  0.6324216E-07  0.3617762E+04  0.7818609E-02  0.8086435E-01
       -2   -1    0    0    0  501  0.00000000000E+00  0.00000000000E+00  0.11439640160E+04  0.11439640161E+04  0.25500000920E-02 0.  1.
        2   -1    0    0  501    0  0.00000000000E+00  0.00000000000E+00 -0.28602737220E+04  0.28602737220E+04  0.25500000920E-02 0. -1.
    10030    2    1    2    0    0  0.00000000000E+00  0.00000000000E+00 -0.17163097060E+04  0.40042377381E+04  0.36177618573E+04 0.  0.
        2    1    3    3  502    0  0.37610324776E+03  0.34355010768E+03 -0.27792480934E+04  0.28255442474E+04  0.25500000920E-02 0. -1.
       -2    1    3    3    0  502 -0.37610324776E+03 -0.34355010768E+03  0.10629383874E+04  0.11786934907E+04  0.25500000920E-02 0.  1.
</event>
<event>
 5   0  0.6848661E-07  0.3567595E+04  0.7818609E-02  0.8097955E-01
       -2   -1    0    0    0  501  0.00000000000E+00  0.00000000000E+00  0.14272719966E+04  0.14272719966E+04  0.25500000920E-02 0. -1.
        2   -1    0    0  501    0  0.00000000000E+00  0.00000000000E+00 -0.22293817595E+04  0.22293817595E+04  0.25500000920E-02 0.  1.
    10030    2    1    2    0    0  0.00000000000E+00  0.00000000000E+00 -0.80210976290E+03  0.36566537561E+04  0.35675953555E+04 0.  0.
        1    1    3    3  502    0  0.56350685585E+03 -0.13023291242E+04 -0.15089319602E+04  0.20713466115E+04  0.50400001928E-02 0.  1.
       -1    1    3    3    0  502 -0.56350685585E+03  0.13023291242E+04  0.70682219730E+03  0.15853071446E+04  0.50400001928E-02 0. -1.
</event>
<event>
 5   0  0.2086250E-07  0.3519475E+04  0.7818609E-02  0.8109190E-01
       -1   -1    0    0    0  501  0.00000000000E+00  0.00000000000E+00  0.15225287479E+04  0.15225287479E+04  0.50400001928E-02 0.  1.
        1   -1    0    0  501    0  0.00000000000E+00  0.00000000000E+00 -0.20339031732E+04  0.20339031732E+04  0.50400001928E-02 0. -1.
    10030    2    1    2    0    0  0.00000000000E+00  0.00000000000E+00 -0.51137442533E+03  0.35564319211E+04  0.35194749902E+04 0.  0.
        2    1    3    3  502    0  0.14840101963E+04  0.41420627705E+03  0.60343032089E+03  0.16546846391E+04  0.25500000920E-02 0. -1.
       -2    1    3    3    0  502 -0.14840101963E+04 -0.41420627705E+03 -0.11148047462E+04  0.19017472821E+04  0.25500000920E-02 0.  1.
</event>
<event>
 5   0  0.2086250E-07  0.3610520E+04  0.7818609E-02  0.8088086E-01
        1   -1    0    0  501    0  0.00000000000E+00  0.00000000000E+00  0.20664800930E+04  0.20664800930E+04  0.50400001928E-02 0. -1.
       -1   -1    0    0    0  501  0.00000000000E+00  0.00000000000E+00 -0.15770601063E+04  0.15770601063E+04  0.50400001928E-02 0.  1.
    10030    2    1    2    0    0  0.00000000000E+00  0.00000000000E+00  0.48941998669E+03  0.36435401993E+04  0.36105198047E+04 0.  0.
        2    1    3    3  502    0  0.78607899167E+03  0.18625019320E+03  0.18738954887E+04  0.20406110894E+04  0.25500000920E-02 0. -1.
       -2    1    3    3    0  502 -0.78607899167E+03 -0.18625019320E+03 -0.13844755020E+04  0.16029291099E+04  0.25500000920E-02 0.  1.
</event>
<event>
 5   0  0.6541476E-07  0.3643324E+04  0.7818609E-02  0.8080639E-01
        2   -1    0    0  501    0  0.00000000000E+00  0.00000000000E+00  0.20272040154E+04  0.20272040154E+04  0.25500000920E-02 0.  1.
       -2   -1    0    0    0  501  0.00000000000E+00  0.00000000000E+00 -0.16369601982E+04  0.16369601982E+04  0.25500000920E-02 0. -1.
    10030    2    1    2    0    0  0.00000000000E+00  0.00000000000E+00  0.39024381723E+03  0.36641642136E+04  0.36433239146E+04 0.  0.
        4    1    3    3  502    0  0.70958954870E+03  0.16698491594E+04  0.31287873309E+02  0.18146333202E+04  0.12699999809E+01 0. -1.
       -4    1    3    3    0  502 -0.70958954870E+03 -0.16698491594E+04  0.35895594392E+03  0.18495308934E+04  0.12699999809E+01 0.  1.
</event>
<event>
 5   0  0.6541476E-07  0.3597969E+04  0.7818609E-02  0.8090957E-01
       -2   -1    0    0    0  501  0.00000000000E+00  0.00000000000E+00  0.14004027446E+04  0.14004027446E+04  0.25500000920E-02 0.  1.
        2   -1    0    0  501    0  0.00000000000E+00  0.00000000000E+00 -0.23110107446E+04  0.23110107446E+04  0.25500000920E-02 0. -1.
    10030    2    1    2    0    0  0.00000000000E+00  0.00000000000E+00 -0.91060800002E+03  0.37114134893E+04  0.35979693104E+04 0.  0.
        4    1    3    3  502    0 -0.41611696246E+03  0.10012270674E+04 -0.19360923297E+04  0.22190232286E+04  0.12699999809E+01 0. -1.
       -4    1    3    3    0  502  0.41611696246E+03 -0.10012270674E+04  0.10254843297E+04  0.14923902607E+04  0.12699999809E+01 0.  1.
</event>
<event>
 5   0  0.6541476E-07  0.3662018E+04  0.7818609E-02  0.8076432E-01
        2   -1    0    0  501    0  0.00000000000E+00  0.00000000000E+00  0.26448301505E+04  0.26448301505E+04  0.25500000920E-02 0.  1.
       -2   -1    0    0    0  501  0.00000000000E+00  0.00000000000E+00 -0.12676030108E+04  0.12676030108E+04  0.25500000920E-02 0. -1.
    10030    2    1    2    0    0  0.00000000000E+00  0.00000000000E+00  0.13772271397E+04  0.39124331613E+04  0.36620183844E+04 0.  0.
        4    1    3    3  502    0  0.24408361150E+03 -0.67565019822E+03  0.24879766446E+04  0.25896156851E+04  0.12699999809E+01 0.  1.
       -4    1    3    3    0  502 -0.24408361150E+03  0.67565019822E+03 -0.11107495049E+04  0.13228174762E+04  0.12699999809E+01 0. -1.
</event>
<event>
 5   0  0.2086250E-07  0.3605958E+04  0.7818609E-02  0.8089128E-01
        1   -1    0    0  501    0  0.00000000000E+00  0.00000000000E+00  0.23975968612E+04  0.23975968612E+04  0.50400001928E-02 0.  1.
       -1   -1    0    0    0  501  0.00000000000E+00  0.00000000000E+00 -0.13558298721E+04  0.13558298721E+04  0.50400001928E-02 0. -1.
    10030    2    1    2    0    0  0.00000000000E+00  0.00000000000E+00  0.10417669890E+04  0.37534267333E+04  0.36059580950E+04 0.  0.
        3    1    3    3  502    0 -0.96111036869E+03 -0.14372556525E+04  0.10529599606E+04  0.20243916717E+04  0.10100000352E+00 0.  1.
       -3    1    3    3    0  502  0.96111036869E+03  0.14372556525E+04 -0.11192971578E+02  0.17290350616E+04  0.10100000352E+00 0. -1.
</event>
<event>
 5   0  0.2108068E-07  0.3567210E+04  0.7818609E-02  0.8098044E-01
        1   -1    0    0  501    0  0.00000000000E+00  0.00000000000E+00  0.24356995023E+04  0.24356995023E+04  0.50400001928E-02 0. -1.
       -1   -1    0    0    0  501  0.00000000000E+00  0.00000000000E+00 -0.13060918451E+04  0.13060918451E+04  0.50400001928E-02 0.  1.
    10030    2    1    2    0    0  0.00000000000E+00  0.00000000000E+00  0.11296076573E+04  0.37417913474E+04  0.35672102585E+04 0.  0.
        5    1    3    3  502    0 -0.80694789553E+03  0.15470264360E+04  0.17688091279E+03  0.17537858043E+04  0.46999998093E+01 0.  1.
       -5    1    3    3    0  502  0.80694789553E+03 -0.15470264360E+04  0.95272674449E+03  0.19880055431E+04  0.46999998093E+01 0. -1.
</event>
<event>
 5   0  0.6324216E-07  0.3569161E+04  0.7818609E-02  0.8097592E-01
        2   -1    0    0  501    0  0.00000000000E+00  0.00000000000E+00  0.15858974651E+04  0.15858974651E+04  0.25500000920E-02 0. -1.
       -2   -1    0    0    0  501  0.00000000000E+00  0.00000000000E+00 -0.20081547516E+04  0.20081547516E+04  0.25500000920E-02 0.  1.
    10030    2    1    2    0    0  0.00000000000E+00  0.00000000000E+00 -0.42225728648E+03  0.35940522167E+04  0.35691609827E+04 0.  0.
        2    1    3    3  502    0  0.34526620451E+02  0.17791908760E+04 -0.34628566868E+03  0.18129054099E+04  0.25500000920E-02 0.  1.
       -2    1    3    3    0  502 -0.34526620451E+02 -0.17791908760E+04 -0.75971617801E+02  0.17811468069E+04  0.25500000920E-02 0. -1.
</event>
<event>
 5   0  0.2086250E-07  0.3597566E+04  0.7818609E-02  0.8091049E-01
        1   -1    0    0  501    0  0.00000000000E+00  0.00000000000E+00  0.32120910757E+04  0.32120910757E+04  0.50400001928E-02 0.  1.
       -1   -1    0    0    0  501  0.00000000000E+00  0.00000000000E+00 -0.10073252002E+04  0.10073252002E+04  0.50400001928E-02 0. -1.
    10030    2    1    2    0    0  0.00000000000E+00  0.00000000000E+00  0.22047658755E+04  0.42194162759E+04  0.35975660027E+04 0.  0.
        2    1    3    3  502    0 -0.96221167173E+03 -0.15143276213E+04  0.12534072500E+04  0.21886226674E+04  0.25500000920E-02 0. -1.
       -2    1    3    3    0  502  0.96221167173E+03  0.15143276213E+04  0.95135862553E+03  0.20307936085E+04  0.25500000920E-02 0.  1.
</event>
<event>
 5   0  0.2086250E-07  0.3595649E+04  0.7818609E-02  0.8091489E-01
       -1   -1    0    0    0  501  0.00000000000E+00  0.00000000000E+00  0.14161007073E+04  0.14161007073E+04  0.50400001928E-02 0. -1.
        1   -1    0    0  501    0  0.00000000000E+00  0.00000000000E+00 -0.22824453602E+04  0.22824453602E+04  0.50400001928E-02 0.  1.
    10030    2    1    2    0    0  0.00000000000E+00  0.00000000000E+00 -0.86634465287E+03  0.36985460675E+04  0.35956487531E+04 0.  0.
        2    1    3    3  502    0 -0.76726084648E+03 -0.14398058071E+04 -0.12100626587E+04  0.20312512416E+04  0.25500000920E-02 0.  1.
       -2    1    3    3    0  502  0.76726084648E+03  0.14398058071E+04  0.34371800578E+03  0.16672948259E+04  0.25500000920E-02 0. -1.
</event>
<event>
 5   0  0.2193129E-07  0.3622525E+04  0.7818609E-02  0.8085352E-01
       -1   -1    0    0    0  501  0.00000000000E+00  0.00000000000E+00  0.21996315712E+04  0.21996315712E+04  0.50400001928E-02 0.  1.
        1   -1    0    0  501    0  0.00000000000E+00  0.00000000000E+00 -0.14914641599E+04  0.14914641599E+04  0.50400001928E-02 0. -1.
    10030    2    1    2    0    0  0.00000000000E+00  0.00000000000E+00  0.70816741124E+03  0.36910957311E+04  0.36225248948E+04 0.  0.
        1    1    3    3  502    0  0.21742047048E+03 -0.12051903432E+04 -0.10056869858E+04  0.15846645505E+04  0.50400001928E-02 0. -1.
       -1    1    3    3    0  502 -0.21742047048E+03  0.12051903432E+04  0.17138543970E+04  0.21064311806E+04  0.50400001928E-02 0.  1.
</event>
<event>
 5   0  0.6324216E-07  0.3590437E+04  0.7818609E-02  0.8092686E-01
       -2   -1    0    0    0  501  0.00000000000E+00  0.00000000000E+00  0.13973116621E+04  0.13973116621E+04  0.25500000920E-02 0.  1.
        2   -1    0    0  501    0  0.00000000000E+00  0.00000000000E+00 -0.23064351753E+04  0.23064351753E+04  0.25500000920E-02 0. -1.
    10030    2    1    2    0    0  0.00000000000E+00  0.00000000000E+00 -0.90912351324E+03  0.37037468374E+04  0.35904366132E+04 0.  0.
        2    1    3    3  502    0  0.16262052303E+04 -0.13252331211E+03 -0.12269940579E+04  0.20414750298E+04  0.25500000920E-02 0.  1.
       -2    1    3    3    0  502 -0.16262052303E+04  0.13252331211E+03  0.31787054465E+03  0.16622718076E+04  0.25500000920E-02 0. -1.
</event>
<event>
 5   0  0.6541476E-07  0.3643131E+04  0.7818609E-02  0.8080683E-01
        2   -1    0    0  501    0  0.00000000000E+00  0.00000000000E+00  0.17329460050E+04  0.17329460050E+04  0.25500000920E-02 0. -1.
       -2   -1    0    0    0  501  0.00000000000E+00  0.00000000000E+00 -0.19147172388E+04  0.19147172388E+04  0.25500000920E-02 0.  1.
    10030    2    1    2    0    0  0.00000000000E+00  0.00000000000E+00 -0.18177123378E+03  0.36476632438E+04  0.36431313947E+04 0.  0.
        4    1    3    3  502    0  0.66172293094E+03 -0.10624594253E+04 -0.14159375822E+04  0.18898619308E+04  0.12699999809E+01 0.  1.
       -4    1    3    3    0  502 -0.66172293094E+03  0.10624594253E+04  0.12341663484E+04  0.17578013131E+04  0.12699999809E+01 0. -1.
</event>
<event>
 5   0  0.2086250E-07  0.3526022E+04  0.7818609E-02  0.8107651E-01
       -1   -1    0    0    0  501  0.00000000000E+00  0.00000000000E+00  0.13404595405E+04  0.13404595406E+04  0.50400001928E-02 0. -1.
        1   -1    0    0  501    0  0.00000000000E+00  0.00000000000E+00 -0.23187631801E+04  0.23187631801E+04  0.50400001928E-02 0.  1.
    10030    2    1    2    0    0  0.00000000000E+00  0.00000000000E+00 -0.97830363959E+03  0.36592227207E+04  0.35260222501E+04 0.  0.
        3    1    3    3  502    0 -0.11576779193E+03 -0.78186216264E+03  0.11462921401E+04  0.13923707493E+04  0.10100000352E+00 0. -1.
       -3    1    3    3    0  502  0.11576779193E+03  0.78186216264E+03 -0.21245957796E+04  0.22668519714E+04  0.10100000352E+00 0.  1.
</event>
<event>
 5   0  0.6848661E-07  0.3545475E+04  0.7818609E-02  0.8103097E-01
        2   -1    0    0  501    0  0.00000000000E+00  0.00000000000E+00  0.16129727262E+04  0.16129727262E+04  0.25500000920E-02 0. -1.
       -2   -1    0    0    0  501  0.00000000000E+00  0.00000000000E+00 -0.19483269521E+04  0.19483269521E+04  0.25500000920E-02 0.  1.
    10030    2    1    2    0    0  0.00000000000E+00  0.00000000000E+00 -0.33535422597E+03  0.35612996783E+04  0.35454749952E+04 0.  0.
        1    1    3    3  502    0 -0.41417594508E+03  0.14025476978E+04 -0.11741055162E+04  0.18754214250E+04  0.50400001928E-02 0.  1.
       -1    1    3    3    0  502  0.41417594508E+03 -0.14025476978E+04  0.83875129026E+03  0.16858782533E+04  0.50400001928E-02 0. -1.
</event>
<event>
 5   0  0.2086250E-07  0.3565663E+04  0.7818609E-02  0.8098402E-01
        1   -1    0    0  501    0  0.00000000000E+00  0.00000000000E+00  0.18011622235E+04  0.18011622236E+04  0.50400001928E-02 0.  1.
       -1   -1    0    0    0  501  0.00000000000E+00  0.00000000000E+00 -0.17646876978E+04  0.17646876978E+04  0.50400001928E-02 0. -1.
    10030    2    1    2    0    0  0.00000000000E+00  0.00000000000E+00  0.36474525719E+02  0.35658499214E+04  0.35656633704E+04 0.  0.
        2    1    3    3  502    0 -0.14566241504E+04  0.49495192502E+03  0.91926025728E+03  0.17921413851E+04  0.25500000920E-02 0.  1.
       -2    1    3    3    0  502  0.14566241504E+04 -0.49495192502E+03 -0.88278573156E+03  0.17737085363E+04  0.25500000920E-02 0. -1.
</event>
<event>
 5   0  0.2193129E-07  0.3606733E+04  0.7818609E-02  0.8088951E-01
        1   -1    0    0  501    0  0.00000000000E+00  0.00000000000E+00  0.26055455807E+04  0.26055455807E+04  0.50400001928E-02 0.  1.
       -1   -1    0    0    0  501  0.00000000000E+00  0.00000000000E+00 -0.12481572830E+04  0.12481572830E+04  0.50400001928E-02 0. -1.
    10030    2    1    2    0    0  0.00000000000E+00  0.00000000000E+00  0.13573882977E+04  0.38537028637E+04  0.36067329776E+04 0.  0.
        1    1    3    3  502    0  0.12256739581E+04  0.12087583785E+04  0.12528511485E+04  0.21290865340E+04  0.50400001928E-02 0.  1.
       -1    1    3    3    0  502 -0.12256739581E+04 -0.12087583785E+04  0.10453714921E+03  0.17246163297E+04  0.50400001928E-02 0. -1.
</event>
<event>
 5   0  0.2086250E-07  0.3305351E+04  0.7818609E-02  0.8161535E-01
        1   -1    0    0  501    0  0.00000000000E+00  0.00000000000E+00  0.23339800633E+04  0.23339800633E+04  0.50400001928E-02 0.  1.
       -1   -1    0    0    0  501  0.00000000000E+00  0.00000000000E+00 -0.11702480347E+04  0.11702480347E+04  0.50400001928E-02 0. -1.
    10030    2    1    2    0    0  0.00000000000E+00  0.00000000000E+00  0.11637320285E+04  0.35042280980E+04  0.33053505606E+04 0.  0.
        3    1    3    3  502    0 -0.10861772188E+04 -0.24988650693E+01  0.19024240776E+04  0.21906630449E+04  0.10100000352E+00 0.  1.
       -3    1    3    3    0  502  0.10861772188E+04  0.24988650693E+01 -0.73869204907E+03  0.13135650531E+04  0.10100000352E+00 0. -1.
</event>
<event>
 5   0  0.2193129E-07  0.3538899E+04  0.7818609E-02  0.8104633E-01
        1   -1    0    0  501    0  0.00000000000E+00  0.00000000000E+00  0.11973727419E+04  0.11973727419E+04  0.50400001928E-02 0. -1.
       -1   -1    0    0    0  501  0.00000000000E+00  0.00000000000E+00 -0.26148518859E+04  0.26148518859E+04  0.50400001928E-02 0.  1.
    10030    2    1    2    0    0  0.00000000000E+00  0.00000000000E+00 -0.14174791439E+04  0.38122246278E+04  0.35388994743E+04 0.  0.
        1    1    3    3  502    0  0.15246963977E+04 -0.58354000361E+03 -0.14438953633E+04  0.21794613695E+04  0.50400001928E-02 0.  1.
       -1    1    3    3    0  502 -0.15246963977E+04  0.58354000361E+03  0.26416219341E+02  0.16327632583E+04  0.50400001928E-02 0. -1.
</event>
<event>
 5   0  0.2193129E-07  0.3540037E+04  0.7818609E-02  0.8104367E-01
       -1   -1    0    0    0  501  0.00000000000E+00  0.00000000000E+00  0.13947139232E+04  0.13947139232E+04  0.50400001928E-02 0. -1.
        1   -1    0    0  501    0  0.00000000000E+00  0.00000000000E+00 -0.22463141263E+04  0.22463141263E+04  0.50400001928E-02 0.  1.
    10030    2    1    2    0    0  0.00000000000E+00  0.00000000000E+00 -0.85160020308E+03  0.36410280495E+04  0.35400370550E+04 0.  0.
        1    1    3    3  502    0  0.37257163832E+03  0.13390889603E+04 -0.15529641468E+04  0.20841464705E+04  0.50400001928E-02 0.  1.
       -1    1    3    3    0  502 -0.37257163832E+03 -0.13390889603E+04  0.70136394372E+03  0.15568815789E+04  0.50400001928E-02 0. -1.
</event>
<event>
 5   0  0.2086250E-07  0.3733933E+04  0.7818609E-02  0.8060483E-01
       -1   -1    0    0    0  501  0.00000000000E+00  0.00000000000E+00  0.19346661536E+04  0.19346661536E+04  0.50400001928E-02 0. -1.
        1   -1    0    0  501    0  0.00000000000E+00  0.00000000000E+00 -0.18016362618E+04  0.18016362618E+04  0.50400001928E-02 0.  1.
    10030    2    1    2    0    0  0.00000000000E+00  0.00000000000E+00  0.13302989178E+03  0.37363024154E+04  0.37339334203E+04 0.  0.
        2    1    3    3  502    0 -0.79812797880E+03  0.16384086360E+04 -0.33892549825E+03  0.18537156261E+04  0.25500000920E-02 0.  1.
       -2    1    3    3    0  502  0.79812797880E+03 -0.16384086360E+04  0.47195539003E+03  0.18825867893E+04  0.25500000920E-02 0. -1.
</event>
<event>
 5   0  0.2193129E-07  0.3610542E+04  0.7818609E-02  0.8088081E-01
       -1   -1    0    0    0  501  0.00000000000E+00  0.00000000000E+00  0.19027051988E+04  0.19027051988E+04  0.50400001928E-02 0. -1.
        1   -1    0    0  501    0  0.00000000000E+00  0.00000000000E+00 -0.17128260870E+04  0.17128260870E+04  0.50400001928E-02 0.  1.
    10030    2    1    2    0    0  0.00000000000E+00  0.00000000000E+00  0.18987911177E+03  0.36155312858E+04  0.36105418432E+04 0.  0.
        1    1    3    3  502    0  0.59135012556E+03  0.11077571770E+04  0.13937215338E+04  0.18759745862E+04  0.50400001928E-02 0. -1.
       -1    1    3    3    0  502 -0.59135012556E+03 -0.11077571770E+04 -0.12038424220E+04  0.17395566996E+04  0.50400001928E-02 0.  1.
</event>
<event>
 5   0  0.6324216E-07  0.3740528E+04  0.7818609E-02  0.8059039E-01
       -2   -1    0    0    0  501  0.00000000000E+00  0.00000000000E+00  0.18357439091E+04  0.18357439091E+04  0.25500000920E-02 0.  1.
        2   -1    0    0  501    0  0.00000000000E+00  0.00000000000E+00 -0.19054331343E+04  0.19054331343E+04  0.25500000920E-02 0. -1.
    10030    2    1    2    0    0  0.00000000000E+00  0.00000000000E+00 -0.69689225183E+02  0.37411770434E+04  0.37405279149E+04 0.  0.
        2    1    3    3  502    0 -0.17238884875E+04  0.41028893768E+03 -0.63307777952E+03  0.18817321820E+04  0.25500000920E-02 0. -1.
       -2    1    3    3    0  502  0.17238884875E+04 -0.41028893768E+03  0.56338855433E+03  0.18594448615E+04  0.25500000920E-02 0.  1.
</event>
<event>
 5   0  0.2086250E-07  0.3663756E+04  0.7818609E-02  0.8076042E-01
       -1   -1    0    0    0  501  0.00000000000E+00  0.00000000000E+00  0.17888201351E+04  0.17888201351E+04  0.50400001928E-02 0.  1.
        1   -1    0    0  501    0  0.00000000000E+00  0.00000000000E+00 -0.18759722109E+04  0.18759722109E+04  0.50400001928E-02 0. -1.
    10030    2    1    2    0    0  0.00000000000E+00  0.00000000000E+00 -0.87152075816E+02  0.36647923460E+04  0.36637559218E+04 0.  0.
        2    1    3    3  502    0  0.12669314997E+03  0.16279214268E+04 -0.87423104886E+03  0.18521499003E+04  0.25500000920E-02 0. -1.
       -2    1    3    3    0  502 -0.12669314997E+03 -0.16279214268E+04  0.78707897305E+03  0.18126424457E+04  0.25500000920E-02 0.  1.
</event>
<event>
 5   0  0.2108068E-07  0.3630345E+04  0.7818609E-02  0.8083576E-01
       -1   -1    0    0    0  501  0.00000000000E+00  0.00000000000E+00  0.18029667005E+04  0.18029667005E+04  0.50400001928E-02 0. -1.
        1   -1    0    0  501    0  0.00000000000E+00  0.00000000000E+00 -0.18274609161E+04  0.18274609161E+04  0.50400001928E-02 0.  1.
    10030    2    1    2    0    0  0.00000000000E+00  0.00000000000E+00 -0.24494215533E+02  0.36304276166E+04  0.36303449854E+04 0.  0.
        5    1    3    3  502    0  0.19560791694E+03 -0.10501049504E+04 -0.14798793075E+04  0.18251158097E+04  0.46999998093E+01 0.  1.
       -5    1    3    3    0  502 -0.19560791694E+03  0.10501049504E+04  0.14553850920E+04  0.18053118069E+04  0.46999998093E+01 0. -1.
</event>
<event>
 5   0  0.6848661E-07  0.3582264E+04  0.7818609E-02  0.8094566E-01
        2   -1    0    0  501    0  0.00000000000E+00  0.00000000000E+00  0.19453617378E+04  0.19453617378E+04  0.25500000920E-02 0. -1.
       -2   -1    0    0    0  501  0.00000000000E+00  0.00000000000E+00 -0.16491295499E+04  0.16491295499E+04  0.25500000920E-02 0.  1.
    10030    2    1    2    0    0  0.00000000000E+00  0.00000000000E+00  0.29623218796E+03  0.35944912877E+04  0.35822638245E+04 0.  0.
        1    1    3    3  502    0 -0.15190504195E+04  0.33464358876E+03  0.10392087264E+04  0.18706831066E+04  0.50400001928E-02 0.  1.
       -1    1    3    3    0  502  0.15190504195E+04 -0.33464358876E+03 -0.74297653844E+03  0.17238081811E+04  0.50400001928E-02 0. -1.
</event>
<event>
 5   0  0.6848661E-07  0.3639553E+04  0.7818609E-02  0.8081491E-01
        2   -1    0    0  501    0  0.00000000000E+00  0.00000000000E+00  0.23621760984E+04  0.23621760984E+04  0.25500000920E-02 0.  1.
       -2   -1    0    0    0  501  0.00000000000E+00  0.00000000000E+00 -0.14019222511E+04  0.14019222511E+04  0.25500000920E-02 0. -1.
    10030    2    1    2    0    0  0.00000000000E+00  0.00000000000E+00  0.96025384725E+03  0.37640983495E+04  0.36395533975E+04 0.  0.
        1    1    3    3  502    0  0.61610962980E+03 -0.20214059157E+03  0.22386459756E+04  0.23306625021E+04  0.50400001928E-02 0.  1.
       -1    1    3    3    0  502 -0.61610962980E+03  0.20214059157E+03 -0.12783921283E+04  0.14334358474E+04  0.50400001928E-02 0. -1.
</event>
<event>
 5   0  0.6324216E-07  0.3612204E+04  0.7818609E-02  0.8087702E-01
       -2   -1    0    0    0  501  0.00000000000E+00  0.00000000000E+00  0.13004384545E+04  0.13004384545E+04  0.25500000920E-02 0.  1.
        2   -1    0    0  501    0  0.00000000000E+00  0.00000000000E+00 -0.25083886107E+04  0.25083886107E+04  0.25500000920E-02 0. -1.
    10030    2    1    2    0    0  0.00000000000E+00  0.00000000000E+00 -0.12079501562E+04  0.38088270652E+04  0.36122043177E+04 0.  0.
        2    1    3    3  502    0  0.80831735106E+03  0.66855720827E+03 -0.21542637468E+04  0.23960797090E+04  0.25500000920E-02 0. -1.
       -2    1    3    3    0  502 -0.80831735106E+03 -0.66855720827E+03  0.94631359065E+03  0.14127473563E+04  0.25500000920E-02 0.  1.
</event>
<event>
 5   0  0.6669864E-07  0.2984501E+04  0.7818609E-02  0.8248171E-01
        2   -1    0    0  501    0  0.00000000000E+00  0.00000000000E+00  0.24886878524E+04  0.24886878524E+04  0.25500000920E-02 0.  1.
       -2   -1    0    0    0  501  0.00000000000E+00  0.00000000000E+00 -0.89477311940E+03  0.89477311940E+03  0.25500000920E-02 0. -1.
    10030    2    1    2    0    0  0.00000000000E+00  0.00000000000E+00  0.15939147330E+04  0.33834609718E+04  0.29845006235E+04 0.  0.
        5    1    3    3  502    0 -0.76235341217E+03 -0.11747037662E+04  0.21261594549E+03  0.14164530680E+04  0.46999998093E+01 0. -1.
       -5    1    3    3    0  502  0.76235341217E+03  0.11747037662E+04  0.13812987875E+04  0.19670079039E+04  0.46999998093E+01 0.  1.
</event>
<event>
 5   0  0.2086250E-07  0.3614549E+04  0.7818609E-02  0.8087167E-01
        1   -1    0    0  501    0  0.00000000000E+00  0.00000000000E+00  0.19964731720E+04  0.19964731720E+04  0.50400001928E-02 0.  1.
       -1   -1    0    0    0  501  0.00000000000E+00  0.00000000000E+00 -0.16360055575E+04  0.16360055575E+04  0.50400001928E-02 0. -1.
    10030    2    1    2    0    0  0.00000000000E+00  0.00000000000E+00  0.36046761458E+03  0.36324787295E+04  0.36145490478E+04 0.  0.
        4    1    3    3  502    0  0.57365819639E+03 -0.16395603884E+04  0.68170563157E+03  0.18660027263E+04  0.12699999809E+01 0. -1.
       -4    1    3    3    0  502 -0.57365819639E+03  0.16395603884E+04 -0.32123801699E+03  0.17664760032E+04  0.12699999809E+01 0.  1.
</event>
<event>
 5   0  0.6848661E-07  0.3575768E+04  0.7818609E-02  0.8096065E-01
        2   -1    0    0  501    0  0.00000000000E+00  0.00000000000E+00  0.25348255147E+04  0.25348255147E+04  0.25500000920E-02 0. -1.
       -2   -1    0    0    0  501  0.00000000000E+00  0.00000000000E+00 -0.12610451132E+04  0.12610451132E+04  0.25500000920E-02 0.  1.
    10030    2    1    2    0    0  0.00000000000E+00  0.00000000000E+00  0.12737804014E+04  0.37958706279E+04  0.35757680731E+04 0.  0.
        1    1    3    3  502    0  0.49054149086E+03 -0.93127975792E+03  0.21710528328E+04  0.24127543067E+04  0.50400001928E-02 0. -1.
       -1    1    3    3    0  502 -0.49054149086E+03  0.93127975792E+03 -0.89727243137E+03  0.13831163212E+04  0.50400001928E-02 0.  1.
</event>
<event>
 5   0  0.2193129E-07  0.3589174E+04  0.7818609E-02  0.8092976E-01
        1   -1    0    0  501    0  0.00000000000E+00  0.00000000000E+00  0.16063157855E+04  0.16063157855E+04  0.50400001928E-02 0.  1.
       -1   -1    0    0    0  501  0.00000000000E+00  0.00000000000E+00 -0.20049246637E+04  0.20049246637E+04  0.50400001928E-02 0. -1.
    10030    2    1    2    0    0  0.00000000000E+00  0.00000000000E+00 -0.39860887820E+03  0.36112404493E+04  0.35891737969E+04 0.  0.
        1    1    3    3  502    0 -0.17219615651E+04 -0.43074497002E+03  0.66610581821E+02  0.17762685130E+04  0.50400001928E-02 0.  1.
       -1    1    3    3    0  502  0.17219615651E+04  0.43074497002E+03 -0.46521946003E+03  0.18349719362E+04  0.50400001928E-02 0. -1.
</event>
<event>
 5   0  0.2086250E-07  0.3593649E+04  0.7818609E-02  0.8091948E-01
        1   -1    0    0  501    0  0.00000000000E+00  0.00000000000E+00  0.18817266615E+04  0.18817266615E+04  0.50400001928E-02 0. -1.
       -1   -1    0    0    0  501  0.00000000000E+00  0.00000000000E+00 -0.17157534415E+04  0.17157534415E+04  0.50400001928E-02 0.  1.
    10030    2    1    2    0    0  0.00000000000E+00  0.00000000000E+00  0.16597322003E+03  0.35974801030E+04  0.35936493961E+04 0.  0.
        2    1    3    3  502    0 -0.34002862421E+03 -0.16946203595E+04 -0.40867985080E+03  0.17760565443E+04  0.25500000920E-02 0.  1.
       -2    1    3    3    0  502  0.34002862421E+03  0.16946203595E+04  0.57465307083E+03  0.18214235587E+04  0.25500000920E-02 0. -1.
</event>
<event>
 5   0  0.2086250E-07  0.3659546E+04  0.7818609E-02  0.8076986E-01
        1   -1    0    0  501    0  0.00000000000E+00  0.00000000000E+00  0.18142950325E+04  0.18142950325E+04  0.50400001928E-02 0. -1.
       -1   -1    0    0    0  501  0.00000000000E+00  0.00000000000E+00 -0.18453831807E+04  0.18453831807E+04  0.50400001928E-02 0.  1.
    10030    2    1    2    0    0  0.00000000000E+00  0.00000000000E+00 -0.31088148192E+02  0.36596782132E+04  0.36595461674E+04 0.  0.
        3    1    3    3  502    0  0.10024116974E+04  0.75503795958E+03  0.13161037617E+04  0.18185270560E+04  0.10100000352E+00 0. -1.
       -3    1    3    3    0  502 -0.10024116974E+04 -0.75503795958E+03 -0.13471919099E+04  0.18411511572E+04  0.10100000352E+00 0.  1.
</event>
<event>
 5   0  0.2108068E-07  0.3588172E+04  0.7818609E-02  0.8093206E-01
        1   -1    0    0  501    0  0.00000000000E+00  0.00000000000E+00  0.18856617480E+04  0.18856617480E+04  0.50400001928E-02 0. -1.
       -1   -1    0    0    0  501  0.00000000000E+00  0.00000000000E+00 -0.17069576551E+04  0.17069576551E+04  0.50400001928E-02 0.  1.
    10030    2    1    2    0    0  0.00000000000E+00  0.00000000000E+00  0.17870409292E+03  0.35926194031E+04  0.35881721004E+04 0.  0.
        5    1    3    3  502    0  0.10441950050E+04 -0.14581010280E+04  0.13758694907E+03  0.17987090023E+04  0.46999998093E+01 0.  1.
       -5    1    3    3    0  502 -0.10441950050E+04  0.14581010280E+04  0.41117143856E+02  0.17939104008E+04  0.46999998093E+01 0. -1.
</event>
<event>
 5   0  0.2086250E-07  0.3614339E+04  0.7818609E-02  0.8087215E-01
       -1   -1    0    0    0  501  0.00000000000E+00  0.00000000000E+00  0.12528385760E+04  0.12528385760E+04  0.50400001928E-02 0.  1.
        1   -1    0    0  501    0  0.00000000000E+00  0.00000000000E+00 -0.26067696322E+04  0.26067696322E+04  0.50400001928E-02 0. -1.
    10030    2    1    2    0    0  0.00000000000E+00  0.00000000000E+00 -0.13539310562E+04  0.38596082083E+04  0.36143389736E+04 0.  0.
        2    1    3    3  502    0  0.15882970464E+04 -0.81867395939E+03 -0.38855039571E+03  0.18286295331E+04  0.25500000920E-02 0.  1.
       -2    1    3    3    0  502 -0.15882970464E+04  0.81867395939E+03 -0.96538066051E+03  0.20309786752E+04  0.25500000920E-02 0. -1.
</event>
<event>
 5   0  0.6848661E-07  0.3618448E+04  0.7818609E-02  0.8086279E-01
        2   -1    0    0  501    0  0.00000000000E+00  0.00000000000E+00  0.24488722403E+04  0.24488722403E+04  0.25500000920E-02 0.  1.
       -2   -1    0    0    0  501  0.00000000000E+00  0.00000000000E+00 -0.13366525725E+04  0.13366525725E+04  0.25500000920E-02 0. -1.
    10030    2    1    2    0    0  0.00000000000E+00  0.00000000000E+00  0.11122196678E+04  0.37855248128E+04  0.36184479434E+04 0.  0.
        1    1    3    3  502    0 -0.98355307849E+01  0.55567155714E+03 -0.12451398229E+04  0.13635398035E+04  0.50400001928E-02 0. -1.
       -1    1    3    3    0  502  0.98355307849E+01 -0.55567155714E+03  0.23573594907E+04  0.24219850093E+04  0.50400001928E-02 0.  1.
</event>
<event>
 5   0  0.6729577E-07  0.3591107E+04  0.7818609E-02  0.8092532E-01
        2   -1    0    0  501    0  0.00000000000E+00  0.00000000000E+00  0.11484286951E+04  0.11484286951E+04  0.25500000920E-02 0.  1.
       -2   -1    0    0    0  501  0.00000000000E+00  0.00000000000E+00 -0.28073253424E+04  0.28073253425E+04  0.25500000920E-02 0. -1.
    10030    2    1    2    0    0  0.00000000000E+00  0.00000000000E+00 -0.16588966473E+04  0.39557540376E+04  0.35911073389E+04 0.  0.
        3    1    3    3  502    0  0.80726795053E+03  0.15792632665E+04 -0.52129423708E+03  0.18486486147E+04  0.10100000352E+00 0.  1.
       -3    1    3    3    0  502 -0.80726795053E+03 -0.15792632665E+04 -0.11376024102E+04  0.21071054228E+04  0.10100000352E+00 0. -1.
</event>
<event>
 5   0  0.2193129E-07  0.2948092E+04  0.7818609E-02  0.8258711E-01
        1   -1    0    0  501    0  0.00000000000E+00  0.00000000000E+00  0.20476840428E+04  0.20476840429E+04  0.50400001928E-02 0.  1.
       -1   -1    0    0    0  501  0.00000000000E+00  0.00000000000E+00 -0.10611067343E+04  0.10611067343E+04  0.50400001928E-02 0. -1.
    10030    2    1    2    0    0  0.00000000000E+00  0.00000000000E+00  0.98657730854E+03  0.31087907772E+04  0.29480918084E+04 0.  0.
        1    1    3    3  502    0 -0.55387074664E+03  0.13997948979E+03 -0.93962028623E+03  0.10996605585E+04  0.50400001928E-02 0. -1.
       -1    1    3    3    0  502  0.55387074664E+03 -0.13997948979E+03  0.19261975948E+04  0.20091302187E+04  0.50400001928E-02 0.  1.
</event>
<event>
 5   0  0.2086250E-07  0.3566963E+04  0.7818609E-02  0.8098101E-01
       -1   -1    0    0    0  501  0.00000000000E+00  0.00000000000E+00  0.15133948618E+04  0.15133948618E+04  0.50400001928E-02 0. -1.
        1   -1    0    0  501    0  0.00000000000E+00  0.00000000000E+00 -0.21017689151E+04  0.21017689151E+04  0.50400001928E-02 0.  1.
    10030    2    1    2    0    0  0.00000000000E+00  0.00000000000E+00 -0.58837405329E+03  0.36151637769E+04  0.35669630090E+04 0.  0.
        2    1    3    3  502    0  0.11021835843E+04  0.12539099979E+04 -0.93012700450E+03  0.19110822014E+04  0.25500000920E-02 0.  1.
       -2    1    3    3    0  502 -0.11021835843E+04 -0.12539099979E+04  0.34175295121E+03  0.17040815755E+04  0.25500000920E-02 0. -1.
</event>
<event>
 5   0  0.2193129E-07  0.3851439E+04  0.7818609E-02  0.8035205E-01
       -1   -1    0    0    0  501  0.00000000000E+00  0.00000000000E+00  0.23558790709E+04  0.23558790709E+04  0.50400001928E-02 0.  1.
        1   -1    0    0  501    0  0.00000000000E+00  0.00000000000E+00 -0.15741028946E+04  0.15741028946E+04  0.50400001928E-02 0. -1.
    10030    2    1    2    0    0  0.00000000000E+00  0.00000000000E+00  0.78177617630E+03  0.39299819656E+04  0.38514392453E+04 0.  0.
        1    1    3    3  502    0 -0.12698230992E+04  0.14606216720E+03  0.18606123572E+04  0.22573575711E+04  0.50400001928E-02 0.  1.
       -1    1    3    3    0  502  0.12698230992E+04 -0.14606216720E+03 -0.10788361809E+04  0.16726243945E+04  0.50400001928E-02 0. -1.
</event>
<event>
 5   0  0.2086250E-07  0.3523377E+04  0.7818609E-02  0.8108272E-01
        1   -1    0    0  501    0  0.00000000000E+00  0.00000000000E+00  0.19625390967E+04  0.19625390967E+04  0.50400001928E-02 0. -1.
       -1   -1    0    0    0  501  0.00000000000E+00  0.00000000000E+00 -0.15813934882E+04  0.15813934882E+04  0.50400001928E-02 0.  1.
    10030    2    1    2    0    0  0.00000000000E+00  0.00000000000E+00  0.38114560845E+03  0.35439325849E+04  0.35233771003E+04 0.  0.
        4    1    3    3  502    0 -0.35100880794E+02  0.12791056465E+04 -0.10273595573E+04  0.16409791588E+04  0.12699999809E+01 0.  1.
       -4    1    3    3    0  502  0.35100880794E+02 -0.12791056465E+04  0.14085051658E+04  0.19029534260E+04  0.12699999809E+01 0. -1.
</event>
<event>
 5   0  0.2086250E-07  0.3609533E+04  0.7818609E-02  0.8088312E-01
        1   -1    0    0  501    0  0.00000000000E+00  0.00000000000E+00  0.23825282043E+04  0.23825282043E+04  0.50400001928E-02 0.  1.
       -1   -1    0    0    0  501  0.00000000000E+00  0.00000000000E+00 -0.13671115185E+04  0.13671115185E+04  0.50400001928E-02 0. -1.
    10030    2    1    2    0    0  0.00000000000E+00  0.00000000000E+00  0.10154166858E+04  0.37496397229E+04  0.36095327960E+04 0.  0.
        3    1    3    3  502    0 -0.66591710186E+03 -0.64844130380E+03 -0.10993568432E+04  0.14396205021E+04  0.10100000352E+00 0. -1.
       -3    1    3    3    0  502  0.66591710186E+03  0.64844130380E+03  0.21147735290E+04  0.23100192208E+04  0.10100000352E+00 0.  1.
</event>
<event>
 5   0  0.6848661E-07  0.3558576E+04  0.7818609E-02  0.8100047E-01
        2   -1    0    0  501    0  0.00000000000E+00  0.00000000000E+00  0.19907984444E+04  0.19907984444E+04  0.25500000920E-02 0. -1.
       -2   -1    0    0    0  501  0.00000000000E+00  0.00000000000E+00 -0.15902497120E+04  0.15902497120E+04  0.25500000920E-02 0.  1.
    10030    2    1    2    0    0  0.00000000000E+00  0.00000000000E+00  0.40054873233E+03  0.35810481564E+04  0.35585764867E+04 0.  0.
        1    1    3    3  502    0 -0.37224635039E+03  0.95817872793E+03  0.16617514161E+04  0.19539937536E+04  0.50400001928E-02 0. -1.
       -1    1    3    3    0  502  0.37224635039E+03 -0.95817872793E+03 -0.12612026838E+04  0.16270544028E+04  0.50400001928E-02 0.  1.
</event>
<event>
 5   0  0.2108068E-07  0.3710889E+04  0.7818609E-02  0.8065553E-01
        1   -1    0    0  501    0  0.00000000000E+00  0.00000000000E+00  0.17485047235E+04  0.17485047235E+04  0.50400001928E-02 0.  1.
       -1   -1    0    0    0  501  0.00000000000E+00  0.00000000000E+00 -0.19689245447E+04  0.19689245447E+04  0.50400001928E-02 0. -1.
    10030    2    1    2    0    0  0.00000000000E+00  0.00000000000E+00 -0.22041982119E+03  0.37174292682E+04  0.37108887704E+04 0.  0.
        5    1    3    3  502    0 -0.98140936358E+03  0.23245955765E+03 -0.16703404536E+04  0.19512204144E+04  0.46999998093E+01 0. -1.
       -5    1    3    3    0  502  0.98140936358E+03 -0.23245955765E+03  0.14499206324E+04  0.17662088538E+04  0.46999998093E+01 0.  1.
</event>
<event>
 5   0  0.6324216E-07  0.3613644E+04  0.7818609E-02  0.8087373E-01
        2   -1    0    0  501    0  0.00000000000E+00  0.00000000000E+00  0.19029307742E+04  0.19029307742E+04  0.25500000920E-02 0. -1.
       -2   -1    0    0    0  501  0.00000000000E+00  0.00000000000E+00 -0.17155672944E+04  0.17155672944E+04  0.25500000920E-02 0.  1.
    10030    2    1    2    0    0  0.00000000000E+00  0.00000000000E+00  0.18736347974E+03  0.36184980686E+04  0.36136440332E+04 0.  0.
        2    1    3    3  502    0  0.10651043622E+04  0.71551770456E+02 -0.13660276840E+04  0.17336662284E+04  0.25500000920E-02 0.  1.
       -2    1    3    3    0  502 -0.10651043622E+04 -0.71551770456E+02  0.15533911637E+04  0.18848318402E+04  0.25500000920E-02 0. -1.
</event>
<event>
 5   0  0.2086250E-07  0.3617919E+04  0.7818609E-02  0.8086399E-01
        1   -1    0    0  501    0  0.00000000000E+00  0.00000000000E+00  0.19869460955E+04  0.19869460955E+04  0.50400001928E-02 0. -1.
       -1   -1    0    0    0  501  0.00000000000E+00  0.00000000000E+00 -0.16469165178E+04  0.16469165179E+04  0.50400001928E-02 0.  1.
    10030    2    1    2    0    0  0.00000000000E+00  0.00000000000E+00  0.34002957765E+03  0.36338626134E+04  0.36179189293E+04 0.  0.
        4    1    3    3  502    0 -0.93961878767E+03  0.31065686834E+03 -0.13509044985E+04  0.16746150999E+04  0.12699999809E+01 0.  1.
       -4    1    3    3    0  502  0.93961878767E+03 -0.31065686834E+03  0.16909340762E+04  0.19592475134E+04  0.12699999809E+01 0. -1.
</event>
<event>
 5   0  0.6729577E-07  0.3514601E+04  0.7818609E-02  0.8110338E-01
        2   -1    0    0  501    0  0.00000000000E+00  0.00000000000E+00  0.15891447685E+04  0.15891447685E+04  0.25500000920E-02 0. -1.
       -2   -1    0    0    0  501  0.00000000000E+00  0.00000000000E+00 -0.19432499051E+04  0.19432499051E+04  0.25500000920E-02 0.  1.
    10030    2    1    2    0    0  0.00000000000E+00  0.00000000000E+00 -0.35410513656E+03  0.35323946736E+04  0.35146012124E+04 0.  0.
        3    1    3    3  502    0 -0.11415400023E+04 -0.10471878933E+04 -0.10109453950E+04  0.18497909781E+04  0.10100000352E+00 0.  1.
       -3    1    3    3    0  502  0.11415400023E+04  0.10471878933E+04  0.65684025848E+03  0.16826036955E+04  0.10100000352E+00 0. -1.
</event>
<event>
 5   0  0.2193129E-07  0.3611135E+04  0.7818609E-02  0.8087946E-01
       -1   -1    0    0    0  501  0.00000000000E+00  0.00000000000E+00  0.16000029177E+04  0.16000029177E+04  0.50400001928E-02 0. -1.
        1   -1    0    0  501    0  0.00000000000E+00  0.00000000000E+00 -0.20375429218E+04  0.20375429218E+04  0.50400001928E-02 0.  1.
    10030    2    1    2    0    0  0.00000000000E+00  0.00000000000E+00 -0.43754000410E+03  0.36375458395E+04  0.36111353449E+04 0.  0.
        1    1    3    3  502    0  0.10174438624E+04 -0.11581640187E+04 -0.11656119721E+04  0.19326632342E+04  0.50400001928E-02 0. -1.
       -1    1    3    3    0  502 -0.10174438624E+04  0.11581640187E+04  0.72807196803E+03  0.17048826053E+04  0.50400001928E-02 0.  1.
</event>
<event>
 5   0  0.6729577E-07  0.3599477E+04  0.7818609E-02  0.8090611E-01
        2   -1    0    0  501    0  0.00000000000E+00  0.00000000000E+00  0.12655173517E+04  0.12655173517E+04  0.25500000920E-02 0.  1.
       -2   -1    0    0    0  501  0.00000000000E+00  0.00000000000E+00 -0.25594740742E+04  0.25594740742E+04  0.25500000920E-02 0. -1.
    10030    2    1    2    0    0  0.00000000000E+00  0.00000000000E+00 -0.12939567225E+04  0.38249914259E+04  0.35994771021E+04 0.  0.
        3    1    3    3  502    0 -0.50704352069E+03  0.15247497705E+04  0.21442796277E+03  0.16210904836E+04  0.10100000352E+00 0.  1.
       -3    1    3    3    0  502  0.50704352069E+03 -0.15247497705E+04 -0.15083846852E+04  0.22039009423E+04  0.10100000352E+00 0. -1.
</event>
<event>
 5   0  0.2108068E-07  0.3628338E+04  0.7818609E-02  0.8084031E-01
       -1   -1    0    0    0  501  0.00000000000E+00  0.00000000000E+00  0.26378576629E+04  0.26378576629E+04  0.50400001928E-02 0.  1.
        1   -1    0    0  501    0  0.00000000000E+00  0.00000000000E+00 -0.12476825767E+04  0.12476825767E+04  0.50400001928E-02 0. -1.
    10030    2    1    2    0    0  0.00000000000E+00  0.00000000000E+00  0.13901750862E+04  0.38855402395E+04  0.36283379367E+04 0.  0.
        5    1    3    3  502    0 -0.11306275558E+03 -0.11789934376E+04 -0.77650702245E+03  0.14162605546E+04  0.46999998093E+01 0. -1.
       -5    1    3    3    0  502  0.11306275558E+03  0.11789934376E+04  0.21666821086E+04  0.24692796849E+04  0.46999998093E+01 0.  1.
</event>
<event>
 5   0  0.2108068E-07  0.3620750E+04  0.7818609E-02  0.8085755E-01
        1   -1    0    0  501    0  0.00000000000E+00  0.00000000000E+00  0.25088713675E+04  0.25088713675E+04  0.50400001928E-02 0.  1.
       -1   -1    0    0    0  501  0.00000000000E+00  0.00000000000E+00 -0.13063476209E+04  0.13063476209E+04  0.50400001928E-02 0. -1.
    10030    2    1    2    0    0  0.00000000000E+00  0.00000000000E+00  0.12025237466E+04  0.38152189884E+04  0.36207502769E+04 0.  0.
        5    1    3    3  502    0 -0.42451303444E+03  0.15183303579E+03  0.24487639782E+04  0.24899260427E+04  0.46999998093E+01 0.  1.
       -5    1    3    3    0  502  0.42451303444E+03 -0.15183303579E+03 -0.12462402315E+04  0.13252929457E+04  0.46999998093E+01 0. -1.
</event>
<event>
 5   0  0.2086250E-07  0.3659849E+04  0.7818609E-02  0.8076918E-01
        1   -1    0    0  501    0  0.00000000000E+00  0.00000000000E+00  0.18559621550E+04  0.18559621550E+04  0.50400001928E-02 0. -1.
       -1   -1    0    0    0  501  0.00000000000E+00  0.00000000000E+00 -0.18042524632E+04  0.18042524633E+04  0.50400001928E-02 0.  1.
    10030    2    1    2    0    0  0.00000000000E+00  0.00000000000E+00  0.51709691783E+02  0.36602146183E+04  0.36598493357E+04 0.  0.
        3    1    3    3  502    0  0.61964723382E+03  0.11591212325E+04  0.12992060023E+04  0.18480965810E+04  0.10100000352E+00 0. -1.
       -3    1    3    3    0  502 -0.61964723382E+03 -0.11591212325E+04 -0.12474963105E+04  0.18121180373E+04  0.10100000352E+00 0.  1.
</event>
<event>
 5   0  0.6669864E-07  0.3599570E+04  0.7818609E-02  0.8090590E-01
        2   -1    0    0  501    0  0.00000000000E+00  0.00000000000E+00  0.12867702471E+04  0.12867702471E+04  0.25500000920E-02 0.  1.
       -2   -1    0    0    0  501  0.00000000000E+00  0.00000000000E+00 -0.25173302167E+04  0.25173302167E+04  0.25500000920E-02 0. -1.
    10030    2    1    2    0    0  0.00000000000E+00  0.00000000000E+00 -0.12305599697E+04  0.38041004638E+04  0.35995697659E+04 0.  0.
        5    1    3    3  502    0  0.12967780427E+04  0.12476401109E+04 -0.58246069452E+03  0.18914337655E+04  0.46999998093E+01 0. -1.
       -5    1    3    3    0  502 -0.12967780427E+04 -0.12476401109E+04 -0.64809927516E+03  0.19126666983E+04  0.46999998093E+01 0.  1.
</event>
<event>
 5   0  0.6848661E-07  0.3667397E+04  0.7818609E-02  0.8075226E-01
        2   -1    0    0  501    0  0.00000000000E+00  0.00000000000E+00  0.22984912016E+04  0.22984912016E+04  0.25500000920E-02 0.  1.
       -2   -1    0    0    0  501  0.00000000000E+00  0.00000000000E+00 -0.14628947394E+04  0.14628947394E+04  0.25500000920E-02 0. -1.
    10030    2    1    2    0    0  0.00000000000E+00  0.00000000000E+00  0.83559646219E+03  0.37613859410E+04  0.36673972719E+04 0.  0.
        1    1    3    3  502    0  0.10764832590E+04 -0.90229079763E+03 -0.79118456502E+03  0.16121159717E+04  0.50400001928E-02 0. -1.
       -1    1    3    3    0  502 -0.10764832590E+04  0.90229079763E+03  0.16267810272E+04  0.21492699693E+04  0.50400001928E-02 0.  1.
</event>
<event>
 5   0  0.6848661E-07  0.3379240E+04  0.7818609E-02  0.8143020E-01
        2   -1    0    0  501    0  0.00000000000E+00  0.00000000000E+00  0.15695640731E+04  0.15695640731E+04  0.25500000920E-02 0.  1.
       -2   -1    0    0    0  501  0.00000000000E+00  0.00000000000E+00 -0.18188586117E+04  0.18188586117E+04  0.25500000920E-02 0. -1.
    10030    2    1    2    0    0  0.00000000000E+00  0.00000000000E+00 -0.24929453852E+03  0.33884226848E+04  0.33792396369E+04 0.  0.
        1    1    3    3  502    0  0.48094688894E+03 -0.54335000983E+02  0.14985640325E+04  0.15747877197E+04  0.50400001928E-02 0.  1.
       -1    1    3    3    0  502 -0.48094688894E+03  0.54335000983E+02 -0.17478585711E+04  0.18136349651E+04  0.50400001928E-02 0. -1.
</event>
<event>
 5   0  0.2086250E-07  0.3481712E+04  0.7818609E-02  0.8118138E-01
        1   -1    0    0  501    0  0.00000000000E+00  0.00000000000E+00  0.22171093078E+04  0.22171093078E+04  0.50400001928E-02 0. -1.
       -1   -1    0    0    0  501  0.00000000000E+00  0.00000000000E+00 -0.13669061135E+04  0.13669061135E+04  0.50400001928E-02 0.  1.
    10030    2    1    2    0    0  0.00000000000E+00  0.00000000000E+00  0.85020319425E+03  0.35840154213E+04  0.34817123759E+04 0.  0.
        2    1    3    3  502    0 -0.57118620541E+02  0.63682892118E+03  0.20918651543E+04  0.21873987829E+04  0.25500000920E-02 0. -1.
       -2    1    3    3    0  502  0.57118620541E+02 -0.63682892118E+03 -0.12416619601E+04  0.13966166384E+04  0.25500000920E-02 0.  1.
</event>
<event>
 5   0  0.2086250E-07  0.3608293E+04  0.7818609E-02  0.8088595E-01
        1   -1    0    0  501    0  0.00000000000E+00  0.00000000000E+00  0.21813133937E+04  0.21813133937E+04  0.50400001928E-02 0. -1.
       -1   -1    0    0    0  501  0.00000000000E+00  0.00000000000E+00 -0.14921950983E+04  0.14921950983E+04  0.50400001928E-02 0.  1.
    10030    2    1    2    0    0  0.00000000000E+00  0.00000000000E+00  0.68911829542E+03  0.36735084920E+04  0.36082933106E+04 0.  0.
        2    1    3    3  502    0  0.85212086662E+02  0.34044959913E+02  0.21789361220E+04  0.21808674382E+04  0.25500000920E-02 0. -1.
       -2    1    3    3    0  502 -0.85212086662E+02 -0.34044959913E+02 -0.14898178266E+04  0.14926410538E+04  0.25500000920E-02 0.  1.
</event>
<event>
 5   0  0.6324216E-07  0.3627871E+04  0.7818609E-02  0.8084137E-01
        2   -1    0    0  501    0  0.00000000000E+00  0.00000000000E+00  0.25967897021E+04  0.25967897021E+04  0.25500000920E-02 0.  1.
       -2   -1    0    0    0  501  0.00000000000E+00  0.00000000000E+00 -0.12670885954E+04  0.12670885954E+04  0.25500000920E-02 0. -1.
    10030    2    1    2    0    0  0.00000000000E+00  0.00000000000E+00  0.13297011067E+04  0.38638782975E+04  0.36278713407E+04 0.  0.
        2    1    3    3  502    0  0.14625233279E+04  0.77341628676E+03  0.14570210877E+04  0.22045538522E+04  0.25500000920E-02 0.  1.
       -2    1    3    3    0  502 -0.14625233279E+04 -0.77341628676E+03 -0.12731998096E+03  0.16593244453E+04  0.25500000920E-02 0. -1.
</event>
<event>
 5   0  0.2108068E-07  0.3680544E+04  0.7818609E-02  0.8072287E-01
       -1   -1    0    0    0  501  0.00000000000E+00  0.00000000000E+00  0.29837366440E+04  0.29837366440E+04  0.50400001928E-02 0.  1.
        1   -1    0    0  501    0  0.00000000000E+00  0.00000000000E+00 -0.11350199410E+04  0.11350199410E+04  0.50400001928E-02 0. -1.
    10030    2    1    2    0    0  0.00000000000E+00  0.00000000000E+00  0.18487167029E+04  0.41187565850E+04  0.36805437586E+04 0.  0.
        5    1    3    3  502    0  0.74882463687E+03 -0.16667774730E+04  0.11687472904E+04  0.21690730278E+04  0.46999998093E+01 0.  1.
       -5    1    3    3    0  502 -0.74882463687E+03  0.16667774730E+04  0.67996941258E+03  0.19496835572E+04  0.46999998093E+01 0. -1.
</event>
<event>
 5   0  0.2086250E-07  0.3041870E+04  0.7818609E-02  0.8231875E-01
        1   -1    0    0  501    0  0.00000000000E+00  0.00000000000E+00  0.17588085775E+04  0.17588085775E+04  0.50400001928E-02 0.  1.
       -1   -1    0    0    0  501  0.00000000000E+00  0.00000000000E+00 -0.13152334974E+04  0.13152334975E+04  0.50400001928E-02 0. -1.
    10030    2    1    2    0    0  0.00000000000E+00  0.00000000000E+00  0.44357508004E+03  0.30740420750E+04  0.30418704487E+04 0.  0.
        4    1    3    3  502    0  0.33257845532E+03  0.14583194203E+04  0.50027123164E+03  0.15772054015E+04  0.12699999809E+01 0. -1.
       -4    1    3    3    0  502 -0.33257845532E+03 -0.14583194203E+04 -0.56696151604E+02  0.14968366734E+04  0.12699999809E+01 0.  1.
</event>
<event>
 5   0  0.2086250E-07  0.3649950E+04  0.7818609E-02  0.8079145E-01
        1   -1    0    0  501    0  0.00000000000E+00  0.00000000000E+00  0.24836000252E+04  0.24836000252E+04  0.50400001928E-02 0. -1.
       -1   -1    0    0    0  501  0.00000000000E+00  0.00000000000E+00 -0.13410107731E+04  0.13410107731E+04  0.50400001928E-02 0.  1.
    10030    2    1    2    0    0  0.00000000000E+00  0.00000000000E+00  0.11425892521E+04  0.38246107983E+04  0.36499503502E+04 0.  0.
        3    1    3    3  502    0 -0.78797473424E+02 -0.11934768645E+04  0.20156366256E+04  0.23437975776E+04  0.10100000352E+00 0. -1.
       -3    1    3    3    0  502  0.78797473424E+02  0.11934768645E+04 -0.87304737354E+03  0.14808132207E+04  0.10100000352E+00 0.  1.
</event>
<event>
 5   0  0.2108068E-07  0.3417329E+04  0.7818609E-02  0.8133666E-01
        1   -1    0    0  501    0  0.00000000000E+00  0.00000000000E+00  0.17813536746E+04  0.17813536746E+04  0.50400001928E-02 0.  1.
       -1   -1    0    0    0  501  0.00000000000E+00  0.00000000000E+00 -0.16389415536E+04  0.16389415536E+04  0.50400001928E-02 0. -1.
    10030    2    1    2    0    0  0.00000000000E+00  0.00000000000E+00  0.14241212094E+03  0.34202952282E+04  0.34173291085E+04 0.  0.
        5    1    3    3  502    0  0.97680558048E+03 -0.55878750199E+02 -0.13308098740E+04  0.16517713485E+04  0.46999998093E+01 0. -1.
       -5    1    3    3    0  502 -0.97680558048E+03  0.55878750199E+02  0.14732219950E+04  0.17685238798E+04  0.46999998093E+01 0.  1.
</event>
<event>
 5   0  0.6324216E-07  0.3582143E+04  0.7818609E-02  0.8094594E-01
        2   -1    0    0  501    0  0.00000000000E+00  0.00000000000E+00  0.27979558405E+04  0.27979558405E+04  0.25500000920E-02 0.  1.
       -2   -1    0    0    0  501  0.00000000000E+00  0.00000000000E+00 -0.11465290858E+04  0.11465290858E+04  0.25500000920E-02 0. -1.
    10030    2    1    2    0    0  0.00000000000E+00  0.00000000000E+00  0.16514267547E+04  0.39444849263E+04  0.35821433538E+04 0.  0.
        2    1    3    3  502    0 -0.37049530465E+03  0.57014920347E+03  0.26503065292E+04  0.27361399057E+04  0.25500000920E-02 0.  1.
       -2    1    3    3    0  502  0.37049530465E+03 -0.57014920347E+03 -0.99887977443E+03  0.12083450206E+04  0.25500000920E-02 0. -1.
</event>
<event>
 5   0  0.6324216E-07  0.3594483E+04  0.7818609E-02  0.8091757E-01
       -2   -1    0    0    0  501  0.00000000000E+00  0.00000000000E+00  0.17224008946E+04  0.17224008946E+04  0.25500000920E-02 0. -1.
        2   -1    0    0  501    0  0.00000000000E+00  0.00000000000E+00 -0.18753343066E+04  0.18753343066E+04  0.25500000920E-02 0.  1.
    10030    2    1    2    0    0  0.00000000000E+00  0.00000000000E+00 -0.15293341204E+03  0.35977352012E+04  0.35944832659E+04 0.  0.
        2    1    3    3  502    0 -0.51309872629E+03 -0.41304697190E+03  0.15972301377E+04  0.17277216838E+04  0.25500000920E-02 0. -1.
       -2    1    3    3    0  502  0.51309872629E+03  0.41304697190E+03 -0.17501635498E+04  0.18700135173E+04  0.25500000920E-02 0.  1.
</event>
<event>
 5   0  0.2086250E-07  0.3724674E+04  0.7818609E-02  0.8062516E-01
       -1   -1    0    0    0  501  0.00000000000E+00  0.00000000000E+00  0.24565857085E+04  0.24565857085E+04  0.50400001928E-02 0. -1.
        1   -1    0    0  501    0  0.00000000000E+00  0.00000000000E+00 -0.14118374301E+04  0.14118374301E+04  0.50400001928E-02 0.  1.
    10030    2    1    2    0    0  0.00000000000E+00  0.00000000000E+00  0.10447482784E+04  0.38684231387E+04  0.37246742964E+04 0.  0.
        4    1    3    3  502    0  0.61728500547E+03 -0.15095261486E+04  0.14562934059E+04  0.21864359282E+04  0.12699999809E+01 0. -1.
       -4    1    3    3    0  502 -0.61728500547E+03  0.15095261486E+04 -0.41154512751E+03  0.16819872105E+04  0.12699999809E+01 0.  1.
</event>
<event>
 5   0  0.2193129E-07  0.3410996E+04  0.7818609E-02  0.8135213E-01
       -1   -1    0    0    0  501  0.00000000000E+00  0.00000000000E+00  0.15115296120E+04  0.15115296120E+04  0.50400001928E-02 0. -1.
        1   -1    0    0  501    0  0.00000000000E+00  0.00000000000E+00 -0.19243580969E+04  0.19243580969E+04  0.50400001928E-02 0.  1.
    10030    2    1    2    0    0  0.00000000000E+00  0.00000000000E+00 -0.41282848486E+03  0.34358877090E+04  0.34109964806E+04 0.  0.
        1    1    3    3  502    0  0.31782715630E+03 -0.10676574270E+04 -0.15072785212E+04  0.18742451875E+04  0.50400001928E-02 0.  1.
       -1    1    3    3    0  502 -0.31782715630E+03  0.10676574270E+04  0.10944500363E+04  0.15616425214E+04  0.50400001928E-02 0. -1.
</event>
<event>
 5   0  0.2193129E-07  0.3592473E+04  0.7818609E-02  0.8092218E-01
        1   -1    0    0  501    0  0.00000000000E+00  0.00000000000E+00  0.29168805278E+04  0.29168805278E+04  0.50400001928E-02 0.  1.
       -1   -1    0    0    0  501  0.00000000000E+00  0.00000000000E+00 -0.11061354420E+04  0.11061354421E+04  0.50400001928E-02 0. -1.
    10030    2    1    2    0    0  0.00000000000E+00  0.00000000000E+00  0.18107450858E+04  0.40230159699E+04  0.35924726482E+04 0.  0.
        1    1    3    3  502    0  0.85759705391E+03  0.81608567665E+02  0.26704473908E+04  0.28059618551E+04  0.50400001928E-02 0.  1.
       -1    1    3    3    0  502 -0.85759705391E+03 -0.81608567665E+02 -0.85970230498E+03  0.12170541148E+04  0.50400001928E-02 0. -1.
</event>
<event>
 5   0  0.2108068E-07  0.3618384E+04  0.7818609E-02  0.8086294E-01
       -1   -1    0    0    0  501  0.00000000000E+00  0.00000000000E+00  0.18000422791E+04  0.18000422791E+04  0.50400001928E-02 0.  1.
        1   -1    0    0  501    0  0.00000000000E+00  0.00000000000E+00 -0.18183881694E+04  0.18183881694E+04  0.50400001928E-02 0. -1.
    10030    2    1    2    0    0  0.00000000000E+00  0.00000000000E+00 -0.18345890279E+02  0.36184304485E+04  0.36183839402E+04 0.  0.
        5    1    3    3  502    0  0.88820873288E+03  0.15629715455E+04  0.19419802822E+03  0.18081841082E+04  0.46999998093E+01 0. -1.
       -5    1    3    3    0  502 -0.88820873288E+03 -0.15629715455E+04 -0.21254391850E+03  0.18102463402E+04  0.46999998093E+01 0.  1.
</event>
<event>
 5   0  0.6541476E-07  0.3603817E+04  0.7818609E-02  0.8089618E-01
       -2   -1    0    0    0  501  0.00000000000E+00  0.00000000000E+00  0.18267575037E+04  0.18267575037E+04  0.25500000920E-02 0.  1.
        2   -1    0    0  501    0  0.00000000000E+00  0.00000000000E+00 -0.17773974124E+04  0.17773974124E+04  0.25500000920E-02 0. -1.
    10030    2    1    2    0    0  0.00000000000E+00  0.00000000000E+00  0.49360091298E+02  0.36041549161E+04  0.36038168989E+04 0.  0.
        4    1    3    3  502    0  0.16157169692E+04  0.53784529444E+03  0.61384782159E+03  0.18101463052E+04  0.12699999809E+01 0.  1.
       -4    1    3    3    0  502 -0.16157169692E+04 -0.53784529444E+03 -0.56448773029E+03  0.17940086109E+04  0.12699999809E+01 0. -1.
</event>
<event>
 5   0  0.6729577E-07  0.3571729E+04  0.7818609E-02  0.8096998E-01
        2   -1    0    0  501    0  0.00000000000E+00  0.00000000000E+00  0.26910633572E+04  0.26910633572E+04  0.25500000920E-02 0. -1.
       -2   -1    0    0    0  501  0.00000000000E+00  0.00000000000E+00 -0.11851492523E+04  0.11851492523E+04  0.25500000920E-02 0.  1.
    10030    2    1    2    0    0  0.00000000000E+00  0.00000000000E+00  0.15059141049E+04  0.38762126095E+04  0.35717288395E+04 0.  0.
        3    1    3    3  502    0 -0.17828369308E+04 -0.28952714151E+02  0.64461723097E+03  0.18960161302E+04  0.10100000352E+00 0. -1.
       -3    1    3    3    0  502  0.17828369308E+04  0.28952714151E+02  0.86129687395E+03  0.19801964793E+04  0.10100000352E+00 0.  1.
</event>
<event>
 5   0  0.6848661E-07  0.3590079E+04  0.7818609E-02  0.8092768E-01
        2   -1    0    0  501    0  0.00000000000E+00  0.00000000000E+00  0.10862452597E+04  0.10862452597E+04  0.25500000920E-02 0. -1.
       -2   -1    0    0    0  501  0.00000000000E+00  0.00000000000E+00 -0.29663342395E+04  0.29663342395E+04  0.25500000920E-02 0.  1.
    10030    2    1    2    0    0  0.00000000000E+00  0.00000000000E+00 -0.18800889798E+04  0.40525794992E+04  0.35900788328E+04 0.  0.
        1    1    3    3  502    0 -0.89784572408E+02  0.37311882962E+03 -0.29194837457E+04  0.29445991700E+04  0.50400001928E-02 0.  1.
       -1    1    3    3    0  502  0.89784572408E+02 -0.37311882962E+03  0.10393947659E+04  0.11079803292E+04  0.50400001928E-02 0. -1.
</event>
<event>
 5   0  0.6729577E-07  0.3587145E+04  0.7818609E-02  0.8093443E-01
        2   -1    0    0  501    0  0.00000000000E+00  0.00000000000E+00  0.26083871697E+04  0.26083871697E+04  0.25500000920E-02 0. -1.
       -2   -1    0    0    0  501  0.00000000000E+00  0.00000000000E+00 -0.12332916767E+04  0.12332916767E+04  0.25500000920E-02 0.  1.
    10030    2    1    2    0    0  0.00000000000E+00  0.00000000000E+00  0.13750954929E+04  0.38416788464E+04  0.35871449294E+04 0.  0.
        3    1    3    3  502    0  0.29089077328E+03 -0.77745270161E+03  0.23902862511E+04  0.25303198449E+04  0.10100000352E+00 0. -1.
       -3    1    3    3    0  502 -0.29089077328E+03  0.77745270161E+03 -0.10151907582E+04  0.13113590015E+04  0.10100000352E+00 0.  1.
</event>
<event>
 5   0  0.6669864E-07  0.3636404E+04  0.7818609E-02  0.8082204E-01
       -2   -1    0    0    0  501  0.00000000000E+00  0.00000000000E+00  0.13078799245E+04  0.13078799245E+04  0.25500000920E-02 0. -1.
        2   -1    0    0  501    0  0.00000000000E+00  0.00000000000E+00 -0.25276463215E+04  0.25276463215E+04  0.25500000920E-02 0.  1.
    10030    2    1    2    0    0  0.00000000000E+00  0.00000000000E+00 -0.12197663970E+04  0.38355262461E+04  0.36364036521E+04 0.  0.
        5    1    3    3  502    0  0.16010851304E+04 -0.73829707536E+02  0.29555852299E+03  0.16298163550E+04  0.46999998093E+01 0. -1.
       -5    1    3    3    0  502 -0.16010851304E+04  0.73829707536E+02 -0.15153249199E+04  0.22057098911E+04  0.46999998093E+01 0.  1.
</event>
<event>
 5   0  0.2086250E-07  0.3599990E+04  0.7818609E-02  0.8090494E-01
       -1   -1    0    0    0  501  0.00000000000E+00  0.00000000000E+00  0.25384838990E+04  0.25384838991E+04  0.50400001928E-02 0. -1.
        1   -1    0    0  501    0  0.00000000000E+00  0.00000000000E+00 -0.12763449779E+04  0.12763449779E+04  0.50400001928E-02 0.  1.
    10030    2    1    2    0    0  0.00000000000E+00  0.00000000000E+00  0.12621389212E+04  0.38148288769E+04  0.35999895422E+04 0.  0.
        2    1    3    3  502    0  0.16661946492E+04  0.66503312825E+03  0.78647583932E+03  0.19588307524E+04  0.25500000920E-02 0.  1.
       -2    1    3    3    0  502 -0.16661946492E+04 -0.66503312825E+03  0.47566308187E+03  0.18559981245E+04  0.25500000920E-02 0. -1.
</event>
<event>
 5   0  0.2086250E-07  0.3607635E+04  0.7818609E-02  0.8088745E-01
        1   -1    0    0  501    0  0.00000000000E+00  0.00000000000E+00  0.15002941915E+04  0.15002941915E+04  0.50400001928E-02 0.  1.
       -1   -1    0    0    0  501  0.00000000000E+00  0.00000000000E+00 -0.21687458234E+04  0.21687458234E+04  0.50400001928E-02 0. -1.
    10030    2    1    2    0    0  0.00000000000E+00  0.00000000000E+00 -0.66845163186E+03  0.36690400149E+04  0.36076345501E+04 0.  0.
        3    1    3    3  502    0 -0.11859260504E+04  0.11227911681E+04  0.44475924036E+03  0.16925990063E+04  0.10100000352E+00 0.  1.
       -3    1    3    3    0  502  0.11859260504E+04 -0.11227911681E+04 -0.11132108722E+04  0.19764410086E+04  0.10100000352E+00 0. -1.
</event>
<event>
 5   0  0.6541476E-07  0.3584591E+04  0.7818609E-02  0.8094030E-01
       -2   -1    0    0    0  501  0.00000000000E+00  0.00000000000E+00  0.13133588289E+04  0.13133588289E+04  0.25500000920E-02 0. -1.
        2   -1    0    0  501    0  0.00000000000E+00  0.00000000000E+00 -0.24458839827E+04  0.24458839827E+04  0.25500000920E-02 0.  1.
    10030    2    1    2    0    0  0.00000000000E+00  0.00000000000E+00 -0.11325251538E+04  0.37592428116E+04  0.35845910914E+04 0.  0.
        4    1    3    3  502    0  0.99570335967E+03  0.14898765812E+04 -0.60204697482E+03  0.18904019626E+04  0.12699999809E+01 0.  1.
       -4    1    3    3    0  502 -0.99570335967E+03 -0.14898765812E+04 -0.53047817896E+03  0.18688408490E+04  0.12699999809E+01 0. -1.
</event>
<event>
 5   0  0.2086250E-07  0.3671224E+04  0.7818609E-02  0.8074369E-01
       -1   -1    0    0    0  501  0.00000000000E+00  0.00000000000E+00  0.26844317970E+04  0.26844317970E+04  0.50400001928E-02 0. -1.
        1   -1    0    0  501    0  0.00000000000E+00  0.00000000000E+00 -0.12551897124E+04  0.12551897124E+04  0.50400001928E-02 0.  1.
    10030    2    1    2    0    0  0.00000000000E+00  0.00000000000E+00  0.14292420846E+04  0.39396215095E+04  0.36712238697E+04 0.  0.
        3    1    3    3  502    0  0.75772448320E+03 -0.94939568831E+03 -0.76220886066E+03  0.14340365835E+04  0.10100000352E+00 0.  1.
       -3    1    3    3    0  502 -0.75772448320E+03  0.94939568831E+03  0.21914509452E+04  0.25055849259E+04  0.10100000352E+00 0. -1.
</event>
<event>
 5   0  0.2086250E-07  0.3584882E+04  0.7818609E-02  0.8093963E-01
        1   -1    0    0  501    0  0.00000000000E+00  0.00000000000E+00  0.23082490038E+04  0.23082490039E+04  0.50400001928E-02 0.  1.
       -1   -1    0    0    0  501  0.00000000000E+00  0.00000000000E+00 -0.13918972146E+04  0.13918972146E+04  0.50400001928E-02 0. -1.
    10030    2    1    2    0    0  0.00000000000E+00  0.00000000000E+00  0.91635178929E+03  0.37001462184E+04  0.35848823462E+04 0.  0.
        2    1    3    3  502    0  0.14436194354E+04 -0.23734099604E+02  0.15545169655E+04  0.21215851097E+04  0.25500000920E-02 0.  1.
       -2    1    3    3    0  502 -0.14436194354E+04  0.23734099604E+02 -0.63816517623E+03  0.15785611087E+04  0.25500000920E-02 0. -1.
</event>
<event>
 5   0  0.2086250E-07  0.3251943E+04  0.7818609E-02  0.8175232E-01
       -1   -1    0    0    0  501  0.00000000000E+00  0.00000000000E+00  0.15429018880E+04  0.15429018880E+04  0.50400001928E-02 0.  1.
        1   -1    0    0  501    0  0.00000000000E+00  0.00000000000E+00 -0.17135132800E+04  0.17135132800E+04  0.50400001928E-02 0. -1.
    10030    2    1    2    0    0  0.00000000000E+00  0.00000000000E+00 -0.17061139199E+03  0.32564151680E+04  0.32519427270E+04 0.  0.
        4    1    3    3  502    0  0.14107746830E+04 -0.67040105213E+03 -0.53765529519E+03  0.16519072632E+04  0.12699999809E+01 0. -1.
       -4    1    3    3    0  502 -0.14107746830E+04  0.67040105213E+03  0.36704390320E+03  0.16045079048E+04  0.12699999809E+01 0.  1.
</event>
<event>
 5   0  0.6541476E-07  0.3646051E+04  0.7818609E-02  0.8080024E-01
       -2   -1    0    0    0  501  0.00000000000E+00  0.00000000000E+00  0.17117998326E+04  0.17117998326E+04  0.25500000920E-02 0. -1.
        2   -1    0    0  501    0  0.00000000000E+00  0.00000000000E+00 -0.19414781051E+04  0.19414781051E+04  0.25500000920E-02 0.  1.
    10030    2    1    2    0    0  0.00000000000E+00  0.00000000000E+00 -0.22967827247E+03  0.36532779378E+04  0.36460509571E+04 0.  0.
        4    1    3    3  502    0  0.11064539151E+04 -0.10115584417E+03  0.13333448605E+04  0.17355929537E+04  0.12699999809E+01 0. -1.
       -4    1    3    3    0  502 -0.11064539151E+04  0.10115584417E+03 -0.15630231329E+04  0.19176849841E+04  0.12699999809E+01 0.  1.
</event>
<event>
 5   0  0.2086250E-07  0.3594792E+04  0.7818609E-02  0.8091686E-01
        3   -1    0    0  501    0  0.00000000000E+00  0.00000000000E+00  0.14123751933E+04  0.14123751969E+04  0.10100000352E+00 0. -1.
       -3   -1    0    0    0  501  0.00000000000E+00  0.00000000000E+00 -0.22873750548E+04  0.22873750570E+04  0.10100000352E+00 0.  1.
    10030    2    1    2    0    0  0.00000000000E+00  0.00000000000E+00 -0.87499986146E+03  0.36997502539E+04  0.35947916746E+04 0.  0.
        2    1    3    3  502    0 -0.38034052144E+01 -0.17947355037E+04 -0.53803414229E+03  0.18736517105E+04  0.25500000920E-02 0. -1.
       -2    1    3    3    0  502  0.38034052144E+01  0.17947355037E+04 -0.33696571917E+03  0.18260985433E+04  0.25500000920E-02 0.  1.
</event>
<event>
 5   0  0.2108068E-07  0.3596886E+04  0.7818609E-02  0.8091205E-01
       -1   -1    0    0    0  501  0.00000000000E+00  0.00000000000E+00  0.19883169504E+04  0.19883169504E+04  0.50400001928E-02 0.  1.
        1   -1    0    0  501    0  0.00000000000E+00  0.00000000000E+00 -0.16267013814E+04  0.16267013814E+04  0.50400001928E-02 0. -1.
    10030    2    1    2    0    0  0.00000000000E+00  0.00000000000E+00  0.36161556897E+03  0.36150183318E+04  0.35968863924E+04 0.  0.
        5    1    3    3  502    0 -0.54229369876E+03 -0.14156468938E+04 -0.79166340280E+03  0.17102314513E+04  0.46999998093E+01 0. -1.
       -5    1    3    3    0  502  0.54229369876E+03  0.14156468938E+04  0.11532789718E+04  0.19047868805E+04  0.46999998093E+01 0.  1.
</event>
<event>
 5   0  0.2108068E-07  0.3591456E+04  0.7818609E-02  0.8092452E-01
        1   -1    0    0  501    0  0.00000000000E+00  0.00000000000E+00  0.19452086048E+04  0.19452086048E+04  0.50400001928E-02 0.  1.
       -1   -1    0    0    0  501  0.00000000000E+00  0.00000000000E+00 -0.16577340402E+04  0.16577340402E+04  0.50400001928E-02 0. -1.
    10030    2    1    2    0    0  0.00000000000E+00  0.00000000000E+00  0.28747456461E+03  0.36029426450E+04  0.35914557046E+04 0.  0.
        5    1    3    3  502    0 -0.13537536755E+03 -0.69595290277E+03 -0.15113696892E+04  0.16694122800E+04  0.46999998093E+01 0. -1.
       -5    1    3    3    0  502  0.13537536755E+03  0.69595290277E+03  0.17988442538E+04  0.19335303650E+04  0.46999998093E+01 0.  1.
</event>
<event>
 5   0  0.6669864E-07  0.3604922E+04  0.7818609E-02  0.8089365E-01
       -2   -1    0    0    0  501  0.00000000000E+00  0.00000000000E+00  0.18671990421E+04  0.18671990421E+04  0.25500000920E-02 0.  1.
        2   -1    0    0  501    0  0.00000000000E+00  0.00000000000E+00 -0.17399674868E+04  0.17399674868E+04  0.25500000920E-02 0. -1.
    10030    2    1    2    0    0  0.00000000000E+00  0.00000000000E+00  0.12723155539E+03  0.36071665289E+04  0.36049219823E+04 0.  0.
        5    1    3    3  502    0 -0.12718425284E+04 -0.42861114732E+03 -0.11402761418E+04  0.17611197296E+04  0.46999998093E+01 0. -1.
       -5    1    3    3    0  502  0.12718425284E+04  0.42861114732E+03  0.12675076972E+04  0.18460467993E+04  0.46999998093E+01 0.  1.
</event>
<event>
 5   0  0.6848661E-07  0.3586860E+04  0.7818609E-02  0.8093508E-01
        2   -1    0    0  501    0  0.00000000000E+00  0.00000000000E+00  0.16152653617E+04  0.16152653617E+04  0.25500000920E-02 0.  1.
       -2   -1    0    0    0  501  0.00000000000E+00  0.00000000000E+00 -0.19912461351E+04  0.19912461351E+04  0.25500000920E-02 0. -1.
    10030    2    1    2    0    0  0.00000000000E+00  0.00000000000E+00 -0.37598077338E+03  0.36065114967E+04  0.35868598571E+04 0.  0.
        1    1    3    3  502    0  0.47402624525E+03  0.12572974775E+04 -0.13823083491E+04  0.19277640417E+04  0.50400001928E-02 0. -1.
       -1    1    3    3    0  502 -0.47402624525E+03 -0.12572974775E+04  0.10063275758E+04  0.16787474551E+04  0.50400001928E-02 0.  1.
</event>
<event>
 5   0  0.2086250E-07  0.3578587E+04  0.7818609E-02  0.8095414E-01
        1   -1    0    0  501    0  0.00000000000E+00  0.00000000000E+00  0.10746026460E+04  0.10746026460E+04  0.50400001928E-02 0.  1.
       -1   -1    0    0    0  501  0.00000000000E+00  0.00000000000E+00 -0.29793077955E+04  0.29793077955E+04  0.50400001928E-02 0. -1.
    10030    2    1    2    0    0  0.00000000000E+00  0.00000000000E+00 -0.19047051495E+04  0.40539104416E+04  0.35785874534E+04 0.  0.
        2    1    3    3  502    0 -0.93079124910E+02  0.11066977823E+04 -0.25415916041E+04  0.27736495068E+04  0.25500000920E-02 0. -1.
       -2    1    3    3    0  502  0.93079124910E+02 -0.11066977823E+04  0.63688645460E+03  0.12802609347E+04  0.25500000920E-02 0.  1.
</event>
<event>
 5   0  0.2086250E-07  0.3623235E+04  0.7818609E-02  0.8085190E-01
        1   -1    0    0  501    0  0.00000000000E+00  0.00000000000E+00  0.18950243903E+04  0.18950243903E+04  0.50400001928E-02 0.  1.
       -1   -1    0    0    0  501  0.00000000000E+00  0.00000000000E+00 -0.17318812991E+04  0.17318812991E+04  0.50400001928E-02 0. -1.
    10030    2    1    2    0    0  0.00000000000E+00  0.00000000000E+00  0.16314309121E+03  0.36269056894E+04  0.36232346338E+04 0.  0.
        2    1    3    3  502    0  0.24876061599E+03 -0.17881343835E+04  0.23222614507E+03  0.18202294910E+04  0.25500000920E-02 0. -1.
       -2    1    3    3    0  502 -0.24876061599E+03  0.17881343835E+04 -0.69083053859E+02  0.18066761984E+04  0.25500000920E-02 0.  1.
</event>
<event>
 5   0  0.6848661E-07  0.3554859E+04  0.7818609E-02  0.8100911E-01
       -2   -1    0    0    0  501  0.00000000000E+00  0.00000000000E+00  0.17749726243E+04  0.17749726243E+04  0.25500000920E-02 0. -1.
        2   -1    0    0  501    0  0.00000000000E+00  0.00000000000E+00 -0.17798897111E+04  0.17798897111E+04  0.25500000920E-02 0.  1.
    10030    2    1    2    0    0  0.00000000000E+00  0.00000000000E+00 -0.49170868135E+01  0.35548623354E+04  0.35548589347E+04 0.  0.
        1    1    3    3  502    0 -0.68148948966E+03  0.82211220288E+03  0.14184436262E+04  0.17754657753E+04  0.50400001928E-02 0. -1.
       -1    1    3    3    0  502  0.68148948966E+03 -0.82211220288E+03 -0.14233607130E+04  0.17793965601E+04  0.50400001928E-02 0.  1.
</event>
<event>
 5   0  0.6848661E-07  0.3607438E+04  0.7818609E-02  0.8088790E-01
       -2   -1    0    0    0  501  0.00000000000E+00  0.00000000000E+00  0.16576166663E+04  0.16576166663E+04  0.25500000920E-02 0.  1.
        2   -1    0    0  501    0  0.00000000000E+00  0.00000000000E+00 -0.19626993175E+04  0.19626993175E+04  0.25500000920E-02 0. -1.
    10030    2    1    2    0    0  0.00000000000E+00  0.00000000000E+00 -0.30508265122E+03  0.36203159838E+04  0.36074384816E+04 0.  0.
        1    1    3    3  502    0 -0.32113947430E+03  0.15737016359E+04 -0.97628543844E+03  0.18795745950E+04  0.50400001928E-02 0. -1.
       -1    1    3    3    0  502  0.32113947430E+03 -0.15737016359E+04  0.67120278722E+03  0.17407413887E+04  0.50400001928E-02 0.  1.
</event>
<event>
 5   0  0.6729577E-07  0.3644257E+04  0.7818609E-02  0.8080429E-01
       -2   -1    0    0    0  501  0.00000000000E+00  0.00000000000E+00  0.27661492086E+04  0.27661492086E+04  0.25500000920E-02 0. -1.
        2   -1    0    0  501    0  0.00000000000E+00  0.00000000000E+00 -0.12002792688E+04  0.12002792688E+04  0.25500000920E-02 0.  1.
    10030    2    1    2    0    0  0.00000000000E+00  0.00000000000E+00  0.15658699398E+04  0.39664284775E+04  0.36442566044E+04 0.  0.
        3    1    3    3  502    0  0.27584247485E+03 -0.13950531568E+04 -0.45703018316E+03  0.14936997623E+04  0.10100000352E+00 0.  1.
       -3    1    3    3    0  502 -0.27584247485E+03  0.13950531568E+04  0.20229001229E+04  0.24727287152E+04  0.10100000352E+00 0. -1.
</event>
<event>
 5   0  0.2086250E-07  0.3558122E+04  0.7818609E-02  0.8100152E-01
        1   -1    0    0  501    0  0.00000000000E+00  0.00000000000E+00  0.24418117125E+04  0.24418117125E+04  0.50400001928E-02 0.  1.
       -1   -1    0    0    0  501  0.00000000000E+00  0.00000000000E+00 -0.12961921716E+04  0.12961921716E+04  0.50400001928E-02 0. -1.
    10030    2    1    2    0    0  0.00000000000E+00  0.00000000000E+00  0.11456195409E+04  0.37380038841E+04  0.35581215416E+04 0.  0.
        4    1    3    3  502    0  0.13618645757E+04 -0.26175085135E+03  0.17435391297E+04  0.22278058579E+04  0.12699999809E+01 0.  1.
       -4    1    3    3    0  502 -0.13618645757E+04  0.26175085135E+03 -0.59791958883E+03  0.15101980262E+04  0.12699999809E+01 0. -1.
</event>
<event>
 5   0  0.2086250E-07  0.3184156E+04  0.7818609E-02  0.8193014E-01
       -1   -1    0    0    0  501  0.00000000000E+00  0.00000000000E+00  0.92203018722E+03  0.92203018723E+03  0.50400001928E-02 0. -1.
        1   -1    0    0  501    0  0.00000000000E+00  0.00000000000E+00 -0.27490556074E+04  0.27490556074E+04  0.50400001928E-02 0.  1.
    10030    2    1    2    0    0  0.00000000000E+00  0.00000000000E+00 -0.18270254202E+04  0.36710857946E+04  0.31841559361E+04 0.  0.
        4    1    3    3  502    0  0.14324668937E+03  0.15118028070E+04 -0.14648018638E+04  0.21099083995E+04  0.12699999809E+01 0. -1.
       -4    1    3    3    0  502 -0.14324668937E+03 -0.15118028070E+04 -0.36222355631E+03  0.15611773951E+04  0.12699999809E+01 0.  1.
</event>
<event>
 5   0  0.2193129E-07  0.3615457E+04  0.7818609E-02  0.8086960E-01
       -1   -1    0    0    0  501  0.00000000000E+00  0.00000000000E+00  0.13436217948E+04  0.13436217948E+04  0.50400001928E-02 0. -1.
        1   -1    0    0  501    0  0.00000000000E+00  0.00000000000E+00 -0.24321442168E+04  0.24321442168E+04  0.50400001928E-02 0.  1.
    10030    2    1    2    0    0  0.00000000000E+00  0.00000000000E+00 -0.10885224220E+04  0.37757660116E+04  0.36154568053E+04 0.  0.
        1    1    3    3  502    0 -0.25191721981E+02 -0.11494382407E+04  0.91259830418E+03  0.14678823375E+04  0.50400001928E-02 0. -1.
       -1    1    3    3    0  502  0.25191721981E+02  0.11494382407E+04 -0.20011207262E+04  0.23078836740E+04  0.50400001928E-02 0.  1.
</event>
<event>
 5   0  0.6669864E-07  0.3379801E+04  0.7818609E-02  0.8142882E-01
       -2   -1    0    0    0  501  0.00000000000E+00  0.00000000000E+00  0.17040680117E+04  0.17040680117E+04  0.25500000920E-02 0. -1.
        2   -1    0    0  501    0  0.00000000000E+00  0.00000000000E+00 -0.16758506894E+04  0.16758506894E+04  0.25500000920E-02 0.  1.
    10030    2    1    2    0    0  0.00000000000E+00  0.00000000000E+00  0.28217322298E+02  0.33799187011E+04  0.33798009126E+04 0.  0.
        5    1    3    3  502    0  0.63099015749E+03  0.85953415407E+03  0.13251821625E+04  0.17009048752E+04  0.46999998093E+01 0. -1.
       -5    1    3    3    0  502 -0.63099015749E+03 -0.85953415407E+03 -0.12969648402E+04  0.16790138259E+04  0.46999998093E+01 0.  1.
</event>
<event>
 5   0  0.2086250E-07  0.3614869E+04  0.7818609E-02  0.8087094E-01
       -1   -1    0    0    0  501  0.00000000000E+00  0.00000000000E+00  0.12370529141E+04  0.12370529142E+04  0.50400001928E-02 0.  1.
        1   -1    0    0  501    0  0.00000000000E+00  0.00000000000E+00 -0.26408085128E+04  0.26408085128E+04  0.50400001928E-02 0. -1.
    10030    2    1    2    0    0  0.00000000000E+00  0.00000000000E+00 -0.14037555986E+04  0.38778614269E+04  0.36148692184E+04 0.  0.
        3    1    3    3  502    0 -0.96536347730E+03  0.33049684855E+03 -0.23022816909E+04  0.25182644429E+04  0.10100000352E+00 0. -1.
       -3    1    3    3    0  502  0.96536347730E+03 -0.33049684855E+03  0.89852609226E+03  0.13595969840E+04  0.10100000352E+00 0.  1.
</event>
<event>
 5   0  0.6669864E-07  0.3535995E+04  0.7818609E-02  0.8105312E-01
        2   -1    0    0  501    0  0.00000000000E+00  0.00000000000E+00  0.20969483390E+04  0.20969483390E+04  0.25500000920E-02 0. -1.
       -2   -1    0    0    0  501  0.00000000000E+00  0.00000000000E+00 -0.14906494660E+04  0.14906494660E+04  0.25500000920E-02 0.  1.
    10030    2    1    2    0    0  0.00000000000E+00  0.00000000000E+00  0.60629887295E+03  0.35875978050E+04  0.35359948652E+04 0.  0.
        5    1    3    3  502    0  0.16444534060E+04 -0.58586909030E+03  0.19202337713E+02  0.17458122509E+04  0.46999998093E+01 0.  1.
       -5    1    3    3    0  502 -0.16444534060E+04  0.58586909030E+03  0.58709653524E+03  0.18417855541E+04  0.46999998093E+01 0. -1.
</event>
<event>
 5   0  0.6848661E-07  0.3537627E+04  0.7818609E-02  0.8104930E-01
        2   -1    0    0  501    0  0.00000000000E+00  0.00000000000E+00  0.17964703196E+04  0.17964703196E+04  0.25500000920E-02 0. -1.
       -2   -1    0    0    0  501  0.00000000000E+00  0.00000000000E+00 -0.17415825177E+04  0.17415825177E+04  0.25500000920E-02 0.  1.
    10030    2    1    2    0    0  0.00000000000E+00  0.00000000000E+00  0.54887801852E+02  0.35380528373E+04  0.35376270590E+04 0.  0.
        1    1    3    3  502    0  0.94381429023E+03  0.63263742863E+03 -0.13283319489E+04  0.17479935060E+04  0.50400001928E-02 0.  1.
       -1    1    3    3    0  502 -0.94381429023E+03 -0.63263742863E+03  0.13832197508E+04  0.17900593313E+04  0.50400001928E-02 0. -1.
</event>
<event>
 5   0  0.6541476E-07  0.3610889E+04  0.7818609E-02  0.8088002E-01
        2   -1    0    0  501    0  0.00000000000E+00  0.00000000000E+00  0.23468490209E+04  0.23468490209E+04  0.25500000920E-02 0.  1.
       -2   -1    0    0    0  501  0.00000000000E+00  0.00000000000E+00 -0.13889389433E+04  0.13889389433E+04  0.25500000920E-02 0. -1.
    10030    2    1    2    0    0  0.00000000000E+00  0.00000000000E+00  0.95791007757E+03  0.37357879641E+04  0.36108890867E+04 0.  0.
        4    1    3    3  502    0  0.11540518015E+04  0.55405407201E+03 -0.83819439498E+03  0.15301578128E+04  0.12699999809E+01 0. -1.
       -4    1    3    3    0  502 -0.11540518015E+04 -0.55405407201E+03  0.17961044726E+04  0.22056301514E+04  0.12699999809E+01 0.  1.
</event>
<event>
 5   0  0.6669864E-07  0.3465942E+04  0.7818609E-02  0.8121909E-01
       -2   -1    0    0    0  501  0.00000000000E+00  0.00000000000E+00  0.20110269001E+04  0.20110269001E+04  0.25500000920E-02 0. -1.
        2   -1    0    0  501    0  0.00000000000E+00  0.00000000000E+00 -0.14933607883E+04  0.14933607883E+04  0.25500000920E-02 0.  1.
    10030    2    1    2    0    0  0.00000000000E+00  0.00000000000E+00  0.51766611172E+03  0.35043876884E+04  0.34659421327E+04 0.  0.
        5    1    3    3  502    0  0.51356286196E+03  0.12077309667E+04 -0.88544736916E+03  0.15831614052E+04  0.46999998093E+01 0.  1.
       -5    1    3    3    0  502 -0.51356286196E+03 -0.12077309667E+04  0.14031134809E+04  0.19212262832E+04  0.46999998093E+01 0. -1.
</event>
<event>
 5   0  0.2086250E-07  0.3600038E+04  0.7818609E-02  0.8090483E-01
       -1   -1    0    0    0  501  0.00000000000E+00  0.00000000000E+00  0.27992077393E+04  0.27992077393E+04  0.50400001928E-02 0. -1.
        1   -1    0    0  501    0  0.00000000000E+00  0.00000000000E+00 -0.11574947482E+04  0.11574947482E+04  0.50400001928E-02 0.  1.
    10030    2    1    2    0    0  0.00000000000E+00  0.00000000000E+00  0.16417129911E+04  0.39567024875E+04  0.36000379205E+04 0.  0.
        4    1    3    3  502    0  0.10033762450E+04  0.12301362756E+04 -0.11178111454E+03  0.15913817191E+04  0.12699999809E+01 0.  1.
       -4    1    3    3    0  502 -0.10033762450E+04 -0.12301362756E+04  0.17534941057E+04  0.23653207683E+04  0.12699999809E+01 0. -1.
</event>
<event>
 5   0  0.6848661E-07  0.3551662E+04  0.7818609E-02  0.8101655E-01
        2   -1    0    0  501    0  0.00000000000E+00  0.00000000000E+00  0.25025263607E+04  0.25025263607E+04  0.25500000920E-02 0. -1.
       -2   -1    0    0    0  501  0.00000000000E+00  0.00000000000E+00 -0.12601570448E+04  0.12601570448E+04  0.25500000920E-02 0.  1.
    10030    2    1    2    0    0  0.00000000000E+00  0.00000000000E+00  0.12423693158E+04  0.37626834055E+04  0.35516622718E+04 0.  0.
        1    1    3    3  502    0  0.41803283662E+03 -0.32758725197E+03 -0.11740502554E+04  0.12885879335E+04  0.50400001928E-02 0.  1.
       -1    1    3    3    0  502 -0.41803283662E+03  0.32758725197E+03  0.24164195712E+04  0.24740954720E+04  0.50400001928E-02 0. -1.
</event>
<event>
 5   0  0.2193129E-07  0.3573586E+04  0.7818609E-02  0.8096569E-01
        1   -1    0    0  501    0  0.00000000000E+00  0.00000000000E+00  0.21260865567E+04  0.21260865567E+04  0.50400001928E-02 0. -1.
       -1   -1    0    0    0  501  0.00000000000E+00  0.00000000000E+00 -0.15016456489E+04  0.15016456489E+04  0.50400001928E-02 0.  1.
    10030    2    1    2    0    0  0.00000000000E+00  0.00000000000E+00  0.62444090780E+03  0.36277322056E+04  0.35735856654E+04 0.  0.
        1    1    3    3  502    0 -0.13854307248E+04  0.11153153322E+04  0.13850769670E+03  0.17839649564E+04  0.50400001928E-02 0.  1.
       -1    1    3    3    0  502  0.13854307248E+04 -0.11153153322E+04  0.48593321110E+03  0.18437672492E+04  0.50400001928E-02 0. -1.
</event>
<event>
 5   0  0.2086250E-07  0.3587825E+04  0.7818609E-02  0.8093286E-01
       -1   -1    0    0    0  501  0.00000000000E+00  0.00000000000E+00  0.10050813924E+04  0.10050813924E+04  0.50400001928E-02 0. -1.
        1   -1    0    0  501    0  0.00000000000E+00  0.00000000000E+00 -0.32018514158E+04  0.32018514158E+04  0.50400001928E-02 0.  1.
    10030    2    1    2    0    0  0.00000000000E+00  0.00000000000E+00 -0.21967700234E+04  0.42069328081E+04  0.35878245660E+04 0.  0.
        2    1    3    3  502    0 -0.93767543826E+03  0.14602040127E+04 -0.16314675009E+04  0.23818306389E+04  0.25500000920E-02 0. -1.
       -2    1    3    3    0  502  0.93767543826E+03 -0.14602040127E+04 -0.56530252254E+03  0.18251021692E+04  0.25500000920E-02 0.  1.
</event>
<event>
 5   0  0.2086250E-07  0.3623508E+04  0.7818609E-02  0.8085128E-01
        1   -1    0    0  501    0  0.00000000000E+00  0.00000000000E+00  0.12121621869E+04  0.12121621869E+04  0.50400001928E-02 0.  1.
       -1   -1    0    0    0  501  0.00000000000E+00  0.00000000000E+00 -0.27079323432E+04  0.27079323432E+04  0.50400001928E-02 0. -1.
    10030    2    1    2    0    0  0.00000000000E+00  0.00000000000E+00 -0.14957701564E+04  0.39200945301E+04  0.36235083502E+04 0.  0.
        2    1    3    3  502    0  0.56383499784E+03 -0.46061249696E+03  0.10469370854E+04  0.12752062727E+04  0.25500000920E-02 0.  1.
       -2    1    3    3    0  502 -0.56383499784E+03  0.46061249696E+03 -0.25427072417E+04  0.26448882574E+04  0.25500000920E-02 0. -1.
</event>
<event>
 5   0  0.2193129E-07  0.3742443E+04  0.7818609E-02  0.8058621E-01
        1   -1    0    0  501    0  0.00000000000E+00  0.00000000000E+00  0.21656156985E+04  0.21656156985E+04  0.50400001928E-02 0.  1.
       -1   -1    0    0    0  501  0.00000000000E+00  0.00000000000E+00 -0.16168473044E+04  0.16168473044E+04  0.50400001928E-02 0. -1.
    10030    2    1    2    0    0  0.00000000000E+00  0.00000000000E+00  0.54876839414E+03  0.37824630029E+04  0.37424430013E+04 0.  0.
        1    1    3    3  502    0 -0.10858122478E+04  0.91796303394E+03 -0.95510510065E+03  0.17128543787E+04  0.50400001928E-02 0. -1.
       -1    1    3    3    0  502  0.10858122478E+04 -0.91796303394E+03  0.15038734948E+04  0.20696086242E+04  0.50400001928E-02 0.  1.
</event>
<event>
 5   0  0.2086250E-07  0.3481787E+04  0.7818609E-02  0.8118120E-01
       -1   -1    0    0    0  501  0.00000000000E+00  0.00000000000E+00  0.15660132118E+04  0.15660132118E+04  0.50400001928E-02 0.  1.
        1   -1    0    0  501    0  0.00000000000E+00  0.00000000000E+00 -0.19353034764E+04  0.19353034764E+04  0.50400001928E-02 0. -1.
    10030    2    1    2    0    0  0.00000000000E+00  0.00000000000E+00 -0.36929026463E+03  0.35013166882E+04  0.34817873644E+04 0.  0.
        4    1    3    3  502    0  0.17124504767E+04 -0.10863725333E+03  0.11097742295E+03  0.17194784934E+04  0.12699999809E+01 0.  1.
       -4    1    3    3    0  502 -0.17124504767E+04  0.10863725333E+03 -0.48026768758E+03  0.17818381948E+04  0.12699999809E+01 0. -1.
</event>
<event>
 5   0  0.6541476E-07  0.3683448E+04  0.7818609E-02  0.8071640E-01
        2   -1    0    0  501    0  0.00000000000E+00  0.00000000000E+00  0.20382062539E+04  0.20382062539E+04  0.25500000920E-02 0. -1.
       -2   -1    0    0    0  501  0.00000000000E+00  0.00000000000E+00 -0.16641822355E+04  0.16641822355E+04  0.25500000920E-02 0.  1.
    10030    2    1    2    0    0  0.00000000000E+00  0.00000000000E+00  0.37402401846E+03  0.37023884894E+04  0.36834476459E+04 0.  0.
        4    1    3    3  502    0  0.36100950094E+03 -0.79216378622E+03 -0.14443227717E+04  0.16863929571E+04  0.12699999809E+01 0.  1.
       -4    1    3    3    0  502 -0.36100950094E+03  0.79216378622E+03  0.18183467902E+04  0.20159955323E+04  0.12699999809E+01 0. -1.
</event>
<event>
 5   0  0.6324216E-07  0.3437484E+04  0.7818609E-02  0.8128767E-01
        2   -1    0    0  501    0  0.00000000000E+00  0.00000000000E+00  0.26407330947E+04  0.26407330947E+04  0.25500000920E-02 0.  1.
       -2   -1    0    0    0  501  0.00000000000E+00  0.00000000000E+00 -0.11186569872E+04  0.11186569872E+04  0.25500000920E-02 0. -1.
    10030    2    1    2    0    0  0.00000000000E+00  0.00000000000E+00  0.15220761076E+04  0.37593900819E+04  0.34374842706E+04 0.  0.
        2    1    3    3  502    0  0.19252718780E+03 -0.34298782409E+03 -0.10687745035E+04  0.11388530655E+04  0.25500000920E-02 0. -1.
       -2    1    3    3    0  502 -0.19252718780E+03  0.34298782409E+03  0.25908506111E+04  0.26205370164E+04  0.25500000920E-02 0.  1.
</event>
<event>
 5   0  0.2108068E-07  0.3604450E+04  0.7818609E-02  0.8089473E-01
       -1   -1    0    0    0  501  0.00000000000E+00  0.00000000000E+00  0.17323949393E+04  0.17323949393E+04  0.50400001928E-02 0. -1.
        1   -1    0    0  501    0  0.00000000000E+00  0.00000000000E+00 -0.18748694232E+04  0.18748694232E+04  0.50400001928E-02 0.  1.
    10030    2    1    2    0    0  0.00000000000E+00  0.00000000000E+00 -0.14247448393E+03  0.36072643624E+04  0.36044496393E+04 0.  0.
        5    1    3    3  502    0  0.91357577614E+03 -0.15085075910E+04 -0.44270947992E+03  0.18183040517E+04  0.46999998093E+01 0.  1.
       -5    1    3    3    0  502 -0.91357577614E+03  0.15085075910E+04  0.30023499599E+03  0.17889603108E+04  0.46999998093E+01 0. -1.
</event>
<event>
 5   0  0.6324216E-07  0.3834355E+04  0.7818609E-02  0.8038822E-01
       -2   -1    0    0    0  501  0.00000000000E+00  0.00000000000E+00  0.22873778603E+04  0.22873778603E+04  0.25500000920E-02 0. -1.
        2   -1    0    0  501    0  0.00000000000E+00  0.00000000000E+00 -0.16068918477E+04  0.16068918477E+04  0.25500000920E-02 0.  1.
    10030    2    1    2    0    0  0.00000000000E+00  0.00000000000E+00  0.68048601263E+03  0.38942697080E+04  0.38343546191E+04 0.  0.
        2    1    3    3  502    0  0.43775554148E+03  0.12732915299E+04  0.17263649244E+04  0.21893462692E+04  0.25500000920E-02 0. -1.
       -2    1    3    3    0  502 -0.43775554148E+03 -0.12732915299E+04 -0.10458789118E+04  0.17049234388E+04  0.25500000920E-02 0.  1.
</event>
<event>
 5   0  0.2086250E-07  0.3731303E+04  0.7818609E-02  0.8061060E-01
       -3   -1    0    0    0  501  0.00000000000E+00  0.00000000000E+00  0.22163661422E+04  0.22163661445E+04  0.10100000352E+00 0.  1.
        3   -1    0    0  501    0  0.00000000000E+00  0.00000000000E+00 -0.15704333103E+04  0.15704333136E+04  0.10100000352E+00 0. -1.
    10030    2    1    2    0    0  0.00000000000E+00  0.00000000000E+00  0.64593283184E+03  0.37867994580E+04  0.37313028438E+04 0.  0.
        2    1    3    3  502    0 -0.81158053793E+03  0.16797612052E+04  0.30280764917E+03  0.18899611500E+04  0.25500000920E-02 0. -1.
       -2    1    3    3    0  502  0.81158053793E+03 -0.16797612052E+04  0.34312518267E+03  0.18968383081E+04  0.25500000920E-02 0.  1.
</event>
<event>
 5   0  0.6848661E-07  0.3590534E+04  0.7818609E-02  0.8092664E-01
        2   -1    0    0  501    0  0.00000000000E+00  0.00000000000E+00  0.23829014507E+04  0.23829014507E+04  0.25500000920E-02 0.  1.
       -2   -1    0    0    0  501  0.00000000000E+00  0.00000000000E+00 -0.13525456286E+04  0.13525456286E+04  0.25500000920E-02 0. -1.
    10030    2    1    2    0    0  0.00000000000E+00  0.00000000000E+00  0.10303558221E+04  0.37354470793E+04  0.35905336320E+04 0.  0.
        1    1    3    3  502    0 -0.82608479683E+02 -0.16961896089E+04 -0.90647131542E+02  0.17006176092E+04  0.50400001928E-02 0. -1.
       -1    1    3    3    0  502  0.82608479683E+02  0.16961896089E+04  0.11210029536E+04  0.20348294701E+04  0.50400001928E-02 0.  1.
</event>
<event>
 5   0  0.6541476E-07  0.3706105E+04  0.7818609E-02  0.8066610E-01
        2   -1    0    0  501    0  0.00000000000E+00  0.00000000000E+00  0.23682100574E+04  0.23682100574E+04  0.25500000920E-02 0.  1.
       -2   -1    0    0    0  501  0.00000000000E+00  0.00000000000E+00 -0.14499573637E+04  0.14499573637E+04  0.25500000920E-02 0. -1.
    10030    2    1    2    0    0  0.00000000000E+00  0.00000000000E+00  0.91825269371E+03  0.38181674211E+04  0.37061050236E+04 0.  0.
        4    1    3    3  502    0  0.15975758884E+04  0.76251680584E+03 -0.10527199260E+03  0.17733483594E+04  0.12699999809E+01 0. -1.
       -4    1    3    3    0  502 -0.15975758884E+04 -0.76251680584E+03  0.10235246863E+04  0.20448190617E+04  0.12699999809E+01 0.  1.
</event>
<event>
 5   0  0.2108068E-07  0.3603918E+04  0.7818609E-02  0.8089595E-01
       -1   -1    0    0    0  501  0.00000000000E+00  0.00000000000E+00  0.12235109069E+04  0.12235109069E+04  0.50400001928E-02 0.  1.
        1   -1    0    0  501    0  0.00000000000E+00  0.00000000000E+00 -0.26538842642E+04  0.26538842642E+04  0.50400001928E-02 0. -1.
    10030    2    1    2    0    0  0.00000000000E+00  0.00000000000E+00 -0.14303733573E+04  0.38773951712E+04  0.36039180584E+04 0.  0.
        5    1    3    3  502    0 -0.12862429022E+04 -0.80457073606E+03 -0.17612193503E+04  0.23245796529E+04  0.46999998093E+01 0. -1.
       -5    1    3    3    0  502  0.12862429022E+04  0.80457073606E+03  0.33084599296E+03  0.15528155183E+04  0.46999998093E+01 0.  1.
</event>
<event>
 5   0  0.6541476E-07  0.3617362E+04  0.7818609E-02  0.8086526E-01
        2   -1    0    0  501    0  0.00000000000E+00  0.00000000000E+00  0.16130522060E+04  0.16130522060E+04  0.25500000920E-02 0. -1.
       -2   -1    0    0    0  501  0.00000000000E+00  0.00000000000E+00 -0.20280349894E+04  0.20280349894E+04  0.25500000920E-02 0.  1.
    10030    2    1    2    0    0  0.00000000000E+00  0.00000000000E+00 -0.41498278339E+03  0.36410871955E+04  0.36173616428E+04 0.  0.
        4    1    3    3  502    0  0.28252172799E+02 -0.17951646454E+04 -0.42781148190E+03  0.18456539671E+04  0.12699999809E+01 0. -1.
       -4    1    3    3    0  502 -0.28252172799E+02  0.17951646454E+04  0.12828698508E+02  0.17954332284E+04  0.12699999809E+01 0.  1.
</event>
<event>
 5   0  0.6669864E-07  0.3610335E+04  0.7818609E-02  0.8088129E-01
       -2   -1    0    0    0  501  0.00000000000E+00  0.00000000000E+00  0.29555390575E+04  0.29555390575E+04  0.25500000920E-02 0. -1.
        2   -1    0    0  501    0  0.00000000000E+00  0.00000000000E+00 -0.11025497848E+04  0.11025497848E+04  0.25500000920E-02 0.  1.
    10030    2    1    2    0    0  0.00000000000E+00  0.00000000000E+00  0.18529892728E+04  0.40580888423E+04  0.36103345838E+04 0.  0.
        5    1    3    3  502    0 -0.21214281515E+03  0.98773961694E+03 -0.75502326410E+03  0.12612360383E+04  0.46999998093E+01 0.  1.
       -5    1    3    3    0  502  0.21214281515E+03 -0.98773961694E+03  0.26080125369E+04  0.27968528040E+04  0.46999998093E+01 0. -1.
</event>
<event>
 5   0  0.6848661E-07  0.3589371E+04  0.7818609E-02  0.8092931E-01
        2   -1    0    0  501    0  0.00000000000E+00  0.00000000000E+00  0.16827912948E+04  0.16827912948E+04  0.25500000920E-02 0. -1.
       -2   -1    0    0    0  501  0.00000000000E+00  0.00000000000E+00 -0.19140203027E+04  0.19140203027E+04  0.25500000920E-02 0.  1.
    10030    2    1    2    0    0  0.00000000000E+00  0.00000000000E+00 -0.23122900790E+03  0.35968115975E+04  0.35893713675E+04 0.  0.
        1    1    3    3  502    0 -0.17582332212E+04 -0.10978659667E+03  0.22781962882E+03  0.17763273741E+04  0.50400001928E-02 0. -1.
       -1    1    3    3    0  502  0.17582332212E+04  0.10978659667E+03 -0.45904863672E+03  0.18204842234E+04  0.50400001928E-02 0.  1.
</event>
<event>
 5   0  0.2086250E-07  0.3564206E+04  0.7818609E-02  0.8098740E-01
       -1   -1    0    0    0  501  0.00000000000E+00  0.00000000000E+00  0.14847146221E+04  0.14847146221E+04  0.50400001928E-02 0.  1.
        1   -1    0    0  501    0  0.00000000000E+00  0.00000000000E+00 -0.21390586320E+04  0.21390586320E+04  0.50400001928E-02 0. -1.
    10030    2    1    2    0    0  0.00000000000E+00  0.00000000000E+00 -0.65434400982E+03  0.36237732541E+04  0.35642062951E+04 0.  0.
        4    1    3    3  502    0 -0.14660810484E+03  0.30254928942E+03  0.14521795243E+04  0.14905894782E+04  0.12699999809E+01 0.  1.
       -4    1    3    3    0  502  0.14660810484E+03 -0.30254928942E+03 -0.21065235341E+04  0.21331837759E+04  0.12699999809E+01 0. -1.
</event>
<event>
 5   0  0.6848661E-07  0.3610264E+04  0.7818609E-02  0.8088145E-01
        2   -1    0    0  501    0  0.00000000000E+00  0.00000000000E+00  0.17114710061E+04  0.17114710061E+04  0.25500000920E-02 0. -1.
       -2   -1    0    0    0  501  0.00000000000E+00  0.00000000000E+00 -0.19039186789E+04  0.19039186789E+04  0.25500000920E-02 0.  1.
    10030    2    1    2    0    0  0.00000000000E+00  0.00000000000E+00 -0.19244767283E+03  0.36153896850E+04  0.36102640440E+04 0.  0.
        1    1    3    3  502    0 -0.34744946150E+03  0.60224418442E+03  0.15719991171E+04  0.17188951132E+04  0.50400001928E-02 0. -1.
       -1    1    3    3    0  502  0.34744946150E+03 -0.60224418442E+03 -0.17644467900E+04  0.18964945717E+04  0.50400001928E-02 0.  1.
</event>
<event>
 5   0  0.2086250E-07  0.3612566E+04  0.7818609E-02  0.8087619E-01
        1   -1    0    0  501    0  0.00000000000E+00  0.00000000000E+00  0.29822416146E+04  0.29822416146E+04  0.50400001928E-02 0.  1.
       -1   -1    0    0    0  501  0.00000000000E+00  0.00000000000E+00 -0.10940285999E+04  0.10940285999E+04  0.50400001928E-02 0. -1.
    10030    2    1    2    0    0  0.00000000000E+00  0.00000000000E+00  0.18882130148E+04  0.40762702145E+04  0.36125656358E+04 0.  0.
        2    1    3    3  502    0  0.37174404496E+02  0.76889893279E+03  0.27878841815E+04  0.28922112154E+04  0.25500000920E-02 0.  1.
       -2    1    3    3    0  502 -0.37174404496E+02 -0.76889893279E+03 -0.89967116671E+03  0.11840589991E+04  0.25500000920E-02 0. -1.
</event>
<event>
 5   0  0.6729577E-07  0.3598076E+04  0.7818609E-02  0.8090932E-01
       -2   -1    0    0    0  501  0.00000000000E+00  0.00000000000E+00  0.12566584814E+04  0.12566584814E+04  0.25500000920E-02 0. -1.
        2   -1    0    0  501    0  0.00000000000E+00  0.00000000000E+00 -0.25755114251E+04  0.25755114251E+04  0.25500000920E-02 0.  1.
    10030    2    1    2    0    0  0.00000000000E+00  0.00000000000E+00 -0.13188529436E+04  0.38321699065E+04  0.35980763062E+04 0.  0.
        3    1    3    3  502    0 -0.65309160711E+03 -0.67013803421E+03  0.97707141372E+03  0.13528792222E+04  0.10100000352E+00 0. -1.
       -3    1    3    3    0  502  0.65309160711E+03  0.67013803421E+03 -0.22959243574E+04  0.24792906843E+04  0.10100000352E+00 0.  1.
</event>
<event>
 5   0  0.2086250E-07  0.3725910E+04  0.7818609E-02  0.8062244E-01
        1   -1    0    0  501    0  0.00000000000E+00  0.00000000000E+00  0.30178221700E+04  0.30178221700E+04  0.50400001928E-02 0.  1.
       -1   -1    0    0    0  501  0.00000000000E+00  0.00000000000E+00 -0.11500353715E+04  0.11500353715E+04  0.50400001928E-02 0. -1.
    10030    2    1    2    0    0  0.00000000000E+00  0.00000000000E+00  0.18677867985E+04  0.41678575415E+04  0.37259104876E+04 0.  0.
        4    1    3    3  502    0 -0.13193977039E+04 -0.78344741321E+03 -0.24782130433E+03  0.15543542589E+04  0.12699999809E+01 0. -1.
       -4    1    3    3    0  502  0.13193977039E+04  0.78344741321E+03  0.21156081028E+04  0.26135032826E+04  0.12699999809E+01 0.  1.
</event>
<event>
 5   0  0.2193129E-07  0.3587680E+04  0.7818609E-02  0.8093320E-01
        1   -1    0    0  501    0  0.00000000000E+00  0.00000000000E+00  0.13020526908E+04  0.13020526908E+04  0.50400001928E-02 0.  1.
       -1   -1    0    0    0  501  0.00000000000E+00  0.00000000000E+00 -0.24713763750E+04  0.24713763750E+04  0.50400001928E-02 0. -1.
    10030    2    1    2    0    0  0.00000000000E+00  0.00000000000E+00 -0.11693236842E+04  0.37734290658E+04  0.35876801747E+04 0.  0.
        1    1    3    3  502    0  0.17245948852E+04  0.47592895240E+03 -0.44701851138E+03  0.18440611257E+04  0.50400001928E-02 0. -1.
       -1    1    3    3    0  502 -0.17245948852E+04 -0.47592895240E+03 -0.72230517285E+03  0.19293679401E+04  0.50400001928E-02 0.  1.
</event>
<event>
 5   0  0.6848661E-07  0.3550198E+04  0.7818609E-02  0.8101996E-01
        2   -1    0    0  501    0  0.00000000000E+00  0.00000000000E+00  0.19731046856E+04  0.19731046856E+04  0.25500000920E-02 0. -1.
       -2   -1    0    0    0  501  0.00000000000E+00  0.00000000000E+00 -0.15969634475E+04  0.15969634475E+04  0.25500000920E-02 0.  1.
    10030    2    1    2    0    0  0.00000000000E+00  0.00000000000E+00  0.37614123808E+03  0.35700681331E+04  0.35501977754E+04 0.  0.
        1    1    3    3  502    0  0.17004740447E+04 -0.35196109383E+03  0.55821701740E+03  0.18240325728E+04  0.50400001928E-02 0. -1.
       -1    1    3    3    0  502 -0.17004740447E+04  0.35196109383E+03 -0.18207577933E+03  0.17460355603E+04  0.50400001928E-02 0.  1.
</event>
<event>
 5   0  0.6541476E-07  0.3477286E+04  0.7818609E-02  0.8119194E-01
        2   -1    0    0  501    0  0.00000000000E+00  0.00000000000E+00  0.25262306947E+04  0.25262306947E+04  0.25500000920E-02 0.  1.
       -2   -1    0    0    0  501  0.00000000000E+00  0.00000000000E+00 -0.11965969274E+04  0.11965969274E+04  0.25500000920E-02 0. -1.
    10030    2    1    2    0    0  0.00000000000E+00  0.00000000000E+00  0.13296337673E+04  0.37228276221E+04  0.34772862334E+04 0.  0.
        4    1    3    3  502    0  0.13022050816E+04 -0.56729776034E+03  0.17382703756E+04  0.22448051886E+04  0.12699999809E+01 0.  1.
       -4    1    3    3    0  502 -0.13022050816E+04  0.56729776034E+03 -0.40863660830E+03  0.14780224335E+04  0.12699999809E+01 0. -1.
</event>
<event>
 5   0  0.2086250E-07  0.3583005E+04  0.7818609E-02  0.8094396E-01
       -3   -1    0    0    0  501  0.00000000000E+00  0.00000000000E+00  0.18557491437E+04  0.18557491464E+04  0.10100000352E+00 0. -1.
        3   -1    0    0  501    0  0.00000000000E+00  0.00000000000E+00 -0.17294804063E+04  0.17294804092E+04  0.10100000352E+00 0.  1.
    10030    2    1    2    0    0  0.00000000000E+00  0.00000000000E+00  0.12626873743E+03  0.35852295557E+04  0.35830053269E+04 0.  0.
        2    1    3    3  502    0 -0.26526825894E+03 -0.17665107250E+04 -0.73164734934E+02  0.17878144393E+04  0.25500000920E-02 0. -1.
       -2    1    3    3    0  502  0.26526825894E+03  0.17665107250E+04  0.19943347237E+03  0.17974151164E+04  0.25500000920E-02 0.  1.
</event>
<event>
 5   0  0.6848661E-07  0.3598160E+04  0.7818609E-02  0.8090913E-01
        2   -1    0    0  501    0  0.00000000000E+00  0.00000000000E+00  0.24135198535E+04  0.24135198535E+04  0.25500000920E-02 0. -1.
       -2   -1    0    0    0  501  0.00000000000E+00  0.00000000000E+00 -0.13410655678E+04  0.13410655678E+04  0.25500000920E-02 0.  1.
    10030    2    1    2    0    0  0.00000000000E+00  0.00000000000E+00  0.10724542857E+04  0.37545854213E+04  0.35981597367E+04 0.  0.
        1    1    3    3  502    0 -0.62750174282E+03 -0.11501988492E+04  0.18226964269E+04  0.22447579145E+04  0.50400001928E-02 0. -1.
       -1    1    3    3    0  502  0.62750174282E+03  0.11501988492E+04 -0.75024214113E+03  0.15098275068E+04  0.50400001928E-02 0.  1.
</event>
<event>
 5   0  0.6729577E-07  0.3535523E+04  0.7818609E-02  0.8105423E-01
       -2   -1    0    0    0  501  0.00000000000E+00  0.00000000000E+00  0.14017825215E+04  0.14017825215E+04  0.25500000920E-02 0.  1.
        2   -1    0    0  501    0  0.00000000000E+00  0.00000000000E+00 -0.22292906324E+04  0.22292906324E+04  0.25500000920E-02 0. -1.
    10030    2    1    2    0    0  0.00000000000E+00  0.00000000000E+00 -0.82750811083E+03  0.36310731539E+04  0.35355229564E+04 0.  0.
        3    1    3    3  502    0 -0.49585749078E+03  0.43035107680E+03  0.12719152908E+04  0.14313787820E+04  0.10100000352E+00 0.  1.
       -3    1    3    3    0  502  0.49585749078E+03 -0.43035107680E+03 -0.20994234016E+04  0.21996943719E+04  0.10100000352E+00 0. -1.
</event>
<event>
 5   0  0.2193129E-07  0.3578543E+04  0.7818609E-02  0.8095424E-01
       -1   -1    0    0    0  501  0.00000000000E+00  0.00000000000E+00  0.10632768245E+04  0.10632768246E+04  0.50400001928E-02 0.  1.
        1   -1    0    0  501    0  0.00000000000E+00  0.00000000000E+00 -0.30109678252E+04  0.30109678252E+04  0.50400001928E-02 0. -1.
    10030    2    1    2    0    0  0.00000000000E+00  0.00000000000E+00 -0.19476910007E+04  0.40742446498E+04  0.35785428923E+04 0.  0.
        1    1    3    3  502    0  0.12879999471E+04 -0.65694398171E+03  0.22618597915E+03  0.14634477633E+04  0.50400001928E-02 0.  1.
       -1    1    3    3    0  502 -0.12879999471E+04  0.65694398171E+03 -0.21738769798E+04  0.26107968864E+04  0.50400001928E-02 0. -1.
</event>
<event>
 5   0  0.2193129E-07  0.3449962E+04  0.7818609E-02  0.8125752E-01
        1   -1    0    0  501    0  0.00000000000E+00  0.00000000000E+00  0.12837582716E+04  0.12837582717E+04  0.50400001928E-02 0. -1.
       -1   -1    0    0    0  501  0.00000000000E+00  0.00000000000E+00 -0.23178502420E+04  0.23178502420E+04  0.50400001928E-02 0.  1.
    10030    2    1    2    0    0  0.00000000000E+00  0.00000000000E+00 -0.10340919704E+04  0.36016085137E+04  0.34499619828E+04 0.  0.
        1    1    3    3  502    0 -0.21775289385E+02 -0.17206775705E+04 -0.64212026115E+03  0.18367155182E+04  0.50400001928E-02 0.  1.
       -1    1    3    3    0  502  0.21775289385E+02  0.17206775705E+04 -0.39197170922E+03  0.17648929955E+04  0.50400001928E-02 0. -1.
</event>
<event>
 5   0  0.2086250E-07  0.4091771E+04  0.7818609E-02  0.7986285E-01
       -1   -1    0    0    0  501  0.00000000000E+00  0.00000000000E+00  0.13006602922E+04  0.13006602922E+04  0.50400001928E-02 0. -1.
        1   -1    0    0  501    0  0.00000000000E+00  0.00000000000E+00 -0.32180949580E+04  0.32180949580E+04  0.50400001928E-02 0.  1.
    10030    2    1    2    0    0  0.00000000000E+00  0.00000000000E+00 -0.19174346657E+04  0.45187552502E+04  0.40917714152E+04 0.  0.
        3    1    3    3  502    0 -0.13542371795E+04  0.13019038727E+04 -0.18536759655E+04  0.26391336888E+04  0.10100000352E+00 0.  1.
       -3    1    3    3    0  502  0.13542371795E+04 -0.13019038727E+04 -0.63758700265E+02  0.18796215614E+04  0.10100000352E+00 0. -1.
</event>
<event>
 5   0  0.2108068E-07  0.3616344E+04  0.7818609E-02  0.8086758E-01
       -1   -1    0    0    0  501  0.00000000000E+00  0.00000000000E+00  0.17475779304E+04  0.17475779304E+04  0.50400001928E-02 0.  1.
        1   -1    0    0  501    0  0.00000000000E+00  0.00000000000E+00 -0.18708673322E+04  0.18708673322E+04  0.50400001928E-02 0. -1.
    10030    2    1    2    0    0  0.00000000000E+00  0.00000000000E+00 -0.12328940176E+03  0.36184452626E+04  0.36163442649E+04 0.  0.
        5    1    3    3  502    0  0.91757393258E+02  0.14054425336E+03  0.17397601852E+04  0.17478443004E+04  0.46999998093E+01 0.  1.
       -5    1    3    3    0  502 -0.91757393258E+02 -0.14054425336E+03 -0.18630495870E+04  0.18706009622E+04  0.46999998093E+01 0. -1.
</event>
<event>
 5   0  0.2108068E-07  0.3576645E+04  0.7818609E-02  0.8095863E-01
       -1   -1    0    0    0  501  0.00000000000E+00  0.00000000000E+00  0.12504333344E+04  0.12504333344E+04  0.50400001928E-02 0.  1.
        1   -1    0    0  501    0  0.00000000000E+00  0.00000000000E+00 -0.25575909788E+04  0.25575909788E+04  0.50400001928E-02 0. -1.
    10030    2    1    2    0    0  0.00000000000E+00  0.00000000000E+00 -0.13071576444E+04  0.38080243132E+04  0.35766448052E+04 0.  0.
        5    1    3    3  502    0 -0.11964149065E+04 -0.56182786893E+03  0.62892882105E+03  0.14637734575E+04  0.46999998093E+01 0.  1.
       -5    1    3    3    0  502  0.11964149065E+04  0.56182786893E+03 -0.19360864655E+04  0.23442508557E+04  0.46999998093E+01 0. -1.
</event>
<event>
 5   0  0.6541476E-07  0.3584855E+04  0.7818609E-02  0.8093970E-01
        2   -1    0    0  501    0  0.00000000000E+00  0.00000000000E+00  0.27047832530E+04  0.27047832530E+04  0.25500000920E-02 0. -1.
       -2   -1    0    0    0  501  0.00000000000E+00  0.00000000000E+00 -0.11878204158E+04  0.11878204158E+04  0.25500000920E-02 0.  1.
    10030    2    1    2    0    0  0.00000000000E+00  0.00000000000E+00  0.15169628372E+04  0.38926036688E+04  0.35848552374E+04 0.  0.
        4    1    3    3  502    0  0.53147649904E+03  0.64044560144E+03  0.24822636146E+04  0.26180664817E+04  0.12699999809E+01 0. -1.
       -4    1    3    3    0  502 -0.53147649904E+03 -0.64044560144E+03 -0.96530077744E+03  0.12745371871E+04  0.12699999809E+01 0.  1.
</event>
<event>
 5   0  0.6848661E-07  0.3621238E+04  0.7818609E-02  0.8085644E-01
        2   -1    0    0  501    0  0.00000000000E+00  0.00000000000E+00  0.17123234624E+04  0.17123234624E+04  0.25500000920E-02 0. -1.
       -2   -1    0    0    0  501  0.00000000000E+00  0.00000000000E+00 -0.19145568064E+04  0.19145568064E+04  0.25500000920E-02 0.  1.
    10030    2    1    2    0    0  0.00000000000E+00  0.00000000000E+00 -0.20223334398E+03  0.36268802688E+04  0.36212376557E+04 0.  0.
        1    1    3    3  502    0  0.23780785882E+03  0.17027196238E+04  0.46768889452E+03  0.17817237713E+04  0.50400001928E-02 0.  1.
       -1    1    3    3    0  502 -0.23780785882E+03 -0.17027196238E+04 -0.66992223850E+03  0.18451564976E+04  0.50400001928E-02 0. -1.
</event>
<event>
 5   0  0.2086250E-07  0.3583947E+04  0.7818609E-02  0.8094179E-01
       -1   -1    0    0    0  501  0.00000000000E+00  0.00000000000E+00  0.11903901759E+04  0.11903901759E+04  0.50400001928E-02 0.  1.
        1   -1    0    0  501    0  0.00000000000E+00  0.00000000000E+00 -0.26975769287E+04  0.26975769287E+04  0.50400001928E-02 0. -1.
    10030    2    1    2    0    0  0.00000000000E+00  0.00000000000E+00 -0.15071867528E+04  0.38879671045E+04  0.35839470278E+04 0.  0.
        2    1    3    3  502    0  0.58139768055E+03  0.14243769015E+04  0.24320754548E+03  0.15575694947E+04  0.25500000920E-02 0.  1.
       -2    1    3    3    0  502 -0.58139768055E+03 -0.14243769015E+04 -0.17503942983E+04  0.23303976099E+04  0.25500000920E-02 0. -1.
</event>
<event>
 5   0  0.6669864E-07  0.3686708E+04  0.7818609E-02  0.8070914E-01
        2   -1    0    0  501    0  0.00000000000E+00  0.00000000000E+00  0.19094592491E+04  0.19094592491E+04  0.25500000920E-02 0.  1.
       -2   -1    0    0    0  501  0.00000000000E+00  0.00000000000E+00 -0.17795370753E+04  0.17795370753E+04  0.25500000920E-02 0. -1.
    10030    2    1    2    0    0  0.00000000000E+00  0.00000000000E+00  0.12992217378E+03  0.36889963244E+04  0.36867077604E+04 0.  0.
        5    1    3    3  502    0 -0.15415462664E+04  0.98359229809E+03 -0.16780476140E+03  0.18363004189E+04  0.46999998093E+01 0. -1.
       -5    1    3    3    0  502  0.15415462664E+04 -0.98359229809E+03  0.29772693517E+03  0.18526959055E+04  0.46999998093E+01 0.  1.
</event>
<event>
 5   0  0.2086250E-07  0.3556183E+04  0.7818609E-02  0.8100603E-01
        1   -1    0    0  501    0  0.00000000000E+00  0.00000000000E+00  0.21602365919E+04  0.21602365919E+04  0.50400001928E-02 0. -1.
       -1   -1    0    0    0  501  0.00000000000E+00  0.00000000000E+00 -0.14635481503E+04  0.14635481503E+04  0.50400001928E-02 0.  1.
    10030    2    1    2    0    0  0.00000000000E+00  0.00000000000E+00  0.69668844160E+03  0.36237847423E+04  0.35561834983E+04 0.  0.
        2    1    3    3  502    0  0.15000898937E+04  0.62764267615E+03  0.10813267874E+04  0.19528114705E+04  0.25500000920E-02 0. -1.
       -2    1    3    3    0  502 -0.15000898937E+04 -0.62764267615E+03 -0.38463834582E+03  0.16709732718E+04  0.25500000920E-02 0.  1.
</event>
<event>
 5   0  0.6324216E-07  0.3678828E+04  0.7818609E-02  0.8072670E-01
        2   -1    0    0  501    0  0.00000000000E+00  0.00000000000E+00  0.18117706173E+04  0.18117706173E+04  0.25500000920E-02 0. -1.
       -2   -1    0    0    0  501  0.00000000000E+00  0.00000000000E+00 -0.18674794682E+04  0.18674794682E+04  0.25500000920E-02 0.  1.
    10030    2    1    2    0    0  0.00000000000E+00  0.00000000000E+00 -0.55708850963E+02  0.36792500855E+04  0.36788283074E+04 0.  0.
        2    1    3    3  502    0  0.11096948955E+04  0.19953533426E+03 -0.14813645478E+04  0.18616331631E+04  0.25500000920E-02 0.  1.
       -2    1    3    3    0  502 -0.11096948955E+04 -0.19953533426E+03  0.14256556968E+04  0.18176169224E+04  0.25500000920E-02 0. -1.
</event>
<event>
 5   0  0.6729577E-07  0.3728056E+04  0.7818609E-02  0.8061773E-01
       -2   -1    0    0    0  501  0.00000000000E+00  0.00000000000E+00  0.27662231317E+04  0.27662231317E+04  0.25500000920E-02 0. -1.
        2   -1    0    0  501    0  0.00000000000E+00  0.00000000000E+00 -0.12560806955E+04  0.12560806955E+04  0.25500000920E-02 0.  1.
    10030    2    1    2    0    0  0.00000000000E+00  0.00000000000E+00  0.15101424362E+04  0.40223038272E+04  0.37280555120E+04 0.  0.
        3    1    3    3  502    0  0.87656853321E+03 -0.11945422749E+04 -0.46526076311E+03  0.15529878389E+04  0.10100000352E+00 0.  1.
       -3    1    3    3    0  502 -0.87656853321E+03  0.11945422749E+04  0.19754031993E+04  0.24693159883E+04  0.10100000352E+00 0. -1.
</event>
<event>
 5   0  0.6848661E-07  0.3736883E+04  0.7818609E-02  0.8059837E-01
        2   -1    0    0  501    0  0.00000000000E+00  0.00000000000E+00  0.26296409375E+04  0.26296409375E+04  0.25500000920E-02 0. -1.
       -2   -1    0    0    0  501  0.00000000000E+00  0.00000000000E+00 -0.13275855402E+04  0.13275855402E+04  0.25500000920E-02 0.  1.
    10030    2    1    2    0    0  0.00000000000E+00  0.00000000000E+00  0.13020553974E+04  0.39572264777E+04  0.37368828103E+04 0.  0.
        1    1    3    3  502    0  0.10486460763E+04  0.14694593909E+04  0.14084873941E+03  0.18107478737E+04  0.50400001928E-02 0.  1.
       -1    1    3    3    0  502 -0.10486460763E+04 -0.14694593909E+04  0.11612066580E+04  0.21464786040E+04  0.50400001928E-02 0. -1.
</event>
<event>
 5   0  0.6541476E-07  0.3583562E+04  0.7818609E-02  0.8094267E-01
        2   -1    0    0  501    0  0.00000000000E+00  0.00000000000E+00  0.11621776143E+04  0.11621776143E+04  0.25500000920E-02 0.  1.
       -2   -1    0    0    0  501  0.00000000000E+00  0.00000000000E+00 -0.27624687738E+04  0.27624687738E+04  0.25500000920E-02 0. -1.
    10030    2    1    2    0    0  0.00000000000E+00  0.00000000000E+00 -0.16002911594E+04  0.39246463881E+04  0.35835621212E+04 0.  0.
        4    1    3    3  502    0 -0.30818356140E+03  0.38192229873E+03  0.10871381921E+04  0.11927752560E+04  0.12699999809E+01 0.  1.
       -4    1    3    3    0  502  0.30818356140E+03 -0.38192229873E+03 -0.26874293515E+04  0.27318711321E+04  0.12699999809E+01 0. -1.
</event>
<event>
 5   0  0.2108068E-07  0.3611095E+04  0.7818609E-02  0.8087955E-01
        1   -1    0    0  501    0  0.00000000000E+00  0.00000000000E+00  0.32718368244E+04  0.32718368244E+04  0.50400001928E-02 0.  1.
       -1   -1    0    0    0  501  0.00000000000E+00  0.00000000000E+00 -0.99638278721E+03  0.99638278722E+03  0.50400001928E-02 0. -1.
    10030    2    1    2    0    0  0.00000000000E+00  0.00000000000E+00  0.22754540372E+04  0.42682196116E+04  0.36110950663E+04 0.  0.
        5    1    3    3  502    0  0.13766559258E+04 -0.38970117288E+03  0.24394720538E+04  0.28280902626E+04  0.46999998093E+01 0.  1.
       -5    1    3    3    0  502 -0.13766559258E+04  0.38970117288E+03 -0.16401801658E+03  0.14401293490E+04  0.46999998093E+01 0. -1.
</event>
<event>
 5   0  0.2086250E-07  0.3570807E+04  0.7818609E-02  0.8097212E-01
        1   -1    0    0  501    0  0.00000000000E+00  0.00000000000E+00  0.20452614454E+04  0.20452614455E+04  0.50400001928E-02 0.  1.
       -1   -1    0    0    0  501  0.00000000000E+00  0.00000000000E+00 -0.15585612752E+04  0.15585612752E+04  0.50400001928E-02 0. -1.
    10030    2    1    2    0    0  0.00000000000E+00  0.00000000000E+00  0.48670017028E+03  0.36038227206E+04  0.35708067920E+04 0.  0.
        4    1    3    3  502    0 -0.56367514168E+03  0.90813661164E+03 -0.11999853842E+04  0.16069873385E+04  0.12699999809E+01 0. -1.
       -4    1    3    3    0  502  0.56367514168E+03 -0.90813661164E+03  0.16866855545E+04  0.19968353822E+04  0.12699999809E+01 0.  1.
</event>
<event>
 5   0  0.2086250E-07  0.3576330E+04  0.7818609E-02  0.8095935E-01
       -3   -1    0    0    0  501  0.00000000000E+00  0.00000000000E+00  0.21506338943E+04  0.21506338967E+04  0.10100000352E+00 0.  1.
        3   -1    0    0  501    0  0.00000000000E+00  0.00000000000E+00 -0.14867871781E+04  0.14867871815E+04  0.10100000352E+00 0. -1.
    10030    2    1    2    0    0  0.00000000000E+00  0.00000000000E+00  0.66384671618E+03  0.36374210782E+04  0.35763304710E+04 0.  0.
        4    1    3    3  502    0 -0.70884236217E+03 -0.14313797953E+04 -0.48569138793E+03  0.16694919437E+04  0.12699999809E+01 0. -1.
       -4    1    3    3    0  502  0.70884236217E+03  0.14313797953E+04  0.11495381041E+04  0.19679291345E+04  0.12699999809E+01 0.  1.
</event>
<event>
 5   0  0.6729577E-07  0.3637915E+04  0.7818609E-02  0.8081862E-01
        2   -1    0    0  501    0  0.00000000000E+00  0.00000000000E+00  0.11382758365E+04  0.11382758365E+04  0.25500000920E-02 0.  1.
       -2   -1    0    0    0  501  0.00000000000E+00  0.00000000000E+00 -0.29066820716E+04  0.29066820716E+04  0.25500000920E-02 0. -1.
    10030    2    1    2    0    0  0.00000000000E+00  0.00000000000E+00 -0.17684062351E+04  0.40449579082E+04  0.36379147690E+04 0.  0.
        3    1    3    3  502    0 -0.12281142235E+04  0.67030963113E+03 -0.21765925729E+04  0.25874958524E+04  0.10100000352E+00 0. -1.
       -3    1    3    3    0  502  0.12281142235E+04 -0.67030963113E+03  0.40818633778E+03  0.14574620558E+04  0.10100000352E+00 0.  1.
</event>
<event>
 5   0  0.6324216E-07  0.3579824E+04  0.7818609E-02  0.8095129E-01
        2   -1    0    0  501    0  0.00000000000E+00  0.00000000000E+00  0.19907705544E+04  0.19907705544E+04  0.25500000920E-02 0.  1.
       -2   -1    0    0    0  501  0.00000000000E+00  0.00000000000E+00 -0.16093186366E+04  0.16093186366E+04  0.25500000920E-02 0. -1.
    10030    2    1    2    0    0  0.00000000000E+00  0.00000000000E+00  0.38145191788E+03  0.36000891910E+04  0.35798235456E+04 0.  0.
        2    1    3    3  502    0  0.28128054533E+03  0.14223331203E+04 -0.86480332575E+03  0.16882046803E+04  0.25500000920E-02 0. -1.
       -2    1    3    3    0  502 -0.28128054533E+03 -0.14223331203E+04  0.12462552436E+04  0.19118845108E+04  0.25500000920E-02 0.  1.
</event>
<event>
 5   0  0.6669864E-07  0.3623790E+04  0.7818609E-02  0.8085064E-01
       -2   -1    0    0    0  501  0.00000000000E+00  0.00000000000E+00  0.12510652901E+04  0.12510652901E+04  0.25500000920E-02 0. -1.
        2   -1    0    0  501    0  0.00000000000E+00  0.00000000000E+00 -0.26241344903E+04  0.26241344903E+04  0.25500000920E-02 0.  1.
    10030    2    1    2    0    0  0.00000000000E+00  0.00000000000E+00 -0.13730692003E+04  0.38751997804E+04  0.36237900476E+04 0.  0.
        5    1    3    3  502    0  0.64613518398E+03  0.10779018254E+04 -0.20822990731E+04  0.24321501888E+04  0.46999998093E+01 0.  1.
       -5    1    3    3    0  502 -0.64613518398E+03 -0.10779018254E+04  0.70922987288E+03  0.14430495915E+04  0.46999998093E+01 0. -1.
</event>
<event>
 5   0  0.2086250E-07  0.3658454E+04  0.7818609E-02  0.8077232E-01
        1   -1    0    0  501    0  0.00000000000E+00  0.00000000000E+00  0.17294932340E+04  0.17294932340E+04  0.50400001928E-02 0.  1.
       -1   -1    0    0    0  501  0.00000000000E+00  0.00000000000E+00 -0.19347119798E+04  0.19347119798E+04  0.50400001928E-02 0. -1.
    10030    2    1    2    0    0  0.00000000000E+00  0.00000000000E+00 -0.20521874584E+03  0.36642052138E+04  0.36584539241E+04 0.  0.
        4    1    3    3  502    0  0.11742025770E+04  0.73818942885E+02  0.13002597999E+04  0.17535330303E+04  0.12699999809E+01 0.  1.
       -4    1    3    3    0  502 -0.11742025770E+04 -0.73818942885E+02 -0.15054785458E+04  0.19106721835E+04  0.12699999809E+01 0. -1.
</event>
<event>
 5   0  0.2193129E-07  0.3546789E+04  0.7818609E-02  0.8102790E-01
       -1   -1    0    0    0  501  0.00000000000E+00  0.00000000000E+00  0.17163219848E+04  0.17163219848E+04  0.50400001928E-02 0. -1.
        1   -1    0    0  501    0  0.00000000000E+00  0.00000000000E+00 -0.18323643624E+04  0.18323643624E+04  0.50400001928E-02 0.  1.
    10030    2    1    2    0    0  0.00000000000E+00  0.00000000000E+00 -0.11604237759E+03  0.35486863472E+04  0.35467885414E+04 0.  0.
        1    1    3    3  502    0 -0.22371585250E+03  0.51019672009E+03 -0.17425424891E+04  0.18294271787E+04  0.50400001928E-02 0.  1.
       -1    1    3    3    0  502  0.22371585250E+03 -0.51019672009E+03  0.16265001115E+04  0.17192591685E+04  0.50400001928E-02 0. -1.
</event>
<event>
 5   0  0.6324216E-07  0.3603756E+04  0.7818609E-02  0.8089632E-01
       -2   -1    0    0    0  501  0.00000000000E+00  0.00000000000E+00  0.12178216236E+04  0.12178216236E+04  0.25500000920E-02 0.  1.
        2   -1    0    0  501    0  0.00000000000E+00  0.00000000000E+00 -0.26660427695E+04  0.26660427695E+04  0.25500000920E-02 0. -1.
    10030    2    1    2    0    0  0.00000000000E+00  0.00000000000E+00 -0.14482211459E+04  0.38838643930E+04  0.36037561150E+04 0.  0.
        2    1    3    3  502    0 -0.11433435624E+04 -0.99479276907E+03 -0.17745030005E+04  0.23336040911E+04  0.25500000920E-02 0. -1.
       -2    1    3    3    0  502  0.11433435624E+04  0.99479276907E+03  0.32628185466E+03  0.15502603019E+04  0.25500000920E-02 0.  1.
</event>
<event>
 5   0  0.2086250E-07  0.3252541E+04  0.7818609E-02  0.8175077E-01
       -1   -1    0    0    0  501  0.00000000000E+00  0.00000000000E+00  0.11006709400E+04  0.11006709400E+04  0.50400001928E-02 0. -1.
        1   -1    0    0  501    0  0.00000000000E+00  0.00000000000E+00 -0.24028582188E+04  0.24028582189E+04  0.50400001928E-02 0.  1.
    10030    2    1    2    0    0  0.00000000000E+00  0.00000000000E+00 -0.13021872788E+04  0.35035291589E+04  0.32525412922E+04 0.  0.
        4    1    3    3  502    0 -0.12003042793E+04 -0.92015716326E+03 -0.12949970362E+04  0.19910897781E+04  0.12699999809E+01 0.  1.
       -4    1    3    3    0  502  0.12003042793E+04  0.92015716326E+03 -0.71902426617E+01  0.15124393807E+04  0.12699999809E+01 0. -1.
</event>
<event>
 5   0  0.6541476E-07  0.3689349E+04  0.7818609E-02  0.8070326E-01
        2   -1    0    0  501    0  0.00000000000E+00  0.00000000000E+00  0.25519800620E+04  0.25519800620E+04  0.25500000920E-02 0. -1.
       -2   -1    0    0    0  501  0.00000000000E+00  0.00000000000E+00 -0.13334053685E+04  0.13334053685E+04  0.25500000920E-02 0.  1.
    10030    2    1    2    0    0  0.00000000000E+00  0.00000000000E+00  0.12185746935E+04  0.38853854305E+04  0.36893489480E+04 0.  0.
        4    1    3    3  502    0  0.44705512610E+03 -0.92111203170E+03  0.22252646460E+04  0.24495122001E+04  0.12699999809E+01 0. -1.
       -4    1    3    3    0  502 -0.44705512610E+03  0.92111203170E+03 -0.10066899525E+04  0.14358732305E+04  0.12699999809E+01 0.  1.
</event>
<event>
 5   0  0.2108068E-07  0.3607473E+04  0.7818609E-02  0.8088782E-01
       -1   -1    0    0    0  501  0.00000000000E+00  0.00000000000E+00  0.14748124185E+04  0.14748124185E+04  0.50400001928E-02 0.  1.
        1   -1    0    0  501    0  0.00000000000E+00  0.00000000000E+00 -0.22060198426E+04  0.22060198426E+04  0.50400001928E-02 0. -1.
    10030    2    1    2    0    0  0.00000000000E+00  0.00000000000E+00 -0.73120742417E+03  0.36808322611E+04  0.36074730543E+04 0.  0.
        5    1    3    3  502    0 -0.14274709440E+04 -0.74473511027E+03 -0.11952434495E+04  0.20052263399E+04  0.46999998093E+01 0. -1.
       -5    1    3    3    0  502  0.14274709440E+04  0.74473511027E+03  0.46403602534E+03  0.16756059212E+04  0.46999998093E+01 0.  1.
</event>
<event>
 5   0  0.6669864E-07  0.3617758E+04  0.7818609E-02  0.8086436E-01
        2   -1    0    0  501    0  0.00000000000E+00  0.00000000000E+00  0.16665530011E+04  0.16665530011E+04  0.25500000920E-02 0.  1.
       -2   -1    0    0    0  501  0.00000000000E+00  0.00000000000E+00 -0.19633593029E+04  0.19633593029E+04  0.25500000920E-02 0. -1.
    10030    2    1    2    0    0  0.00000000000E+00  0.00000000000E+00 -0.29680630182E+03  0.36299123040E+04  0.36177575034E+04 0.  0.
        5    1    3    3  502    0 -0.82069179141E+03  0.14036498942E+04  0.64688349723E+03  0.17499281102E+04  0.46999998093E+01 0.  1.
       -5    1    3    3    0  502  0.82069179141E+03 -0.14036498942E+04 -0.94368979905E+03  0.18799841938E+04  0.46999998093E+01 0. -1.
</event>
<event>
 5   0  0.6848661E-07  0.3547823E+04  0.7818609E-02  0.8102549E-01
        2   -1    0    0  501    0  0.00000000000E+00  0.00000000000E+00  0.15659436008E+04  0.15659436008E+04  0.25500000920E-02 0. -1.
       -2   -1    0    0    0  501  0.00000000000E+00  0.00000000000E+00 -0.20094984511E+04  0.20094984511E+04  0.25500000920E-02 0.  1.
    10030    2    1    2    0    0  0.00000000000E+00  0.00000000000E+00 -0.44355485024E+03  0.35754420519E+04  0.35478225662E+04 0.  0.
        1    1    3    3  502    0  0.14750821218E+04  0.44966579982E+03  0.66180034122E+03  0.16781079492E+04  0.50400001928E-02 0. -1.
       -1    1    3    3    0  502 -0.14750821218E+04 -0.44966579982E+03 -0.11053551915E+04  0.18973341026E+04  0.50400001928E-02 0.  1.
</event>
<event>
 5   0  0.2086250E-07  0.3634502E+04  0.7818609E-02  0.8082634E-01
       -1   -1    0    0    0  501  0.00000000000E+00  0.00000000000E+00  0.17284329489E+04  0.17284329489E+04  0.50400001928E-02 0. -1.
        1   -1    0    0  501    0  0.00000000000E+00  0.00000000000E+00 -0.19106326886E+04  0.19106326886E+04  0.50400001928E-02 0.  1.
    10030    2    1    2    0    0  0.00000000000E+00  0.00000000000E+00 -0.18219973971E+03  0.36390656376E+04  0.36345016122E+04 0.  0.
        3    1    3    3  502    0  0.11154302564E+04  0.13467955739E+04 -0.58604592420E+03  0.18443136420E+04  0.10100000352E+00 0. -1.
       -3    1    3    3    0  502 -0.11154302564E+04 -0.13467955739E+04  0.40384618449E+03  0.17947519955E+04  0.10100000352E+00 0.  1.
</event>
<event>
 5   0  0.2086250E-07  0.3629064E+04  0.7818609E-02  0.8083867E-01
        1   -1    0    0  501    0  0.00000000000E+00  0.00000000000E+00  0.26219315508E+04  0.26219315508E+04  0.50400001928E-02 0.  1.
       -1   -1    0    0    0  501  0.00000000000E+00  0.00000000000E+00 -0.12557634832E+04  0.12557634832E+04  0.50400001928E-02 0. -1.
    10030    2    1    2    0    0  0.00000000000E+00  0.00000000000E+00  0.13661680676E+04  0.38776950340E+04  0.36290637344E+04 0.  0.
        4    1    3    3  502    0 -0.15750369912E+04 -0.56304894497E+03 -0.68496894661E+02  0.16740546812E+04  0.12699999809E+01 0. -1.
       -4    1    3    3    0  502  0.15750369912E+04  0.56304894497E+03  0.14346649622E+04  0.22036403529E+04  0.12699999809E+01 0.  1.
</event>
<event>
 5   0  0.2086250E-07  0.3646268E+04  0.7818609E-02  0.8079975E-01
       -1   -1    0    0    0  501  0.00000000000E+00  0.00000000000E+00  0.10982860886E+04  0.10982860886E+04  0.50400001928E-02 0.  1.
        1   -1    0    0  501    0  0.00000000000E+00  0.00000000000E+00 -0.30263671184E+04  0.30263671184E+04  0.50400001928E-02 0. -1.
    10030    2    1    2    0    0  0.00000000000E+00  0.00000000000E+00 -0.19280810298E+04  0.41246532070E+04  0.36462676288E+04 0.  0.
        4    1    3    3  502    0  0.11617008986E+04  0.14045300646E+04 -0.10087423642E+04  0.20832226118E+04  0.12699999809E+01 0.  1.
       -4    1    3    3    0  502 -0.11617008986E+04 -0.14045300646E+04 -0.91933866558E+03  0.20414305952E+04  0.12699999809E+01 0. -1.
</event>
<event>
 5   0  0.2086250E-07  0.3588090E+04  0.7818609E-02  0.8093225E-01
        1   -1    0    0  501    0  0.00000000000E+00  0.00000000000E+00  0.24997374632E+04  0.24997374632E+04  0.50400001928E-02 0.  1.
       -1   -1    0    0    0  501  0.00000000000E+00  0.00000000000E+00 -0.12875743784E+04  0.12875743784E+04  0.50400001928E-02 0. -1.
    10030    2    1    2    0    0  0.00000000000E+00  0.00000000000E+00  0.12121630848E+04  0.37873118416E+04  0.35880902498E+04 0.  0.
        4    1    3    3  502    0 -0.58476308346E+03 -0.10518563795E+04  0.20104613966E+04  0.23431402747E+04  0.12699999809E+01 0.  1.
       -4    1    3    3    0  502  0.58476308346E+03  0.10518563795E+04 -0.79829831183E+03  0.14441715668E+04  0.12699999809E+01 0. -1.
</event>
<event>
 5   0  0.2086250E-07  0.3280553E+04  0.7818609E-02  0.8167861E-01
       -1   -1    0    0    0  501  0.00000000000E+00  0.00000000000E+00  0.11863318818E+04  0.11863318818E+04  0.50400001928E-02 0.  1.
        1   -1    0    0  501    0  0.00000000000E+00  0.00000000000E+00 -0.22679216502E+04  0.22679216502E+04  0.50400001928E-02 0. -1.
    10030    2    1    2    0    0  0.00000000000E+00  0.00000000000E+00 -0.10815897685E+04  0.34542535320E+04  0.32805534649E+04 0.  0.
        3    1    3    3  502    0  0.10094165955E+04 -0.10107996315E+04 -0.13896241245E+04  0.19929106794E+04  0.10100000352E+00 0. -1.
       -3    1    3    3    0  502 -0.10094165955E+04  0.10107996315E+04  0.30803435605E+03  0.14613428527E+04  0.10100000352E+00 0.  1.
</event>
<event>
 5   0  0.6669864E-07  0.3497741E+04  0.7818609E-02  0.8114325E-01
       -2   -1    0    0    0  501  0.00000000000E+00  0.00000000000E+00  0.14805842475E+04  0.14805842475E+04  0.25500000920E-02 0.  1.
        2   -1    0    0  501    0  0.00000000000E+00  0.00000000000E+00 -0.20657711372E+04  0.20657711372E+04  0.25500000920E-02 0. -1.
    10030    2    1    2    0    0  0.00000000000E+00  0.00000000000E+00 -0.58518688974E+03  0.35463553847E+04  0.34977411023E+04 0.  0.
        5    1    3    3  502    0  0.16697390715E+04  0.50812443692E+03 -0.18011416277E+03  0.17546173976E+04  0.46999998093E+01 0.  1.
       -5    1    3    3    0  502 -0.16697390715E+04 -0.50812443692E+03 -0.40507272697E+03  0.17917379871E+04  0.46999998093E+01 0. -1.
</event>
<event>
 5   0  0.6324216E-07  0.3604714E+04  0.7818609E-02  0.8089413E-01
       -2   -1    0    0    0  501  0.00000000000E+00  0.00000000000E+00  0.11024427985E+04  0.11024427985E+04  0.25500000920E-02 0. -1.
        2   -1    0    0  501    0  0.00000000000E+00  0.00000000000E+00 -0.29466304431E+04  0.29466304431E+04  0.25500000920E-02 0.  1.
    10030    2    1    2    0    0  0.00000000000E+00  0.00000000000E+00 -0.18441876446E+04  0.40490732416E+04  0.36047144196E+04 0.  0.
        2    1    3    3  502    0 -0.12891605856E+04 -0.80261119047E+03 -0.20125190820E+04  0.25211808333E+04  0.25500000920E-02 0.  1.
       -2    1    3    3    0  502  0.12891605856E+04  0.80261119047E+03  0.16833143738E+03  0.15278924083E+04  0.25500000920E-02 0. -1.
</event>
<event>
 5   0  0.2086250E-07  0.3280846E+04  0.7818609E-02  0.8167786E-01
       -1   -1    0    0    0  501  0.00000000000E+00  0.00000000000E+00  0.10648381461E+04  0.10648381461E+04  0.50400001928E-02 0.  1.
        1   -1    0    0  501    0  0.00000000000E+00  0.00000000000E+00 -0.25271330700E+04  0.25271330701E+04  0.50400001928E-02 0. -1.
    10030    2    1    2    0    0  0.00000000000E+00  0.00000000000E+00 -0.14622949240E+04  0.35919712161E+04  0.32808460453E+04 0.  0.
        2    1    3    3  502    0 -0.82835947971E+03 -0.24992980989E+03 -0.22569909851E+04  0.24171579684E+04  0.25500000920E-02 0. -1.
       -2    1    3    3    0  502  0.82835947971E+03  0.24992980989E+03  0.79469606111E+03  0.11748132477E+04  0.25500000920E-02 0.  1.
</event>
<event>
 5   0  0.2193129E-07  0.3559386E+04  0.7818609E-02  0.8099859E-01
       -1   -1    0    0    0  501  0.00000000000E+00  0.00000000000E+00  0.17431910382E+04  0.17431910383E+04  0.50400001928E-02 0.  1.
        1   -1    0    0  501    0  0.00000000000E+00  0.00000000000E+00 -0.18169589611E+04  0.18169589611E+04  0.50400001928E-02 0. -1.
    10030    2    1    2    0    0  0.00000000000E+00  0.00000000000E+00 -0.73767922857E+02  0.35601499994E+04  0.35593856649E+04 0.  0.
        1    1    3    3  502    0 -0.54596484546E+03 -0.15921008551E+04 -0.61531933671E+03  0.17920604430E+04  0.50400001928E-02 0. -1.
       -1    1    3    3    0  502  0.54596484546E+03  0.15921008551E+04  0.54155141386E+03  0.17680895563E+04  0.50400001928E-02 0.  1.
</event>
<event>
 5   0  0.2086250E-07  0.3585855E+04  0.7818609E-02  0.8093739E-01
       -1   -1    0    0    0  501  0.00000000000E+00  0.00000000000E+00  0.14164246347E+04  0.14164246348E+04  0.50400001928E-02 0. -1.
        1   -1    0    0  501    0  0.00000000000E+00  0.00000000000E+00 -0.22695096462E+04  0.22695096462E+04  0.50400001928E-02 0.  1.
    10030    2    1    2    0    0  0.00000000000E+00  0.00000000000E+00 -0.85308501142E+03  0.36859342809E+04  0.35858551960E+04 0.  0.
        3    1    3    3  502    0  0.15959387805E+04 -0.81015992926E+03 -0.31771189985E+03  0.18177790195E+04  0.10100000352E+00 0.  1.
       -3    1    3    3    0  502 -0.15959387805E+04  0.81015992926E+03 -0.53537311158E+03  0.18681552615E+04  0.10100000352E+00 0. -1.
</event>
<event>
 5   0  0.2193129E-07  0.3631900E+04  0.7818609E-02  0.8083223E-01
       -1   -1    0    0    0  501  0.00000000000E+00  0.00000000000E+00  0.21454470072E+04  0.21454470072E+04  0.50400001928E-02 0. -1.
        1   -1    0    0  501    0  0.00000000000E+00  0.00000000000E+00 -0.15370569259E+04  0.15370569259E+04  0.50400001928E-02 0.  1.
    10030    2    1    2    0    0  0.00000000000E+00  0.00000000000E+00  0.60839008135E+03  0.36825039331E+04  0.36318998783E+04 0.  0.
        1    1    3    3  502    0 -0.43617859400E+03  0.10874900119E+03 -0.14797501002E+04  0.15465246427E+04  0.50400001928E-02 0.  1.
       -1    1    3    3    0  502  0.43617859400E+03 -0.10874900119E+03  0.20881401816E+04  0.21359792904E+04  0.50400001928E-02 0. -1.
</event>
<event>
 5   0  0.2086250E-07  0.3580364E+04  0.7818609E-02  0.8095004E-01
       -1   -1    0    0    0  501  0.00000000000E+00  0.00000000000E+00  0.25440506724E+04  0.25440506724E+04  0.50400001928E-02 0. -1.
        1   -1    0    0  501    0  0.00000000000E+00  0.00000000000E+00 -0.12597045249E+04  0.12597045249E+04  0.50400001928E-02 0.  1.
    10030    2    1    2    0    0  0.00000000000E+00  0.00000000000E+00  0.12843461475E+04  0.38037551973E+04  0.35803643075E+04 0.  0.
        4    1    3    3  502    0  0.34810557895E+03 -0.10080531618E+04 -0.88538521483E+03  0.13860942474E+04  0.12699999809E+01 0.  1.
       -4    1    3    3    0  502 -0.34810557895E+03  0.10080531618E+04  0.21697313623E+04  0.24176609499E+04  0.12699999809E+01 0. -1.
</event>
<event>
 5   0  0.2086250E-07  0.3564763E+04  0.7818609E-02  0.8098611E-01
       -1   -1    0    0    0  501  0.00000000000E+00  0.00000000000E+00  0.11962437752E+04  0.11962437752E+04  0.50400001928E-02 0. -1.
        1   -1    0    0  501    0  0.00000000000E+00  0.00000000000E+00 -0.26557154791E+04  0.26557154791E+04  0.50400001928E-02 0.  1.
    10030    2    1    2    0    0  0.00000000000E+00  0.00000000000E+00 -0.14594717039E+04  0.38519592543E+04  0.35647626067E+04 0.  0.
        4    1    3    3  502    0  0.17661158652E+04 -0.12121079555E+02 -0.98900249810E+03  0.20242133594E+04  0.12699999809E+01 0.  1.
       -4    1    3    3    0  502 -0.17661158652E+04  0.12121079555E+02 -0.47046920584E+03  0.18277458950E+04  0.12699999809E+01 0. -1.
</event>
<event>
 5   0  0.2086250E-07  0.3395035E+04  0.7818609E-02  0.8139126E-01
        1   -1    0    0  501    0  0.00000000000E+00  0.00000000000E+00  0.14741093899E+04  0.14741093899E+04  0.50400001928E-02 0. -1.
       -1   -1    0    0    0  501  0.00000000000E+00  0.00000000000E+00 -0.19547838311E+04  0.19547838311E+04  0.50400001928E-02 0.  1.
    10030    2    1    2    0    0  0.00000000000E+00  0.00000000000E+00 -0.48067444121E+03  0.34288932210E+04  0.33950347277E+04 0.  0.
        3    1    3    3  502    0  0.27130617421E+03 -0.59511229814E+03  0.13417458271E+04  0.14926645847E+04  0.10100000352E+00 0. -1.
       -3    1    3    3    0  502 -0.27130617421E+03  0.59511229814E+03 -0.18224202683E+04  0.19362286363E+04  0.10100000352E+00 0.  1.
</event>
<event>
 5   0  0.6324216E-07  0.3541001E+04  0.7818609E-02  0.8104141E-01
        2   -1    0    0  501    0  0.00000000000E+00  0.00000000000E+00  0.26198124644E+04  0.26198124644E+04  0.25500000920E-02 0.  1.
       -2   -1    0    0    0  501  0.00000000000E+00  0.00000000000E+00 -0.11965250885E+04  0.11965250885E+04  0.25500000920E-02 0. -1.
    10030    2    1    2    0    0  0.00000000000E+00  0.00000000000E+00  0.14232873759E+04  0.38163375529E+04  0.35410006161E+04 0.  0.
        2    1    3    3  502    0  0.11609358843E+04  0.92109951231E+03 -0.33243230476E+03  0.15187849341E+04  0.25500000920E-02 0. -1.
       -2    1    3    3    0  502 -0.11609358843E+04 -0.92109951231E+03  0.17557196807E+04  0.22975526188E+04  0.25500000920E-02 0.  1.
</event>
<event>
 5   0  0.2086250E-07  0.3620143E+04  0.7818609E-02  0.8085893E-01
       -3   -1    0    0    0  501  0.00000000000E+00  0.00000000000E+00  0.17029328112E+04  0.17029328142E+04  0.10100000352E+00 0.  1.
        3   -1    0    0  501    0  0.00000000000E+00  0.00000000000E+00 -0.19239510884E+04  0.19239510910E+04  0.10100000352E+00 0. -1.
    10030    2    1    2    0    0  0.00000000000E+00  0.00000000000E+00 -0.22101827713E+03  0.36268839052E+04  0.36201433374E+04 0.  0.
        4    1    3    3  502    0  0.91993345214E+03  0.57599787924E+03 -0.15617596088E+04  0.19018795445E+04  0.12699999809E+01 0. -1.
       -4    1    3    3    0  502 -0.91993345214E+03 -0.57599787924E+03  0.13407413317E+04  0.17250043607E+04  0.12699999809E+01 0.  1.
</event>
<event>
 5   0  0.6848661E-07  0.3589108E+04  0.7818609E-02  0.8092991E-01
       -2   -1    0    0    0  501  0.00000000000E+00  0.00000000000E+00  0.15941268713E+04  0.15941268713E+04  0.25500000920E-02 0.  1.
        2   -1    0    0  501    0  0.00000000000E+00  0.00000000000E+00 -0.20201805738E+04  0.20201805738E+04  0.25500000920E-02 0. -1.
    10030    2    1    2    0    0  0.00000000000E+00  0.00000000000E+00 -0.42605370252E+03  0.36143074451E+04  0.35891080438E+04 0.  0.
        1    1    3    3  502    0  0.22273568162E+03 -0.43854660444E+03  0.15249205196E+04  0.16022848996E+04  0.50400001928E-02 0.  1.
       -1    1    3    3    0  502 -0.22273568162E+03  0.43854660444E+03 -0.19509742222E+04  0.20120225455E+04  0.50400001928E-02 0. -1.
</event>
<event>
 5   0  0.2086250E-07  0.3539237E+04  0.7818609E-02  0.8104554E-01
        1   -1    0    0  501    0  0.00000000000E+00  0.00000000000E+00  0.14363540670E+04  0.14363540670E+04  0.50400001928E-02 0.  1.
       -1   -1    0    0    0  501  0.00000000000E+00  0.00000000000E+00 -0.21802070727E+04  0.21802070727E+04  0.50400001928E-02 0. -1.
    10030    2    1    2    0    0  0.00000000000E+00  0.00000000000E+00 -0.74385300572E+03  0.36165611397E+04  0.35392368080E+04 0.  0.
        3    1    3    3  502    0 -0.22912773795E+03 -0.14176531171E+04 -0.14285928660E+04  0.20256153307E+04  0.10100000352E+00 0. -1.
       -3    1    3    3    0  502  0.22912773795E+03  0.14176531171E+04  0.68473986031E+03  0.15909458090E+04  0.10100000352E+00 0.  1.
</event>
<event>
 5   0  0.6848661E-07  0.3590196E+04  0.7818609E-02  0.8092741E-01
        2   -1    0    0  501    0  0.00000000000E+00  0.00000000000E+00  0.20221378550E+04  0.20221378550E+04  0.25500000920E-02 0.  1.
       -2   -1    0    0    0  501  0.00000000000E+00  0.00000000000E+00 -0.15935494927E+04  0.15935494927E+04  0.25500000920E-02 0. -1.
    10030    2    1    2    0    0  0.00000000000E+00  0.00000000000E+00  0.42858836224E+03  0.36156873477E+04  0.35901959573E+04 0.  0.
        1    1    3    3  502    0 -0.13941657205E+04  0.10237203757E+04 -0.26940266200E+03  0.17505082856E+04  0.50400001928E-02 0. -1.
       -1    1    3    3    0  502  0.13941657205E+04 -0.10237203757E+04  0.69799102424E+03  0.18651790621E+04  0.50400001928E-02 0.  1.
</event>
<event>
 5   0  0.2193129E-07  0.3599169E+04  0.7818609E-02  0.8090682E-01
        1   -1    0    0  501    0  0.00000000000E+00  0.00000000000E+00  0.25245458556E+04  0.25245458556E+04  0.50400001928E-02 0. -1.
       -1   -1    0    0    0  501  0.00000000000E+00  0.00000000000E+00 -0.12828066291E+04  0.12828066291E+04  0.50400001928E-02 0.  1.
    10030    2    1    2    0    0  0.00000000000E+00  0.00000000000E+00  0.12417392265E+04  0.38073524847E+04  0.35991688813E+04 0.  0.
        1    1    3    3  502    0  0.76861421771E+03  0.84617371512E+03 -0.84938877738E+03  0.14241625845E+04  0.50400001928E-02 0.  1.
       -1    1    3    3    0  502 -0.76861421771E+03 -0.84617371512E+03  0.20911280039E+04  0.23831899002E+04  0.50400001928E-02 0. -1.
</event>
<event>
 5   0  0.6669864E-07  0.3507401E+04  0.7818609E-02  0.8112038E-01
       -2   -1    0    0    0  501  0.00000000000E+00  0.00000000000E+00  0.25481103992E+04  0.25481103992E+04  0.25500000920E-02 0. -1.
        2   -1    0    0  501    0  0.00000000000E+00  0.00000000000E+00 -0.12069592712E+04  0.12069592712E+04  0.25500000920E-02 0.  1.
    10030    2    1    2    0    0  0.00000000000E+00  0.00000000000E+00  0.13411511280E+04  0.37550696704E+04  0.35074010152E+04 0.  0.
        5    1    3    3  502    0 -0.12588027853E+04 -0.47083922024E+03  0.18767006899E+04  0.23083114159E+04  0.46999998093E+01 0. -1.
       -5    1    3    3    0  502  0.12588027853E+04  0.47083922024E+03 -0.53554956195E+03  0.14467582544E+04  0.46999998093E+01 0.  1.
</event>
<event>
 5   0  0.2086250E-07  0.3635996E+04  0.7818609E-02  0.8082296E-01
       -1   -1    0    0    0  501  0.00000000000E+00  0.00000000000E+00  0.26687383994E+04  0.26687383994E+04  0.50400001928E-02 0.  1.
        1   -1    0    0  501    0  0.00000000000E+00  0.00000000000E+00 -0.12384567528E+04  0.12384567528E+04  0.50400001928E-02 0. -1.
    10030    2    1    2    0    0  0.00000000000E+00  0.00000000000E+00  0.14302816467E+04  0.39071951522E+04  0.36359962003E+04 0.  0.
        2    1    3    3  502    0  0.65559206750E+02  0.53040243299E+03 -0.11521357513E+04  0.12700557232E+04  0.25500000920E-02 0. -1.
       -2    1    3    3    0  502 -0.65559206750E+02 -0.53040243299E+03  0.25824173980E+04  0.26371394290E+04  0.25500000920E-02 0.  1.
</event>
<event>
 5   0  0.6729577E-07  0.3622539E+04  0.7818609E-02  0.8085348E-01
       -2   -1    0    0    0  501  0.00000000000E+00  0.00000000000E+00  0.26694966418E+04  0.26694966418E+04  0.25500000920E-02 0. -1.
        2   -1    0    0  501    0  0.00000000000E+00  0.00000000000E+00 -0.12289573822E+04  0.12289573822E+04  0.25500000920E-02 0.  1.
    10030    2    1    2    0    0  0.00000000000E+00  0.00000000000E+00  0.14405392596E+04  0.38984540240E+04  0.36225392225E+04 0.  0.
        3    1    3    3  502    0  0.31555094427E+03  0.64904983379E+03  0.25080855809E+04  0.26098527500E+04  0.10100000352E+00 0. -1.
       -3    1    3    3    0  502 -0.31555094427E+03 -0.64904983379E+03 -0.10675463213E+04  0.12886012740E+04  0.10100000352E+00 0.  1.
</event>
<event>
 5   0  0.6324216E-07  0.3661725E+04  0.7818609E-02  0.8076497E-01
       -2   -1    0    0    0  501  0.00000000000E+00  0.00000000000E+00  0.13407268706E+04  0.13407268706E+04  0.25500000920E-02 0.  1.
        2   -1    0    0  501    0  0.00000000000E+00  0.00000000000E+00 -0.25001794918E+04  0.25001794918E+04  0.25500000920E-02 0. -1.
    10030    2    1    2    0    0  0.00000000000E+00  0.00000000000E+00 -0.11594526212E+04  0.38409063624E+04  0.36617251814E+04 0.  0.
        2    1    3    3  502    0  0.11727155586E+04  0.14056585517E+04 -0.61154343524E+03  0.19300578019E+04  0.25500000920E-02 0.  1.
       -2    1    3    3    0  502 -0.11727155586E+04 -0.14056585517E+04 -0.54790918594E+03  0.19108485606E+04  0.25500000920E-02 0. -1.
</event>
<event>
 5   0  0.2086250E-07  0.3558213E+04  0.7818609E-02  0.8100131E-01
        1   -1    0    0  501    0  0.00000000000E+00  0.00000000000E+00  0.22891125775E+04  0.22891125775E+04  0.50400001928E-02 0.  1.
       -1   -1    0    0    0  501  0.00000000000E+00  0.00000000000E+00 -0.13827280488E+04  0.13827280488E+04  0.50400001928E-02 0. -1.
    10030    2    1    2    0    0  0.00000000000E+00  0.00000000000E+00  0.90638452873E+03  0.36718406263E+04  0.35582131290E+04 0.  0.
        2    1    3    3  502    0  0.14480542088E+03  0.16846677751E+04 -0.11778155066E+03  0.16949768777E+04  0.25500000920E-02 0. -1.
       -2    1    3    3    0  502 -0.14480542088E+03 -0.16846677751E+04  0.10241660794E+04  0.19768637486E+04  0.25500000920E-02 0.  1.
</event>
<event>
 5   0  0.6669864E-07  0.3618940E+04  0.7818609E-02  0.8086167E-01
       -2   -1    0    0    0  501  0.00000000000E+00  0.00000000000E+00  0.23236089167E+04  0.23236089167E+04  0.25500000920E-02 0.  1.
        2   -1    0    0  501    0  0.00000000000E+00  0.00000000000E+00 -0.14090932128E+04  0.14090932128E+04  0.25500000920E-02 0. -1.
    10030    2    1    2    0    0  0.00000000000E+00  0.00000000000E+00  0.91451570392E+03  0.37327021295E+04  0.36189399297E+04 0.  0.
        5    1    3    3  502    0 -0.32245384780E+03 -0.12674750818E+03  0.22890699879E+04  0.23151468451E+04  0.46999998093E+01 0.  1.
       -5    1    3    3    0  502  0.32245384780E+03  0.12674750818E+03 -0.13745542840E+04  0.14175552844E+04  0.46999998093E+01 0. -1.
</event>
<event>
 5   0  0.6669864E-07  0.3663527E+04  0.7818609E-02  0.8076093E-01
        2   -1    0    0  501    0  0.00000000000E+00  0.00000000000E+00  0.22966987453E+04  0.22966987453E+04  0.25500000920E-02 0. -1.
       -2   -1    0    0    0  501  0.00000000000E+00  0.00000000000E+00 -0.14609480864E+04  0.14609480864E+04  0.25500000920E-02 0.  1.
    10030    2    1    2    0    0  0.00000000000E+00  0.00000000000E+00  0.83575065891E+03  0.37576468318E+04  0.36635270640E+04 0.  0.
        5    1    3    3  502    0 -0.12646972050E+03  0.32772620007E+03  0.22618203375E+04  0.22889413233E+04  0.46999998093E+01 0. -1.
       -5    1    3    3    0  502  0.12646972050E+03 -0.32772620007E+03 -0.14260696786E+04  0.14687055085E+04  0.46999998093E+01 0.  1.
</event>
<event>
 5   0  0.6729577E-07  0.3529530E+04  0.7818609E-02  0.8106827E-01
        2   -1    0    0  501    0  0.00000000000E+00  0.00000000000E+00  0.23395567200E+04  0.23395567200E+04  0.25500000920E-02 0. -1.
       -2   -1    0    0    0  501  0.00000000000E+00  0.00000000000E+00 -0.13311907181E+04  0.13311907181E+04  0.25500000920E-02 0.  1.
    10030    2    1    2    0    0  0.00000000000E+00  0.00000000000E+00  0.10083660019E+04  0.36707474381E+04  0.35295303881E+04 0.  0.
        3    1    3    3  502    0  0.12288777348E+04 -0.75256159202E+02  0.18191244772E+04  0.21965923268E+04  0.10100000352E+00 0. -1.
       -3    1    3    3    0  502 -0.12288777348E+04  0.75256159202E+02 -0.81075847527E+03  0.14741551112E+04  0.10100000352E+00 0.  1.
</event>
<event>
 5   0  0.6848661E-07  0.3393261E+04  0.7818609E-02  0.8139562E-01
        2   -1    0    0  501    0  0.00000000000E+00  0.00000000000E+00  0.18979538960E+04  0.18979538960E+04  0.25500000920E-02 0. -1.
       -2   -1    0    0    0  501  0.00000000000E+00  0.00000000000E+00 -0.15166626990E+04  0.15166626990E+04  0.25500000920E-02 0.  1.
    10030    2    1    2    0    0  0.00000000000E+00  0.00000000000E+00  0.38129119694E+03  0.34146165950E+04  0.33932614863E+04 0.  0.
        1    1    3    3  502    0 -0.79708850302E+03 -0.14613880251E+04  0.52065895382E+03  0.17441590489E+04  0.50400001928E-02 0. -1.
       -1    1    3    3    0  502  0.79708850302E+03  0.14613880251E+04 -0.13936775688E+03  0.16704575461E+04  0.50400001928E-02 0.  1.
</event>
<event>
 5   0  0.2108068E-07  0.3546293E+04  0.7818609E-02  0.8102906E-01
        1   -1    0    0  501    0  0.00000000000E+00  0.00000000000E+00  0.14668787852E+04  0.14668787852E+04  0.50400001928E-02 0.  1.
       -1   -1    0    0    0  501  0.00000000000E+00  0.00000000000E+00 -0.21433593428E+04  0.21433593428E+04  0.50400001928E-02 0. -1.
    10030    2    1    2    0    0  0.00000000000E+00  0.00000000000E+00 -0.67648055764E+03  0.36102381280E+04  0.35462929089E+04 0.  0.
        5    1    3    3  502    0  0.54399722220E+03 -0.60270342024E+03  0.12665216880E+04  0.15044213727E+04  0.46999998093E+01 0.  1.
       -5    1    3    3    0  502 -0.54399722220E+03  0.60270342024E+03 -0.19430022456E+04  0.21058167553E+04  0.46999998093E+01 0. -1.
</event>
<event>
 5   0  0.2193129E-07  0.3588156E+04  0.7818609E-02  0.8093210E-01
        1   -1    0    0  501    0  0.00000000000E+00  0.00000000000E+00  0.26923468001E+04  0.26923468001E+04  0.50400001928E-02 0. -1.
       -1   -1    0    0    0  501  0.00000000000E+00  0.00000000000E+00 -0.11955054264E+04  0.11955054264E+04  0.50400001928E-02 0.  1.
    10030    2    1    2    0    0  0.00000000000E+00  0.00000000000E+00  0.14968413737E+04  0.38878522266E+04  0.35881556317E+04 0.  0.
        1    1    3    3  502    0  0.12872322259E+03 -0.15585625909E+04  0.17010767679E+04  0.23107031804E+04  0.50400001928E-02 0. -1.
       -1    1    3    3    0  502 -0.12872322259E+03  0.15585625909E+04 -0.20423539414E+03  0.15771490462E+04  0.50400001928E-02 0.  1.
</event>
<event>
 5   0  0.6324216E-07  0.3728864E+04  0.7818609E-02  0.8061595E-01
       -2   -1    0    0    0  501  0.00000000000E+00  0.00000000000E+00  0.15975530572E+04  0.15975530572E+04  0.25500000920E-02 0.  1.
        2   -1    0    0  501    0  0.00000000000E+00  0.00000000000E+00 -0.21758938269E+04  0.21758938269E+04  0.25500000920E-02 0. -1.
    10030    2    1    2    0    0  0.00000000000E+00  0.00000000000E+00 -0.57834076967E+03  0.37734468841E+04  0.37288635455E+04 0.  0.
        2    1    3    3  502    0  0.73447213485E+03 -0.66265976315E+01 -0.20233140730E+04  0.21525085521E+04  0.25500000920E-02 0. -1.
       -2    1    3    3    0  502 -0.73447213485E+03  0.66265976315E+01  0.14449733034E+04  0.16209383320E+04  0.25500000920E-02 0.  1.
</event>
<event>
 5   0  0.2086250E-07  0.3463818E+04  0.7818609E-02  0.8122418E-01
       -1   -1    0    0    0  501  0.00000000000E+00  0.00000000000E+00  0.13995939125E+04  0.13995939125E+04  0.50400001928E-02 0.  1.
        1   -1    0    0  501    0  0.00000000000E+00  0.00000000000E+00 -0.21431285186E+04  0.21431285186E+04  0.50400001928E-02 0. -1.
    10030    2    1    2    0    0  0.00000000000E+00  0.00000000000E+00 -0.74353460613E+03  0.35427224311E+04  0.34638184873E+04 0.  0.
        2    1    3    3  502    0  0.87915982238E+02  0.14300455663E+04 -0.13669428086E+04  0.19802252860E+04  0.25500000920E-02 0. -1.
       -2    1    3    3    0  502 -0.87915982238E+02 -0.14300455663E+04  0.62340820243E+03  0.15624971451E+04  0.25500000920E-02 0.  1.
</event>
<event>
 5   0  0.6848661E-07  0.3574196E+04  0.7818609E-02  0.8096428E-01
        2   -1    0    0  501    0  0.00000000000E+00  0.00000000000E+00  0.23915547385E+04  0.23915547385E+04  0.25500000920E-02 0. -1.
       -2   -1    0    0    0  501  0.00000000000E+00  0.00000000000E+00 -0.13354151349E+04  0.13354151349E+04  0.25500000920E-02 0.  1.
    10030    2    1    2    0    0  0.00000000000E+00  0.00000000000E+00  0.10561396036E+04  0.37269698735E+04  0.35741955145E+04 0.  0.
        1    1    3    3  502    0  0.13814995860E+04 -0.65927739372E+03 -0.43359240748E+03  0.15909714529E+04  0.50400001928E-02 0.  1.
       -1    1    3    3    0  502 -0.13814995860E+04  0.65927739372E+03  0.14897320111E+04  0.21359984206E+04  0.50400001928E-02 0. -1.
</event>
<event>
 5   0  0.6669864E-07  0.3607366E+04  0.7818609E-02  0.8088806E-01
       -2   -1    0    0    0  501  0.00000000000E+00  0.00000000000E+00  0.10657101796E+04  0.10657101796E+04  0.25500000920E-02 0. -1.
        2   -1    0    0  501    0  0.00000000000E+00  0.00000000000E+00 -0.30526804469E+04  0.30526804469E+04  0.25500000920E-02 0.  1.
    10030    2    1    2    0    0  0.00000000000E+00  0.00000000000E+00 -0.19869702673E+04  0.41183906265E+04  0.36073661457E+04 0.  0.
        5    1    3    3  502    0 -0.85941761818E+03  0.85321738380E+01  0.81689577898E+03  0.11857538717E+04  0.46999998093E+01 0. -1.
       -5    1    3    3    0  502  0.85941761818E+03 -0.85321738380E+01 -0.28038660462E+04  0.29326367548E+04  0.46999998093E+01 0.  1.
</event>
<event>
 5   0  0.2108068E-07  0.3607771E+04  0.7818609E-02  0.8088714E-01
        1   -1    0    0  501    0  0.00000000000E+00  0.00000000000E+00  0.30001193107E+04  0.30001193107E+04  0.50400001928E-02 0. -1.
       -1   -1    0    0    0  501  0.00000000000E+00  0.00000000000E+00 -0.10846246343E+04  0.10846246343E+04  0.50400001928E-02 0.  1.
    10030    2    1    2    0    0  0.00000000000E+00  0.00000000000E+00  0.19154946764E+04  0.40847439450E+04  0.36077712290E+04 0.  0.
        5    1    3    3  502    0 -0.14328542513E+04  0.49913050038E+03 -0.14682414806E+03  0.15243956121E+04  0.46999998093E+01 0.  1.
       -5    1    3    3    0  502  0.14328542513E+04 -0.49913050038E+03  0.20623188245E+04  0.25603483328E+04  0.46999998093E+01 0. -1.
</event>
<event>
 5   0  0.2108068E-07  0.3591486E+04  0.7818609E-02  0.8092445E-01
       -1   -1    0    0    0  501  0.00000000000E+00  0.00000000000E+00  0.12865194592E+04  0.12865194592E+04  0.50400001928E-02 0.  1.
        1   -1    0    0  501    0  0.00000000000E+00  0.00000000000E+00 -0.25065246533E+04  0.25065246533E+04  0.50400001928E-02 0. -1.
    10030    2    1    2    0    0  0.00000000000E+00  0.00000000000E+00 -0.12200051941E+04  0.37930441124E+04  0.35914858994E+04 0.  0.
        5    1    3    3  502    0 -0.76380286840E+03  0.10531377374E+04  0.69727602651E+03  0.14760453458E+04  0.46999998093E+01 0.  1.
       -5    1    3    3    0  502  0.76380286840E+03 -0.10531377374E+04 -0.19172812206E+04  0.23169987666E+04  0.46999998093E+01 0. -1.
</event>
<event>
 5   0  0.6848661E-07  0.3503805E+04  0.7818609E-02  0.8112889E-01
       -2   -1    0    0    0  501  0.00000000000E+00  0.00000000000E+00  0.28081154462E+04  0.28081154462E+04  0.25500000920E-02 0.  1.
        2   -1    0    0  501    0  0.00000000000E+00  0.00000000000E+00 -0.10929615461E+04  0.10929615461E+04  0.25500000920E-02 0. -1.
    10030    2    1    2    0    0  0.00000000000E+00  0.00000000000E+00  0.17151539002E+04  0.39010769923E+04  0.35038049031E+04 0.  0.
        1    1    3    3  502    0 -0.11738952142E+04  0.18068527772E+03 -0.57626204369E+03  0.13201344956E+04  0.50400001928E-02 0. -1.
       -1    1    3    3    0  502  0.11738952142E+04 -0.18068527772E+03  0.22914159438E+04  0.25809424967E+04  0.50400001928E-02 0.  1.
</event>
<event>
 5   0  0.6541476E-07  0.3616472E+04  0.7818609E-02  0.8086729E-01
       -2   -1    0    0    0  501  0.00000000000E+00  0.00000000000E+00  0.14307322710E+04  0.14307322710E+04  0.25500000920E-02 0. -1.
        2   -1    0    0  501    0  0.00000000000E+00  0.00000000000E+00 -0.22853453913E+04  0.22853453913E+04  0.25500000920E-02 0.  1.
    10030    2    1    2    0    0  0.00000000000E+00  0.00000000000E+00 -0.85461312030E+03  0.37160776622E+04  0.36164719833E+04 0.  0.
        4    1    3    3  502    0 -0.71008240781E+03  0.15352001221E+04 -0.10841780243E+04  0.20091042885E+04  0.12699999809E+01 0. -1.
       -4    1    3    3    0  502  0.71008240781E+03 -0.15352001221E+04  0.22956490403E+03  0.17069733738E+04  0.12699999809E+01 0.  1.
</event>
<event>
 5   0  0.2086250E-07  0.3571626E+04  0.7818609E-02  0.8097022E-01
       -1   -1    0    0    0  501  0.00000000000E+00  0.00000000000E+00  0.17639419643E+04  0.17639419643E+04  0.50400001928E-02 0.  1.
        1   -1    0    0  501    0  0.00000000000E+00  0.00000000000E+00 -0.18079556863E+04  0.18079556863E+04  0.50400001928E-02 0. -1.
    10030    2    1    2    0    0  0.00000000000E+00  0.00000000000E+00 -0.44013721963E+02  0.35718976506E+04  0.35716264668E+04 0.  0.
        2    1    3    3  502    0 -0.95822697316E+03  0.66287020734E+03  0.13314373373E+04  0.17692713831E+04  0.25500000920E-02 0.  1.
       -2    1    3    3    0  502  0.95822697316E+03 -0.66287020734E+03 -0.13754510593E+04  0.18026262675E+04  0.25500000920E-02 0. -1.
</event>
<event>
 5   0  0.2086250E-07  0.3601590E+04  0.7818609E-02  0.8090127E-01
       -1   -1    0    0    0  501  0.00000000000E+00  0.00000000000E+00  0.14473879310E+04  0.14473879310E+04  0.50400001928E-02 0. -1.
        1   -1    0    0  501    0  0.00000000000E+00  0.00000000000E+00 -0.22404935290E+04  0.22404935290E+04  0.50400001928E-02 0.  1.
    10030    2    1    2    0    0  0.00000000000E+00  0.00000000000E+00 -0.79310559800E+03  0.36878814600E+04  0.36015903672E+04 0.  0.
        4    1    3    3  502    0 -0.12193460547E+04  0.10608622896E+04 -0.12097002219E+04  0.20188139682E+04  0.12699999809E+01 0.  1.
       -4    1    3    3    0  502  0.12193460547E+04 -0.10608622896E+04  0.41659462389E+03  0.16690674918E+04  0.12699999809E+01 0. -1.
</event>
<event>
 5   0  0.6729577E-07  0.3617348E+04  0.7818609E-02  0.8086529E-01
        2   -1    0    0  501    0  0.00000000000E+00  0.00000000000E+00  0.14063732786E+04  0.14063732786E+04  0.25500000920E-02 0. -1.
       -2   -1    0    0    0  501  0.00000000000E+00  0.00000000000E+00 -0.23260556415E+04  0.23260556415E+04  0.25500000920E-02 0.  1.
    10030    2    1    2    0    0  0.00000000000E+00  0.00000000000E+00 -0.91968236285E+03  0.37324289201E+04  0.36173484757E+04 0.  0.
        3    1    3    3  502    0  0.70401252935E+03 -0.16658497096E+04 -0.48540001911E+03  0.18725122390E+04  0.10100000352E+00 0. -1.
       -3    1    3    3    0  502 -0.70401252935E+03  0.16658497096E+04 -0.43428234374E+03  0.18599166811E+04  0.10100000352E+00 0.  1.
</event>
<event>
 5   0  0.2193129E-07  0.2898153E+04  0.7818609E-02  0.8273427E-01
        1   -1    0    0  501    0  0.00000000000E+00  0.00000000000E+00  0.18205786691E+04  0.18205786691E+04  0.50400001928E-02 0. -1.
       -1   -1    0    0    0  501  0.00000000000E+00  0.00000000000E+00 -0.11533816320E+04  0.11533816320E+04  0.50400001928E-02 0.  1.
    10030    2    1    2    0    0  0.00000000000E+00  0.00000000000E+00  0.66719703711E+03  0.29739603011E+04  0.28981525126E+04 0.  0.
        1    1    3    3  502    0  0.11050446008E+04 -0.90781098651E+03  0.57332792216E+03  0.15407625590E+04  0.50400001928E-02 0.  1.
       -1    1    3    3    0  502 -0.11050446008E+04  0.90781098651E+03  0.93869114945E+02  0.14331977420E+04  0.50400001928E-02 0. -1.
</event>
<event>
 5   0  0.6669864E-07  0.3608081E+04  0.7818609E-02  0.8088643E-01
       -2   -1    0    0    0  501  0.00000000000E+00  0.00000000000E+00  0.13748787591E+04  0.13748787591E+04  0.25500000920E-02 0.  1.
        2   -1    0    0  501    0  0.00000000000E+00  0.00000000000E+00 -0.23671632325E+04  0.23671632325E+04  0.25500000920E-02 0. -1.
    10030    2    1    2    0    0  0.00000000000E+00  0.00000000000E+00 -0.99228447340E+03  0.37420419917E+04  0.36080811786E+04 0.  0.
        5    1    3    3  502    0 -0.59428927913E+03  0.44618928068E+03  0.12087509976E+04  0.14189311772E+04  0.46999998093E+01 0.  1.
       -5    1    3    3    0  502  0.59428927913E+03 -0.44618928068E+03 -0.22010354710E+04  0.23231108144E+04  0.46999998093E+01 0. -1.
</event>
<event>
 5   0  0.2086250E-07  0.3607433E+04  0.7818609E-02  0.8088791E-01
       -1   -1    0    0    0  501  0.00000000000E+00  0.00000000000E+00  0.14014588067E+04  0.14014588067E+04  0.50400001928E-02 0. -1.
        1   -1    0    0  501    0  0.00000000000E+00  0.00000000000E+00 -0.23214328268E+04  0.23214328268E+04  0.50400001928E-02 0.  1.
    10030    2    1    2    0    0  0.00000000000E+00  0.00000000000E+00 -0.91997402010E+03  0.37228916335E+04  0.36074325936E+04 0.  0.
        2    1    3    3  502    0 -0.11737752681E+04  0.12094344124E+04 -0.11231361122E+04  0.20253184205E+04  0.25500000920E-02 0.  1.
       -2    1    3    3    0  502  0.11737752681E+04 -0.12094344124E+04  0.20316209207E+03  0.16975732130E+04  0.25500000920E-02 0. -1.
</event>
<event>
 5   0  0.6848661E-07  0.3621179E+04  0.7818609E-02  0.8085658E-01
       -2   -1    0    0    0  501  0.00000000000E+00  0.00000000000E+00  0.17692472697E+04  0.17692472697E+04  0.25500000920E-02 0. -1.
        2   -1    0    0  501    0  0.00000000000E+00  0.00000000000E+00 -0.18528975625E+04  0.18528975625E+04  0.25500000920E-02 0.  1.
    10030    2    1    2    0    0  0.00000000000E+00  0.00000000000E+00 -0.83650292753E+02  0.36221448322E+04  0.36211787879E+04 0.  0.
        1    1    3    3  502    0  0.43340360380E+03 -0.98162571609E+03  0.14169212802E+04  0.17773839328E+04  0.50400001928E-02 0. -1.
       -1    1    3    3    0  502 -0.43340360380E+03  0.98162571609E+03 -0.15005715730E+04  0.18447608994E+04  0.50400001928E-02 0.  1.
</event>
<event>
 5   0  0.6324216E-07  0.3544345E+04  0.7818609E-02  0.8103360E-01
       -2   -1    0    0    0  501  0.00000000000E+00  0.00000000000E+00  0.16330118595E+04  0.16330118595E+04  0.25500000920E-02 0.  1.
        2   -1    0    0  501    0  0.00000000000E+00  0.00000000000E+00 -0.19231921742E+04  0.19231921742E+04  0.25500000920E-02 0. -1.
    10030    2    1    2    0    0  0.00000000000E+00  0.00000000000E+00 -0.29018031464E+03  0.35562040337E+04  0.35443451461E+04 0.  0.
        2    1    3    3  502    0  0.31368577850E+03  0.60155867218E+03 -0.17877374159E+04  0.19121392919E+04  0.25500000920E-02 0. -1.
       -2    1    3    3    0  502 -0.31368577850E+03 -0.60155867218E+03  0.14975571012E+04  0.16440647418E+04  0.25500000920E-02 0.  1.
</event>
<event>
 5   0  0.2086250E-07  0.3147153E+04  0.7818609E-02  0.8202915E-01
        1   -1    0    0  501    0  0.00000000000E+00  0.00000000000E+00  0.18702362640E+04  0.18702362640E+04  0.50400001928E-02 0. -1.
       -1   -1    0    0    0  501  0.00000000000E+00  0.00000000000E+00 -0.13239732046E+04  0.13239732046E+04  0.50400001928E-02 0.  1.
    10030    2    1    2    0    0  0.00000000000E+00  0.00000000000E+00  0.54626305939E+03  0.31942094685E+04  0.31471528083E+04 0.  0.
        4    1    3    3  502    0 -0.67828943650E+03 -0.14198749333E+04  0.26862658453E+03  0.15963343136E+04  0.12699999809E+01 0. -1.
       -4    1    3    3    0  502  0.67828943650E+03  0.14198749333E+04  0.27763647486E+03  0.15978751550E+04  0.12699999809E+01 0.  1.
</event>
<event>
 5   0  0.6541476E-07  0.3634651E+04  0.7818609E-02  0.8082600E-01
        2   -1    0    0  501    0  0.00000000000E+00  0.00000000000E+00  0.24040169677E+04  0.24040169677E+04  0.25500000920E-02 0.  1.
       -2   -1    0    0    0  501  0.00000000000E+00  0.00000000000E+00 -0.13738137237E+04  0.13738137237E+04  0.25500000920E-02 0. -1.
    10030    2    1    2    0    0  0.00000000000E+00  0.00000000000E+00  0.10302032440E+04  0.37778306915E+04  0.36346507410E+04 0.  0.
        4    1    3    3  502    0  0.81396223809E+03  0.98188216886E+03 -0.83051813162E+03  0.15219688231E+04  0.12699999809E+01 0. -1.
       -4    1    3    3    0  502 -0.81396223809E+03 -0.98188216886E+03  0.18607213757E+04  0.22558618684E+04  0.12699999809E+01 0.  1.
</event>
<event>
 5   0  0.6669864E-07  0.3480275E+04  0.7818609E-02  0.8118481E-01
       -2   -1    0    0    0  501  0.00000000000E+00  0.00000000000E+00  0.18065469655E+04  0.18065469655E+04  0.25500000920E-02 0. -1.
        2   -1    0    0  501    0  0.00000000000E+00  0.00000000000E+00 -0.16761690738E+04  0.16761690738E+04  0.25500000920E-02 0.  1.
    10030    2    1    2    0    0  0.00000000000E+00  0.00000000000E+00  0.13037789160E+03  0.34827160393E+04  0.34802747903E+04 0.  0.
        5    1    3    3  502    0  0.17138493092E+04  0.24744358037E+03  0.23720566510E+03  0.17477975849E+04  0.46999998093E+01 0.  1.
       -5    1    3    3    0  502 -0.17138493092E+04 -0.24744358037E+03 -0.10682777350E+03  0.17349184544E+04  0.46999998093E+01 0. -1.
</event>
<event>
 5   0  0.2193129E-07  0.3544764E+04  0.7818609E-02  0.8103263E-01
       -1   -1    0    0    0  501  0.00000000000E+00  0.00000000000E+00  0.15930244940E+04  0.15930244940E+04  0.50400001928E-02 0. -1.
        1   -1    0    0  501    0  0.00000000000E+00  0.00000000000E+00 -0.19719334014E+04  0.19719334014E+04  0.50400001928E-02 0.  1.
    10030    2    1    2    0    0  0.00000000000E+00  0.00000000000E+00 -0.37890890747E+03  0.35649578954E+04  0.35447641439E+04 0.  0.
        1    1    3    3  502    0  0.60663376649E+03  0.16652294177E+04 -0.17078343526E+03  0.17804944600E+04  0.50400001928E-02 0.  1.
       -1    1    3    3    0  502 -0.60663376649E+03 -0.16652294177E+04 -0.20812547221E+03  0.17844634354E+04  0.50400001928E-02 0. -1.
</event>
<event>
 5   0  0.6541476E-07  0.3581038E+04  0.7818609E-02  0.8094849E-01
       -2   -1    0    0    0  501  0.00000000000E+00  0.00000000000E+00  0.19321051286E+04  0.19321051286E+04  0.25500000920E-02 0.  1.
        2   -1    0    0  501    0  0.00000000000E+00  0.00000000000E+00 -0.16593082683E+04  0.16593082683E+04  0.25500000920E-02 0. -1.
    10030    2    1    2    0    0  0.00000000000E+00  0.00000000000E+00  0.27279686028E+03  0.35914133969E+04  0.35810378469E+04 0.  0.
        4    1    3    3  502    0 -0.16534871975E+04  0.62566011652E+03  0.42092079674E+03  0.18173184707E+04  0.12699999809E+01 0. -1.
       -4    1    3    3    0  502  0.16534871975E+04 -0.62566011652E+03 -0.14812393646E+03  0.17740949262E+04  0.12699999809E+01 0.  1.
</event>
<event>
 5   0  0.2086250E-07  0.3579143E+04  0.7818609E-02  0.8095286E-01
       -1   -1    0    0    0  501  0.00000000000E+00  0.00000000000E+00  0.13836494518E+04  0.13836494519E+04  0.50400001928E-02 0. -1.
        1   -1    0    0  501    0  0.00000000000E+00  0.00000000000E+00 -0.23145793365E+04  0.23145793365E+04  0.50400001928E-02 0.  1.
    10030    2    1    2    0    0  0.00000000000E+00  0.00000000000E+00 -0.93092988462E+03  0.36982287883E+04  0.35791431546E+04 0.  0.
        3    1    3    3  502    0  0.18466288229E+03 -0.17131358644E+04  0.33971755922E+02  0.17233946038E+04  0.10100000352E+00 0. -1.
       -3    1    3    3    0  502 -0.18466288229E+03  0.17131358644E+04 -0.96490164054E+03  0.19748341845E+04  0.10100000352E+00 0.  1.
</event>
<event>
 5   0  0.2086250E-07  0.3636208E+04  0.7818609E-02  0.8082248E-01
       -1   -1    0    0    0  501  0.00000000000E+00  0.00000000000E+00  0.25824069591E+04  0.25824069591E+04  0.50400001928E-02 0. -1.
        1   -1    0    0  501    0  0.00000000000E+00  0.00000000000E+00 -0.12800079049E+04  0.12800079049E+04  0.50400001928E-02 0.  1.
    10030    2    1    2    0    0  0.00000000000E+00  0.00000000000E+00  0.13023990542E+04  0.38624148640E+04  0.36362075415E+04 0.  0.
        2    1    3    3  502    0  0.37393102517E+03  0.18720359473E+03  0.25306299275E+04  0.25649478411E+04  0.25500000920E-02 0. -1.
       -2    1    3    3    0  502 -0.37393102517E+03 -0.18720359473E+03 -0.12282308733E+04  0.12974670229E+04  0.25500000920E-02 0.  1.
</event>
<event>
 5   0  0.2086250E-07  0.3144269E+04  0.7818609E-02  0.8203693E-01
       -1   -1    0    0    0  501  0.00000000000E+00  0.00000000000E+00  0.16051550128E+04  0.16051550128E+04  0.50400001928E-02 0.  1.
        1   -1    0    0  501    0  0.00000000000E+00  0.00000000000E+00 -0.15397929095E+04  0.15397929095E+04  0.50400001928E-02 0. -1.
    10030    2    1    2    0    0  0.00000000000E+00  0.00000000000E+00  0.65362103219E+02  0.31449479223E+04  0.31442686319E+04 0.  0.
        2    1    3    3  502    0  0.13558826564E+04  0.56840441340E+03  0.58967203664E+03  0.15840500200E+04  0.25500000920E-02 0.  1.
       -2    1    3    3    0  502 -0.13558826564E+04 -0.56840441340E+03 -0.52430993342E+03  0.15608979023E+04  0.25500000920E-02 0. -1.
</event>
<event>
 5   0  0.2193129E-07  0.3606572E+04  0.7818609E-02  0.8088988E-01
        1   -1    0    0  501    0  0.00000000000E+00  0.00000000000E+00  0.10998275169E+04  0.10998275169E+04  0.50400001928E-02 0.  1.
       -1   -1    0    0    0  501  0.00000000000E+00  0.00000000000E+00 -0.29566824434E+04  0.29566824434E+04  0.50400001928E-02 0. -1.
    10030    2    1    2    0    0  0.00000000000E+00  0.00000000000E+00 -0.18568549265E+04  0.40565099603E+04  0.36065721731E+04 0.  0.
        1    1    3    3  502    0 -0.40917236866E+03  0.17412173139E+03  0.10371925592E+04  0.11284984757E+04  0.50400001928E-02 0.  1.
       -1    1    3    3    0  502  0.40917236866E+03 -0.17412173139E+03 -0.28940474857E+04  0.29280114846E+04  0.50400001928E-02 0. -1.
</event>
<event>
 5   0  0.2108068E-07  0.3402153E+04  0.7818609E-02  0.8137378E-01
        1   -1    0    0  501    0  0.00000000000E+00  0.00000000000E+00  0.24960419754E+04  0.24960419754E+04  0.50400001928E-02 0.  1.
       -1   -1    0    0    0  501  0.00000000000E+00  0.00000000000E+00 -0.11592998818E+04  0.11592998818E+04  0.50400001928E-02 0. -1.
    10030    2    1    2    0    0  0.00000000000E+00  0.00000000000E+00  0.13367420936E+04  0.36553418572E+04  0.34021529461E+04 0.  0.
        5    1    3    3  502    0  0.12921647059E+04 -0.35698286658E+03 -0.45670271247E+03  0.14162365099E+04  0.46999998093E+01 0. -1.
       -5    1    3    3    0  502 -0.12921647059E+04  0.35698286658E+03  0.17934448061E+04  0.22391053474E+04  0.46999998093E+01 0.  1.
</event>
<event>
 5   0  0.2086250E-07  0.3618696E+04  0.7818609E-02  0.8086222E-01
       -1   -1    0    0    0  501  0.00000000000E+00  0.00000000000E+00  0.14887583171E+04  0.14887583171E+04  0.50400001928E-02 0.  1.
        1   -1    0    0  501    0  0.00000000000E+00  0.00000000000E+00 -0.21989737899E+04  0.21989737899E+04  0.50400001928E-02 0. -1.
    10030    2    1    2    0    0  0.00000000000E+00  0.00000000000E+00 -0.71021547277E+03  0.36877321070E+04  0.36186961844E+04 0.  0.
        2    1    3    3  502    0  0.47371315203E+03 -0.15347773889E+04 -0.12039416875E+04  0.20073418669E+04  0.25500000920E-02 0. -1.
       -2    1    3    3    0  502 -0.47371315203E+03  0.15347773889E+04  0.49372621477E+03  0.16803902401E+04  0.25500000920E-02 0.  1.
</event>
<event>
 5   0  0.6541476E-07  0.3573792E+04  0.7818609E-02  0.8096522E-01
       -2   -1    0    0    0  501  0.00000000000E+00  0.00000000000E+00  0.11430010199E+04  0.11430010199E+04  0.25500000920E-02 0.  1.
        2   -1    0    0  501    0  0.00000000000E+00  0.00000000000E+00 -0.27935206059E+04  0.27935206059E+04  0.25500000920E-02 0. -1.
    10030    2    1    2    0    0  0.00000000000E+00  0.00000000000E+00 -0.16505195860E+04  0.39365216258E+04  0.35737917688E+04 0.  0.
        4    1    3    3  502    0 -0.10285143175E+04  0.13936470783E+04 -0.34147624337E+03  0.17654182275E+04  0.12699999809E+01 0.  1.
       -4    1    3    3    0  502  0.10285143175E+04 -0.13936470783E+04 -0.13090433426E+04  0.21711033983E+04  0.12699999809E+01 0. -1.
</event>
<event>
 5   0  0.6541476E-07  0.3585317E+04  0.7818609E-02  0.8093863E-01
        2   -1    0    0  501    0  0.00000000000E+00  0.00000000000E+00  0.25661731767E+04  0.25661731767E+04  0.25500000920E-02 0.  1.
       -2   -1    0    0    0  501  0.00000000000E+00  0.00000000000E+00 -0.12523024882E+04  0.12523024882E+04  0.25500000920E-02 0. -1.
    10030    2    1    2    0    0  0.00000000000E+00  0.00000000000E+00  0.13138706885E+04  0.38184756649E+04  0.35853173105E+04 0.  0.
        4    1    3    3  502    0  0.13586690465E+03 -0.51439521863E+03  0.24801500946E+04  0.25365741388E+04  0.12699999809E+01 0.  1.
       -4    1    3    3    0  502 -0.13586690465E+03  0.51439521863E+03 -0.11662794061E+04  0.12819015261E+04  0.12699999809E+01 0. -1.
</event>
<event>
 5   0  0.6848661E-07  0.3845232E+04  0.7818609E-02  0.8036517E-01
        2   -1    0    0  501    0  0.00000000000E+00  0.00000000000E+00  0.23712806251E+04  0.23712806251E+04  0.25500000920E-02 0.  1.
       -2   -1    0    0    0  501  0.00000000000E+00  0.00000000000E+00 -0.15588419752E+04  0.15588419753E+04  0.25500000920E-02 0. -1.
    10030    2    1    2    0    0  0.00000000000E+00  0.00000000000E+00  0.81243864987E+03  0.39301226004E+04  0.38452317348E+04 0.  0.
        1    1    3    3  502    0 -0.12722276463E+04  0.12501119720E+04 -0.32733621395E+03  0.18134200075E+04  0.50400001928E-02 0. -1.
       -1    1    3    3    0  502  0.12722276463E+04 -0.12501119720E+04  0.11397748638E+04  0.21167025929E+04  0.50400001928E-02 0.  1.
</event>
<event>
 5   0  0.2086250E-07  0.3612905E+04  0.7818609E-02  0.8087542E-01
        1   -1    0    0  501    0  0.00000000000E+00  0.00000000000E+00  0.15017575660E+04  0.15017575660E+04  0.50400001928E-02 0. -1.
       -1   -1    0    0    0  501  0.00000000000E+00  0.00000000000E+00 -0.21729680156E+04  0.21729680156E+04  0.50400001928E-02 0.  1.
    10030    2    1    2    0    0  0.00000000000E+00  0.00000000000E+00 -0.67121044967E+03  0.36747255816E+04  0.36129052897E+04 0.  0.
        4    1    3    3  502    0  0.13576522236E+03 -0.16335216605E+04  0.43662540465E+03  0.16963102805E+04  0.12699999809E+01 0. -1.
       -4    1    3    3    0  502 -0.13576522236E+03  0.16335216605E+04 -0.11078358543E+04  0.19784153011E+04  0.12699999809E+01 0.  1.
</event>
<event>
 5   0  0.2086250E-07  0.3566192E+04  0.7818609E-02  0.8098280E-01
       -1   -1    0    0    0  501  0.00000000000E+00  0.00000000000E+00  0.21849107431E+04  0.21849107431E+04  0.50400001928E-02 0. -1.
        1   -1    0    0  501    0  0.00000000000E+00  0.00000000000E+00 -0.14551770643E+04  0.14551770643E+04  0.50400001928E-02 0.  1.
    10030    2    1    2    0    0  0.00000000000E+00  0.00000000000E+00  0.72973367877E+03  0.36400878074E+04  0.35661923677E+04 0.  0.
        4    1    3    3  502    0  0.12946265740E+04 -0.10984187095E+04  0.92099477817E+03  0.19315316776E+04  0.12699999809E+01 0. -1.
       -4    1    3    3    0  502 -0.12946265740E+04  0.10984187095E+04 -0.19126109939E+03  0.17085561297E+04  0.12699999809E+01 0.  1.
</event>
<event>
 5   0  0.6669864E-07  0.3236274E+04  0.7818609E-02  0.8179302E-01
        2   -1    0    0  501    0  0.00000000000E+00  0.00000000000E+00  0.17660522113E+04  0.17660522113E+04  0.25500000920E-02 0.  1.
       -2   -1    0    0    0  501  0.00000000000E+00  0.00000000000E+00 -0.14826105456E+04  0.14826105456E+04  0.25500000920E-02 0. -1.
    10030    2    1    2    0    0  0.00000000000E+00  0.00000000000E+00  0.28344166578E+03  0.32486627569E+04  0.32362741741E+04 0.  0.
        5    1    3    3  502    0 -0.19326038291E+03  0.60314595899E+03 -0.13530094265E+04  0.14939180773E+04  0.46999998093E+01 0. -1.
       -5    1    3    3    0  502  0.19326038291E+03 -0.60314595899E+03  0.16364510922E+04  0.17547446796E+04  0.46999998093E+01 0.  1.
</event>
<event>
 5   0  0.2108068E-07  0.3598313E+04  0.7818609E-02  0.8090878E-01
        1   -1    0    0  501    0  0.00000000000E+00  0.00000000000E+00  0.25246761647E+04  0.25246761647E+04  0.50400001928E-02 0. -1.
       -1   -1    0    0    0  501  0.00000000000E+00  0.00000000000E+00 -0.12821301316E+04  0.12821301316E+04  0.50400001928E-02 0.  1.
    10030    2    1    2    0    0  0.00000000000E+00  0.00000000000E+00  0.12425460331E+04  0.38068062963E+04  0.35983125953E+04 0.  0.
        5    1    3    3  502    0  0.39594692262E+03 -0.11115239913E+04  0.20581600143E+04  0.23724047469E+04  0.46999998093E+01 0. -1.
       -5    1    3    3    0  502 -0.39594692262E+03  0.11115239913E+04 -0.81561398120E+03  0.14344015494E+04  0.46999998093E+01 0.  1.
</event>
<event>
 5   0  0.2086250E-07  0.3594184E+04  0.7818609E-02  0.8091825E-01
        3   -1    0    0  501    0  0.00000000000E+00  0.00000000000E+00  0.27327562176E+04  0.27327562195E+04  0.10100000352E+00 0. -1.
       -3   -1    0    0    0  501  0.00000000000E+00  0.00000000000E+00 -0.11817886636E+04  0.11817886679E+04  0.10100000352E+00 0.  1.
    10030    2    1    2    0    0  0.00000000000E+00  0.00000000000E+00  0.15509675540E+04  0.39145448874E+04  0.35941843751E+04 0.  0.
        4    1    3    3  502    0  0.13727028703E+03  0.16496988809E+04  0.15372458581E+04  0.22590874198E+04  0.12699999809E+01 0. -1.
       -4    1    3    3    0  502 -0.13727028703E+03 -0.16496988809E+04  0.13721695858E+02  0.16554574676E+04  0.12699999809E+01 0.  1.
</event>
<event>
 5   0  0.6324216E-07  0.3600169E+04  0.7818609E-02  0.8090453E-01
       -2   -1    0    0    0  501  0.00000000000E+00  0.00000000000E+00  0.17583473350E+04  0.17583473350E+04  0.25500000920E-02 0.  1.
        2   -1    0    0  501    0  0.00000000000E+00  0.00000000000E+00 -0.18428119916E+04  0.18428119916E+04  0.25500000920E-02 0. -1.
    10030    2    1    2    0    0  0.00000000000E+00  0.00000000000E+00 -0.84464656561E+02  0.36011593267E+04  0.36001686374E+04 0.  0.
        2    1    3    3  502    0 -0.10256063600E+04 -0.14725351177E+04  0.99494613657E+02  0.17972554790E+04  0.25500000920E-02 0.  1.
       -2    1    3    3    0  502  0.10256063600E+04  0.14725351177E+04 -0.18395927022E+03  0.18039038477E+04  0.25500000920E-02 0. -1.
</event>
<event>
 5   0  0.2086250E-07  0.3615076E+04  0.7818609E-02  0.8087047E-01
       -1   -1    0    0    0  501  0.00000000000E+00  0.00000000000E+00  0.16438691378E+04  0.16438691378E+04  0.50400001928E-02 0. -1.
        1   -1    0    0  501    0  0.00000000000E+00  0.00000000000E+00 -0.19875017535E+04  0.19875017535E+04  0.50400001928E-02 0.  1.
    10030    2    1    2    0    0  0.00000000000E+00  0.00000000000E+00 -0.34363261574E+03  0.36313708913E+04  0.36150755422E+04 0.  0.
        3    1    3    3  502    0 -0.53260165529E+03 -0.49753400865E+03 -0.18333545395E+04  0.19729149730E+04  0.10100000352E+00 0.  1.
       -3    1    3    3    0  502  0.53260165529E+03  0.49753400865E+03  0.14897219237E+04  0.16584559184E+04  0.10100000352E+00 0. -1.
</event>
<event>
 5   0  0.6729577E-07  0.3440666E+04  0.7818609E-02  0.8127997E-01
        2   -1    0    0  501    0  0.00000000000E+00  0.00000000000E+00  0.21115100722E+04  0.21115100722E+04  0.25500000920E-02 0.  1.
       -2   -1    0    0    0  501  0.00000000000E+00  0.00000000000E+00 -0.14016252030E+04  0.14016252030E+04  0.25500000920E-02 0. -1.
    10030    2    1    2    0    0  0.00000000000E+00  0.00000000000E+00  0.70988486918E+03  0.35131352752E+04  0.34406660597E+04 0.  0.
        3    1    3    3  502    0 -0.13789587278E+04 -0.70833286418E+03 -0.40661082996E+03  0.16026836858E+04  0.10100000352E+00 0. -1.
       -3    1    3    3    0  502  0.13789587278E+04  0.70833286418E+03  0.11164956991E+04  0.19104515895E+04  0.10100000352E+00 0.  1.
</event>
<event>
 5   0  0.6541476E-07  0.3586401E+04  0.7818609E-02  0.8093614E-01
        2   -1    0    0  501    0  0.00000000000E+00  0.00000000000E+00  0.25493773488E+04  0.25493773488E+04  0.25500000920E-02 0.  1.
       -2   -1    0    0    0  501  0.00000000000E+00  0.00000000000E+00 -0.12613147807E+04  0.12613147807E+04  0.25500000920E-02 0. -1.
    10030    2    1    2    0    0  0.00000000000E+00  0.00000000000E+00  0.12880625681E+04  0.38106921296E+04  0.35864006088E+04 0.  0.
        4    1    3    3  502    0 -0.52355854400E+03  0.45198012835E+03  0.24019372594E+04  0.24995407171E+04  0.12699999809E+01 0.  1.
       -4    1    3    3    0  502  0.52355854400E+03 -0.45198012835E+03 -0.11138746914E+04  0.13111514124E+04  0.12699999809E+01 0. -1.
</event>
<event>
 5   0  0.6541476E-07  0.3606400E+04  0.7818609E-02  0.8089027E-01
       -2   -1    0    0    0  501  0.00000000000E+00  0.00000000000E+00  0.12855435788E+04  0.12855435788E+04  0.25500000920E-02 0. -1.
        2   -1    0    0  501    0  0.00000000000E+00  0.00000000000E+00 -0.25293037862E+04  0.25293037862E+04  0.25500000920E-02 0.  1.
    10030    2    1    2    0    0  0.00000000000E+00  0.00000000000E+00 -0.12437602074E+04  0.38148473650E+04  0.36064000006E+04 0.  0.
        4    1    3    3  502    0  0.12228722876E+04 -0.10933731551E+04 -0.14139218586E+04  0.21656542021E+04  0.12699999809E+01 0.  1.
       -4    1    3    3    0  502 -0.12228722876E+04  0.10933731551E+04  0.17016165118E+03  0.16491931629E+04  0.12699999809E+01 0. -1.
</event>
<event>
 5   0  0.2086250E-07  0.3523419E+04  0.7818609E-02  0.8108262E-01
       -1   -1    0    0    0  501  0.00000000000E+00  0.00000000000E+00  0.27346703451E+04  0.27346703451E+04  0.50400001928E-02 0. -1.
        1   -1    0    0  501    0  0.00000000000E+00  0.00000000000E+00 -0.11349155133E+04  0.11349155133E+04  0.50400001928E-02 0.  1.
    10030    2    1    2    0    0  0.00000000000E+00  0.00000000000E+00  0.15997548318E+04  0.38695858584E+04  0.35234186799E+04 0.  0.
        2    1    3    3  502    0 -0.13071089840E+04  0.10629377529E+04  0.23425409760E+03  0.17009543042E+04  0.25500000920E-02 0.  1.
       -2    1    3    3    0  502  0.13071089840E+04 -0.10629377529E+04  0.13655007342E+04  0.21686315542E+04  0.25500000920E-02 0. -1.
</event>
<event>
 5   0  0.6848661E-07  0.3603881E+04  0.7818609E-02  0.8089603E-01
       -2   -1    0    0    0  501  0.00000000000E+00  0.00000000000E+00  0.19612159674E+04  0.19612159674E+04  0.25500000920E-02 0. -1.
        2   -1    0    0  501    0  0.00000000000E+00  0.00000000000E+00 -0.16556000158E+04  0.16556000158E+04  0.25500000920E-02 0.  1.
    10030    2    1    2    0    0  0.00000000000E+00  0.00000000000E+00  0.30561595164E+03  0.36168159832E+04  0.36038807897E+04 0.  0.
        1    1    3    3  502    0  0.19435470718E+03  0.77879270848E+02  0.19489664514E+04  0.19601809002E+04  0.50400001928E-02 0. -1.
       -1    1    3    3    0  502 -0.19435470718E+03 -0.77879270848E+02 -0.16433504997E+04  0.16566350830E+04  0.50400001928E-02 0.  1.
</event>
<event>
 5   0  0.2193129E-07  0.3579840E+04  0.7818609E-02  0.8095125E-01
       -1   -1    0    0    0  501  0.00000000000E+00  0.00000000000E+00  0.17404190097E+04  0.17404190097E+04  0.50400001928E-02 0. -1.
        1   -1    0    0  501    0  0.00000000000E+00  0.00000000000E+00 -0.18408291323E+04  0.18408291323E+04  0.50400001928E-02 0.  1.
    10030    2    1    2    0    0  0.00000000000E+00  0.00000000000E+00 -0.10041012256E+03  0.35812481420E+04  0.35798402285E+04 0.  0.
        1    1    3    3  502    0 -0.12088912320E+03 -0.89939199407E+03 -0.15936319411E+04  0.18338982804E+04  0.50400001928E-02 0.  1.
       -1    1    3    3    0  502  0.12088912320E+03  0.89939199407E+03  0.14932218186E+04  0.17473498615E+04  0.50400001928E-02 0. -1.
</event>
<event>
 5   0  0.2108068E-07  0.3588528E+04  0.7818609E-02  0.8093125E-01
       -1   -1    0    0    0  501  0.00000000000E+00  0.00000000000E+00  0.14511213619E+04  0.14511213619E+04  0.50400001928E-02 0.  1.
        1   -1    0    0  501    0  0.00000000000E+00  0.00000000000E+00 -0.22185480308E+04  0.22185480308E+04  0.50400001928E-02 0. -1.
    10030    2    1    2    0    0  0.00000000000E+00  0.00000000000E+00 -0.76742666893E+03  0.36696693927E+04  0.35885275197E+04 0.  0.
        5    1    3    3  502    0 -0.14334095371E+03 -0.17789636030E+04 -0.57255681029E+03  0.18743269514E+04  0.46999998093E+01 0. -1.
       -5    1    3    3    0  502  0.14334095371E+03  0.17789636030E+04 -0.19486985864E+03  0.17953424413E+04  0.46999998093E+01 0.  1.
</event>
<event>
 5   0  0.6848661E-07  0.3630578E+04  0.7818609E-02  0.8083523E-01
       -2   -1    0    0    0  501  0.00000000000E+00  0.00000000000E+00  0.10687200857E+04  0.10687200858E+04  0.25500000920E-02 0.  1.
        2   -1    0    0  501    0  0.00000000000E+00  0.00000000000E+00 -0.30833844640E+04  0.30833844640E+04  0.25500000920E-02 0. -1.
    10030    2    1    2    0    0  0.00000000000E+00  0.00000000000E+00 -0.20146643782E+04  0.41521045497E+04  0.36305784160E+04 0.  0.
        1    1    3    3  502    0  0.16773465481E+03  0.87976589477E+03 -0.28131204876E+04  0.29522482656E+04  0.50400001928E-02 0. -1.
       -1    1    3    3    0  502 -0.16773465481E+03 -0.87976589477E+03  0.79845610935E+03  0.11998562841E+04  0.50400001928E-02 0.  1.
</event>
<event>
 5   0  0.2108068E-07  0.3647411E+04  0.7818609E-02  0.8079717E-01
        1   -1    0    0  501    0  0.00000000000E+00  0.00000000000E+00  0.25623635783E+04  0.25623635783E+04  0.50400001928E-02 0.  1.
       -1   -1    0    0    0  501  0.00000000000E+00  0.00000000000E+00 -0.12979817841E+04  0.12979817841E+04  0.50400001928E-02 0. -1.
    10030    2    1    2    0    0  0.00000000000E+00  0.00000000000E+00  0.12643817942E+04  0.38603453624E+04  0.36474107248E+04 0.  0.
        5    1    3    3  502    0  0.18046670857E+04 -0.14761358321E+03  0.86229076385E+03  0.20055374621E+04  0.46999998093E+01 0.  1.
       -5    1    3    3    0  502 -0.18046670857E+04  0.14761358321E+03  0.40209103033E+03  0.18548079003E+04  0.46999998093E+01 0. -1.
</event>
<event>
 5   0  0.2108068E-07  0.3420409E+04  0.7818609E-02  0.8132915E-01
        1   -1    0    0  501    0  0.00000000000E+00  0.00000000000E+00  0.19902399037E+04  0.19902399037E+04  0.50400001928E-02 0. -1.
       -1   -1    0    0    0  501  0.00000000000E+00  0.00000000000E+00 -0.14695715277E+04  0.14695715277E+04  0.50400001928E-02 0.  1.
    10030    2    1    2    0    0  0.00000000000E+00  0.00000000000E+00  0.52066837600E+03  0.34598114313E+04  0.34204092712E+04 0.  0.
        5    1    3    3  502    0 -0.14834756323E+04 -0.49316633442E+03 -0.44109826797E+03  0.16243468709E+04  0.46999998093E+01 0.  1.
       -5    1    3    3    0  502  0.14834756323E+04  0.49316633442E+03  0.96176664398E+03  0.18354645604E+04  0.46999998093E+01 0. -1.
</event>
<event>
 5   0  0.2086250E-07  0.3610811E+04  0.7818609E-02  0.8088020E-01
        1   -1    0    0  501    0  0.00000000000E+00  0.00000000000E+00  0.22906043766E+04  0.22906043766E+04  0.50400001928E-02 0.  1.
       -1   -1    0    0    0  501  0.00000000000E+00  0.00000000000E+00 -0.14229822470E+04  0.14229822470E+04  0.50400001928E-02 0. -1.
    10030    2    1    2    0    0  0.00000000000E+00  0.00000000000E+00  0.86762212955E+03  0.37135866236E+04  0.36108111902E+04 0.  0.
        4    1    3    3  502    0  0.16935286970E+04  0.61669507882E+03  0.54233943709E+03  0.18821492889E+04  0.12699999809E+01 0.  1.
       -4    1    3    3    0  502 -0.16935286970E+04 -0.61669507882E+03  0.32528269246E+03  0.18314373347E+04  0.12699999809E+01 0. -1.
</event>
<event>
 5   0  0.6669864E-07  0.3572079E+04  0.7818609E-02  0.8096917E-01
        2   -1    0    0  501    0  0.00000000000E+00  0.00000000000E+00  0.22730988324E+04  0.22730988324E+04  0.25500000920E-02 0. -1.
       -2   -1    0    0    0  501  0.00000000000E+00  0.00000000000E+00 -0.14033429406E+04  0.14033429406E+04  0.25500000920E-02 0.  1.
    10030    2    1    2    0    0  0.00000000000E+00  0.00000000000E+00  0.86975589182E+03  0.36764417729E+04  0.35720790583E+04 0.  0.
        5    1    3    3  502    0  0.12234101857E+04  0.12899790969E+04  0.25919656206E+03  0.17966589828E+04  0.46999998093E+01 0.  1.
       -5    1    3    3    0  502 -0.12234101857E+04 -0.12899790969E+04  0.61055932975E+03  0.18797827901E+04  0.46999998093E+01 0. -1.
</event>
<event>
 5   0  0.6848661E-07  0.3571737E+04  0.7818609E-02  0.8096996E-01
        2   -1    0    0  501    0  0.00000000000E+00  0.00000000000E+00  0.17037394278E+04  0.17037394278E+04  0.25500000920E-02 0. -1.
       -2   -1    0    0    0  501  0.00000000000E+00  0.00000000000E+00 -0.18719569443E+04  0.18719569443E+04  0.25500000920E-02 0.  1.
    10030    2    1    2    0    0  0.00000000000E+00  0.00000000000E+00 -0.16821751657E+03  0.35756963721E+04  0.35717373101E+04 0.  0.
        1    1    3    3  502    0 -0.81558360108E+03 -0.45044907863E+03 -0.16093610826E+04  0.18596032042E+04  0.50400001928E-02 0.  1.
       -1    1    3    3    0  502  0.81558360108E+03  0.45044907863E+03  0.14411435661E+04  0.17160931679E+04  0.50400001928E-02 0. -1.
</event>
<event>
 5   0  0.2086250E-07  0.3657729E+04  0.7818609E-02  0.8077395E-01
       -1   -1    0    0    0  501  0.00000000000E+00  0.00000000000E+00  0.14714990649E+04  0.14714990649E+04  0.50400001928E-02 0. -1.
        1   -1    0    0  501    0  0.00000000000E+00  0.00000000000E+00 -0.22730184984E+04  0.22730184984E+04  0.50400001928E-02 0.  1.
    10030    2    1    2    0    0  0.00000000000E+00  0.00000000000E+00 -0.80151943347E+03  0.37445175633E+04  0.36577285820E+04 0.  0.
        2    1    3    3  502    0 -0.39314893378E+03  0.17789206163E+04 -0.23689949018E+03  0.18371842617E+04  0.25500000920E-02 0.  1.
       -2    1    3    3    0  502  0.39314893378E+03 -0.17789206163E+04 -0.56461994329E+03  0.19073333016E+04  0.25500000920E-02 0. -1.
</event>
<event>
 5   0  0.2108068E-07  0.3626454E+04  0.7818609E-02  0.8084459E-01
       -1   -1    0    0    0  501  0.00000000000E+00  0.00000000000E+00  0.27609906651E+04  0.27609906651E+04  0.50400001928E-02 0. -1.
        1   -1    0    0  501    0  0.00000000000E+00  0.00000000000E+00 -0.11908017877E+04  0.11908017877E+04  0.50400001928E-02 0.  1.
    10030    2    1    2    0    0  0.00000000000E+00  0.00000000000E+00  0.15701888774E+04  0.39517924528E+04  0.36264542572E+04 0.  0.
        5    1    3    3  502    0 -0.33550921927E+03 -0.17513043463E+04  0.11434378670E+04  0.21182789229E+04  0.46999998093E+01 0.  1.
       -5    1    3    3    0  502  0.33550921927E+03  0.17513043463E+04  0.42675101047E+03  0.18335135299E+04  0.46999998093E+01 0. -1.
</event>
<event>
 5   0  0.6729577E-07  0.3078086E+04  0.7818609E-02  0.8221778E-01
        2   -1    0    0  501    0  0.00000000000E+00  0.00000000000E+00  0.18525149097E+04  0.18525149097E+04  0.25500000920E-02 0.  1.
       -2   -1    0    0    0  501  0.00000000000E+00  0.00000000000E+00 -0.12786147772E+04  0.12786147772E+04  0.25500000920E-02 0. -1.
    10030    2    1    2    0    0  0.00000000000E+00  0.00000000000E+00  0.57390013249E+03  0.31311296869E+04  0.30780857288E+04 0.  0.
        3    1    3    3  502    0 -0.90824365437E+03 -0.12426419604E+03  0.15445002741E+04  0.17960593624E+04  0.10100000352E+00 0.  1.
       -3    1    3    3    0  502  0.90824365437E+03  0.12426419604E+03 -0.97060014166E+03  0.13350703245E+04  0.10100000352E+00 0. -1.
</event>
<event>
 5   0  0.6848661E-07  0.3635753E+04  0.7818609E-02  0.8082351E-01
        2   -1    0    0  501    0  0.00000000000E+00  0.00000000000E+00  0.18311380146E+04  0.18311380146E+04  0.25500000920E-02 0. -1.
       -2   -1    0    0    0  501  0.00000000000E+00  0.00000000000E+00 -0.18047108466E+04  0.18047108466E+04  0.25500000920E-02 0.  1.
    10030    2    1    2    0    0  0.00000000000E+00  0.00000000000E+00  0.26427167953E+02  0.36358488612E+04  0.36357528170E+04 0.  0.
        1    1    3    3  502    0  0.15624944400E+04 -0.70914436092E+03  0.61356271429E+03  0.18222880684E+04  0.50400001928E-02 0. -1.
       -1    1    3    3    0  502 -0.15624944400E+04  0.70914436092E+03 -0.58713554634E+03  0.18135607929E+04  0.50400001928E-02 0.  1.
</event>
<event>
 5   0  0.2086250E-07  0.3469332E+04  0.7818609E-02  0.8121097E-01
        3   -1    0    0  501    0  0.00000000000E+00  0.00000000000E+00  0.18803876949E+04  0.18803876976E+04  0.10100000352E+00 0.  1.
       -3   -1    0    0    0  501  0.00000000000E+00  0.00000000000E+00 -0.16002372591E+04  0.16002372623E+04  0.10100000352E+00 0. -1.
    10030    2    1    2    0    0  0.00000000000E+00  0.00000000000E+00  0.28015043578E+03  0.34806249598E+04  0.34693321900E+04 0.  0.
        3    1    3    3  502    0 -0.10885440457E+04 -0.57138309841E+02 -0.12137145747E+04  0.16313479104E+04  0.10100000352E+00 0. -1.
       -3    1    3    3    0  502  0.10885440457E+04  0.57138309841E+02  0.14938650104E+04  0.18492770494E+04  0.10100000352E+00 0.  1.
</event>
<event>
 5   0  0.2086250E-07  0.3587924E+04  0.7818609E-02  0.8093263E-01
       -1   -1    0    0    0  501  0.00000000000E+00  0.00000000000E+00  0.13021187300E+04  0.13021187300E+04  0.50400001928E-02 0.  1.
        1   -1    0    0  501    0  0.00000000000E+00  0.00000000000E+00 -0.24715870160E+04  0.24715870161E+04  0.50400001928E-02 0. -1.
    10030    2    1    2    0    0  0.00000000000E+00  0.00000000000E+00 -0.11694682861E+04  0.37737057460E+04  0.35879240496E+04 0.  0.
        2    1    3    3  502    0  0.21145613935E+03  0.33684484465E+03 -0.24246337812E+04  0.24570362475E+04  0.25500000920E-02 0. -1.
       -2    1    3    3    0  502 -0.21145613935E+03 -0.33684484465E+03  0.12551654951E+04  0.13166694986E+04  0.25500000920E-02 0.  1.
</event>
<event>
 5   0  0.2108068E-07  0.3551744E+04  0.7818609E-02  0.8101636E-01
        1   -1    0    0  501    0  0.00000000000E+00  0.00000000000E+00  0.24371091738E+04  0.24371091738E+04  0.50400001928E-02 0. -1.
       -1   -1    0    0    0  501  0.00000000000E+00  0.00000000000E+00 -0.12940421613E+04  0.12940421613E+04  0.50400001928E-02 0.  1.
    10030    2    1    2    0    0  0.00000000000E+00  0.00000000000E+00  0.11430670125E+04  0.37311513351E+04  0.35517443729E+04 0.  0.
        5    1    3    3  502    0 -0.14523739753E+04 -0.10202456255E+04  0.63286608712E+03  0.18843653771E+04  0.46999998093E+01 0. -1.
       -5    1    3    3    0  502  0.14523739753E+04  0.10202456255E+04  0.51020092533E+03  0.18467859580E+04  0.46999998093E+01 0.  1.
</event>
<event>
 5   0  0.2086250E-07  0.3619589E+04  0.7818609E-02  0.8086019E-01
       -1   -1    0    0    0  501  0.00000000000E+00  0.00000000000E+00  0.15816292320E+04  0.15816292320E+04  0.50400001928E-02 0.  1.
        1   -1    0    0  501    0  0.00000000000E+00  0.00000000000E+00 -0.20708745180E+04  0.20708745180E+04  0.50400001928E-02 0. -1.
    10030    2    1    2    0    0  0.00000000000E+00  0.00000000000E+00 -0.48924528594E+03  0.36525037500E+04  0.36195887465E+04 0.  0.
        2    1    3    3  502    0  0.52765531595E+03  0.46636333183E+03 -0.19269486320E+04  0.20515959447E+04  0.25500000920E-02 0. -1.
       -2    1    3    3    0  502 -0.52765531595E+03 -0.46636333183E+03  0.14377033461E+04  0.16009078053E+04  0.25500000920E-02 0.  1.
</event>
<event>
 5   0  0.2108068E-07  0.3596308E+04  0.7818609E-02  0.8091338E-01
        1   -1    0    0  501    0  0.00000000000E+00  0.00000000000E+00  0.21511798798E+04  0.21511798798E+04  0.50400001928E-02 0.  1.
       -1   -1    0    0    0  501  0.00000000000E+00  0.00000000000E+00 -0.15030623544E+04  0.15030623544E+04  0.50400001928E-02 0. -1.
    10030    2    1    2    0    0  0.00000000000E+00  0.00000000000E+00  0.64811752540E+03  0.36542422342E+04  0.35963078260E+04 0.  0.
        5    1    3    3  502    0 -0.96206233216E+02  0.17937495177E+04  0.40624708631E+03  0.18416980634E+04  0.46999998093E+01 0. -1.
       -5    1    3    3    0  502  0.96206233216E+02 -0.17937495177E+04  0.24187043908E+03  0.18125441708E+04  0.46999998093E+01 0.  1.
</event>
<event>
 5   0  0.2086250E-07  0.3707201E+04  0.7818609E-02  0.8066368E-01
       -1   -1    0    0    0  501  0.00000000000E+00  0.00000000000E+00  0.20351434348E+04  0.20351434348E+04  0.50400001928E-02 0. -1.
        1   -1    0    0  501    0  0.00000000000E+00  0.00000000000E+00 -0.16882520030E+04  0.16882520030E+04  0.50400001928E-02 0.  1.
    10030    2    1    2    0    0  0.00000000000E+00  0.00000000000E+00  0.34689143181E+03  0.37233954379E+04  0.37072010900E+04 0.  0.
        2    1    3    3  502    0 -0.56061916320E+03  0.85280467249E+02  0.19458836488E+04  0.20268275158E+04  0.25500000920E-02 0. -1.
       -2    1    3    3    0  502  0.56061916320E+03 -0.85280467249E+02 -0.15989922170E+04  0.16965679221E+04  0.25500000920E-02 0.  1.
</event>
<event>
 5   0  0.6729577E-07  0.3573611E+04  0.7818609E-02  0.8096563E-01
        2   -1    0    0  501    0  0.00000000000E+00  0.00000000000E+00  0.20530635457E+04  0.20530635457E+04  0.25500000920E-02 0.  1.
       -2   -1    0    0    0  501  0.00000000000E+00  0.00000000000E+00 -0.15550775831E+04  0.15550775831E+04  0.25500000920E-02 0. -1.
    10030    2    1    2    0    0  0.00000000000E+00  0.00000000000E+00  0.49798596265E+03  0.36081411288E+04  0.35736105533E+04 0.  0.
        3    1    3    3  502    0 -0.37051126766E+03  0.16483681171E+04 -0.33824285880E+03  0.17230218485E+04  0.10100000352E+00 0. -1.
       -3    1    3    3    0  502  0.37051126766E+03 -0.16483681171E+04  0.83622882145E+03  0.18851192803E+04  0.10100000352E+00 0.  1.
</event>
<event>
 5   0  0.6324216E-07  0.3848363E+04  0.7818609E-02  0.8035855E-01
       -2   -1    0    0    0  501  0.00000000000E+00  0.00000000000E+00  0.24390257612E+04  0.24390257612E+04  0.25500000920E-02 0. -1.
        2   -1    0    0  501    0  0.00000000000E+00  0.00000000000E+00 -0.15180136660E+04  0.15180136660E+04  0.25500000920E-02 0.  1.
    10030    2    1    2    0    0  0.00000000000E+00  0.00000000000E+00  0.92101209525E+03  0.39570394272E+04  0.38483629959E+04 0.  0.
        2    1    3    3  502    0 -0.18148593186E+03  0.15040316052E+04  0.16803581160E+04  0.22624437255E+04  0.25500000920E-02 0. -1.
       -2    1    3    3    0  502  0.18148593186E+03 -0.15040316052E+04 -0.75934602076E+03  0.16945957017E+04  0.25500000920E-02 0.  1.
</event>
<event>
 5   0  0.6848661E-07  0.3637631E+04  0.7818609E-02  0.8081926E-01
        2   -1    0    0  501    0  0.00000000000E+00  0.00000000000E+00  0.22585113585E+04  0.22585113585E+04  0.25500000920E-02 0.  1.
       -2   -1    0    0    0  501  0.00000000000E+00  0.00000000000E+00 -0.14647214860E+04  0.14647214860E+04  0.25500000920E-02 0. -1.
    10030    2    1    2    0    0  0.00000000000E+00  0.00000000000E+00  0.79378987249E+03  0.37232328446E+04  0.36376311596E+04 0.  0.
        1    1    3    3  502    0  0.17483415135E+03  0.68138827899E+03  0.21136344315E+04  0.22276237288E+04  0.50400001928E-02 0.  1.
       -1    1    3    3    0  502 -0.17483415135E+03 -0.68138827899E+03 -0.13198445590E+04  0.14956091157E+04  0.50400001928E-02 0. -1.
</event>
<event>
 5   0  0.2086250E-07  0.3433483E+04  0.7818609E-02  0.8129737E-01
       -1   -1    0    0    0  501  0.00000000000E+00  0.00000000000E+00  0.30781840534E+04  0.30781840534E+04  0.50400001928E-02 0.  1.
        1   -1    0    0  501    0  0.00000000000E+00  0.00000000000E+00 -0.95744780812E+03  0.95744780813E+03  0.50400001928E-02 0. -1.
    10030    2    1    2    0    0  0.00000000000E+00  0.00000000000E+00  0.21207362453E+04  0.40356318615E+04  0.34334825323E+04 0.  0.
        2    1    3    3  502    0  0.13770147588E+04 -0.42240897212E+03 -0.37587279034E+02  0.14408371835E+04  0.25500000920E-02 0. -1.
       -2    1    3    3    0  502 -0.13770147588E+04  0.42240897212E+03  0.21583235243E+04  0.25947946781E+04  0.25500000920E-02 0.  1.
</event>
<event>
 5   0  0.6541476E-07  0.3176713E+04  0.7818609E-02  0.8194994E-01
        2   -1    0    0  501    0  0.00000000000E+00  0.00000000000E+00  0.16147417882E+04  0.16147417882E+04  0.25500000920E-02 0. -1.
       -2   -1    0    0    0  501  0.00000000000E+00  0.00000000000E+00 -0.15624025002E+04  0.15624025002E+04  0.25500000920E-02 0.  1.
    10030    2    1    2    0    0  0.00000000000E+00  0.00000000000E+00  0.52339287993E+02  0.31771442883E+04  0.31767131485E+04 0.  0.
        4    1    3    3  502    0  0.10029855618E+03  0.12301985090E+04  0.10260186940E+04  0.16050433468E+04  0.12699999809E+01 0. -1.
       -4    1    3    3    0  502 -0.10029855618E+03 -0.12301985090E+04 -0.97367940599E+03  0.15721009415E+04  0.12699999809E+01 0.  1.
</event>
<event>
 5   0  0.2193129E-07  0.3773359E+04  0.7818609E-02  0.8051896E-01
       -1   -1    0    0    0  501  0.00000000000E+00  0.00000000000E+00  0.14756215548E+04  0.14756215548E+04  0.50400001928E-02 0.  1.
        1   -1    0    0  501    0  0.00000000000E+00  0.00000000000E+00 -0.24122443809E+04  0.24122443809E+04  0.50400001928E-02 0. -1.
    10030    2    1    2    0    0  0.00000000000E+00  0.00000000000E+00 -0.93662282606E+03  0.38878659357E+04  0.37733591422E+04 0.  0.
        1    1    3    3  502    0  0.17422693340E+04  0.59576627928E+01  0.27754949897E+03  0.17642481827E+04  0.50400001928E-02 0. -1.
       -1    1    3    3    0  502 -0.17422693340E+04 -0.59576627928E+01 -0.12141723250E+04  0.21236177530E+04  0.50400001928E-02 0.  1.
</event>
<event>
 5   0  0.2086250E-07  0.3583072E+04  0.7818609E-02  0.8094380E-01
        1   -1    0    0  501    0  0.00000000000E+00  0.00000000000E+00  0.20776955341E+04  0.20776955341E+04  0.50400001928E-02 0.  1.
       -1   -1    0    0    0  501  0.00000000000E+00  0.00000000000E+00 -0.15447890254E+04  0.15447890254E+04  0.50400001928E-02 0. -1.
    10030    2    1    2    0    0  0.00000000000E+00  0.00000000000E+00  0.53290650866E+03  0.36224845595E+04  0.35830720111E+04 0.  0.
        4    1    3    3  502    0 -0.17021572330E+03  0.71578181125E+03 -0.13850024248E+04  0.15682953560E+04  0.12699999809E+01 0. -1.
       -4    1    3    3    0  502  0.17021572330E+03 -0.71578181125E+03  0.19179089335E+04  0.20541892035E+04  0.12699999809E+01 0.  1.
</event>
<event>
 5   0  0.6729577E-07  0.3537644E+04  0.7818609E-02  0.8104926E-01
        2   -1    0    0  501    0  0.00000000000E+00  0.00000000000E+00  0.15957025739E+04  0.15957025739E+04  0.25500000920E-02 0.  1.
       -2   -1    0    0    0  501  0.00000000000E+00  0.00000000000E+00 -0.19607233920E+04  0.19607233920E+04  0.25500000920E-02 0. -1.
    10030    2    1    2    0    0  0.00000000000E+00  0.00000000000E+00 -0.36502081810E+03  0.35564259659E+04  0.35376440540E+04 0.  0.
        3    1    3    3  502    0  0.68046343780E+03 -0.16114679512E+04 -0.44633828900E+03  0.18052914796E+04  0.10100000352E+00 0. -1.
       -3    1    3    3    0  502 -0.68046343780E+03  0.16114679512E+04  0.81317470905E+02  0.17511344863E+04  0.10100000352E+00 0.  1.
</event>
<event>
 5   0  0.2108068E-07  0.3592399E+04  0.7818609E-02  0.8092235E-01
        1   -1    0    0  501    0  0.00000000000E+00  0.00000000000E+00  0.26607384030E+04  0.26607384030E+04  0.50400001928E-02 0. -1.
       -1   -1    0    0    0  501  0.00000000000E+00  0.00000000000E+00 -0.12125703396E+04  0.12125703397E+04  0.50400001928E-02 0.  1.
    10030    2    1    2    0    0  0.00000000000E+00  0.00000000000E+00  0.14481680634E+04  0.38733087427E+04  0.35923989027E+04 0.  0.
        5    1    3    3  502    0  0.14419827532E+04 -0.14965992620E+03 -0.41931078557E+03  0.15091573738E+04  0.46999998093E+01 0.  1.
       -5    1    3    3    0  502 -0.14419827532E+04  0.14965992620E+03  0.18674788489E+04  0.23641513689E+04  0.46999998093E+01 0. -1.
</event>
<event>
 5   0  0.6729577E-07  0.3606849E+04  0.7818609E-02  0.8088925E-01
        2   -1    0    0  501    0  0.00000000000E+00  0.00000000000E+00  0.14691739028E+04  0.14691739028E+04  0.25500000920E-02 0.  1.
       -2   -1    0    0    0  501  0.00000000000E+00  0.00000000000E+00 -0.22137204403E+04  0.22137204403E+04  0.25500000920E-02 0. -1.
    10030    2    1    2    0    0  0.00000000000E+00  0.00000000000E+00 -0.74454653759E+03  0.36828943431E+04  0.36068492061E+04 0.  0.
        3    1    3    3  502    0  0.31735618003E+03 -0.77129062125E+03 -0.20049651286E+04  0.21715177513E+04  0.10100000352E+00 0. -1.
       -3    1    3    3    0  502 -0.31735618003E+03  0.77129062125E+03  0.12604185910E+04  0.15113765918E+04  0.10100000352E+00 0.  1.
</event>
<event>
 5   0  0.2086250E-07  0.3592674E+04  0.7818609E-02  0.8092172E-01
       -1   -1    0    0    0  501  0.00000000000E+00  0.00000000000E+00  0.18210623605E+04  0.18210623605E+04  0.50400001928E-02 0.  1.
        1   -1    0    0  501    0  0.00000000000E+00  0.00000000000E+00 -0.17719470770E+04  0.17719470770E+04  0.50400001928E-02 0. -1.
    10030    2    1    2    0    0  0.00000000000E+00  0.00000000000E+00  0.49115283577E+02  0.35930094375E+04  0.35926737267E+04 0.  0.
        4    1    3    3  502    0  0.32616972181E+02  0.92497389969E+03  0.15642416702E+04  0.18175517043E+04  0.12699999809E+01 0.  1.
       -4    1    3    3    0  502 -0.32616972181E+02 -0.92497389969E+03 -0.15151263867E+04  0.17754577332E+04  0.12699999809E+01 0. -1.
</event>
<event>
 5   0  0.2108068E-07  0.3568991E+04  0.7818609E-02  0.8097632E-01
        1   -1    0    0  501    0  0.00000000000E+00  0.00000000000E+00  0.23344590403E+04  0.23344590403E+04  0.50400001928E-02 0.  1.
       -1   -1    0    0    0  501  0.00000000000E+00  0.00000000000E+00 -0.13640947898E+04  0.13640947899E+04  0.50400001928E-02 0. -1.
    10030    2    1    2    0    0  0.00000000000E+00  0.00000000000E+00  0.97036425040E+03  0.36985538301E+04  0.35689905654E+04 0.  0.
        5    1    3    3  502    0 -0.55524299997E+03  0.16723301707E+04  0.19313903643E+03  0.17726555690E+04  0.46999998093E+01 0. -1.
       -5    1    3    3    0  502  0.55524299997E+03 -0.16723301707E+04  0.77722521397E+03  0.19258982611E+04  0.46999998093E+01 0.  1.
</event>
<event>
 5   0  0.6669864E-07  0.3605686E+04  0.7818609E-02  0.8089190E-01
       -2   -1    0    0    0  501  0.00000000000E+00  0.00000000000E+00  0.21287562046E+04  0.21287562046E+04  0.25500000920E-02 0.  1.
        2   -1    0    0  501    0  0.00000000000E+00  0.00000000000E+00 -0.15268275799E+04  0.15268275799E+04  0.25500000920E-02 0. -1.
    10030    2    1    2    0    0  0.00000000000E+00  0.00000000000E+00  0.60192862470E+03  0.36555837845E+04  0.36056864445E+04 0.  0.
        5    1    3    3  502    0 -0.13653844732E+04  0.11606781842E+04  0.10133081507E+03  0.17949202297E+04  0.46999998093E+01 0. -1.
       -5    1    3    3    0  502  0.13653844732E+04 -0.11606781842E+04  0.50059780962E+03  0.18606635548E+04  0.46999998093E+01 0.  1.
</event>
<event>
 5   0  0.2193129E-07  0.3638911E+04  0.7818609E-02  0.8081636E-01
       -1   -1    0    0    0  501  0.00000000000E+00  0.00000000000E+00  0.25618853176E+04  0.25618853176E+04  0.50400001928E-02 0. -1.
        1   -1    0    0  501    0  0.00000000000E+00  0.00000000000E+00 -0.12921802747E+04  0.12921802747E+04  0.50400001928E-02 0.  1.
    10030    2    1    2    0    0  0.00000000000E+00  0.00000000000E+00  0.12697050429E+04  0.38540655923E+04  0.36389106466E+04 0.  0.
        1    1    3    3  502    0 -0.84293538250E+03  0.30965485533E+03  0.23108143920E+04  0.24791710999E+04  0.50400001928E-02 0. -1.
       -1    1    3    3    0  502  0.84293538250E+03 -0.30965485533E+03 -0.10411093491E+04  0.13748944924E+04  0.50400001928E-02 0.  1.
</event>
<event>
 5   0  0.6669864E-07  0.3518272E+04  0.7818609E-02  0.8109473E-01
        2   -1    0    0  501    0  0.00000000000E+00  0.00000000000E+00  0.18438642973E+04  0.18438642973E+04  0.25500000920E-02 0.  1.
       -2   -1    0    0    0  501  0.00000000000E+00  0.00000000000E+00 -0.16783015029E+04  0.16783015029E+04  0.25500000920E-02 0. -1.
    10030    2    1    2    0    0  0.00000000000E+00  0.00000000000E+00  0.16556279440E+03  0.35221658002E+04  0.35182724291E+04 0.  0.
        5    1    3    3  502    0 -0.83207148858E+03  0.43109498684E+03  0.15731707056E+04  0.18311400844E+04  0.46999998093E+01 0.  1.
       -5    1    3    3    0  502  0.83207148858E+03 -0.43109498684E+03 -0.14076079112E+04  0.16910257158E+04  0.46999998093E+01 0. -1.
</event>
<event>
 5   0  0.2086250E-07  0.3572945E+04  0.7818609E-02  0.8096717E-01
       -1   -1    0    0    0  501  0.00000000000E+00  0.00000000000E+00  0.14715211693E+04  0.14715211693E+04  0.50400001928E-02 0.  1.
        1   -1    0    0  501    0  0.00000000000E+00  0.00000000000E+00 -0.21688333808E+04  0.21688333808E+04  0.50400001928E-02 0. -1.
    10030    2    1    2    0    0  0.00000000000E+00  0.00000000000E+00 -0.69731221144E+03  0.36403545501E+04  0.35729451340E+04 0.  0.
        2    1    3    3  502    0  0.12790486477E+04  0.96027523816E+03 -0.11595294524E+04  0.19755005764E+04  0.25500000920E-02 0. -1.
       -2    1    3    3    0  502 -0.12790486477E+04 -0.96027523816E+03  0.46221724101E+03  0.16648539738E+04  0.25500000920E-02 0.  1.
</event>
<event>
 5   0  0.2086250E-07  0.3624406E+04  0.7818609E-02  0.8084924E-01
        1   -1    0    0  501    0  0.00000000000E+00  0.00000000000E+00  0.17461432253E+04  0.17461432253E+04  0.50400001928E-02 0.  1.
       -1   -1    0    0    0  501  0.00000000000E+00  0.00000000000E+00 -0.18807623554E+04  0.18807623554E+04  0.50400001928E-02 0. -1.
    10030    2    1    2    0    0  0.00000000000E+00  0.00000000000E+00 -0.13461913004E+03  0.36269055807E+04  0.36244064040E+04 0.  0.
        3    1    3    3  502    0  0.16184586951E+04 -0.24688024506E+03  0.71022172121E+03  0.17845933169E+04  0.10100000352E+00 0.  1.
       -3    1    3    3    0  502 -0.16184586951E+04  0.24688024506E+03 -0.84484085125E+03  0.18423122638E+04  0.10100000352E+00 0. -1.
</event>
<event>
 5   0  0.2108068E-07  0.3436704E+04  0.7818609E-02  0.8128956E-01
        1   -1    0    0  501    0  0.00000000000E+00  0.00000000000E+00  0.17565543566E+04  0.17565543566E+04  0.50400001928E-02 0.  1.
       -1   -1    0    0    0  501  0.00000000000E+00  0.00000000000E+00 -0.16809800809E+04  0.16809800809E+04  0.50400001928E-02 0. -1.
    10030    2    1    2    0    0  0.00000000000E+00  0.00000000000E+00  0.75574275716E+02  0.34375344376E+04  0.34367035860E+04 0.  0.
        5    1    3    3  502    0 -0.16745708298E+04  0.30472982895E+03 -0.19820010567E+03  0.17135790337E+04  0.46999998093E+01 0. -1.
       -5    1    3    3    0  502  0.16745708298E+04 -0.30472982895E+03  0.27377438139E+03  0.17239554039E+04  0.46999998093E+01 0.  1.
</event>
<event>
 5   0  0.6324216E-07  0.3609931E+04  0.7818609E-02  0.8088221E-01
       -2   -1    0    0    0  501  0.00000000000E+00  0.00000000000E+00  0.18480505786E+04  0.18480505786E+04  0.25500000920E-02 0.  1.
        2   -1    0    0  501    0  0.00000000000E+00  0.00000000000E+00 -0.17628848166E+04  0.17628848166E+04  0.25500000920E-02 0. -1.
    10030    2    1    2    0    0  0.00000000000E+00  0.00000000000E+00  0.85165761997E+02  0.36109353952E+04  0.36099309164E+04 0.  0.
        2    1    3    3  502    0  0.47697176822E+03  0.12136311707E+04  0.12909275852E+04  0.18349105473E+04  0.25500000920E-02 0.  1.
       -2    1    3    3    0  502 -0.47697176822E+03 -0.12136311707E+04 -0.12057618232E+04  0.17760248479E+04  0.25500000920E-02 0. -1.
</event>
<event>
 5   0  0.6848661E-07  0.3601598E+04  0.7818609E-02  0.8090126E-01
        2   -1    0    0  501    0  0.00000000000E+00  0.00000000000E+00  0.21794050464E+04  0.21794050464E+04  0.25500000920E-02 0. -1.
       -2   -1    0    0    0  501  0.00000000000E+00  0.00000000000E+00 -0.14879643306E+04  0.14879643306E+04  0.25500000920E-02 0.  1.
    10030    2    1    2    0    0  0.00000000000E+00  0.00000000000E+00  0.69144071584E+03  0.36673693770E+04  0.36015979626E+04 0.  0.
        1    1    3    3  502    0  0.16086148009E+04 -0.52277443271E+03 -0.28358045634E+03  0.17150371892E+04  0.50400001928E-02 0.  1.
       -1    1    3    3    0  502 -0.16086148009E+04  0.52277443271E+03  0.97502117217E+03  0.19523321878E+04  0.50400001928E-02 0. -1.
</event>
<event>
 5   0  0.2193129E-07  0.3591559E+04  0.7818609E-02  0.8092428E-01
       -1   -1    0    0    0  501  0.00000000000E+00  0.00000000000E+00  0.13613459018E+04  0.13613459018E+04  0.50400001928E-02 0.  1.
        1   -1    0    0  501    0  0.00000000000E+00  0.00000000000E+00 -0.23688495211E+04  0.23688495211E+04  0.50400001928E-02 0. -1.
    10030    2    1    2    0    0  0.00000000000E+00  0.00000000000E+00 -0.10075036193E+04  0.37301954229E+04  0.35915587633E+04 0.  0.
        1    1    3    3  502    0 -0.15733095994E+04  0.37039779336E+02 -0.14020955100E+04  0.21077350071E+04  0.50400001928E-02 0. -1.
       -1    1    3    3    0  502  0.15733095994E+04 -0.37039779336E+02  0.39459189069E+03  0.16224604159E+04  0.50400001928E-02 0.  1.
</event>
<event>
 5   0  0.2086250E-07  0.3580115E+04  0.7818609E-02  0.8095062E-01
        1   -1    0    0  501    0  0.00000000000E+00  0.00000000000E+00  0.16628627710E+04  0.16628627710E+04  0.50400001928E-02 0. -1.
       -1   -1    0    0    0  501  0.00000000000E+00  0.00000000000E+00 -0.19269820645E+04  0.19269820645E+04  0.50400001928E-02 0.  1.
    10030    2    1    2    0    0  0.00000000000E+00  0.00000000000E+00 -0.26411929345E+03  0.35898448355E+04  0.35801154928E+04 0.  0.
        3    1    3    3  502    0  0.15765179699E+04  0.12243492566E+03  0.70921236018E+03  0.17330266595E+04  0.10100000352E+00 0. -1.
       -3    1    3    3    0  502 -0.15765179699E+04 -0.12243492566E+03 -0.97333165363E+03  0.18568181760E+04  0.10100000352E+00 0.  1.
</event>
<event>
 5   0  0.2086250E-07  0.3620277E+04  0.7818609E-02  0.8085863E-01
       -1   -1    0    0    0  501  0.00000000000E+00  0.00000000000E+00  0.22505248383E+04  0.22505248383E+04  0.50400001928E-02 0.  1.
        1   -1    0    0  501    0  0.00000000000E+00  0.00000000000E+00 -0.14559275179E+04  0.14559275179E+04  0.50400001928E-02 0. -1.
    10030    2    1    2    0    0  0.00000000000E+00  0.00000000000E+00  0.79459732047E+03  0.37064523562E+04  0.36202768081E+04 0.  0.
        3    1    3    3  502    0  0.15772119298E+03 -0.91193286164E+03 -0.11954000002E+04  0.15117799739E+04  0.10100000352E+00 0. -1.
       -3    1    3    3    0  502 -0.15772119298E+03  0.91193286164E+03  0.19899973207E+04  0.21946723823E+04  0.10100000352E+00 0.  1.
</event>
<event>
 5   0  0.2086250E-07  0.3571486E+04  0.7818609E-02  0.8097055E-01
        1   -1    0    0  501    0  0.00000000000E+00  0.00000000000E+00  0.89049480457E+03  0.89049480458E+03  0.50400001928E-02 0. -1.
       -1   -1    0    0    0  501  0.00000000000E+00  0.00000000000E+00 -0.35810180955E+04  0.35810180955E+04  0.50400001928E-02 0.  1.
    10030    2    1    2    0    0  0.00000000000E+00  0.00000000000E+00 -0.26905232909E+04  0.44715129001E+04  0.35714859704E+04 0.  0.
        4    1    3    3  502    0  0.41790276192E+03  0.12390620021E+04  0.17733059315E+03  0.13196079401E+04  0.12699999809E+01 0. -1.
       -4    1    3    3    0  502 -0.41790276192E+03 -0.12390620021E+04 -0.28678538841E+04  0.31519049600E+04  0.12699999809E+01 0.  1.
</event>
<event>
 5   0  0.6848661E-07  0.3595326E+04  0.7818609E-02  0.8091563E-01
       -2   -1    0    0    0  501  0.00000000000E+00  0.00000000000E+00  0.17535345914E+04  0.17535345914E+04  0.25500000920E-02 0. -1.
        2   -1    0    0  501    0  0.00000000000E+00  0.00000000000E+00 -0.18429021743E+04  0.18429021743E+04  0.25500000920E-02 0.  1.
    10030    2    1    2    0    0  0.00000000000E+00  0.00000000000E+00 -0.89367582932E+02  0.35964367657E+04  0.35953262501E+04 0.  0.
        1    1    3    3  502    0 -0.34420947338E+03 -0.25588111389E+02  0.17200770512E+04  0.17543659753E+04  0.50400001928E-02 0. -1.
       -1    1    3    3    0  502  0.34420947338E+03  0.25588111389E+02 -0.18094446341E+04  0.18420707905E+04  0.50400001928E-02 0.  1.
</event>
<event>
 5   0  0.6729577E-07  0.3641413E+04  0.7818609E-02  0.8081071E-01
       -2   -1    0    0    0  501  0.00000000000E+00  0.00000000000E+00  0.27889393549E+04  0.27889393549E+04  0.25500000920E-02 0. -1.
        2   -1    0    0  501    0  0.00000000000E+00  0.00000000000E+00 -0.11886138137E+04  0.11886138137E+04  0.25500000920E-02 0.  1.
    10030    2    1    2    0    0  0.00000000000E+00  0.00000000000E+00  0.16003255412E+04  0.39775531687E+04  0.36414128263E+04 0.  0.
        3    1    3    3  502    0 -0.13148927461E+03  0.70896134312E+03 -0.10260078421E+04  0.12540365695E+04  0.10100000352E+00 0.  1.
       -3    1    3    3    0  502  0.13148927461E+03 -0.70896134312E+03  0.26263333833E+04  0.27235165992E+04  0.10100000352E+00 0. -1.
</event>
<event>
 5   0  0.2086250E-07  0.3569213E+04  0.7818609E-02  0.8097580E-01
        1   -1    0    0  501    0  0.00000000000E+00  0.00000000000E+00  0.19483522895E+04  0.19483522895E+04  0.50400001928E-02 0.  1.
       -1   -1    0    0    0  501  0.00000000000E+00  0.00000000000E+00 -0.16346225100E+04  0.16346225100E+04  0.50400001928E-02 0. -1.
    10030    2    1    2    0    0  0.00000000000E+00  0.00000000000E+00  0.31372977946E+03  0.35829747995E+04  0.35692130840E+04 0.  0.
        3    1    3    3  502    0  0.16711940728E+04 -0.59894783133E+03 -0.26025288085E+02  0.17754733058E+04  0.10100000352E+00 0. -1.
       -3    1    3    3    0  502 -0.16711940728E+04  0.59894783133E+03  0.33975506754E+03  0.18075014937E+04  0.10100000352E+00 0.  1.
</event>
<event>
 5   0  0.6541476E-07  0.3594039E+04  0.7818609E-02  0.8091859E-01
       -2   -1    0    0    0  501  0.00000000000E+00  0.00000000000E+00  0.16027976206E+04  0.16027976206E+04  0.25500000920E-02 0. -1.
        2   -1    0    0  501    0  0.00000000000E+00  0.00000000000E+00 -0.20147762657E+04  0.20147762657E+04  0.25500000920E-02 0.  1.
    10030    2    1    2    0    0  0.00000000000E+00  0.00000000000E+00 -0.41197864510E+03  0.36175738863E+04  0.35940387336E+04 0.  0.
        4    1    3    3  502    0 -0.16455542529E+04  0.28622010693E+03 -0.87328326277E+03  0.18847800982E+04  0.12699999809E+01 0.  1.
       -4    1    3    3    0  502  0.16455542529E+04 -0.28622010693E+03  0.46130461767E+03  0.17327937881E+04  0.12699999809E+01 0. -1.
</event>
<event>
 5   0  0.2086250E-07  0.3553520E+04  0.7818609E-02  0.8101222E-01
       -1   -1    0    0    0  501  0.00000000000E+00  0.00000000000E+00  0.22748202145E+04  0.22748202145E+04  0.50400001928E-02 0.  1.
        1   -1    0    0  501    0  0.00000000000E+00  0.00000000000E+00 -0.13877475928E+04  0.13877475928E+04  0.50400001928E-02 0. -1.
    10030    2    1    2    0    0  0.00000000000E+00  0.00000000000E+00  0.88707262165E+03  0.36625678073E+04  0.35535201008E+04 0.  0.
        3    1    3    3  502    0 -0.81126141081E+03 -0.11899974470E+04  0.15159649010E+04  0.20910257272E+04  0.10100000352E+00 0.  1.
       -3    1    3    3    0  502  0.81126141081E+03  0.11899974470E+04 -0.62889227933E+03  0.15715420801E+04  0.10100000352E+00 0. -1.
</event>
<event>
 5   0  0.2086250E-07  0.3608856E+04  0.7818609E-02  0.8088466E-01
        1   -1    0    0  501    0  0.00000000000E+00  0.00000000000E+00  0.14535943657E+04  0.14535943657E+04  0.50400001928E-02 0. -1.
       -1   -1    0    0    0  501  0.00000000000E+00  0.00000000000E+00 -0.22399372826E+04  0.22399372826E+04  0.50400001928E-02 0.  1.
    10030    2    1    2    0    0  0.00000000000E+00  0.00000000000E+00 -0.78634291690E+03  0.36935316483E+04  0.36088558926E+04 0.  0.
        3    1    3    3  502    0  0.13566198097E+04  0.20855520219E+03 -0.15919994566E+04  0.21019930686E+04  0.10100000352E+00 0.  1.
       -3    1    3    3    0  502 -0.13566198097E+04 -0.20855520219E+03  0.80565653973E+03  0.15915385797E+04  0.10100000352E+00 0. -1.
</event>
<event>
 5   0  0.6669864E-07  0.3541558E+04  0.7818609E-02  0.8104011E-01
       -2   -1    0    0    0  501  0.00000000000E+00  0.00000000000E+00  0.12208938448E+04  0.12208938448E+04  0.25500000920E-02 0. -1.
        2   -1    0    0  501    0  0.00000000000E+00  0.00000000000E+00 -0.25683299194E+04  0.25683299194E+04  0.25500000920E-02 0.  1.
    10030    2    1    2    0    0  0.00000000000E+00  0.00000000000E+00 -0.13474360747E+04  0.37892237642E+04  0.35415579566E+04 0.  0.
        5    1    3    3  502    0  0.61828726299E+02  0.23168298349E+03  0.12034356140E+04  0.12271019368E+04  0.46999998093E+01 0. -1.
       -5    1    3    3    0  502 -0.61828726299E+02 -0.23168298349E+03 -0.25508716887E+04  0.25621218274E+04  0.46999998093E+01 0.  1.
</event>
<event>
 5   0  0.2086250E-07  0.3150292E+04  0.7818609E-02  0.8202070E-01
       -1   -1    0    0    0  501  0.00000000000E+00  0.00000000000E+00  0.93395226946E+03  0.93395226947E+03  0.50400001928E-02 0.  1.
        1   -1    0    0  501    0  0.00000000000E+00  0.00000000000E+00 -0.26565441869E+04  0.26565441869E+04  0.50400001928E-02 0. -1.
    10030    2    1    2    0    0  0.00000000000E+00  0.00000000000E+00 -0.17225919174E+04  0.35904964563E+04  0.31502923498E+04 0.  0.
        4    1    3    3  502    0 -0.78240807694E+03 -0.57996154798E+03 -0.22722512291E+04  0.24721741559E+04  0.12699999809E+01 0. -1.
       -4    1    3    3    0  502  0.78240807694E+03  0.57996154798E+03  0.54965931165E+03  0.11183223005E+04  0.12699999809E+01 0.  1.
</event>
<event>
 5   0  0.2086250E-07  0.3613803E+04  0.7818609E-02  0.8087337E-01
        1   -1    0    0  501    0  0.00000000000E+00  0.00000000000E+00  0.10795849741E+04  0.10795849741E+04  0.50400001928E-02 0. -1.
       -1   -1    0    0    0  501  0.00000000000E+00  0.00000000000E+00 -0.30242119438E+04  0.30242119438E+04  0.50400001928E-02 0.  1.
    10030    2    1    2    0    0  0.00000000000E+00  0.00000000000E+00 -0.19446269697E+04  0.41037969180E+04  0.36138034109E+04 0.  0.
        3    1    3    3  502    0  0.98540564105E+03  0.96237745270E+03  0.35574322955E+03  0.14225849340E+04  0.10100000352E+00 0. -1.
       -3    1    3    3    0  502 -0.98540564105E+03 -0.96237745270E+03 -0.23003701993E+04  0.26812119839E+04  0.10100000352E+00 0.  1.
</event>
<event>
 5   0  0.6324216E-07  0.3567566E+04  0.7818609E-02  0.8097962E-01
        2   -1    0    0  501    0  0.00000000000E+00  0.00000000000E+00  0.26645588580E+04  0.26645588580E+04  0.25500000920E-02 0. -1.
       -2   -1    0    0    0  501  0.00000000000E+00  0.00000000000E+00 -0.11941493944E+04  0.11941493944E+04  0.25500000920E-02 0.  1.
    10030    2    1    2    0    0  0.00000000000E+00  0.00000000000E+00  0.14704094637E+04  0.38587082524E+04  0.35675657508E+04 0.  0.
        2    1    3    3  502    0  0.14867478096E+04 -0.94089071233E+03  0.10527391095E+04  0.20503546071E+04  0.25500000920E-02 0. -1.
       -2    1    3    3    0  502 -0.14867478096E+04  0.94089071233E+03  0.41767035411E+03  0.18083536453E+04  0.25500000920E-02 0.  1.
</event>
<event>
 5   0  0.2193129E-07  0.3599778E+04  0.7818609E-02  0.8090543E-01
       -1   -1    0    0    0  501  0.00000000000E+00  0.00000000000E+00  0.13983416071E+04  0.13983416071E+04  0.50400001928E-02 0. -1.
        1   -1    0    0  501    0  0.00000000000E+00  0.00000000000E+00 -0.23167447776E+04  0.23167447777E+04  0.50400001928E-02 0.  1.
    10030    2    1    2    0    0  0.00000000000E+00  0.00000000000E+00 -0.91840317054E+03  0.37150863848E+04  0.35997781130E+04 0.  0.
        1    1    3    3  502    0  0.95717282960E+03  0.47254418439E+02 -0.20315483272E+04  0.22462416191E+04  0.50400001928E-02 0.  1.
       -1    1    3    3    0  502 -0.95717282960E+03 -0.47254418439E+02  0.11131451566E+04  0.14688447656E+04  0.50400001928E-02 0. -1.
</event>
<event>
 5   0  0.6848661E-07  0.3289168E+04  0.7818609E-02  0.8165657E-01
        2   -1    0    0  501    0  0.00000000000E+00  0.00000000000E+00  0.10961614264E+04  0.10961614264E+04  0.25500000920E-02 0. -1.
       -2   -1    0    0    0  501  0.00000000000E+00  0.00000000000E+00 -0.24673887509E+04  0.24673887509E+04  0.25500000920E-02 0.  1.
    10030    2    1    2    0    0  0.00000000000E+00  0.00000000000E+00 -0.13712273245E+04  0.35635501774E+04  0.32891679026E+04 0.  0.
        1    1    3    3  502    0  0.11095568451E+04  0.10022104208E+04 -0.14276687530E+04  0.20673123103E+04  0.50400001928E-02 0.  1.
       -1    1    3    3    0  502 -0.11095568451E+04 -0.10022104208E+04  0.56441428447E+02  0.14962378671E+04  0.50400001928E-02 0. -1.
</event>
<event>
 5   0  0.2086250E-07  0.3688193E+04  0.7818609E-02  0.8070583E-01
       -1   -1    0    0    0  501  0.00000000000E+00  0.00000000000E+00  0.17836809539E+04  0.17836809539E+04  0.50400001928E-02 0.  1.
        1   -1    0    0  501    0  0.00000000000E+00  0.00000000000E+00 -0.19065589003E+04  0.19065589003E+04  0.50400001928E-02 0. -1.
    10030    2    1    2    0    0  0.00000000000E+00  0.00000000000E+00 -0.12287794642E+03  0.36902398543E+04  0.36881934863E+04 0.  0.
        2    1    3    3  502    0  0.14018752098E+04 -0.28831148598E+03 -0.12249750674E+04  0.18838634591E+04  0.25500000920E-02 0. -1.
       -2    1    3    3    0  502 -0.14018752098E+04  0.28831148598E+03  0.11020971210E+04  0.18063763951E+04  0.25500000920E-02 0.  1.
</event>
<event>
 5   0  0.2086250E-07  0.3464370E+04  0.7818609E-02  0.8122286E-01
       -1   -1    0    0    0  501  0.00000000000E+00  0.00000000000E+00  0.13312406562E+04  0.13312406562E+04  0.50400001928E-02 0. -1.
        1   -1    0    0  501    0  0.00000000000E+00  0.00000000000E+00 -0.22538862154E+04  0.22538862155E+04  0.50400001928E-02 0.  1.
    10030    2    1    2    0    0  0.00000000000E+00  0.00000000000E+00 -0.92264555924E+03  0.35851268717E+04  0.34643700521E+04 0.  0.
        4    1    3    3  502    0  0.98696295477E+03  0.96441768359E+03 -0.15448460124E+04  0.20714121167E+04  0.12699999809E+01 0.  1.
       -4    1    3    3    0  502 -0.98696295477E+03 -0.96441768359E+03  0.62220045314E+03  0.15137147549E+04  0.12699999809E+01 0. -1.
</event>
<event>
 5   0  0.6729577E-07  0.3698997E+04  0.7818609E-02  0.8068184E-01
       -2   -1    0    0    0  501  0.00000000000E+00  0.00000000000E+00  0.11993067022E+04  0.11993067022E+04  0.25500000920E-02 0. -1.
        2   -1    0    0  501    0  0.00000000000E+00  0.00000000000E+00 -0.28521845309E+04  0.28521845309E+04  0.25500000920E-02 0.  1.
    10030    2    1    2    0    0  0.00000000000E+00  0.00000000000E+00 -0.16528778287E+04  0.40514912331E+04  0.36989966336E+04 0.  0.
        3    1    3    3  502    0 -0.18433692388E+04 -0.14039021830E+03 -0.88567045626E+03  0.20499101764E+04  0.10100000352E+00 0.  1.
       -3    1    3    3    0  502  0.18433692388E+04  0.14039021830E+03 -0.76720737241E+03  0.20015810567E+04  0.10100000352E+00 0. -1.
</event>
<event>
 5   0  0.2086250E-07  0.3590285E+04  0.7818609E-02  0.8092721E-01
       -1   -1    0    0    0  501  0.00000000000E+00  0.00000000000E+00  0.12198262743E+04  0.12198262743E+04  0.50400001928E-02 0. -1.
        1   -1    0    0  501    0  0.00000000000E+00  0.00000000000E+00 -0.26417999174E+04  0.26417999174E+04  0.50400001928E-02 0.  1.
    10030    2    1    2    0    0  0.00000000000E+00  0.00000000000E+00 -0.14219736430E+04  0.38616261917E+04  0.35902851980E+04 0.  0.
        3    1    3    3  502    0 -0.99457423610E+03 -0.10738795127E+04 -0.18288320406E+04  0.23424392760E+04  0.10100000352E+00 0.  1.
       -3    1    3    3    0  502  0.99457423610E+03  0.10738795127E+04  0.40685839757E+03  0.15191869157E+04  0.10100000352E+00 0. -1.
</event>
<event>
 5   0  0.6324216E-07  0.3618949E+04  0.7818609E-02  0.8086165E-01
        2   -1    0    0  501    0  0.00000000000E+00  0.00000000000E+00  0.21694825584E+04  0.21694825584E+04  0.25500000920E-02 0.  1.
       -2   -1    0    0    0  501  0.00000000000E+00  0.00000000000E+00 -0.15092064995E+04  0.15092064995E+04  0.25500000920E-02 0. -1.
    10030    2    1    2    0    0  0.00000000000E+00  0.00000000000E+00  0.66027605891E+03  0.36786890579E+04  0.36189485642E+04 0.  0.
        2    1    3    3  502    0 -0.15682300802E+04  0.21409408064E+02  0.12474725723E+04  0.20039939535E+04  0.25500000920E-02 0.  1.
       -2    1    3    3    0  502  0.15682300802E+04 -0.21409408064E+02 -0.58719651344E+03  0.16746951043E+04  0.25500000920E-02 0. -1.
</event>
<event>
 5   0  0.6729577E-07  0.3621670E+04  0.7818609E-02  0.8085546E-01
       -2   -1    0    0    0  501  0.00000000000E+00  0.00000000000E+00  0.15304623588E+04  0.15304623588E+04  0.25500000920E-02 0.  1.
        2   -1    0    0  501    0  0.00000000000E+00  0.00000000000E+00 -0.21425700616E+04  0.21425700617E+04  0.25500000920E-02 0. -1.
    10030    2    1    2    0    0  0.00000000000E+00  0.00000000000E+00 -0.61210770282E+03  0.36730324205E+04  0.36216696870E+04 0.  0.
        3    1    3    3  502    0 -0.20625392505E+03  0.51721446074E+03 -0.20535902894E+04  0.21277416589E+04  0.10100000352E+00 0. -1.
       -3    1    3    3    0  502  0.20625392505E+03 -0.51721446074E+03  0.14414825866E+04  0.15452907616E+04  0.10100000352E+00 0.  1.
</event>
<event>
 5   0  0.6324216E-07  0.3499522E+04  0.7818609E-02  0.8113903E-01
        2   -1    0    0  501    0  0.00000000000E+00  0.00000000000E+00  0.17469357128E+04  0.17469357128E+04  0.25500000920E-02 0.  1.
       -2   -1    0    0    0  501  0.00000000000E+00  0.00000000000E+00 -0.17525911610E+04  0.17525911610E+04  0.25500000920E-02 0. -1.
    10030    2    1    2    0    0  0.00000000000E+00  0.00000000000E+00 -0.56554482530E+01  0.34995268738E+04  0.34995223040E+04 0.  0.
        2    1    3    3  502    0  0.10856849772E+04  0.10933685077E+04 -0.83198351239E+03  0.17511034031E+04  0.25500000920E-02 0. -1.
       -2    1    3    3    0  502 -0.10856849772E+04 -0.10933685077E+04  0.82632806413E+03  0.17484234707E+04  0.25500000920E-02 0.  1.
</event>
<event>
 5   0  0.6324216E-07  0.3610700E+04  0.7818609E-02  0.8088045E-01
        2   -1    0    0  501    0  0.00000000000E+00  0.00000000000E+00  0.29482271987E+04  0.29482271987E+04  0.25500000920E-02 0.  1.
       -2   -1    0    0    0  501  0.00000000000E+00  0.00000000000E+00 -0.11055079864E+04  0.11055079864E+04  0.25500000920E-02 0. -1.
    10030    2    1    2    0    0  0.00000000000E+00  0.00000000000E+00  0.18427192123E+04  0.40537351851E+04  0.36107000506E+04 0.  0.
        2    1    3    3  502    0 -0.18010136609E+04  0.22689803781E+01  0.10617347165E+04  0.20906783500E+04  0.25500000920E-02 0.  1.
       -2    1    3    3    0  502  0.18010136609E+04 -0.22689803781E+01  0.78098449579E+03  0.19630568351E+04  0.25500000920E-02 0. -1.
</event>
<event>
 5   0  0.2108068E-07  0.3604044E+04  0.7818609E-02  0.8089566E-01
       -1   -1    0    0    0  501  0.00000000000E+00  0.00000000000E+00  0.16508751325E+04  0.16508751325E+04  0.50400001928E-02 0.  1.
        1   -1    0    0  501    0  0.00000000000E+00  0.00000000000E+00 -0.19670073206E+04  0.19670073206E+04  0.50400001928E-02 0. -1.
    10030    2    1    2    0    0  0.00000000000E+00  0.00000000000E+00 -0.31613218817E+03  0.36178824531E+04  0.36040441013E+04 0.  0.
        5    1    3    3  502    0  0.74579555381E+03 -0.16314349160E+04  0.14262767512E+02  0.17938830535E+04  0.46999998093E+01 0. -1.
       -5    1    3    3    0  502 -0.74579555381E+03  0.16314349160E+04 -0.33039495568E+03  0.18239993996E+04  0.46999998093E+01 0.  1.
</event>
<event>
 5   0  0.2193129E-07  0.3592613E+04  0.7818609E-02  0.8092186E-01
        1   -1    0    0  501    0  0.00000000000E+00  0.00000000000E+00  0.19679946639E+04  0.19679946639E+04  0.50400001928E-02 0. -1.
       -1   -1    0    0    0  501  0.00000000000E+00  0.00000000000E+00 -0.16395967812E+04  0.16395967812E+04  0.50400001928E-02 0.  1.
    10030    2    1    2    0    0  0.00000000000E+00  0.00000000000E+00  0.32839788279E+03  0.36075914451E+04  0.35926133754E+04 0.  0.
        1    1    3    3  502    0 -0.10755409016E+04  0.12874664982E+04 -0.48063051600E+03  0.17450971055E+04  0.50400001928E-02 0. -1.
       -1    1    3    3    0  502  0.10755409016E+04 -0.12874664982E+04  0.80902839879E+03  0.18624943396E+04  0.50400001928E-02 0.  1.
</event>
<event>
 5   0  0.6324216E-07  0.3538789E+04  0.7818609E-02  0.8104659E-01
       -2   -1    0    0    0  501  0.00000000000E+00  0.00000000000E+00  0.15546332671E+04  0.15546332671E+04  0.25500000920E-02 0.  1.
        2   -1    0    0  501    0  0.00000000000E+00  0.00000000000E+00 -0.20138231635E+04  0.20138231635E+04  0.25500000920E-02 0. -1.
    10030    2    1    2    0    0  0.00000000000E+00  0.00000000000E+00 -0.45918989642E+03  0.35684564307E+04  0.35387887669E+04 0.  0.
        2    1    3    3  502    0 -0.20861456297E+03 -0.81417051246E+03  0.13404951203E+04  0.15821886192E+04  0.25500000920E-02 0.  1.
       -2    1    3    3    0  502  0.20861456297E+03  0.81417051246E+03 -0.17996850167E+04  0.19862678114E+04  0.25500000920E-02 0. -1.
</event>
<event>
 5   0  0.6324216E-07  0.3563028E+04  0.7818609E-02  0.8099013E-01
       -2   -1    0    0    0  501  0.00000000000E+00  0.00000000000E+00  0.17575757693E+04  0.17575757693E+04  0.25500000920E-02 0.  1.
        2   -1    0    0  501    0  0.00000000000E+00  0.00000000000E+00 -0.18057784245E+04  0.18057784245E+04  0.25500000920E-02 0. -1.
    10030    2    1    2    0    0  0.00000000000E+00  0.00000000000E+00 -0.48202655195E+02  0.35633541939E+04  0.35630281525E+04 0.  0.
        2    1    3    3  502    0 -0.12311096964E+04 -0.81498766049E+03  0.97296353904E+03  0.17681894751E+04  0.25500000920E-02 0.  1.
       -2    1    3    3    0  502  0.12311096964E+04  0.81498766049E+03 -0.10211661942E+04  0.17951647188E+04  0.25500000920E-02 0. -1.
</event>
<event>
 5   0  0.6729577E-07  0.3603813E+04  0.7818609E-02  0.8089619E-01
        2   -1    0    0  501    0  0.00000000000E+00  0.00000000000E+00  0.15764798907E+04  0.15764798907E+04  0.25500000920E-02 0. -1.
       -2   -1    0    0    0  501  0.00000000000E+00  0.00000000000E+00 -0.20595680369E+04  0.20595680369E+04  0.25500000920E-02 0.  1.
    10030    2    1    2    0    0  0.00000000000E+00  0.00000000000E+00 -0.48308814613E+03  0.36360479276E+04  0.36038133102E+04 0.  0.
        3    1    3    3  502    0  0.93217737000E+03 -0.12411682690E+04  0.68174456425E+03  0.16953551198E+04  0.10100000352E+00 0. -1.
       -3    1    3    3    0  502 -0.93217737000E+03  0.12411682690E+04 -0.11648327104E+04  0.19406928078E+04  0.10100000352E+00 0.  1.
</event>
<event>
 5   0  0.2086250E-07  0.3596107E+04  0.7818609E-02  0.8091384E-01
        1   -1    0    0  501    0  0.00000000000E+00  0.00000000000E+00  0.18337080108E+04  0.18337080108E+04  0.50400001928E-02 0. -1.
       -1   -1    0    0    0  501  0.00000000000E+00  0.00000000000E+00 -0.17630920618E+04  0.17630920618E+04  0.50400001928E-02 0.  1.
    10030    2    1    2    0    0  0.00000000000E+00  0.00000000000E+00  0.70615949043E+02  0.35968000726E+04  0.35961068045E+04 0.  0.
        2    1    3    3  502    0  0.13445694784E+04  0.36072658066E+03 -0.11028944007E+04  0.17760537175E+04  0.25500000920E-02 0.  1.
       -2    1    3    3    0  502 -0.13445694784E+04 -0.36072658066E+03  0.11735103498E+04  0.18207463550E+04  0.25500000920E-02 0. -1.
</event>
<event>
 5   0  0.2193129E-07  0.3619578E+04  0.7818609E-02  0.8086022E-01
        1   -1    0    0  501    0  0.00000000000E+00  0.00000000000E+00  0.21597454098E+04  0.21597454098E+04  0.50400001928E-02 0. -1.
       -1   -1    0    0    0  501  0.00000000000E+00  0.00000000000E+00 -0.15165384108E+04  0.15165384108E+04  0.50400001928E-02 0.  1.
    10030    2    1    2    0    0  0.00000000000E+00  0.00000000000E+00  0.64320699899E+03  0.36762838205E+04  0.36195783574E+04 0.  0.
        1    1    3    3  502    0  0.37061030574E+03  0.34948889912E+03  0.20854279971E+04  0.21467427467E+04  0.50400001928E-02 0. -1.
       -1    1    3    3    0  502 -0.37061030574E+03 -0.34948889912E+03 -0.14422209981E+04  0.15295410739E+04  0.50400001928E-02 0.  1.
</event>
<event>
 5   0  0.6324216E-07  0.3553021E+04  0.7818609E-02  0.8101338E-01
        2   -1    0    0  501    0  0.00000000000E+00  0.00000000000E+00  0.21757720773E+04  0.21757720773E+04  0.25500000920E-02 0. -1.
       -2   -1    0    0    0  501  0.00000000000E+00  0.00000000000E+00 -0.14505145247E+04  0.14505145247E+04  0.25500000920E-02 0.  1.
    10030    2    1    2    0    0  0.00000000000E+00  0.00000000000E+00  0.72525755267E+03  0.36262866020E+04  0.35530206870E+04 0.  0.
        2    1    3    3  502    0  0.84889890827E+03 -0.95838830352E+03 -0.89437308998E+03  0.15617428472E+04  0.25500000920E-02 0.  1.
       -2    1    3    3    0  502 -0.84889890827E+03  0.95838830352E+03  0.16196306426E+04  0.20645437548E+04  0.25500000920E-02 0. -1.
</event>
<event>
 5   0  0.6669864E-07  0.3568560E+04  0.7818609E-02  0.8097732E-01
       -2   -1    0    0    0  501  0.00000000000E+00  0.00000000000E+00  0.21274091763E+04  0.21274091763E+04  0.25500000920E-02 0. -1.
        2   -1    0    0  501    0  0.00000000000E+00  0.00000000000E+00 -0.14964938215E+04  0.14964938215E+04  0.25500000920E-02 0.  1.
    10030    2    1    2    0    0  0.00000000000E+00  0.00000000000E+00  0.63091535484E+03  0.36239029978E+04  0.35685597589E+04 0.  0.
        5    1    3    3  502    0 -0.17520052991E+04 -0.19219273206E+03  0.33350962995E+02  0.17628371992E+04  0.46999998093E+01 0. -1.
       -5    1    3    3    0  502  0.17520052991E+04  0.19219273206E+03  0.59756439185E+03  0.18610657986E+04  0.46999998093E+01 0.  1.
</event>
<event>
 5   0  0.2086250E-07  0.3578973E+04  0.7818609E-02  0.8095325E-01
       -1   -1    0    0    0  501  0.00000000000E+00  0.00000000000E+00  0.26424892845E+04  0.26424892845E+04  0.50400001928E-02 0.  1.
        1   -1    0    0  501    0  0.00000000000E+00  0.00000000000E+00 -0.12118350846E+04  0.12118350847E+04  0.50400001928E-02 0. -1.
    10030    2    1    2    0    0  0.00000000000E+00  0.00000000000E+00  0.14306541999E+04  0.38543243692E+04  0.35789726044E+04 0.  0.
        2    1    3    3  502    0  0.12512995732E+04  0.12509222168E+04  0.42694903783E+03  0.18201215606E+04  0.25500000920E-02 0. -1.
       -2    1    3    3    0  502 -0.12512995732E+04 -0.12509222168E+04  0.10037051621E+04  0.20342028086E+04  0.25500000920E-02 0.  1.
</event>
<event>
 5   0  0.2108068E-07  0.3571047E+04  0.7818609E-02  0.8097156E-01
        1   -1    0    0  501    0  0.00000000000E+00  0.00000000000E+00  0.23445684914E+04  0.23445684914E+04  0.50400001928E-02 0.  1.
       -1   -1    0    0    0  501  0.00000000000E+00  0.00000000000E+00 -0.13597786205E+04  0.13597786205E+04  0.50400001928E-02 0. -1.
    10030    2    1    2    0    0  0.00000000000E+00  0.00000000000E+00  0.98478987091E+03  0.37043471118E+04  0.35710469662E+04 0.  0.
        5    1    3    3  502    0 -0.17347416974E+04 -0.14765234142E+03  0.81447976342E+02  0.17429245059E+04  0.46999998093E+01 0.  1.
       -5    1    3    3    0  502  0.17347416974E+04  0.14765234142E+03  0.90334189456E+03  0.19614226059E+04  0.46999998093E+01 0. -1.
</event>
<event>
 5   0  0.6541476E-07  0.3590601E+04  0.7818609E-02  0.8092648E-01
       -2   -1    0    0    0  501  0.00000000000E+00  0.00000000000E+00  0.29837063824E+04  0.29837063824E+04  0.25500000920E-02 0.  1.
        2   -1    0    0  501    0  0.00000000000E+00  0.00000000000E+00 -0.10802348510E+04  0.10802348510E+04  0.25500000920E-02 0. -1.
    10030    2    1    2    0    0  0.00000000000E+00  0.00000000000E+00  0.19034715314E+04  0.40639412334E+04  0.35906008519E+04 0.  0.
        4    1    3    3  502    0 -0.11471207099E+04 -0.13160994962E+04  0.14253460559E+04  0.22538005233E+04  0.12699999809E+01 0.  1.
       -4    1    3    3    0  502  0.11471207099E+04  0.13160994962E+04  0.47812547552E+03  0.18101407101E+04  0.12699999809E+01 0. -1.
</event>
<event>
 5   0  0.2086250E-07  0.3606943E+04  0.7818609E-02  0.8088903E-01
       -1   -1    0    0    0  501  0.00000000000E+00  0.00000000000E+00  0.15066373335E+04  0.15066373335E+04  0.50400001928E-02 0. -1.
        1   -1    0    0  501    0  0.00000000000E+00  0.00000000000E+00 -0.21587874743E+04  0.21587874743E+04  0.50400001928E-02 0.  1.
    10030    2    1    2    0    0  0.00000000000E+00  0.00000000000E+00 -0.65215014079E+03  0.36654248077E+04  0.36069431954E+04 0.  0.
        3    1    3    3  502    0 -0.13312839400E+04  0.37336958737E+02 -0.15618505087E+04  0.20525808143E+04  0.10100000352E+00 0.  1.
       -3    1    3    3    0  502  0.13312839400E+04 -0.37336958737E+02  0.90970036793E+03  0.16128439934E+04  0.10100000352E+00 0. -1.
</event>
<event>
 5   0  0.2086250E-07  0.3590609E+04  0.7818609E-02  0.8092646E-01
        1   -1    0    0  501    0  0.00000000000E+00  0.00000000000E+00  0.24132138392E+04  0.24132138392E+04  0.50400001928E-02 0.  1.
       -1   -1    0    0    0  501  0.00000000000E+00  0.00000000000E+00 -0.13356124632E+04  0.13356124633E+04  0.50400001928E-02 0. -1.
    10030    2    1    2    0    0  0.00000000000E+00  0.00000000000E+00  0.10776013760E+04  0.37488263025E+04  0.35906091295E+04 0.  0.
        2    1    3    3  502    0 -0.25297432620E+02 -0.76608062934E+03  0.22337895695E+04  0.23616382728E+04  0.25500000920E-02 0.  1.
       -2    1    3    3    0  502  0.25297432620E+02  0.76608062934E+03 -0.11561881935E+04  0.13871880297E+04  0.25500000920E-02 0. -1.
</event>
<event>
 5   0  0.6324216E-07  0.3605050E+04  0.7818609E-02  0.8089336E-01
        2   -1    0    0  501    0  0.00000000000E+00  0.00000000000E+00  0.16483860389E+04  0.16483860389E+04  0.25500000920E-02 0.  1.
       -2   -1    0    0    0  501  0.00000000000E+00  0.00000000000E+00 -0.19710773343E+04  0.19710773343E+04  0.25500000920E-02 0. -1.
    10030    2    1    2    0    0  0.00000000000E+00  0.00000000000E+00 -0.32269129541E+03  0.36194633732E+04  0.36050499911E+04 0.  0.
        2    1    3    3  502    0  0.19620241707E+03 -0.22608027271E+03  0.16232560290E+04  0.16506264913E+04  0.25500000920E-02 0.  1.
       -2    1    3    3    0  502 -0.19620241707E+03  0.22608027271E+03 -0.19459473244E+04  0.19688368819E+04  0.25500000920E-02 0. -1.
</event>
<event>
 5   0  0.6669864E-07  0.3626168E+04  0.7818609E-02  0.8084524E-01
        2   -1    0    0  501    0  0.00000000000E+00  0.00000000000E+00  0.23241744922E+04  0.23241744922E+04  0.25500000920E-02 0.  1.
       -2   -1    0    0    0  501  0.00000000000E+00  0.00000000000E+00 -0.14143833922E+04  0.14143833922E+04  0.25500000920E-02 0. -1.
    10030    2    1    2    0    0  0.00000000000E+00  0.00000000000E+00  0.90979109994E+03  0.37385578844E+04  0.36261681166E+04 0.  0.
        5    1    3    3  502    0  0.36022443653E+03  0.10902070337E+04  0.19015748619E+04  0.22213333983E+04  0.46999998093E+01 0.  1.
       -5    1    3    3    0  502 -0.36022443653E+03 -0.10902070337E+04 -0.99178376193E+03  0.15172244861E+04  0.46999998093E+01 0. -1.
</event>
<event>
 5   0  0.2086250E-07  0.3492804E+04  0.7818609E-02  0.8115497E-01
       -1   -1    0    0    0  501  0.00000000000E+00  0.00000000000E+00  0.13890657537E+04  0.13890657537E+04  0.50400001928E-02 0. -1.
        1   -1    0    0  501    0  0.00000000000E+00  0.00000000000E+00 -0.21956624560E+04  0.21956624561E+04  0.50400001928E-02 0.  1.
    10030    2    1    2    0    0  0.00000000000E+00  0.00000000000E+00 -0.80659670231E+03  0.35847282098E+04  0.34928037589E+04 0.  0.
        4    1    3    3  502    0  0.93357399854E+03 -0.10310646120E+04 -0.14871522566E+04  0.20362411675E+04  0.12699999809E+01 0.  1.
       -4    1    3    3    0  502 -0.93357399854E+03  0.10310646120E+04  0.68055555431E+03  0.15484870423E+04  0.12699999809E+01 0. -1.
</event>
<event>
 5   0  0.6669864E-07  0.3619549E+04  0.7818609E-02  0.8086028E-01
       -2   -1    0    0    0  501  0.00000000000E+00  0.00000000000E+00  0.20759249611E+04  0.20759249611E+04  0.25500000920E-02 0. -1.
        2   -1    0    0  501    0  0.00000000000E+00  0.00000000000E+00 -0.15777462664E+04  0.15777462664E+04  0.25500000920E-02 0.  1.
    10030    2    1    2    0    0  0.00000000000E+00  0.00000000000E+00  0.49817869472E+03  0.36536712275E+04  0.36195485115E+04 0.  0.
        5    1    3    3  502    0 -0.51159861024E+02  0.68626107005E+02  0.20738743156E+04  0.20756453553E+04  0.46999998093E+01 0. -1.
       -5    1    3    3    0  502  0.51159861024E+02 -0.68626107005E+02 -0.15756956209E+04  0.15780258723E+04  0.46999998093E+01 0.  1.
</event>
<event>
 5   0  0.2086250E-07  0.3550925E+04  0.7818609E-02  0.8101826E-01
        1   -1    0    0  501    0  0.00000000000E+00  0.00000000000E+00  0.15893097963E+04  0.15893097963E+04  0.50400001928E-02 0.  1.
       -1   -1    0    0    0  501  0.00000000000E+00  0.00000000000E+00 -0.19834190706E+04  0.19834190706E+04  0.50400001928E-02 0. -1.
    10030    2    1    2    0    0  0.00000000000E+00  0.00000000000E+00 -0.39410927436E+03  0.35727288669E+04  0.35509251521E+04 0.  0.
        3    1    3    3  502    0 -0.80965405474E+03  0.61834487853E+03  0.12659637411E+04  0.16249782402E+04  0.10100000352E+00 0.  1.
       -3    1    3    3    0  502  0.80965405474E+03 -0.61834487853E+03 -0.16600730154E+04  0.19477506267E+04  0.10100000352E+00 0. -1.
</event>
<event>
 5   0  0.6324216E-07  0.3594512E+04  0.7818609E-02  0.8091750E-01
       -2   -1    0    0    0  501  0.00000000000E+00  0.00000000000E+00  0.19880414491E+04  0.19880414491E+04  0.25500000920E-02 0.  1.
        2   -1    0    0  501    0  0.00000000000E+00  0.00000000000E+00 -0.16247796710E+04  0.16247796710E+04  0.25500000920E-02 0. -1.
    10030    2    1    2    0    0  0.00000000000E+00  0.00000000000E+00  0.36326177806E+03  0.36128211201E+04  0.35945121125E+04 0.  0.
        2    1    3    3  502    0  0.92647536494E+03  0.73270457767E+03  0.15431216171E+04  0.19433056695E+04  0.25500000920E-02 0.  1.
       -2    1    3    3    0  502 -0.92647536494E+03 -0.73270457767E+03 -0.11798598391E+04  0.16695154506E+04  0.25500000920E-02 0. -1.
</event>
<event>
 5   0  0.6729577E-07  0.3657338E+04  0.7818609E-02  0.8077483E-01
        2   -1    0    0  501    0  0.00000000000E+00  0.00000000000E+00  0.21174302912E+04  0.21174302912E+04  0.25500000920E-02 0. -1.
       -2   -1    0    0    0  501  0.00000000000E+00  0.00000000000E+00 -0.15792866720E+04  0.15792866720E+04  0.25500000920E-02 0.  1.
    10030    2    1    2    0    0  0.00000000000E+00  0.00000000000E+00  0.53814361920E+03  0.36967169631E+04  0.36573375221E+04 0.  0.
        3    1    3    3  502    0 -0.17506645786E+04  0.52662571392E+03  0.31276125770E+03  0.18547185026E+04  0.10100000352E+00 0. -1.
       -3    1    3    3    0  502  0.17506645786E+04 -0.52662571392E+03  0.22538236150E+03  0.18419984605E+04  0.10100000352E+00 0.  1.
</event>
<event>
 5   0  0.6848661E-07  0.3525651E+04  0.7818609E-02  0.8107738E-01
       -2   -1    0    0    0  501  0.00000000000E+00  0.00000000000E+00  0.22805390302E+04  0.22805390302E+04  0.25500000920E-02 0. -1.
        2   -1    0    0  501    0  0.00000000000E+00  0.00000000000E+00 -0.13626398597E+04  0.13626398597E+04  0.25500000920E-02 0.  1.
    10030    2    1    2    0    0  0.00000000000E+00  0.00000000000E+00  0.91789917044E+03  0.36431788899E+04  0.35256507962E+04 0.  0.
        1    1    3    3  502    0 -0.97800924301E+03 -0.34134379532E+02  0.19740762204E+04  0.22033257043E+04  0.50400001928E-02 0. -1.
       -1    1    3    3    0  502  0.97800924301E+03  0.34134379532E+02 -0.10561770499E+04  0.14398531856E+04  0.50400001928E-02 0.  1.
</event>
<event>
 5   0  0.2193129E-07  0.3609226E+04  0.7818609E-02  0.8088382E-01
       -1   -1    0    0    0  501  0.00000000000E+00  0.00000000000E+00  0.13337509226E+04  0.13337509226E+04  0.50400001928E-02 0. -1.
        1   -1    0    0  501    0  0.00000000000E+00  0.00000000000E+00 -0.24417066621E+04  0.24417066621E+04  0.50400001928E-02 0.  1.
    10030    2    1    2    0    0  0.00000000000E+00  0.00000000000E+00 -0.11079557395E+04  0.37754575847E+04  0.36092262403E+04 0.  0.
        1    1    3    3  502    0  0.13775700161E+04  0.13851796767E+03 -0.17647602651E+04  0.22430481872E+04  0.50400001928E-02 0.  1.
       -1    1    3    3    0  502 -0.13775700161E+04 -0.13851796767E+03  0.65680452564E+03  0.15324093975E+04  0.50400001928E-02 0. -1.
</event>
<event>
 5   0  0.6729577E-07  0.3586746E+04  0.7818609E-02  0.8093535E-01
        2   -1    0    0  501    0  0.00000000000E+00  0.00000000000E+00  0.32574427516E+04  0.32574427516E+04  0.25500000920E-02 0.  1.
       -2   -1    0    0    0  501  0.00000000000E+00  0.00000000000E+00 -0.98733457708E+03  0.98733457708E+03  0.25500000920E-02 0. -1.
    10030    2    1    2    0    0  0.00000000000E+00  0.00000000000E+00  0.22701081745E+04  0.42447773287E+04  0.35867455229E+04 0.  0.
        3    1    3    3  502    0 -0.11102349972E+04  0.12427064180E+04  0.19194000992E+04  0.25418571442E+04  0.10100000352E+00 0.  1.
       -3    1    3    3    0  502  0.11102349972E+04 -0.12427064180E+04  0.35070807539E+03  0.17029201845E+04  0.10100000352E+00 0. -1.
</event>
<event>
 5   0  0.2086250E-07  0.3456426E+04  0.7818609E-02  0.8124195E-01
        1   -1    0    0  501    0  0.00000000000E+00  0.00000000000E+00  0.12202688279E+04  0.12202688279E+04  0.50400001928E-02 0.  1.
       -1   -1    0    0    0  501  0.00000000000E+00  0.00000000000E+00 -0.24475924769E+04  0.24475924769E+04  0.50400001928E-02 0. -1.
    10030    2    1    2    0    0  0.00000000000E+00  0.00000000000E+00 -0.12273236491E+04  0.36678613048E+04  0.34564263643E+04 0.  0.
        4    1    3    3  502    0 -0.49916195593E+03  0.66510534946E+02  0.11406870775E+04  0.12468981238E+04  0.12699999809E+01 0.  1.
       -4    1    3    3    0  502  0.49916195593E+03 -0.66510534946E+02 -0.23680107266E+04  0.24209631810E+04  0.12699999809E+01 0. -1.
</event>
<event>
 5   0  0.6669864E-07  0.3598521E+04  0.7818609E-02  0.8090831E-01
       -2   -1    0    0    0  501  0.00000000000E+00  0.00000000000E+00  0.12561165242E+04  0.12561165242E+04  0.25500000920E-02 0. -1.
        2   -1    0    0  501    0  0.00000000000E+00  0.00000000000E+00 -0.25772598499E+04  0.25772598499E+04  0.25500000920E-02 0.  1.
    10030    2    1    2    0    0  0.00000000000E+00  0.00000000000E+00 -0.13211433257E+04  0.38333763741E+04  0.35985211877E+04 0.  0.
        5    1    3    3  502    0  0.11437076957E+04  0.13612610815E+04 -0.36647848872E+03  0.18153312640E+04  0.46999998093E+01 0. -1.
       -5    1    3    3    0  502 -0.11437076957E+04 -0.13612610815E+04 -0.95466483696E+03  0.20180451101E+04  0.46999998093E+01 0.  1.
</event>
<event>
 5   0  0.2086250E-07  0.3548302E+04  0.7818609E-02  0.8102438E-01
       -1   -1    0    0    0  501  0.00000000000E+00  0.00000000000E+00  0.22037908528E+04  0.22037908528E+04  0.50400001928E-02 0. -1.
        1   -1    0    0  501    0  0.00000000000E+00  0.00000000000E+00 -0.14282711932E+04  0.14282711932E+04  0.50400001928E-02 0.  1.
    10030    2    1    2    0    0  0.00000000000E+00  0.00000000000E+00  0.77551965954E+03  0.36320620460E+04  0.35483015604E+04 0.  0.
        4    1    3    3  502    0 -0.57928746123E+02 -0.19709045022E+03  0.21915754352E+04  0.22011826109E+04  0.12699999809E+01 0. -1.
       -4    1    3    3    0  502  0.57928746123E+02  0.19709045022E+03 -0.14160557757E+04  0.14308794352E+04  0.12699999809E+01 0.  1.
</event>
<event>
 5   0  0.2108068E-07  0.3603376E+04  0.7818609E-02  0.8089719E-01
        1   -1    0    0  501    0  0.00000000000E+00  0.00000000000E+00  0.26718713622E+04  0.26718713622E+04  0.50400001928E-02 0.  1.
       -1   -1    0    0    0  501  0.00000000000E+00  0.00000000000E+00 -0.12149083653E+04  0.12149083654E+04  0.50400001928E-02 0. -1.
    10030    2    1    2    0    0  0.00000000000E+00  0.00000000000E+00  0.14569629969E+04  0.38867797276E+04  0.36033755669E+04 0.  0.
        5    1    3    3  502    0  0.17806706165E+04  0.13119762220E+03  0.98838037216E+03  0.20408131984E+04  0.46999998093E+01 0. -1.
       -5    1    3    3    0  502 -0.17806706165E+04 -0.13119762220E+03  0.46858262473E+03  0.18459665292E+04  0.46999998093E+01 0.  1.
</event>
<event>
 5   0  0.6848661E-07  0.3626662E+04  0.7818609E-02  0.8084412E-01
        2   -1    0    0  501    0  0.00000000000E+00  0.00000000000E+00  0.21224279721E+04  0.21224279721E+04  0.25500000920E-02 0.  1.
       -2   -1    0    0    0  501  0.00000000000E+00  0.00000000000E+00 -0.15492485934E+04  0.15492485934E+04  0.25500000920E-02 0. -1.
    10030    2    1    2    0    0  0.00000000000E+00  0.00000000000E+00  0.57317937872E+03  0.36716765655E+04  0.36266615781E+04 0.  0.
        1    1    3    3  502    0 -0.14759599817E+04 -0.26979878176E+03  0.13175213217E+04  0.19967753212E+04  0.50400001928E-02 0.  1.
       -1    1    3    3    0  502  0.14759599817E+04  0.26979878176E+03 -0.74434194295E+03  0.16749012443E+04  0.50400001928E-02 0. -1.
</event>
<event>
 5   0  0.6541476E-07  0.3562716E+04  0.7818609E-02  0.8099086E-01
       -2   -1    0    0    0  501  0.00000000000E+00  0.00000000000E+00  0.12897967839E+04  0.12897967839E+04  0.25500000920E-02 0.  1.
        2   -1    0    0  501    0  0.00000000000E+00  0.00000000000E+00 -0.24602608639E+04  0.24602608639E+04  0.25500000920E-02 0. -1.
    10030    2    1    2    0    0  0.00000000000E+00  0.00000000000E+00 -0.11704640800E+04  0.37500576479E+04  0.35627161267E+04 0.  0.
        4    1    3    3  502    0  0.66157360534E+03 -0.73634470589E+03 -0.21441055232E+04  0.23615827889E+04  0.12699999809E+01 0. -1.
       -4    1    3    3    0  502 -0.66157360534E+03  0.73634470589E+03  0.97364144321E+03  0.13884748590E+04  0.12699999809E+01 0.  1.
</event>
<event>
 5   0  0.6729577E-07  0.3616681E+04  0.7818609E-02  0.8086681E-01
        2   -1    0    0  501    0  0.00000000000E+00  0.00000000000E+00  0.10007065019E+04  0.10007065019E+04  0.25500000920E-02 0. -1.
       -2   -1    0    0    0  501  0.00000000000E+00  0.00000000000E+00 -0.32677870961E+04  0.32677870961E+04  0.25500000920E-02 0.  1.
    10030    2    1    2    0    0  0.00000000000E+00  0.00000000000E+00 -0.22670805942E+04  0.42684935980E+04  0.36166812378E+04 0.  0.
        3    1    3    3  502    0 -0.14811694970E+03 -0.86676522539E+03 -0.29984715149E+04  0.31247483135E+04  0.10100000352E+00 0.  1.
       -3    1    3    3    0  502  0.14811694970E+03  0.86676522539E+03  0.73139092073E+03  0.11437452845E+04  0.10100000352E+00 0. -1.
</event>
<event>
 5   0  0.2086250E-07  0.3693966E+04  0.7818609E-02  0.8069300E-01
       -1   -1    0    0    0  501  0.00000000000E+00  0.00000000000E+00  0.11609764022E+04  0.11609764022E+04  0.50400001928E-02 0. -1.
        1   -1    0    0  501    0  0.00000000000E+00  0.00000000000E+00 -0.29383422164E+04  0.29383422164E+04  0.50400001928E-02 0.  1.
    10030    2    1    2    0    0  0.00000000000E+00  0.00000000000E+00 -0.17773658142E+04  0.40993186186E+04  0.36939658769E+04 0.  0.
        4    1    3    3  502    0 -0.69198703199E+03  0.14594941861E+04 -0.18827312331E+04  0.24806547201E+04  0.12699999809E+01 0. -1.
       -4    1    3    3    0  502  0.69198703199E+03 -0.14594941861E+04  0.10536541891E+03  0.16186638984E+04  0.12699999809E+01 0.  1.
</event>
<event>
 5   0  0.2086250E-07  0.3625395E+04  0.7818609E-02  0.8084699E-01
       -1   -1    0    0    0  501  0.00000000000E+00  0.00000000000E+00  0.15873048479E+04  0.15873048479E+04  0.50400001928E-02 0.  1.
        1   -1    0    0  501    0  0.00000000000E+00  0.00000000000E+00 -0.20700955612E+04  0.20700955612E+04  0.50400001928E-02 0. -1.
    10030    2    1    2    0    0  0.00000000000E+00  0.00000000000E+00 -0.48279071328E+03  0.36574004091E+04  0.36253952722E+04 0.  0.
        2    1    3    3  502    0  0.13967369267E+04  0.48718322248E+03 -0.12983328895E+04  0.19682199640E+04  0.25500000920E-02 0. -1.
       -2    1    3    3    0  502 -0.13967369267E+04 -0.48718322248E+03  0.81554217623E+03  0.16891804451E+04  0.25500000920E-02 0.  1.
</event>
<event>
 5   0  0.6669864E-07  0.3656214E+04  0.7818609E-02  0.8077735E-01
        2   -1    0    0  501    0  0.00000000000E+00  0.00000000000E+00  0.30606122519E+04  0.30606122519E+04  0.25500000920E-02 0.  1.
       -2   -1    0    0    0  501  0.00000000000E+00  0.00000000000E+00 -0.10919301996E+04  0.10919301996E+04  0.25500000920E-02 0. -1.
    10030    2    1    2    0    0  0.00000000000E+00  0.00000000000E+00  0.19686820522E+04  0.41525424515E+04  0.36562138598E+04 0.  0.
        5    1    3    3  502    0 -0.11610825135E+04  0.88421239359E+03  0.22347018513E+04  0.26690557533E+04  0.46999998093E+01 0.  1.
       -5    1    3    3    0  502  0.11610825135E+04 -0.88421239359E+03 -0.26601979914E+03  0.14834866982E+04  0.46999998093E+01 0. -1.
</event>
<event>
 5   0  0.2193129E-07  0.3463834E+04  0.7818609E-02  0.8122415E-01
       -1   -1    0    0    0  501  0.00000000000E+00  0.00000000000E+00  0.17428416877E+04  0.17428416877E+04  0.50400001928E-02 0. -1.
        1   -1    0    0  501    0  0.00000000000E+00  0.00000000000E+00 -0.17210607269E+04  0.17210607269E+04  0.50400001928E-02 0.  1.
    10030    2    1    2    0    0  0.00000000000E+00  0.00000000000E+00  0.21780960872E+02  0.34639024146E+04  0.34638339348E+04 0.  0.
        1    1    3    3  502    0 -0.46514674972E+03 -0.11497682464E+04  0.12197186896E+04  0.17395522990E+04  0.50400001928E-02 0. -1.
       -1    1    3    3    0  502  0.46514674972E+03  0.11497682464E+04 -0.11979377288E+04  0.17243501156E+04  0.50400001928E-02 0.  1.
</event>
<event>
 5   0  0.6729577E-07  0.3568620E+04  0.7818609E-02  0.8097718E-01
       -2   -1    0    0    0  501  0.00000000000E+00  0.00000000000E+00  0.18430919796E+04  0.18430919796E+04  0.25500000920E-02 0. -1.
        2   -1    0    0  501    0  0.00000000000E+00  0.00000000000E+00 -0.17274028859E+04  0.17274028859E+04  0.25500000920E-02 0.  1.
    10030    2    1    2    0    0  0.00000000000E+00  0.00000000000E+00  0.11568909377E+03  0.35704948655E+04  0.35686201280E+04 0.  0.
        3    1    3    3  502    0  0.57288948836E+03 -0.16363762394E+04  0.47976838584E+03  0.17989183631E+04  0.10100000352E+00 0. -1.
       -3    1    3    3    0  502 -0.57288948836E+03  0.16363762394E+04 -0.36407929207E+03  0.17715765024E+04  0.10100000352E+00 0.  1.
</event>
<event>
 5   0  0.2086250E-07  0.3586201E+04  0.7818609E-02  0.8093660E-01
       -1   -1    0    0    0  501  0.00000000000E+00  0.00000000000E+00  0.21786155148E+04  0.21786155148E+04  0.50400001928E-02 0.  1.
        1   -1    0    0  501    0  0.00000000000E+00  0.00000000000E+00 -0.14758036411E+04  0.14758036411E+04  0.50400001928E-02 0. -1.
    10030    2    1    2    0    0  0.00000000000E+00  0.00000000000E+00  0.70281187370E+03  0.36544191559E+04  0.35862006131E+04 0.  0.
        2    1    3    3  502    0  0.10377524667E+04 -0.65205577532E+03 -0.98234692127E+03  0.15707044248E+04  0.25500000920E-02 0. -1.
       -2    1    3    3    0  502 -0.10377524667E+04  0.65205577532E+03  0.16851587950E+04  0.20837147311E+04  0.25500000920E-02 0.  1.
</event>
<event>
 5   0  0.2086250E-07  0.3466984E+04  0.7818609E-02  0.8121659E-01
       -1   -1    0    0    0  501  0.00000000000E+00  0.00000000000E+00  0.15503312416E+04  0.15503312416E+04  0.50400001928E-02 0.  1.
        1   -1    0    0  501    0  0.00000000000E+00  0.00000000000E+00 -0.19382916553E+04  0.19382916553E+04  0.50400001928E-02 0. -1.
    10030    2    1    2    0    0  0.00000000000E+00  0.00000000000E+00 -0.38796041365E+03  0.34886228969E+04  0.34669837661E+04 0.  0.
        4    1    3    3  502    0 -0.14416707383E+04  0.69731976877E+03  0.47372991934E+03  0.16700571927E+04  0.12699999809E+01 0. -1.
       -4    1    3    3    0  502  0.14416707383E+04 -0.69731976877E+03 -0.86169033299E+03  0.18185657042E+04  0.12699999809E+01 0.  1.
</event>
<event>
 5   0  0.2086250E-07  0.3597052E+04  0.7818609E-02  0.8091167E-01
       -3   -1    0    0    0  501  0.00000000000E+00  0.00000000000E+00  0.23819195728E+04  0.23819195749E+04  0.10100000352E+00 0. -1.
        3   -1    0    0  501    0  0.00000000000E+00  0.00000000000E+00 -0.13580207559E+04  0.13580207597E+04  0.10100000352E+00 0.  1.
    10030    2    1    2    0    0  0.00000000000E+00  0.00000000000E+00  0.10238988169E+04  0.37399403346E+04  0.35970522541E+04 0.  0.
        5    1    3    3  502    0  0.10601398652E+04 -0.13793254835E+04  0.98640849717E+03  0.19998647795E+04  0.46999998093E+01 0. -1.
       -5    1    3    3    0  502 -0.10601398652E+04  0.13793254835E+04  0.37490319694E+02  0.17400755550E+04  0.46999998093E+01 0.  1.
</event>
<event>
 5   0  0.6541476E-07  0.3514244E+04  0.7818609E-02  0.8110422E-01
        2   -1    0    0  501    0  0.00000000000E+00  0.00000000000E+00  0.21727320190E+04  0.21727320190E+04  0.25500000920E-02 0.  1.
       -2   -1    0    0    0  501  0.00000000000E+00  0.00000000000E+00 -0.14210120445E+04  0.14210120445E+04  0.25500000920E-02 0. -1.
    10030    2    1    2    0    0  0.00000000000E+00  0.00000000000E+00  0.75171997457E+03  0.35937440635E+04  0.35142443674E+04 0.  0.
        4    1    3    3  502    0  0.38111117103E+03  0.11740570461E+04 -0.90295794982E+03  0.15293758021E+04  0.12699999809E+01 0. -1.
       -4    1    3    3    0  502 -0.38111117103E+03 -0.11740570461E+04  0.16546779244E+04  0.20643682614E+04  0.12699999809E+01 0.  1.
</event>
<event>
 5   0  0.2108068E-07  0.3527407E+04  0.7818609E-02  0.8107325E-01
       -1   -1    0    0    0  501  0.00000000000E+00  0.00000000000E+00  0.15260779109E+04  0.15260779109E+04  0.50400001928E-02 0. -1.
        1   -1    0    0  501    0  0.00000000000E+00  0.00000000000E+00 -0.20383297593E+04  0.20383297593E+04  0.50400001928E-02 0.  1.
    10030    2    1    2    0    0  0.00000000000E+00  0.00000000000E+00 -0.51225184844E+03  0.35644076702E+04  0.35274069914E+04 0.  0.
        5    1    3    3  502    0 -0.13559829224E+04 -0.11240170417E+04 -0.16283232309E+03  0.17687963284E+04  0.46999998093E+01 0. -1.
       -5    1    3    3    0  502  0.13559829224E+04  0.11240170417E+04 -0.34941952535E+03  0.17956113418E+04  0.46999998093E+01 0.  1.
</event>
<event>
 5   0  0.6324216E-07  0.3501517E+04  0.7818609E-02  0.8113430E-01
        2   -1    0    0  501    0  0.00000000000E+00  0.00000000000E+00  0.25229081837E+04  0.25229081837E+04  0.25500000920E-02 0.  1.
       -2   -1    0    0    0  501  0.00000000000E+00  0.00000000000E+00 -0.12149295439E+04  0.12149295439E+04  0.25500000920E-02 0. -1.
    10030    2    1    2    0    0  0.00000000000E+00  0.00000000000E+00  0.13079786398E+04  0.37378377276E+04  0.35015172077E+04 0.  0.
        2    1    3    3  502    0  0.26938621120E+03 -0.17106949606E+04  0.92846011932E+03  0.19649642165E+04  0.25500000920E-02 0. -1.
       -2    1    3    3    0  502 -0.26938621120E+03  0.17106949606E+04  0.37951852050E+03  0.17728735111E+04  0.25500000920E-02 0.  1.
</event>
<event>
 5   0  0.2086250E-07  0.3624751E+04  0.7818609E-02  0.8084846E-01
       -1   -1    0    0    0  501  0.00000000000E+00  0.00000000000E+00  0.12678222970E+04  0.12678222970E+04  0.50400001928E-02 0. -1.
        1   -1    0    0  501    0  0.00000000000E+00  0.00000000000E+00 -0.25908247042E+04  0.25908247042E+04  0.50400001928E-02 0.  1.
    10030    2    1    2    0    0  0.00000000000E+00  0.00000000000E+00 -0.13230024072E+04  0.38586470012E+04  0.36247512067E+04 0.  0.
        4    1    3    3  502    0  0.12503511674E+04 -0.72270322005E+03  0.50415666065E+03  0.15296579805E+04  0.12699999809E+01 0. -1.
       -4    1    3    3    0  502 -0.12503511674E+04  0.72270322005E+03 -0.18271590679E+04  0.23289890206E+04  0.12699999809E+01 0.  1.
</event>
<event>
 5   0  0.2193129E-07  0.3575385E+04  0.7818609E-02  0.8096153E-01
        1   -1    0    0  501    0  0.00000000000E+00  0.00000000000E+00  0.24814626644E+04  0.24814626644E+04  0.50400001928E-02 0. -1.
       -1   -1    0    0    0  501  0.00000000000E+00  0.00000000000E+00 -0.12878872247E+04  0.12878872247E+04  0.50400001928E-02 0.  1.
    10030    2    1    2    0    0  0.00000000000E+00  0.00000000000E+00  0.11935754396E+04  0.37693498891E+04  0.35753847704E+04 0.  0.
        1    1    3    3  502    0  0.13967134488E+04  0.78586299460E+03  0.14318809153E+04  0.21491095970E+04  0.50400001928E-02 0. -1.
       -1    1    3    3    0  502 -0.13967134488E+04 -0.78586299460E+03 -0.23830547562E+03  0.16202402921E+04  0.50400001928E-02 0.  1.
</event>
<event>
 5   0  0.6324216E-07  0.3605710E+04  0.7818609E-02  0.8089185E-01
       -2   -1    0    0    0  501  0.00000000000E+00  0.00000000000E+00  0.14401794854E+04  0.14401794854E+04  0.25500000920E-02 0.  1.
        2   -1    0    0  501    0  0.00000000000E+00  0.00000000000E+00 -0.22568622739E+04  0.22568622739E+04  0.25500000920E-02 0. -1.
    10030    2    1    2    0    0  0.00000000000E+00  0.00000000000E+00 -0.81668278857E+03  0.36970417593E+04  0.36057103313E+04 0.  0.
        2    1    3    3  502    0 -0.12602425767E+04 -0.10324014933E+04  0.38337150634E+03  0.16736301585E+04  0.25500000920E-02 0.  1.
       -2    1    3    3    0  502  0.12602425767E+04  0.10324014933E+04 -0.12000542949E+04  0.20234116008E+04  0.25500000920E-02 0. -1.
</event>
<event>
 5   0  0.6541476E-07  0.3567648E+04  0.7818609E-02  0.8097943E-01
        2   -1    0    0  501    0  0.00000000000E+00  0.00000000000E+00  0.21128619067E+04  0.21128619067E+04  0.25500000920E-02 0. -1.
       -2   -1    0    0    0  501  0.00000000000E+00  0.00000000000E+00 -0.15060273054E+04  0.15060273054E+04  0.25500000920E-02 0.  1.
    10030    2    1    2    0    0  0.00000000000E+00  0.00000000000E+00  0.60683460132E+03  0.36188892121E+04  0.35676478099E+04 0.  0.
        4    1    3    3  502    0  0.42818335228E+03  0.11005679345E+04 -0.10527350589E+04  0.15820377615E+04  0.12699999809E+01 0.  1.
       -4    1    3    3    0  502 -0.42818335228E+03 -0.11005679345E+04  0.16595696602E+04  0.20368514506E+04  0.12699999809E+01 0. -1.
</event>
<event>
 5   0  0.2086250E-07  0.3584889E+04  0.7818609E-02  0.8093962E-01
       -1   -1    0    0    0  501  0.00000000000E+00  0.00000000000E+00  0.15722194231E+04  0.15722194231E+04  0.50400001928E-02 0. -1.
        1   -1    0    0  501    0  0.00000000000E+00  0.00000000000E+00 -0.20435175403E+04  0.20435175403E+04  0.50400001928E-02 0.  1.
    10030    2    1    2    0    0  0.00000000000E+00  0.00000000000E+00 -0.47129811722E+03  0.36157369634E+04  0.35848893809E+04 0.  0.
        2    1    3    3  502    0 -0.67559710631E+03  0.30558158482E+03 -0.18815755590E+04  0.20224089941E+04  0.25500000920E-02 0.  1.
       -2    1    3    3    0  502  0.67559710631E+03 -0.30558158482E+03  0.14102774418E+04  0.15933279693E+04  0.25500000920E-02 0. -1.
</event>
<event>
 5   0  0.2193129E-07  0.3577835E+04  0.7818609E-02  0.8095588E-01
        1   -1    0    0  501    0  0.00000000000E+00  0.00000000000E+00  0.26386511737E+04  0.26386511737E+04  0.50400001928E-02 0. -1.
       -1   -1    0    0    0  501  0.00000000000E+00  0.00000000000E+00 -0.12128262476E+04  0.12128262476E+04  0.50400001928E-02 0.  1.
    10030    2    1    2    0    0  0.00000000000E+00  0.00000000000E+00  0.14258249261E+04  0.38514774213E+04  0.35778347652E+04 0.  0.
        1    1    3    3  502    0 -0.16967952122E+04  0.25950884178E+03  0.17063159573E+03  0.17249852093E+04  0.50400001928E-02 0. -1.
       -1    1    3    3    0  502  0.16967952122E+04 -0.25950884178E+03  0.12551933304E+04  0.21264922120E+04  0.50400001928E-02 0.  1.
</event>
<event>
 5   0  0.2193129E-07  0.3626554E+04  0.7818609E-02  0.8084436E-01
        1   -1    0    0  501    0  0.00000000000E+00  0.00000000000E+00  0.29384282780E+04  0.29384282780E+04  0.50400001928E-02 0.  1.
       -1   -1    0    0    0  501  0.00000000000E+00  0.00000000000E+00 -0.11189565119E+04  0.11189565119E+04  0.50400001928E-02 0. -1.
    10030    2    1    2    0    0  0.00000000000E+00  0.00000000000E+00  0.18194717661E+04  0.40573847899E+04  0.36265539877E+04 0.  0.
        1    1    3    3  502    0  0.77828643554E+02 -0.14252413801E+04  0.21608928881E+04  0.25897544986E+04  0.50400001928E-02 0.  1.
       -1    1    3    3    0  502 -0.77828643554E+02  0.14252413801E+04 -0.34142112195E+03  0.14676302913E+04  0.50400001928E-02 0. -1.
</event>
<event>
 5   0  0.6541476E-07  0.3567707E+04  0.7818609E-02  0.8097929E-01
       -2   -1    0    0    0  501  0.00000000000E+00  0.00000000000E+00  0.18399559732E+04  0.18399559732E+04  0.25500000920E-02 0.  1.
        2   -1    0    0  501    0  0.00000000000E+00  0.00000000000E+00 -0.17294619769E+04  0.17294619769E+04  0.25500000920E-02 0. -1.
    10030    2    1    2    0    0  0.00000000000E+00  0.00000000000E+00  0.11049399627E+03  0.35694179501E+04  0.35677073281E+04 0.  0.
        4    1    3    3  502    0 -0.47693899163E+03  0.16947759943E+04  0.34243133149E+03  0.17935989804E+04  0.12699999809E+01 0.  1.
       -4    1    3    3    0  502  0.47693899163E+03 -0.16947759943E+04 -0.23193733522E+03  0.17758189697E+04  0.12699999809E+01 0. -1.
</event>
<event>
 5   0  0.2086250E-07  0.3583273E+04  0.7818609E-02  0.8094334E-01
        1   -1    0    0  501    0  0.00000000000E+00  0.00000000000E+00  0.16821993933E+04  0.16821993933E+04  0.50400001928E-02 0. -1.
       -1   -1    0    0    0  501  0.00000000000E+00  0.00000000000E+00 -0.19081927063E+04  0.19081927064E+04  0.50400001928E-02 0.  1.
    10030    2    1    2    0    0  0.00000000000E+00  0.00000000000E+00 -0.22599331307E+03  0.35903920996E+04  0.35832725896E+04 0.  0.
        3    1    3    3  502    0 -0.10259351901E+04  0.40345149343E+03  0.13021282738E+04  0.17061225552E+04  0.10100000352E+00 0. -1.
       -3    1    3    3    0  502  0.10259351901E+04 -0.40345149343E+03 -0.15281215868E+04  0.18842695445E+04  0.10100000352E+00 0.  1.
</event>
<event>
 5   0  0.2193129E-07  0.3594781E+04  0.7818609E-02  0.8091688E-01
        1   -1    0    0  501    0  0.00000000000E+00  0.00000000000E+00  0.14649861874E+04  0.14649861874E+04  0.50400001928E-02 0. -1.
       -1   -1    0    0    0  501  0.00000000000E+00  0.00000000000E+00 -0.22052174187E+04  0.22052174188E+04  0.50400001928E-02 0.  1.
    10030    2    1    2    0    0  0.00000000000E+00  0.00000000000E+00 -0.74023123131E+03  0.36702036062E+04  0.35947812500E+04 0.  0.
        1    1    3    3  502    0  0.17830919470E+04 -0.11459397927E+03 -0.56931000961E+03  0.18752766619E+04  0.50400001928E-02 0. -1.
       -1    1    3    3    0  502 -0.17830919470E+04  0.11459397927E+03 -0.17092122171E+03  0.17949269443E+04  0.50400001928E-02 0.  1.
</event>
<event>
 5   0  0.2193129E-07  0.3451982E+04  0.7818609E-02  0.8125265E-01
       -1   -1    0    0    0  501  0.00000000000E+00  0.00000000000E+00  0.18502857249E+04  0.18502857249E+04  0.50400001928E-02 0.  1.
        1   -1    0    0  501    0  0.00000000000E+00  0.00000000000E+00 -0.16100455946E+04  0.16100455946E+04  0.50400001928E-02 0. -1.
    10030    2    1    2    0    0  0.00000000000E+00  0.00000000000E+00  0.24024013034E+03  0.34603313195E+04  0.34519816802E+04 0.  0.
        1    1    3    3  502    0 -0.71604108968E+03  0.13948013702E+04 -0.60333098683E+03  0.16799386847E+04  0.50400001928E-02 0. -1.
       -1    1    3    3    0  502  0.71604108968E+03 -0.13948013702E+04  0.84357111717E+03  0.17803926349E+04  0.50400001928E-02 0.  1.
</event>
<event>
 5   0  0.6541476E-07  0.3567451E+04  0.7818609E-02  0.8097988E-01
       -2   -1    0    0    0  501  0.00000000000E+00  0.00000000000E+00  0.13825067615E+04  0.13825067615E+04  0.25500000920E-02 0.  1.
        2   -1    0    0  501    0  0.00000000000E+00  0.00000000000E+00 -0.23013826210E+04  0.23013826210E+04  0.25500000920E-02 0. -1.
    10030    2    1    2    0    0  0.00000000000E+00  0.00000000000E+00 -0.91887585946E+03  0.36838893825E+04  0.35674512103E+04 0.  0.
        4    1    3    3  502    0  0.63197472953E+03 -0.11412176840E+04 -0.17156574562E+04  0.21552846636E+04  0.12699999809E+01 0. -1.
       -4    1    3    3    0  502 -0.63197472953E+03  0.11412176840E+04  0.79678159678E+03  0.15286047190E+04  0.12699999809E+01 0.  1.
</event>
<event>
 5   0  0.6729577E-07  0.3416601E+04  0.7818609E-02  0.8133844E-01
       -2   -1    0    0    0  501  0.00000000000E+00  0.00000000000E+00  0.15465688078E+04  0.15465688078E+04  0.25500000920E-02 0. -1.
        2   -1    0    0  501    0  0.00000000000E+00  0.00000000000E+00 -0.18869449441E+04  0.18869449441E+04  0.25500000920E-02 0.  1.
    10030    2    1    2    0    0  0.00000000000E+00  0.00000000000E+00 -0.34037613639E+03  0.34335137519E+04  0.34166007625E+04 0.  0.
        3    1    3    3  502    0  0.77006892369E+03 -0.65884122643E+03 -0.15522092409E+04  0.18537614320E+04  0.10100000352E+00 0.  1.
       -3    1    3    3    0  502 -0.77006892369E+03  0.65884122643E+03  0.12118331045E+04  0.15797523199E+04  0.10100000352E+00 0. -1.
</event>
<event>
 5   0  0.6669864E-07  0.2956714E+04  0.7818609E-02  0.8256200E-01
       -2   -1    0    0    0  501  0.00000000000E+00  0.00000000000E+00  0.13326830670E+04  0.13326830670E+04  0.25500000920E-02 0.  1.
        2   -1    0    0  501    0  0.00000000000E+00  0.00000000000E+00 -0.16399548960E+04  0.16399548960E+04  0.25500000920E-02 0. -1.
    10030    2    1    2    0    0  0.00000000000E+00  0.00000000000E+00 -0.30727182895E+03  0.29726379630E+04  0.29567144743E+04 0.  0.
        5    1    3    3  502    0 -0.14523775522E+04 -0.36469832443E+02  0.12130978495E+03  0.14578987470E+04  0.46999998093E+01 0. -1.
       -5    1    3    3    0  502  0.14523775522E+04  0.36469832443E+02 -0.42858161389E+03  0.15147392160E+04  0.46999998093E+01 0.  1.
</event>
<event>
 5   0  0.6729577E-07  0.3645150E+04  0.7818609E-02  0.8080227E-01
        2   -1    0    0  501    0  0.00000000000E+00  0.00000000000E+00  0.23353498206E+04  0.23353498206E+04  0.25500000920E-02 0.  1.
       -2   -1    0    0    0  501  0.00000000000E+00  0.00000000000E+00 -0.14223907851E+04  0.14223907851E+04  0.25500000920E-02 0. -1.
    10030    2    1    2    0    0  0.00000000000E+00  0.00000000000E+00  0.91295903550E+03  0.37577406058E+04  0.36451502383E+04 0.  0.
        3    1    3    3  502    0 -0.14923882311E+04  0.83811152703E+02 -0.61858025010E+03  0.16176799676E+04  0.10100000352E+00 0. -1.
       -3    1    3    3    0  502  0.14923882311E+04 -0.83811152703E+02  0.15315392856E+04  0.21400606382E+04  0.10100000352E+00 0.  1.
</event>
<event>
 5   0  0.2108068E-07  0.3598882E+04  0.7818609E-02  0.8090748E-01
        1   -1    0    0  501    0  0.00000000000E+00  0.00000000000E+00  0.20288389033E+04  0.20288389033E+04  0.50400001928E-02 0.  1.
       -1   -1    0    0    0  501  0.00000000000E+00  0.00000000000E+00 -0.15959808920E+04  0.15959808920E+04  0.50400001928E-02 0. -1.
    10030    2    1    2    0    0  0.00000000000E+00  0.00000000000E+00  0.43285801128E+03  0.36248197953E+04  0.35988821168E+04 0.  0.
        5    1    3    3  502    0 -0.76392438578E+03  0.94383219129E+03 -0.11211353984E+04  0.16526845870E+04  0.46999998093E+01 0. -1.
       -5    1    3    3    0  502  0.76392438578E+03 -0.94383219129E+03  0.15539934097E+04  0.19721352083E+04  0.46999998093E+01 0.  1.
</event>
<event>
 5   0  0.6669864E-07  0.3527471E+04  0.7818609E-02  0.8107310E-01
        2   -1    0    0  501    0  0.00000000000E+00  0.00000000000E+00  0.15860956016E+04  0.15860956016E+04  0.25500000920E-02 0. -1.
       -2   -1    0    0    0  501  0.00000000000E+00  0.00000000000E+00 -0.19612708788E+04  0.19612708788E+04  0.25500000920E-02 0.  1.
    10030    2    1    2    0    0  0.00000000000E+00  0.00000000000E+00 -0.37517527718E+03  0.35473664804E+04  0.35274711136E+04 0.  0.
        5    1    3    3  502    0  0.11573041504E+04 -0.43884627485E+02 -0.15253015546E+04  0.19151620504E+04  0.46999998093E+01 0.  1.
       -5    1    3    3    0  502 -0.11573041504E+04  0.43884627485E+02  0.11501262774E+04  0.16322044299E+04  0.46999998093E+01 0. -1.
</event>
<event>
 5   0  0.6324216E-07  0.3560939E+04  0.7818609E-02  0.8099498E-01
       -2   -1    0    0    0  501  0.00000000000E+00  0.00000000000E+00  0.14561335583E+04  0.14561335583E+04  0.25500000920E-02 0.  1.
        2   -1    0    0  501    0  0.00000000000E+00  0.00000000000E+00 -0.21770472295E+04  0.21770472295E+04  0.25500000920E-02 0. -1.
    10030    2    1    2    0    0  0.00000000000E+00  0.00000000000E+00 -0.72091367119E+03  0.36331807878E+04  0.35609389373E+04 0.  0.
        2    1    3    3  502    0 -0.23417325539E+03 -0.17639483416E+04 -0.42269154502E+03  0.18289393122E+04  0.25500000920E-02 0. -1.
       -2    1    3    3    0  502  0.23417325539E+03  0.17639483416E+04 -0.29822212617E+03  0.18042414755E+04  0.25500000920E-02 0.  1.
</event>
<event>
 5   0  0.6669864E-07  0.3592310E+04  0.7818609E-02  0.8092255E-01
       -2   -1    0    0    0  501  0.00000000000E+00  0.00000000000E+00  0.13679586136E+04  0.13679586136E+04  0.25500000920E-02 0. -1.
        2   -1    0    0  501    0  0.00000000000E+00  0.00000000000E+00 -0.23583848788E+04  0.23583848788E+04  0.25500000920E-02 0.  1.
    10030    2    1    2    0    0  0.00000000000E+00  0.00000000000E+00 -0.99042626515E+03  0.37263434924E+04  0.35923100697E+04 0.  0.
        5    1    3    3  502    0  0.24912969427E+03  0.17418229921E+04 -0.12100697354E+03  0.17637113477E+04  0.46999998093E+01 0. -1.
       -5    1    3    3    0  502 -0.24912969427E+03 -0.17418229921E+04 -0.86941929161E+03  0.19626321446E+04  0.46999998093E+01 0.  1.
</event>
<event>
 5   0  0.2193129E-07  0.3617641E+04  0.7818609E-02  0.8086463E-01
       -1   -1    0    0    0  501  0.00000000000E+00  0.00000000000E+00  0.14116353923E+04  0.14116353923E+04  0.50400001928E-02 0.  1.
        1   -1    0    0  501    0  0.00000000000E+00  0.00000000000E+00 -0.23177591771E+04  0.23177591771E+04  0.50400001928E-02 0. -1.
    10030    2    1    2    0    0  0.00000000000E+00  0.00000000000E+00 -0.90612378472E+03  0.37293945694E+04  0.36176406042E+04 0.  0.
        1    1    3    3  502    0 -0.34582022994E+03  0.28615700501E+03  0.13533097181E+04  0.14258066686E+04  0.50400001928E-02 0.  1.
       -1    1    3    3    0  502  0.34582022994E+03 -0.28615700501E+03 -0.22594335029E+04  0.23035879008E+04  0.50400001928E-02 0. -1.
</event>
<event>
 5   0  0.6324216E-07  0.3602083E+04  0.7818609E-02  0.8090015E-01
        2   -1    0    0  501    0  0.00000000000E+00  0.00000000000E+00  0.18708017420E+04  0.18708017420E+04  0.25500000920E-02 0.  1.
       -2   -1    0    0    0  501  0.00000000000E+00  0.00000000000E+00 -0.17338826748E+04  0.17338826748E+04  0.25500000920E-02 0. -1.
    10030    2    1    2    0    0  0.00000000000E+00  0.00000000000E+00  0.13691906721E+03  0.36046844169E+04  0.36020831354E+04 0.  0.
        2    1    3    3  502    0 -0.14538359218E+04 -0.10549634214E+04 -0.62646606239E+02  0.17973623189E+04  0.25500000920E-02 0. -1.
       -2    1    3    3    0  502  0.14538359218E+04  0.10549634214E+04  0.19956567345E+03  0.18073220980E+04  0.25500000920E-02 0.  1.
</event>
<event>
 5   0  0.2108068E-07  0.3313047E+04  0.7818609E-02  0.8159583E-01
        1   -1    0    0  501    0  0.00000000000E+00  0.00000000000E+00  0.23229556586E+04  0.23229556587E+04  0.50400001928E-02 0.  1.
       -1   -1    0    0    0  501  0.00000000000E+00  0.00000000000E+00 -0.11812838984E+04  0.11812838984E+04  0.50400001928E-02 0. -1.
    10030    2    1    2    0    0  0.00000000000E+00  0.00000000000E+00  0.11416717602E+04  0.35042395571E+04  0.33130470062E+04 0.  0.
        5    1    3    3  502    0 -0.11327565634E+04 -0.19986652378E+03 -0.68999757117E+03  0.13413436537E+04  0.46999998093E+01 0. -1.
       -5    1    3    3    0  502  0.11327565634E+04  0.19986652378E+03  0.18316693314E+04  0.21628959034E+04  0.46999998093E+01 0.  1.
</event>
<event>
 5   0  0.2086250E-07  0.3395749E+04  0.7818609E-02  0.8138950E-01
        1   -1    0    0  501    0  0.00000000000E+00  0.00000000000E+00  0.18850722311E+04  0.18850722311E+04  0.50400001928E-02 0.  1.
       -1   -1    0    0    0  501  0.00000000000E+00  0.00000000000E+00 -0.15292665730E+04  0.15292665730E+04  0.50400001928E-02 0. -1.
    10030    2    1    2    0    0  0.00000000000E+00  0.00000000000E+00  0.35580565816E+03  0.34143388041E+04  0.33957490783E+04 0.  0.
        3    1    3    3  502    0 -0.64054181398E+03  0.66104267927E+03 -0.12566194272E+04  0.15576789253E+04  0.10100000352E+00 0. -1.
       -3    1    3    3    0  502  0.64054181398E+03 -0.66104267927E+03  0.16124250854E+04  0.18566598788E+04  0.10100000352E+00 0.  1.
</event>
<event>
 5   0  0.6541476E-07  0.3568298E+04  0.7818609E-02  0.8097792E-01
        2   -1    0    0  501    0  0.00000000000E+00  0.00000000000E+00  0.19943006517E+04  0.19943006517E+04  0.25500000920E-02 0. -1.
       -2   -1    0    0    0  501  0.00000000000E+00  0.00000000000E+00 -0.15961426858E+04  0.15961426858E+04  0.25500000920E-02 0.  1.
    10030    2    1    2    0    0  0.00000000000E+00  0.00000000000E+00  0.39815796588E+03  0.35904433376E+04  0.35682984172E+04 0.  0.
        4    1    3    3  502    0 -0.14816461523E+04  0.62305681804E+03  0.97829551617E+03  0.18816319643E+04  0.12699999809E+01 0. -1.
       -4    1    3    3    0  502  0.14816461523E+04 -0.62305681804E+03 -0.58013755029E+03  0.17088113733E+04  0.12699999809E+01 0.  1.
</event>
<event>
 5   0  0.2108068E-07  0.3386092E+04  0.7818609E-02  0.8141328E-01
       -1   -1    0    0    0  501  0.00000000000E+00  0.00000000000E+00  0.15144346475E+04  0.15144346475E+04  0.50400001928E-02 0. -1.
        1   -1    0    0  501    0  0.00000000000E+00  0.00000000000E+00 -0.18927224320E+04  0.18927224320E+04  0.50400001928E-02 0.  1.
    10030    2    1    2    0    0  0.00000000000E+00  0.00000000000E+00 -0.37828778457E+03  0.34071570795E+04  0.33860918057E+04 0.  0.
        5    1    3    3  502    0  0.10138530377E+04 -0.12163275678E+04  0.41377621500E+03  0.16366378891E+04  0.46999998093E+01 0. -1.
       -5    1    3    3    0  502 -0.10138530377E+04  0.12163275678E+04 -0.79206399957E+03  0.17705191904E+04  0.46999998093E+01 0.  1.
</event>
<event>
 5   0  0.2193129E-07  0.3556013E+04  0.7818609E-02  0.8100642E-01
       -1   -1    0    0    0  501  0.00000000000E+00  0.00000000000E+00  0.14067720430E+04  0.14067720430E+04  0.50400001928E-02 0. -1.
        1   -1    0    0  501    0  0.00000000000E+00  0.00000000000E+00 -0.22472063714E+04  0.22472063714E+04  0.50400001928E-02 0.  1.
    10030    2    1    2    0    0  0.00000000000E+00  0.00000000000E+00 -0.84043432839E+03  0.36539784144E+04  0.35560129910E+04 0.  0.
        1    1    3    3  502    0 -0.92723457978E+03 -0.79861440856E+03 -0.17456195183E+04  0.21318387468E+04  0.50400001928E-02 0.  1.
       -1    1    3    3    0  502  0.92723457978E+03  0.79861440856E+03  0.90518518994E+03  0.15221396676E+04  0.50400001928E-02 0. -1.
</event>
<event>
 5   0  0.2108068E-07  0.3631376E+04  0.7818609E-02  0.8083342E-01
       -1   -1    0    0    0  501  0.00000000000E+00  0.00000000000E+00  0.31185038229E+04  0.31185038229E+04  0.50400001928E-02 0. -1.
        1   -1    0    0  501    0  0.00000000000E+00  0.00000000000E+00 -0.10571489615E+04  0.10571489616E+04  0.50400001928E-02 0.  1.
    10030    2    1    2    0    0  0.00000000000E+00  0.00000000000E+00  0.20613548613E+04  0.41756527844E+04  0.36313760906E+04 0.  0.
        5    1    3    3  502    0 -0.14008247896E+04 -0.47064045525E+03  0.22437281740E+04  0.26866616345E+04  0.46999998093E+01 0. -1.
       -5    1    3    3    0  502  0.14008247896E+04  0.47064045525E+03 -0.18237331271E+03  0.14889911499E+04  0.46999998093E+01 0.  1.
</event>
<event>
 5   0  0.6669864E-07  0.3659103E+04  0.7818609E-02  0.8077086E-01
       -2   -1    0    0    0  501  0.00000000000E+00  0.00000000000E+00  0.15548021916E+04  0.15548021916E+04  0.25500000920E-02 0.  1.
        2   -1    0    0  501    0  0.00000000000E+00  0.00000000000E+00 -0.21528522378E+04  0.21528522378E+04  0.25500000920E-02 0. -1.
    10030    2    1    2    0    0  0.00000000000E+00  0.00000000000E+00 -0.59805004621E+03  0.37076544295E+04  0.36591033752E+04 0.  0.
        5    1    3    3  502    0 -0.81645799270E+03 -0.14795532938E+04  0.41138802803E+03  0.17392365574E+04  0.46999998093E+01 0. -1.
       -5    1    3    3    0  502  0.81645799270E+03  0.14795532938E+04 -0.10094380742E+04  0.19684178720E+04  0.46999998093E+01 0.  1.
</event>
<event>
 5   0  0.2193129E-07  0.3598377E+04  0.7818609E-02  0.8090863E-01
       -1   -1    0    0    0  501  0.00000000000E+00  0.00000000000E+00  0.13829512673E+04  0.13829512673E+04  0.50400001928E-02 0. -1.
        1   -1    0    0  501    0  0.00000000000E+00  0.00000000000E+00 -0.23407041561E+04  0.23407041561E+04  0.50400001928E-02 0.  1.
    10030    2    1    2    0    0  0.00000000000E+00  0.00000000000E+00 -0.95775288886E+03  0.37236554234E+04  0.35983772893E+04 0.  0.
        1    1    3    3  502    0 -0.14328448954E+04  0.23476443041E+03  0.62062183564E+03  0.15790282756E+04  0.50400001928E-02 0. -1.
       -1    1    3    3    0  502  0.14328448954E+04 -0.23476443041E+03 -0.15783747245E+04  0.21446271478E+04  0.50400001928E-02 0.  1.
</event>
<event>
 5   0  0.2086250E-07  0.3645421E+04  0.7818609E-02  0.8080166E-01
       -3   -1    0    0    0  501  0.00000000000E+00  0.00000000000E+00  0.17018399889E+04  0.17018399919E+04  0.10100000352E+00 0. -1.
        3   -1    0    0  501    0  0.00000000000E+00  0.00000000000E+00 -0.19521656828E+04  0.19521656854E+04  0.10100000352E+00 0.  1.
    10030    2    1    2    0    0  0.00000000000E+00  0.00000000000E+00 -0.25032569390E+03  0.36540056773E+04  0.36454210369E+04 0.  0.
        1    1    3    3  502    0 -0.53366780458E+02 -0.17163771092E+04 -0.73772820074E+03  0.18689679752E+04  0.50400001928E-02 0.  1.
       -1    1    3    3    0  502  0.53366780458E+02  0.17163771092E+04  0.48740250684E+03  0.17850377021E+04  0.50400001928E-02 0. -1.
</event>
<event>
 5   0  0.6669864E-07  0.3623959E+04  0.7818609E-02  0.8085025E-01
        2   -1    0    0  501    0  0.00000000000E+00  0.00000000000E+00  0.23578718552E+04  0.23578718552E+04  0.25500000920E-02 0. -1.
       -2   -1    0    0    0  501  0.00000000000E+00  0.00000000000E+00 -0.13924719503E+04  0.13924719503E+04  0.25500000920E-02 0.  1.
    10030    2    1    2    0    0  0.00000000000E+00  0.00000000000E+00  0.96539990484E+03  0.37503438055E+04  0.36239593931E+04 0.  0.
        5    1    3    3  502    0  0.94404544235E+03  0.46037991800E+03 -0.10453011339E+04  0.14818394032E+04  0.46999998093E+01 0.  1.
       -5    1    3    3    0  502 -0.94404544235E+03 -0.46037991800E+03  0.20107010388E+04  0.22685044023E+04  0.46999998093E+01 0. -1.
</event>
<event>
 5   0  0.2108068E-07  0.3606432E+04  0.7818609E-02  0.8089020E-01
        1   -1    0    0  501    0  0.00000000000E+00  0.00000000000E+00  0.22477244251E+04  0.22477244251E+04  0.50400001928E-02 0.  1.
       -1   -1    0    0    0  501  0.00000000000E+00  0.00000000000E+00 -0.14466129012E+04  0.14466129012E+04  0.50400001928E-02 0. -1.
    10030    2    1    2    0    0  0.00000000000E+00  0.00000000000E+00  0.80111152397E+03  0.36943373263E+04  0.36064315614E+04 0.  0.
        5    1    3    3  502    0  0.10118588796E+04 -0.10920742086E+04 -0.64163191982E+03  0.16211718231E+04  0.46999998093E+01 0. -1.
       -5    1    3    3    0  502 -0.10118588796E+04  0.10920742086E+04  0.14427434438E+04  0.20731655033E+04  0.46999998093E+01 0.  1.
</event>
<event>
 5   0  0.6541476E-07  0.3609078E+04  0.7818609E-02  0.8088415E-01
        2   -1    0    0  501    0  0.00000000000E+00  0.00000000000E+00  0.19239045314E+04  0.19239045314E+04  0.25500000920E-02 0. -1.
       -2   -1    0    0    0  501  0.00000000000E+00  0.00000000000E+00 -0.16925797326E+04  0.16925797326E+04  0.25500000920E-02 0.  1.
    10030    2    1    2    0    0  0.00000000000E+00  0.00000000000E+00  0.23132479873E+03  0.36164842640E+04  0.36090784515E+04 0.  0.
        4    1    3    3  502    0 -0.15159817250E+04 -0.60672948049E+03 -0.65405374975E+03  0.17590080084E+04  0.12699999809E+01 0.  1.
       -4    1    3    3    0  502  0.15159817250E+04  0.60672948049E+03  0.88537854848E+03  0.18574762556E+04  0.12699999809E+01 0. -1.
</event>
<event>
 5   0  0.2086250E-07  0.3589759E+04  0.7818609E-02  0.8092842E-01
       -1   -1    0    0    0  501  0.00000000000E+00  0.00000000000E+00  0.11471398649E+04  0.11471398649E+04  0.50400001928E-02 0. -1.
        1   -1    0    0  501    0  0.00000000000E+00  0.00000000000E+00 -0.28083690053E+04  0.28083690053E+04  0.50400001928E-02 0.  1.
    10030    2    1    2    0    0  0.00000000000E+00  0.00000000000E+00 -0.16612291404E+04  0.39555088702E+04  0.35897587893E+04 0.  0.
        4    1    3    3  502    0  0.30256140477E+02  0.17683701508E+04 -0.49360639955E+03  0.18362182101E+04  0.12699999809E+01 0. -1.
       -4    1    3    3    0  502 -0.30256140477E+02 -0.17683701508E+04 -0.11676227409E+04  0.21192906602E+04  0.12699999809E+01 0.  1.
</event>
<event>
 5   0  0.2086250E-07  0.3747739E+04  0.7818609E-02  0.8057464E-01
        1   -1    0    0  501    0  0.00000000000E+00  0.00000000000E+00  0.16704652325E+04  0.16704652325E+04  0.50400001928E-02 0. -1.
       -1   -1    0    0    0  501  0.00000000000E+00  0.00000000000E+00 -0.21020411438E+04  0.21020411438E+04  0.50400001928E-02 0.  1.
    10030    2    1    2    0    0  0.00000000000E+00  0.00000000000E+00 -0.43157591129E+03  0.37725063763E+04  0.37477388639E+04 0.  0.
        2    1    3    3  502    0 -0.11443443014E+03 -0.17357739688E+04 -0.91708443837E+03  0.19664817255E+04  0.25500000920E-02 0.  1.
       -2    1    3    3    0  502  0.11443443014E+03  0.17357739688E+04  0.48550852707E+03  0.18060246508E+04  0.25500000920E-02 0. -1.
</event>
<event>
 5   0  0.2086250E-07  0.3567387E+04  0.7818609E-02  0.8098003E-01
       -1   -1    0    0    0  501  0.00000000000E+00  0.00000000000E+00  0.17923724450E+04  0.17923724450E+04  0.50400001928E-02 0.  1.
        1   -1    0    0  501    0  0.00000000000E+00  0.00000000000E+00 -0.17750567781E+04  0.17750567781E+04  0.50400001928E-02 0. -1.
    10030    2    1    2    0    0  0.00000000000E+00  0.00000000000E+00  0.17315666857E+02  0.35674292231E+04  0.35673871992E+04 0.  0.
        3    1    3    3  502    0 -0.10611563703E+03 -0.43645704299E+03  0.17348900811E+04  0.17920934358E+04  0.10100000352E+00 0.  1.
       -3    1    3    3    0  502  0.10611563703E+03  0.43645704299E+03 -0.17175744143E+04  0.17753357873E+04  0.10100000352E+00 0. -1.
</event>
<event>
 5   0  0.6729577E-07  0.3608926E+04  0.7818609E-02  0.8088450E-01
       -2   -1    0    0    0  501  0.00000000000E+00  0.00000000000E+00  0.20705982501E+04  0.20705982501E+04  0.25500000920E-02 0. -1.
        2   -1    0    0  501    0  0.00000000000E+00  0.00000000000E+00 -0.15725341443E+04  0.15725341443E+04  0.25500000920E-02 0.  1.
    10030    2    1    2    0    0  0.00000000000E+00  0.00000000000E+00  0.49806410588E+03  0.36431323944E+04  0.36089258498E+04 0.  0.
        3    1    3    3  502    0 -0.96545746553E+03  0.36229531753E+03 -0.12457870041E+04  0.16172047751E+04  0.10100000352E+00 0.  1.
       -3    1    3    3    0  502  0.96545746553E+03 -0.36229531753E+03  0.17438511100E+04  0.20259276193E+04  0.10100000352E+00 0. -1.
</event>
<event>
 5   0  0.2086250E-07  0.3560627E+04  0.7818609E-02  0.8099570E-01
        1   -1    0    0  501    0  0.00000000000E+00  0.00000000000E+00  0.25787292821E+04  0.25787292821E+04  0.50400001928E-02 0. -1.
       -1   -1    0    0    0  501  0.00000000000E+00  0.00000000000E+00 -0.12291002719E+04  0.12291002719E+04  0.50400001928E-02 0.  1.
    10030    2    1    2    0    0  0.00000000000E+00  0.00000000000E+00  0.13496290102E+04  0.38078295540E+04  0.35606273951E+04 0.  0.
        2    1    3    3  502    0 -0.92468974297E+03  0.15173088749E+04  0.55650131984E+03  0.18619804139E+04  0.25500000920E-02 0. -1.
       -2    1    3    3    0  502  0.92468974297E+03 -0.15173088749E+04  0.79312769038E+03  0.19458491401E+04  0.25500000920E-02 0.  1.
</event>
<event>
 5   0  0.2086250E-07  0.3595274E+04  0.7818609E-02  0.8091575E-01
        1   -1    0    0  501    0  0.00000000000E+00  0.00000000000E+00  0.14991147553E+04  0.14991147553E+04  0.50400001928E-02 0.  1.
       -1   -1    0    0    0  501  0.00000000000E+00  0.00000000000E+00 -0.21556042297E+04  0.21556042297E+04  0.50400001928E-02 0. -1.
    10030    2    1    2    0    0  0.00000000000E+00  0.00000000000E+00 -0.65648947444E+03  0.36547189850E+04  0.35952736237E+04 0.  0.
        4    1    3    3  502    0 -0.90321272858E+03 -0.58196733993E+03  0.11367703429E+04  0.15642019190E+04  0.12699999809E+01 0.  1.
       -4    1    3    3    0  502  0.90321272858E+03  0.58196733993E+03 -0.17932598174E+04  0.20905170660E+04  0.12699999809E+01 0. -1.
</event>
<event>
 5   0  0.6669864E-07  0.3593554E+04  0.7818609E-02  0.8091970E-01
        2   -1    0    0  501    0  0.00000000000E+00  0.00000000000E+00  0.21345294607E+04  0.21345294607E+04  0.25500000920E-02 0.  1.
       -2   -1    0    0    0  501  0.00000000000E+00  0.00000000000E+00 -0.15124679242E+04  0.15124679242E+04  0.25500000920E-02 0. -1.
    10030    2    1    2    0    0  0.00000000000E+00  0.00000000000E+00  0.62206153651E+03  0.36469973849E+04  0.35935538635E+04 0.  0.
        5    1    3    3  502    0 -0.96005018300E+03 -0.11471900459E+04  0.13211440400E+04  0.19957918277E+04  0.46999998093E+01 0.  1.
       -5    1    3    3    0  502  0.96005018300E+03  0.11471900459E+04 -0.69908250349E+03  0.16512055571E+04  0.46999998093E+01 0. -1.
</event>
<event>
 5   0  0.6541476E-07  0.3671623E+04  0.7818609E-02  0.8074280E-01
        2   -1    0    0  501    0  0.00000000000E+00  0.00000000000E+00  0.17639527896E+04  0.17639527896E+04  0.25500000920E-02 0. -1.
       -2   -1    0    0    0  501  0.00000000000E+00  0.00000000000E+00 -0.19105974778E+04  0.19105974778E+04  0.25500000920E-02 0.  1.
    10030    2    1    2    0    0  0.00000000000E+00  0.00000000000E+00 -0.14664468823E+03  0.36745502675E+04  0.36716229386E+04 0.  0.
        4    1    3    3  502    0 -0.29290924448E+03  0.38858982397E+03  0.16982314043E+04  0.17665756118E+04  0.12699999809E+01 0. -1.
       -4    1    3    3    0  502  0.29290924448E+03 -0.38858982397E+03 -0.18448760925E+04  0.19079746556E+04  0.12699999809E+01 0.  1.
</event>
<event>
 5   0  0.2086250E-07  0.3548055E+04  0.7818609E-02  0.8102495E-01
       -1   -1    0    0    0  501  0.00000000000E+00  0.00000000000E+00  0.18303417842E+04  0.18303417842E+04  0.50400001928E-02 0. -1.
        1   -1    0    0  501    0  0.00000000000E+00  0.00000000000E+00 -0.17194458342E+04  0.17194458342E+04  0.50400001928E-02 0.  1.
    10030    2    1    2    0    0  0.00000000000E+00  0.00000000000E+00  0.11089594999E+03  0.35497876185E+04  0.35480549917E+04 0.  0.
        2    1    3    3  502    0  0.13684258669E+04 -0.70627507625E+03 -0.82575436285E+03  0.17473649030E+04  0.25500000920E-02 0.  1.
       -2    1    3    3    0  502 -0.13684258669E+04  0.70627507625E+03  0.93665031284E+03  0.18024227154E+04  0.25500000920E-02 0. -1.
</event>
<event>
 5   0  0.2086250E-07  0.3586695E+04  0.7818609E-02  0.8093546E-01
        1   -1    0    0  501    0  0.00000000000E+00  0.00000000000E+00  0.18810673526E+04  0.18810673526E+04  0.50400001928E-02 0. -1.
       -1   -1    0    0    0  501  0.00000000000E+00  0.00000000000E+00 -0.17097181041E+04  0.17097181041E+04  0.50400001928E-02 0.  1.
    10030    2    1    2    0    0  0.00000000000E+00  0.00000000000E+00  0.17134924853E+03  0.35907854567E+04  0.35866948060E+04 0.  0.
        3    1    3    3  502    0  0.87686300428E+02  0.14976916767E+04  0.10693050574E+04  0.18423307417E+04  0.10100000352E+00 0. -1.
       -3    1    3    3    0  502 -0.87686300428E+02 -0.14976916767E+04 -0.89795580890E+03  0.17484547150E+04  0.10100000352E+00 0.  1.
</event>
<event>
 5   0  0.2086250E-07  0.3615880E+04  0.7818609E-02  0.8086864E-01
       -1   -1    0    0    0  501  0.00000000000E+00  0.00000000000E+00  0.28367195205E+04  0.28367195205E+04  0.50400001928E-02 0.  1.
        1   -1    0    0  501    0  0.00000000000E+00  0.00000000000E+00 -0.11522628549E+04  0.11522628549E+04  0.50400001928E-02 0. -1.
    10030    2    1    2    0    0  0.00000000000E+00  0.00000000000E+00  0.16844566656E+04  0.39889823754E+04  0.36158797177E+04 0.  0.
        3    1    3    3  502    0 -0.57262177449E+03 -0.97015882665E+03 -0.71773173459E+03  0.13357554786E+04  0.10100000352E+00 0. -1.
       -3    1    3    3    0  502  0.57262177449E+03  0.97015882665E+03  0.24021884002E+04  0.26532268968E+04  0.10100000352E+00 0.  1.
</event>
<event>
 5   0  0.6324216E-07  0.3593736E+04  0.7818609E-02  0.8091928E-01
       -2   -1    0    0    0  501  0.00000000000E+00  0.00000000000E+00  0.15224046804E+04  0.15224046804E+04  0.25500000920E-02 0. -1.
        2   -1    0    0  501    0  0.00000000000E+00  0.00000000000E+00 -0.21208119215E+04  0.21208119215E+04  0.25500000920E-02 0.  1.
    10030    2    1    2    0    0  0.00000000000E+00  0.00000000000E+00 -0.59840724109E+03  0.36432166020E+04  0.35937356584E+04 0.  0.
        2    1    3    3  502    0  0.12762177627E+04 -0.12616191395E+04 -0.20673722116E+03  0.18064204686E+04  0.25500000920E-02 0.  1.
       -2    1    3    3    0  502 -0.12762177627E+04  0.12616191395E+04 -0.39167001993E+03  0.18367961333E+04  0.25500000920E-02 0. -1.
</event>
<event>
 5   0  0.2193129E-07  0.3643473E+04  0.7818609E-02  0.8080606E-01
        1   -1    0    0  501    0  0.00000000000E+00  0.00000000000E+00  0.18063586134E+04  0.18063586134E+04  0.50400001928E-02 0. -1.
       -1   -1    0    0    0  501  0.00000000000E+00  0.00000000000E+00 -0.18372456809E+04  0.18372456809E+04  0.50400001928E-02 0.  1.
    10030    2    1    2    0    0  0.00000000000E+00  0.00000000000E+00 -0.30887067475E+02  0.36436042943E+04  0.36434733762E+04 0.  0.
        1    1    3    3  502    0  0.11166839983E+04  0.13992576209E+04 -0.35282714142E+03  0.18246621697E+04  0.50400001928E-02 0.  1.
       -1    1    3    3    0  502 -0.11166839983E+04 -0.13992576209E+04  0.32194007395E+03  0.18189421247E+04  0.50400001928E-02 0. -1.
</event>
<event>
 5   0  0.6669864E-07  0.3562338E+04  0.7818609E-02  0.8099174E-01
       -2   -1    0    0    0  501  0.00000000000E+00  0.00000000000E+00  0.16536672897E+04  0.16536672897E+04  0.25500000920E-02 0. -1.
        2   -1    0    0  501    0  0.00000000000E+00  0.00000000000E+00 -0.19185009523E+04  0.19185009523E+04  0.25500000920E-02 0.  1.
    10030    2    1    2    0    0  0.00000000000E+00  0.00000000000E+00 -0.26483366258E+03  0.35721682419E+04  0.35623375864E+04 0.  0.
        5    1    3    3  502    0 -0.15560485867E+04  0.85698144231E+03 -0.26252767519E+03  0.17957302879E+04  0.46999998093E+01 0. -1.
       -5    1    3    3    0  502  0.15560485867E+04 -0.85698144231E+03 -0.23059873971E+01  0.17764379540E+04  0.46999998093E+01 0.  1.
</event>
<event>
 5   0  0.2086250E-07  0.3599856E+04  0.7818609E-02  0.8090525E-01
       -1   -1    0    0    0  501  0.00000000000E+00  0.00000000000E+00  0.19790573696E+04  0.19790573696E+04  0.50400001928E-02 0.  1.
        1   -1    0    0  501    0  0.00000000000E+00  0.00000000000E+00 -0.16370120816E+04  0.16370120816E+04  0.50400001928E-02 0. -1.
    10030    2    1    2    0    0  0.00000000000E+00  0.00000000000E+00  0.34204528802E+03  0.36160694513E+04  0.35998560106E+04 0.  0.
        3    1    3    3  502    0 -0.60339247400E+03  0.16393285278E+02  0.18743572963E+04  0.19691537527E+04  0.10100000352E+00 0.  1.
       -3    1    3    3    0  502  0.60339247400E+03 -0.16393285278E+02 -0.15323120082E+04  0.16469156986E+04  0.10100000352E+00 0. -1.
</event>
<event>
 5   0  0.6324216E-07  0.3678671E+04  0.7818609E-02  0.8072705E-01
       -2   -1    0    0    0  501  0.00000000000E+00  0.00000000000E+00  0.14711989160E+04  0.14711989160E+04  0.25500000920E-02 0.  1.
        2   -1    0    0  501    0  0.00000000000E+00  0.00000000000E+00 -0.22995901081E+04  0.22995901081E+04  0.25500000920E-02 0. -1.
    10030    2    1    2    0    0  0.00000000000E+00  0.00000000000E+00 -0.82839119205E+03  0.37707890241E+04  0.36786706698E+04 0.  0.
        2    1    3    3  502    0  0.58061353252E+03 -0.86208932403E+03 -0.19697085117E+04  0.22271195967E+04  0.25500000920E-02 0. -1.
       -2    1    3    3    0  502 -0.58061353252E+03  0.86208932403E+03  0.11413173197E+04  0.15436694274E+04  0.25500000920E-02 0.  1.
</event>
<event>
 5   0  0.6669864E-07  0.3566768E+04  0.7818609E-02  0.8098147E-01
       -2   -1    0    0    0  501  0.00000000000E+00  0.00000000000E+00  0.15744163834E+04  0.15744163834E+04  0.25500000920E-02 0. -1.
        2   -1    0    0  501    0  0.00000000000E+00  0.00000000000E+00 -0.20200871212E+04  0.20200871212E+04  0.25500000920E-02 0.  1.
    10030    2    1    2    0    0  0.00000000000E+00  0.00000000000E+00 -0.44567073776E+03  0.35945035046E+04  0.35667678699E+04 0.  0.
        5    1    3    3  502    0 -0.70821375844E+03  0.14465877037E+04 -0.99446122892E+03  0.18929231199E+04  0.46999998093E+01 0. -1.
       -5    1    3    3    0  502  0.70821375844E+03 -0.14465877037E+04  0.54879049117E+03  0.17015803846E+04  0.46999998093E+01 0.  1.
</event>
<event>
 5   0  0.2193129E-07  0.3632245E+04  0.7818609E-02  0.8083145E-01
        1   -1    0    0  501    0  0.00000000000E+00  0.00000000000E+00  0.19046811467E+04  0.19046811467E+04  0.50400001928E-02 0.  1.
       -1   -1    0    0    0  501  0.00000000000E+00  0.00000000000E+00 -0.17316816536E+04  0.17316816536E+04  0.50400001928E-02 0. -1.
    10030    2    1    2    0    0  0.00000000000E+00  0.00000000000E+00  0.17299949315E+03  0.36363628003E+04  0.36322452548E+04 0.  0.
        1    1    3    3  502    0 -0.15203425929E+04  0.99084017904E+03  0.15035792493E+02  0.18147815117E+04  0.50400001928E-02 0.  1.
       -1    1    3    3    0  502  0.15203425929E+04 -0.99084017904E+03  0.15796370066E+03  0.18215812886E+04  0.50400001928E-02 0. -1.
</event>
<event>
 5   0  0.2086250E-07  0.3598653E+04  0.7818609E-02  0.8090800E-01
        1   -1    0    0  501    0  0.00000000000E+00  0.00000000000E+00  0.15197549859E+04  0.15197549859E+04  0.50400001928E-02 0.  1.
       -1   -1    0    0    0  501  0.00000000000E+00  0.00000000000E+00 -0.21303272690E+04  0.21303272690E+04  0.50400001928E-02 0. -1.
    10030    2    1    2    0    0  0.00000000000E+00  0.00000000000E+00 -0.61057228314E+03  0.36500822549E+04  0.35986527972E+04 0.  0.
        4    1    3    3  502    0  0.69196858978E+03 -0.11574388067E+04  0.90299357062E+03  0.16229245583E+04  0.12699999809E+01 0.  1.
       -4    1    3    3    0  502 -0.69196858978E+03  0.11574388067E+04 -0.15135658538E+04  0.20271576966E+04  0.12699999809E+01 0. -1.
</event>
<event>
 5   0  0.6729577E-07  0.3592824E+04  0.7818609E-02  0.8092137E-01
       -2   -1    0    0    0  501  0.00000000000E+00  0.00000000000E+00  0.18209522085E+04  0.18209522085E+04  0.25500000920E-02 0. -1.
        2   -1    0    0  501    0  0.00000000000E+00  0.00000000000E+00 -0.17722022979E+04  0.17722022979E+04  0.25500000920E-02 0.  1.
    10030    2    1    2    0    0  0.00000000000E+00  0.00000000000E+00  0.48749910575E+02  0.35931545064E+04  0.35928237855E+04 0.  0.
        3    1    3    3  502    0  0.10237479370E+04 -0.82237577816E+02  0.14983738549E+04  0.18165756458E+04  0.10100000352E+00 0. -1.
       -3    1    3    3    0  502 -0.10237479370E+04  0.82237577816E+02 -0.14496239443E+04  0.17765788606E+04  0.10100000352E+00 0.  1.
</event>
<event>
 5   0  0.2108068E-07  0.3554242E+04  0.7818609E-02  0.8101054E-01
        1   -1    0    0  501    0  0.00000000000E+00  0.00000000000E+00  0.13614369171E+04  0.13614369171E+04  0.50400001928E-02 0.  1.
       -1   -1    0    0    0  501  0.00000000000E+00  0.00000000000E+00 -0.23197252874E+04  0.23197252874E+04  0.50400001928E-02 0. -1.
    10030    2    1    2    0    0  0.00000000000E+00  0.00000000000E+00 -0.95828837023E+03  0.36811622045E+04  0.35542423349E+04 0.  0.
        5    1    3    3  502    0  0.86462628605E+03  0.15171734020E+04 -0.82068309409E+03  0.19294912742E+04  0.46999998093E+01 0. -1.
       -5    1    3    3    0  502 -0.86462628605E+03 -0.15171734020E+04 -0.13760527614E+03  0.17516709303E+04  0.46999998093E+01 0.  1.
</event>
<event>
 5   0  0.6848661E-07  0.3617034E+04  0.7818609E-02  0.8086601E-01
        2   -1    0    0  501    0  0.00000000000E+00  0.00000000000E+00  0.16263881605E+04  0.16263881605E+04  0.25500000920E-02 0. -1.
       -2   -1    0    0    0  501  0.00000000000E+00  0.00000000000E+00 -0.20110414486E+04  0.20110414486E+04  0.25500000920E-02 0.  1.
    10030    2    1    2    0    0  0.00000000000E+00  0.00000000000E+00 -0.38465328814E+03  0.36374296091E+04  0.36170341455E+04 0.  0.
        1    1    3    3  502    0  0.43359898658E+03 -0.11494433935E+04  0.11423744874E+04  0.16775719553E+04  0.50400001928E-02 0. -1.
       -1    1    3    3    0  502 -0.43359898658E+03  0.11494433935E+04 -0.15270277755E+04  0.19598576538E+04  0.50400001928E-02 0.  1.
</event>
<event>
 5   0  0.2193129E-07  0.3493632E+04  0.7818609E-02  0.8115301E-01
        1   -1    0    0  501    0  0.00000000000E+00  0.00000000000E+00  0.24058073740E+04  0.24058073740E+04  0.50400001928E-02 0. -1.
       -1   -1    0    0    0  501  0.00000000000E+00  0.00000000000E+00 -0.12683337775E+04  0.12683337775E+04  0.50400001928E-02 0.  1.
    10030    2    1    2    0    0  0.00000000000E+00  0.00000000000E+00  0.11374735965E+04  0.36741411516E+04  0.34936323531E+04 0.  0.
        1    1    3    3  502    0  0.57145590909E+03 -0.21011718715E+03 -0.11531284146E+04  0.13040000878E+04  0.50400001928E-02 0.  1.
       -1    1    3    3    0  502 -0.57145590909E+03  0.21011718715E+03  0.22906020112E+04  0.23701410637E+04  0.50400001928E-02 0. -1.
</event>
<event>
 5   0  0.6324216E-07  0.3608363E+04  0.7818609E-02  0.8088579E-01
       -2   -1    0    0    0  501  0.00000000000E+00  0.00000000000E+00  0.11476193987E+04  0.11476193987E+04  0.25500000920E-02 0.  1.
        2   -1    0    0  501    0  0.00000000000E+00  0.00000000000E+00 -0.28363680929E+04  0.28363680929E+04  0.25500000920E-02 0. -1.
    10030    2    1    2    0    0  0.00000000000E+00  0.00000000000E+00 -0.16887486942E+04  0.39839874917E+04  0.36083630889E+04 0.  0.
        2    1    3    3  502    0 -0.28605840873E+03  0.13909429703E+04  0.38436317727E+03  0.14711515258E+04  0.25500000920E-02 0.  1.
       -2    1    3    3    0  502  0.28605840873E+03 -0.13909429703E+04 -0.20731118715E+04  0.25128359659E+04  0.25500000920E-02 0. -1.
</event>
<event>
 5   0  0.2086250E-07  0.3586245E+04  0.7818609E-02  0.8093650E-01
        1   -1    0    0  501    0  0.00000000000E+00  0.00000000000E+00  0.18520772166E+04  0.18520772166E+04  0.50400001928E-02 0. -1.
       -1   -1    0    0    0  501  0.00000000000E+00  0.00000000000E+00 -0.17360439438E+04  0.17360439438E+04  0.50400001928E-02 0.  1.
    10030    2    1    2    0    0  0.00000000000E+00  0.00000000000E+00  0.11603327274E+03  0.35881211604E+04  0.35862445178E+04 0.  0.
        3    1    3    3  502    0  0.92135633901E+03 -0.27502359723E+03  0.15723316700E+04  0.18430307575E+04  0.10100000352E+00 0. -1.
       -3    1    3    3    0  502 -0.92135633901E+03  0.27502359723E+03 -0.14562983972E+04  0.17450904029E+04  0.10100000352E+00 0.  1.
</event>
<event>
 5   0  0.6541476E-07  0.3539745E+04  0.7818609E-02  0.8104435E-01
        2   -1    0    0  501    0  0.00000000000E+00  0.00000000000E+00  0.14523448162E+04  0.14523448162E+04  0.25500000920E-02 0. -1.
       -2   -1    0    0    0  501  0.00000000000E+00  0.00000000000E+00 -0.21568215931E+04  0.21568215931E+04  0.25500000920E-02 0.  1.
    10030    2    1    2    0    0  0.00000000000E+00  0.00000000000E+00 -0.70447677683E+03  0.36091664093E+04  0.35397449966E+04 0.  0.
        4    1    3    3  502    0  0.97559155404E+03  0.62413416694E+03 -0.17168147466E+04  0.20709362196E+04  0.12699999809E+01 0.  1.
       -4    1    3    3    0  502 -0.97559155404E+03 -0.62413416694E+03  0.10123379697E+04  0.15382301897E+04  0.12699999809E+01 0. -1.
</event>
<event>
 5   0  0.6848661E-07  0.3614445E+04  0.7818609E-02  0.8087191E-01
       -2   -1    0    0    0  501  0.00000000000E+00  0.00000000000E+00  0.20613811091E+04  0.20613811091E+04  0.25500000920E-02 0.  1.
        2   -1    0    0  501    0  0.00000000000E+00  0.00000000000E+00 -0.15844006737E+04  0.15844006737E+04  0.25500000920E-02 0. -1.
    10030    2    1    2    0    0  0.00000000000E+00  0.00000000000E+00  0.47698043540E+03  0.36457817829E+04  0.36144452510E+04 0.  0.
        1    1    3    3  502    0  0.10950914761E+04 -0.14324108870E+04  0.36213901663E+03  0.18390679589E+04  0.50400001928E-02 0. -1.
       -1    1    3    3    0  502 -0.10950914761E+04  0.14324108870E+04  0.11484141877E+03  0.18067138240E+04  0.50400001928E-02 0.  1.
</event>
<event>
 5   0  0.2086250E-07  0.3599091E+04  0.7818609E-02  0.8090700E-01
        1   -1    0    0  501    0  0.00000000000E+00  0.00000000000E+00  0.23586594440E+04  0.23586594440E+04  0.50400001928E-02 0. -1.
       -1   -1    0    0    0  501  0.00000000000E+00  0.00000000000E+00 -0.13729679905E+04  0.13729679906E+04  0.50400001928E-02 0.  1.
    10030    2    1    2    0    0  0.00000000000E+00  0.00000000000E+00  0.98569145349E+03  0.37316274346E+04  0.35990909504E+04 0.  0.
        3    1    3    3  502    0 -0.15925174014E+04  0.80674667954E+03  0.25775374098E+03  0.18037152991E+04  0.10100000352E+00 0.  1.
       -3    1    3    3    0  502  0.15925174014E+04 -0.80674667954E+03  0.72793771250E+03  0.19279121355E+04  0.10100000352E+00 0. -1.
</event>
<event>
 5   0  0.2108068E-07  0.3656986E+04  0.7818609E-02  0.8077562E-01
        1   -1    0    0  501    0  0.00000000000E+00  0.00000000000E+00  0.14290343616E+04  0.14290343616E+04  0.50400001928E-02 0.  1.
       -1   -1    0    0    0  501  0.00000000000E+00  0.00000000000E+00 -0.23396123984E+04  0.23396123984E+04  0.50400001928E-02 0. -1.
    10030    2    1    2    0    0  0.00000000000E+00  0.00000000000E+00 -0.91057803684E+03  0.37686467600E+04  0.36569859230E+04 0.  0.
        5    1    3    3  502    0 -0.50334697530E+03 -0.44652251515E+03 -0.22073851766E+04  0.23076637411E+04  0.46999998093E+01 0. -1.
       -5    1    3    3    0  502  0.50334697530E+03  0.44652251515E+03  0.12968071397E+04  0.14609830190E+04  0.46999998093E+01 0.  1.
</event>
<event>
 5   0  0.2086250E-07  0.3499571E+04  0.7818609E-02  0.8113892E-01
       -1   -1    0    0    0  501  0.00000000000E+00  0.00000000000E+00  0.12472281134E+04  0.12472281134E+04  0.50400001928E-02 0.  1.
        1   -1    0    0  501    0  0.00000000000E+00  0.00000000000E+00 -0.24548428656E+04  0.24548428656E+04  0.50400001928E-02 0. -1.
    10030    2    1    2    0    0  0.00000000000E+00  0.00000000000E+00 -0.12076147523E+04  0.37020709790E+04  0.34995708514E+04 0.  0.
        3    1    3    3  502    0  0.72557114049E+03 -0.12683655470E+04  0.41446289567E+03  0.15188759472E+04  0.10100000352E+00 0.  1.
       -3    1    3    3    0  502 -0.72557114049E+03  0.12683655470E+04 -0.16220776479E+04  0.21831950318E+04  0.10100000352E+00 0. -1.
</event>
<event>
 5   0  0.2086250E-07  0.3510989E+04  0.7818609E-02  0.8111191E-01
       -3   -1    0    0    0  501  0.00000000000E+00  0.00000000000E+00  0.19477127909E+04  0.19477127936E+04  0.10100000352E+00 0.  1.
        3   -1    0    0  501    0  0.00000000000E+00  0.00000000000E+00 -0.15822462946E+04  0.15822462978E+04  0.10100000352E+00 0. -1.
    10030    2    1    2    0    0  0.00000000000E+00  0.00000000000E+00  0.36546649631E+03  0.35299590914E+04  0.35109892377E+04 0.  0.
        4    1    3    3  502    0  0.99964338470E+02 -0.50735123178E+03  0.18694032568E+04  0.19396051894E+04  0.12699999809E+01 0.  1.
       -4    1    3    3    0  502 -0.99964338470E+02  0.50735123178E+03 -0.15039367605E+04  0.15903539020E+04  0.12699999809E+01 0. -1.
</event>
<event>
 5   0  0.6324216E-07  0.3582382E+04  0.7818609E-02  0.8094539E-01
        2   -1    0    0  501    0  0.00000000000E+00  0.00000000000E+00  0.16868539780E+04  0.16868539780E+04  0.25500000920E-02 0. -1.
       -2   -1    0    0    0  501  0.00000000000E+00  0.00000000000E+00 -0.19019812655E+04  0.19019812655E+04  0.25500000920E-02 0.  1.
    10030    2    1    2    0    0  0.00000000000E+00  0.00000000000E+00 -0.21512728752E+03  0.35888352434E+04  0.35823817014E+04 0.  0.
        2    1    3    3  502    0 -0.15306967332E+03 -0.49857284893E+03 -0.18242314891E+04  0.18973206730E+04  0.25500000920E-02 0.  1.
       -2    1    3    3    0  502  0.15306967332E+03  0.49857284893E+03  0.16091042015E+04  0.16915145704E+04  0.25500000920E-02 0. -1.
</event>
<event>
 5   0  0.2086250E-07  0.3601629E+04  0.7818609E-02  0.8090119E-01
       -1   -1    0    0    0  501  0.00000000000E+00  0.00000000000E+00  0.12978629050E+04  0.12978629050E+04  0.50400001928E-02 0. -1.
        1   -1    0    0  501    0  0.00000000000E+00  0.00000000000E+00 -0.24986716708E+04  0.24986716708E+04  0.50400001928E-02 0.  1.
    10030    2    1    2    0    0  0.00000000000E+00  0.00000000000E+00 -0.12008087658E+04  0.37965345757E+04  0.36016292275E+04 0.  0.
        3    1    3    3  502    0  0.37897592186E+03 -0.25199346097E+03  0.12362423786E+04  0.13173529074E+04  0.10100000352E+00 0. -1.
       -3    1    3    3    0  502 -0.37897592186E+03  0.25199346097E+03 -0.24370511444E+04  0.24791816683E+04  0.10100000352E+00 0.  1.
</event>
<event>
 5   0  0.6848661E-07  0.3630239E+04  0.7818609E-02  0.8083600E-01
        2   -1    0    0  501    0  0.00000000000E+00  0.00000000000E+00  0.23680361173E+04  0.23680361173E+04  0.25500000920E-02 0.  1.
       -2   -1    0    0    0  501  0.00000000000E+00  0.00000000000E+00 -0.13913044716E+04  0.13913044716E+04  0.25500000920E-02 0. -1.
    10030    2    1    2    0    0  0.00000000000E+00  0.00000000000E+00  0.97673164575E+03  0.37593405889E+04  0.36302392422E+04 0.  0.
        1    1    3    3  502    0 -0.15086569284E+04  0.27511750967E+03 -0.51720981001E+03  0.16184070437E+04  0.50400001928E-02 0.  1.
       -1    1    3    3    0  502  0.15086569284E+04 -0.27511750967E+03  0.14939414558E+04  0.21409335452E+04  0.50400001928E-02 0. -1.
</event>
<event>
 5   0  0.6541476E-07  0.3506404E+04  0.7818609E-02  0.8112274E-01
        2   -1    0    0  501    0  0.00000000000E+00  0.00000000000E+00  0.17333001473E+04  0.17333001473E+04  0.25500000920E-02 0. -1.
       -2   -1    0    0    0  501  0.00000000000E+00  0.00000000000E+00 -0.17733328340E+04  0.17733328340E+04  0.25500000920E-02 0.  1.
    10030    2    1    2    0    0  0.00000000000E+00  0.00000000000E+00 -0.40032686677E+02  0.35066329813E+04  0.35064044618E+04 0.  0.
        4    1    3    3  502    0  0.10251196328E+04  0.37266039647E+03  0.13526511289E+04  0.17376457412E+04  0.12699999809E+01 0. -1.
       -4    1    3    3    0  502 -0.10251196328E+04 -0.37266039647E+03 -0.13926838156E+04  0.17689872401E+04  0.12699999809E+01 0.  1.
</event>
<event>
 5   0  0.2108068E-07  0.3561953E+04  0.7818609E-02  0.8099263E-01
       -1   -1    0    0    0  501  0.00000000000E+00  0.00000000000E+00  0.18643861951E+04  0.18643861951E+04  0.50400001928E-02 0. -1.
        1   -1    0    0  501    0  0.00000000000E+00  0.00000000000E+00 -0.17012984777E+04  0.17012984777E+04  0.50400001928E-02 0.  1.
    10030    2    1    2    0    0  0.00000000000E+00  0.00000000000E+00  0.16308771734E+03  0.35656846728E+04  0.35619530573E+04 0.  0.
        5    1    3    3  502    0 -0.15511638541E+04  0.41865841970E+03  0.85077007483E+03  0.18180252982E+04  0.46999998093E+01 0. -1.
       -5    1    3    3    0  502  0.15511638541E+04 -0.41865841970E+03 -0.68768235748E+03  0.17476593746E+04  0.46999998093E+01 0.  1.
</event>
<event>
 5   0  0.6729577E-07  0.3569517E+04  0.7818609E-02  0.8097510E-01
       -2   -1    0    0    0  501  0.00000000000E+00  0.00000000000E+00  0.19339015697E+04  0.19339015697E+04  0.25500000920E-02 0. -1.
        2   -1    0    0  501    0  0.00000000000E+00  0.00000000000E+00 -0.16471177018E+04  0.16471177018E+04  0.25500000920E-02 0.  1.
    10030    2    1    2    0    0  0.00000000000E+00  0.00000000000E+00  0.28678386786E+03  0.35810192715E+04  0.35695173394E+04 0.  0.
        3    1    3    3  502    0 -0.13506778976E+04 -0.98608229698E+03 -0.48205453008E+03  0.17404211156E+04  0.10100000352E+00 0.  1.
       -3    1    3    3    0  502  0.13506778976E+04  0.98608229698E+03  0.76883839793E+03  0.18405981560E+04  0.10100000352E+00 0. -1.
</event>
<event>
 5   0  0.6729577E-07  0.3608738E+04  0.7818609E-02  0.8088493E-01
       -2   -1    0    0    0  501  0.00000000000E+00  0.00000000000E+00  0.13597848839E+04  0.13597848839E+04  0.25500000920E-02 0.  1.
        2   -1    0    0  501    0  0.00000000000E+00  0.00000000000E+00 -0.23943104750E+04  0.23943104750E+04  0.25500000920E-02 0. -1.
    10030    2    1    2    0    0  0.00000000000E+00  0.00000000000E+00 -0.10345255911E+04  0.37540953589E+04  0.36087378354E+04 0.  0.
        3    1    3    3  502    0  0.69114488901E+01 -0.68274062653E+03  0.12202106769E+04  0.13982477025E+04  0.10100000352E+00 0.  1.
       -3    1    3    3    0  502 -0.69114488901E+01  0.68274062653E+03 -0.22547362681E+04  0.23558476564E+04  0.10100000352E+00 0. -1.
</event>
<event>
 5   0  0.2086250E-07  0.3594125E+04  0.7818609E-02  0.8091839E-01
        1   -1    0    0  501    0  0.00000000000E+00  0.00000000000E+00  0.19337472511E+04  0.19337472511E+04  0.50400001928E-02 0.  1.
       -1   -1    0    0    0  501  0.00000000000E+00  0.00000000000E+00 -0.16700395793E+04  0.16700395793E+04  0.50400001928E-02 0. -1.
    10030    2    1    2    0    0  0.00000000000E+00  0.00000000000E+00  0.26370767176E+03  0.36037868304E+04  0.35941254545E+04 0.  0.
        2    1    3    3  502    0  0.89502775174E+03 -0.74709314961E+03  0.15030867658E+04  0.19022336019E+04  0.25500000920E-02 0.  1.
       -2    1    3    3    0  502 -0.89502775174E+03  0.74709314961E+03 -0.12393790941E+04  0.17015532285E+04  0.25500000920E-02 0. -1.
</event>
<event>
 5   0  0.2108068E-07  0.3496530E+04  0.7818609E-02  0.8114613E-01
        1   -1    0    0  501    0  0.00000000000E+00  0.00000000000E+00  0.16421709458E+04  0.16421709458E+04  0.50400001928E-02 0.  1.
       -1   -1    0    0    0  501  0.00000000000E+00  0.00000000000E+00 -0.18612131246E+04  0.18612131246E+04  0.50400001928E-02 0. -1.
    10030    2    1    2    0    0  0.00000000000E+00  0.00000000000E+00 -0.21904217879E+03  0.35033840703E+04  0.34965297751E+04 0.  0.
        5    1    3    3  502    0  0.54345924947E+03  0.14756731909E+04 -0.87485659227E+03  0.17995431279E+04  0.46999998093E+01 0. -1.
       -5    1    3    3    0  502 -0.54345924947E+03 -0.14756731909E+04  0.65581441348E+03  0.17038409424E+04  0.46999998093E+01 0.  1.
</event>
<event>
 5   0  0.2193129E-07  0.3545710E+04  0.7818609E-02  0.8103042E-01
        1   -1    0    0  501    0  0.00000000000E+00  0.00000000000E+00  0.19712342070E+04  0.19712342070E+04  0.50400001928E-02 0.  1.
       -1   -1    0    0    0  501  0.00000000000E+00  0.00000000000E+00 -0.15944401491E+04  0.15944401492E+04  0.50400001928E-02 0. -1.
    10030    2    1    2    0    0  0.00000000000E+00  0.00000000000E+00  0.37679405788E+03  0.35656743562E+04  0.35457100632E+04 0.  0.
        1    1    3    3  502    0 -0.82540473557E+03 -0.89000961171E+03 -0.11110102941E+04  0.16455254359E+04  0.50400001928E-02 0. -1.
       -1    1    3    3    0  502  0.82540473557E+03  0.89000961171E+03  0.14878043520E+04  0.19201489203E+04  0.50400001928E-02 0.  1.
</event>
<event>
 5   0  0.6669864E-07  0.3591184E+04  0.7818609E-02  0.8092514E-01
        2   -1    0    0  501    0  0.00000000000E+00  0.00000000000E+00  0.19852892224E+04  0.19852892224E+04  0.25500000920E-02 0.  1.
       -2   -1    0    0    0  501  0.00000000000E+00  0.00000000000E+00 -0.16240207906E+04  0.16240207907E+04  0.25500000920E-02 0. -1.
    10030    2    1    2    0    0  0.00000000000E+00  0.00000000000E+00  0.36126843175E+03  0.36093100131E+04  0.35911841906E+04 0.  0.
        5    1    3    3  502    0 -0.80755712389E+03  0.34366597757E+02 -0.14308297301E+04  0.16433579579E+04  0.46999998093E+01 0. -1.
       -5    1    3    3    0  502  0.80755712389E+03 -0.34366597757E+02  0.17920981618E+04  0.19659520551E+04  0.46999998093E+01 0.  1.
</event>
<event>
 5   0  0.6729577E-07  0.3654464E+04  0.7818609E-02  0.8078129E-01
       -2   -1    0    0    0  501  0.00000000000E+00  0.00000000000E+00  0.16787342298E+04  0.16787342298E+04  0.25500000920E-02 0. -1.
        2   -1    0    0  501    0  0.00000000000E+00  0.00000000000E+00 -0.19888658221E+04  0.19888658221E+04  0.25500000920E-02 0.  1.
    10030    2    1    2    0    0  0.00000000000E+00  0.00000000000E+00 -0.31013159236E+03  0.36676000519E+04  0.36544641927E+04 0.  0.
        3    1    3    3  502    0  0.76955261613E+02 -0.68826017604E+03 -0.18520466909E+04  0.19772964213E+04  0.10100000352E+00 0.  1.
       -3    1    3    3    0  502 -0.76955261613E+02  0.68826017604E+03  0.15419150985E+04  0.16903036306E+04  0.10100000352E+00 0. -1.
</event>
<event>
 5   0  0.6541476E-07  0.3754161E+04  0.7818609E-02  0.8056064E-01
       -2   -1    0    0    0  501  0.00000000000E+00  0.00000000000E+00  0.15392189524E+04  0.15392189524E+04  0.25500000920E-02 0.  1.
        2   -1    0    0  501    0  0.00000000000E+00  0.00000000000E+00 -0.22891033805E+04  0.22891033805E+04  0.25500000920E-02 0. -1.
    10030    2    1    2    0    0  0.00000000000E+00  0.00000000000E+00 -0.74988442808E+03  0.38283223329E+04  0.37541610553E+04 0.  0.
        4    1    3    3  502    0  0.18559377935E+04 -0.22413629080E+02 -0.89370498233E+02  0.18582239271E+04  0.12699999809E+01 0.  1.
       -4    1    3    3    0  502 -0.18559377935E+04  0.22413629080E+02 -0.66051392985E+03  0.19700984058E+04  0.12699999809E+01 0. -1.
</event>
<event>
 5   0  0.6729577E-07  0.3635983E+04  0.7818609E-02  0.8082299E-01
       -2   -1    0    0    0  501  0.00000000000E+00  0.00000000000E+00  0.16554317635E+04  0.16554317635E+04  0.25500000920E-02 0. -1.
        2   -1    0    0  501    0  0.00000000000E+00  0.00000000000E+00 -0.19965147120E+04  0.19965147120E+04  0.25500000920E-02 0.  1.
    10030    2    1    2    0    0  0.00000000000E+00  0.00000000000E+00 -0.34108294854E+03  0.36519464755E+04  0.36359834271E+04 0.  0.
        3    1    3    3  502    0 -0.60566621568E+03 -0.15583648752E+04 -0.88765167729E+03  0.18929495924E+04  0.10100000352E+00 0.  1.
       -3    1    3    3    0  502  0.60566621568E+03  0.15583648752E+04  0.54656872875E+03  0.17589968830E+04  0.10100000352E+00 0. -1.
</event>
<event>
 5   0  0.2108068E-07  0.3003659E+04  0.7818609E-02  0.8242687E-01
        1   -1    0    0  501    0  0.00000000000E+00  0.00000000000E+00  0.17196217170E+04  0.17196217170E+04  0.50400001928E-02 0.  1.
       -1   -1    0    0    0  501  0.00000000000E+00  0.00000000000E+00 -0.13116211893E+04  0.13116211894E+04  0.50400001928E-02 0. -1.
    10030    2    1    2    0    0  0.00000000000E+00  0.00000000000E+00  0.40800052767E+03  0.30312429064E+04  0.30036592894E+04 0.  0.
        5    1    3    3  502    0  0.94241060266E+02 -0.10865366607E+04 -0.83796718810E+03  0.13753742730E+04  0.46999998093E+01 0. -1.
       -5    1    3    3    0  502 -0.94241060266E+02  0.10865366607E+04  0.12459677158E+04  0.16558686334E+04  0.46999998093E+01 0.  1.
</event>
<event>
 5   0  0.2086250E-07  0.3586680E+04  0.7818609E-02  0.8093550E-01
        1   -1    0    0  501    0  0.00000000000E+00  0.00000000000E+00  0.22164129107E+04  0.22164129107E+04  0.50400001928E-02 0. -1.
       -1   -1    0    0    0  501  0.00000000000E+00  0.00000000000E+00 -0.14510241551E+04  0.14510241552E+04  0.50400001928E-02 0.  1.
    10030    2    1    2    0    0  0.00000000000E+00  0.00000000000E+00  0.76538875554E+03  0.36674370658E+04  0.35866801760E+04 0.  0.
        4    1    3    3  502    0 -0.12532254559E+04  0.38911041323E+03  0.16325441933E+04  0.20945603627E+04  0.12699999809E+01 0. -1.
       -4    1    3    3    0  502  0.12532254559E+04 -0.38911041323E+03 -0.86715543779E+03  0.15728767031E+04  0.12699999809E+01 0.  1.
</event>
<event>
 5   0  0.2108068E-07  0.3559268E+04  0.7818609E-02  0.8099886E-01
       -1   -1    0    0    0  501  0.00000000000E+00  0.00000000000E+00  0.16102392773E+04  0.16102392773E+04  0.50400001928E-02 0.  1.
        1   -1    0    0  501    0  0.00000000000E+00  0.00000000000E+00 -0.19668486401E+04  0.19668486401E+04  0.50400001928E-02 0. -1.
    10030    2    1    2    0    0  0.00000000000E+00  0.00000000000E+00 -0.35660936282E+03  0.35770879175E+04  0.35592678646E+04 0.  0.
        5    1    3    3  502    0 -0.94949081400E+03 -0.96983805229E+03  0.97852573769E+03  0.16732164722E+04  0.46999998093E+01 0.  1.
       -5    1    3    3    0  502  0.94949081400E+03  0.96983805229E+03 -0.13351351005E+04  0.19038714453E+04  0.46999998093E+01 0. -1.
</event>
<event>
 5   0  0.2086250E-07  0.3594422E+04  0.7818609E-02  0.8091771E-01
        1   -1    0    0  501    0  0.00000000000E+00  0.00000000000E+00  0.23002725659E+04  0.23002725659E+04  0.50400001928E-02 0. -1.
       -1   -1    0    0    0  501  0.00000000000E+00  0.00000000000E+00 -0.14041674983E+04  0.14041674983E+04  0.50400001928E-02 0.  1.
    10030    2    1    2    0    0  0.00000000000E+00  0.00000000000E+00  0.89610506753E+03  0.37044400642E+04  0.35944223315E+04 0.  0.
        4    1    3    3  502    0  0.37958422657E+03 -0.31131853650E+03 -0.13337260486E+04  0.14212073044E+04  0.12699999809E+01 0.  1.
       -4    1    3    3    0  502 -0.37958422657E+03  0.31131853650E+03  0.22298311162E+04  0.22832327599E+04  0.12699999809E+01 0. -1.
</event>
<event>
 5   0  0.6729577E-07  0.3694848E+04  0.7818609E-02  0.8069104E-01
       -2   -1    0    0    0  501  0.00000000000E+00  0.00000000000E+00  0.15527836348E+04  0.15527836348E+04  0.25500000920E-02 0. -1.
        2   -1    0    0  501    0  0.00000000000E+00  0.00000000000E+00 -0.21979726906E+04  0.21979726906E+04  0.25500000920E-02 0.  1.
    10030    2    1    2    0    0  0.00000000000E+00  0.00000000000E+00 -0.64518905581E+03  0.37507563254E+04  0.36948483183E+04 0.  0.
        3    1    3    3  502    0 -0.11461122401E+03  0.11237483231E+04 -0.18065728068E+04  0.21306457572E+04  0.10100000352E+00 0.  1.
       -3    1    3    3    0  502  0.11461122401E+03 -0.11237483231E+04  0.11613837509E+04  0.16201105683E+04  0.10100000352E+00 0. -1.
</event>
<event>
 5   0  0.2086250E-07  0.3322991E+04  0.7818609E-02  0.8157070E-01
       -1   -1    0    0    0  501  0.00000000000E+00  0.00000000000E+00  0.23956400137E+04  0.23956400137E+04  0.50400001928E-02 0. -1.
        1   -1    0    0  501    0  0.00000000000E+00  0.00000000000E+00 -0.11523296184E+04  0.11523296184E+04  0.50400001928E-02 0.  1.
    10030    2    1    2    0    0  0.00000000000E+00  0.00000000000E+00  0.12433103953E+04  0.35479696321E+04  0.33229907871E+04 0.  0.
        3    1    3    3  502    0  0.15091448185E+04  0.64211775177E+03  0.33769088218E+03  0.16744755694E+04  0.10100000352E+00 0. -1.
       -3    1    3    3    0  502 -0.15091448185E+04 -0.64211775177E+03  0.90561951316E+03  0.18734940627E+04  0.10100000352E+00 0.  1.
</event>
<event>
 5   0  0.2086250E-07  0.3580073E+04  0.7818609E-02  0.8095071E-01
        4   -1    0    0  501    0  0.00000000000E+00  0.00000000000E+00  0.28108414193E+04  0.28108417062E+04  0.12699999809E+01 0. -1.
       -4   -1    0    0    0  501  0.00000000000E+00  0.00000000000E+00 -0.11399536874E+04  0.11399543948E+04  0.12699999809E+01 0.  1.
    10030    2    1    2    0    0  0.00000000000E+00  0.00000000000E+00  0.16708877318E+04  0.39507961010E+04  0.35800731863E+04 0.  0.
        4    1    3    3  502    0  0.20910126499E+03 -0.20107427054E+03 -0.11138406891E+04  0.11509982167E+04  0.12699999809E+01 0.  1.
       -4    1    3    3    0  502 -0.20910126499E+03  0.20107427054E+03  0.27847284210E+04  0.27997978843E+04  0.12699999809E+01 0. -1.
</event>
<event>
 5   0  0.6729577E-07  0.3602969E+04  0.7818609E-02  0.8089812E-01
       -2   -1    0    0    0  501  0.00000000000E+00  0.00000000000E+00  0.15441925309E+04  0.15441925309E+04  0.25500000920E-02 0. -1.
        2   -1    0    0  501    0  0.00000000000E+00  0.00000000000E+00 -0.21016460555E+04  0.21016460555E+04  0.25500000920E-02 0.  1.
    10030    2    1    2    0    0  0.00000000000E+00  0.00000000000E+00 -0.55745352469E+03  0.36458385864E+04  0.36029688544E+04 0.  0.
        3    1    3    3  502    0 -0.19233220235E+03 -0.82076638747E+02 -0.20893232666E+04  0.20997618849E+04  0.10100000352E+00 0.  1.
       -3    1    3    3    0  502  0.19233220235E+03  0.82076638747E+02  0.15318697419E+04  0.15460767015E+04  0.10100000352E+00 0. -1.
</event>
<event>
 5   0  0.2086250E-07  0.3621547E+04  0.7818609E-02  0.8085574E-01
        1   -1    0    0  501    0  0.00000000000E+00  0.00000000000E+00  0.12391959306E+04  0.12391959306E+04  0.50400001928E-02 0. -1.
       -1   -1    0    0    0  501  0.00000000000E+00  0.00000000000E+00 -0.26459898768E+04  0.26459898768E+04  0.50400001928E-02 0.  1.
    10030    2    1    2    0    0  0.00000000000E+00  0.00000000000E+00 -0.14067939462E+04  0.38851858074E+04  0.36215465689E+04 0.  0.
        3    1    3    3  502    0  0.12147921594E+04 -0.26318874564E+03  0.70924202655E+03  0.14310878969E+04  0.10100000352E+00 0. -1.
       -3    1    3    3    0  502 -0.12147921594E+04  0.26318874564E+03 -0.21160359727E+04  0.24540979105E+04  0.10100000352E+00 0.  1.
</event>
<event>
 5   0  0.6541476E-07  0.3609198E+04  0.7818609E-02  0.8088388E-01
        2   -1    0    0  501    0  0.00000000000E+00  0.00000000000E+00  0.23785933814E+04  0.23785933815E+04  0.25500000920E-02 0. -1.
       -2   -1    0    0    0  501  0.00000000000E+00  0.00000000000E+00 -0.13691189402E+04  0.13691189402E+04  0.25500000920E-02 0.  1.
    10030    2    1    2    0    0  0.00000000000E+00  0.00000000000E+00  0.10094744413E+04  0.37477123216E+04  0.36091978331E+04 0.  0.
        4    1    3    3  502    0  0.52651905087E+03 -0.96306586514E+03 -0.98266749139E+03  0.14732125383E+04  0.12699999809E+01 0.  1.
       -4    1    3    3    0  502 -0.52651905087E+03  0.96306586514E+03  0.19921419327E+04  0.22744997833E+04  0.12699999809E+01 0. -1.
</event>
<event>
 5   0  0.2086250E-07  0.3597583E+04  0.7818609E-02  0.8091046E-01
       -1   -1    0    0    0  501  0.00000000000E+00  0.00000000000E+00  0.19616368772E+04  0.19616368772E+04  0.50400001928E-02 0. -1.
        1   -1    0    0  501    0  0.00000000000E+00  0.00000000000E+00 -0.16494643182E+04  0.16494643182E+04  0.50400001928E-02 0.  1.
    10030    2    1    2    0    0  0.00000000000E+00  0.00000000000E+00  0.31217255893E+03  0.36111011954E+04  0.35975825407E+04 0.  0.
        2    1    3    3  502    0 -0.86128199450E+03  0.90259677891E+03  0.14567806017E+04  0.19179930503E+04  0.25500000920E-02 0. -1.
       -2    1    3    3    0  502  0.86128199450E+03 -0.90259677891E+03 -0.11446080428E+04  0.16931081451E+04  0.25500000920E-02 0.  1.
</event>
<event>
 5   0  0.2086250E-07  0.3444531E+04  0.7818609E-02  0.8127063E-01
       -1   -1    0    0    0  501  0.00000000000E+00  0.00000000000E+00  0.26398372354E+04  0.26398372354E+04  0.50400001928E-02 0.  1.
        1   -1    0    0  501    0  0.00000000000E+00  0.00000000000E+00 -0.11236291269E+04  0.11236291269E+04  0.50400001928E-02 0. -1.
    10030    2    1    2    0    0  0.00000000000E+00  0.00000000000E+00  0.15162081085E+04  0.37634663623E+04  0.34445307419E+04 0.  0.
        2    1    3    3  502    0  0.13588108332E+04 -0.51993068236E+02  0.19129110675E+04  0.23469765469E+04  0.25500000920E-02 0.  1.
       -2    1    3    3    0  502 -0.13588108332E+04  0.51993068236E+02 -0.39670295902E+03  0.14164898154E+04  0.25500000920E-02 0. -1.
</event>
<event>
 5   0  0.2086250E-07  0.3599742E+04  0.7818609E-02  0.8090551E-01
        1   -1    0    0  501    0  0.00000000000E+00  0.00000000000E+00  0.20546793817E+04  0.20546793817E+04  0.50400001928E-02 0. -1.
       -1   -1    0    0    0  501  0.00000000000E+00  0.00000000000E+00 -0.15766626797E+04  0.15766626797E+04  0.50400001928E-02 0.  1.
    10030    2    1    2    0    0  0.00000000000E+00  0.00000000000E+00  0.47801670199E+03  0.36313420614E+04  0.35997423796E+04 0.  0.
        4    1    3    3  502    0 -0.10969738481E+04 -0.12197439006E+03 -0.11951981861E+04  0.16268772825E+04  0.12699999809E+01 0.  1.
       -4    1    3    3    0  502  0.10969738481E+04  0.12197439006E+03  0.16732148881E+04  0.20044647789E+04  0.12699999809E+01 0. -1.
</event>
<event>
 5   0  0.2086250E-07  0.3591385E+04  0.7818609E-02  0.8092468E-01
        1   -1    0    0  501    0  0.00000000000E+00  0.00000000000E+00  0.19963184351E+04  0.19963184351E+04  0.50400001928E-02 0. -1.
       -1   -1    0    0    0  501  0.00000000000E+00  0.00000000000E+00 -0.16152288441E+04  0.16152288441E+04  0.50400001928E-02 0.  1.
    10030    2    1    2    0    0  0.00000000000E+00  0.00000000000E+00  0.38108959104E+03  0.36115472793E+04  0.35913847572E+04 0.  0.
        3    1    3    3  502    0  0.16180380286E+04 -0.77657268162E+03  0.24917232775E+03  0.18119600026E+04  0.10100000352E+00 0. -1.
       -3    1    3    3    0  502 -0.16180380286E+04  0.77657268162E+03  0.13191726329E+03  0.17995872767E+04  0.10100000352E+00 0.  1.
</event>
<event>
 5   0  0.2108068E-07  0.3576013E+04  0.7818609E-02  0.8096008E-01
        1   -1    0    0  501    0  0.00000000000E+00  0.00000000000E+00  0.26089769276E+04  0.26089769276E+04  0.50400001928E-02 0. -1.
       -1   -1    0    0    0  501  0.00000000000E+00  0.00000000000E+00 -0.12253719589E+04  0.12253719589E+04  0.50400001928E-02 0.  1.
    10030    2    1    2    0    0  0.00000000000E+00  0.00000000000E+00  0.13836049686E+04  0.38343488865E+04  0.35760129578E+04 0.  0.
        5    1    3    3  502    0 -0.16213096131E+04  0.22171839809E+03 -0.80762958852E+02  0.16383981979E+04  0.46999998093E+01 0.  1.
       -5    1    3    3    0  502  0.16213096131E+04 -0.22171839809E+03  0.14643679275E+04  0.21959506885E+04  0.46999998093E+01 0. -1.
</event>
<event>
 5   0  0.6729577E-07  0.3719909E+04  0.7818609E-02  0.8063564E-01
        2   -1    0    0  501    0  0.00000000000E+00  0.00000000000E+00  0.22792604152E+04  0.22792604152E+04  0.25500000920E-02 0.  1.
       -2   -1    0    0    0  501  0.00000000000E+00  0.00000000000E+00 -0.15177867997E+04  0.15177867997E+04  0.25500000920E-02 0. -1.
    10030    2    1    2    0    0  0.00000000000E+00  0.00000000000E+00  0.76147361549E+03  0.37970472149E+04  0.37199093383E+04 0.  0.
        3    1    3    3  502    0 -0.34217601641E+03 -0.16626461206E+04 -0.39526116061E+03  0.17429021613E+04  0.10100000352E+00 0. -1.
       -3    1    3    3    0  502  0.34217601641E+03  0.16626461206E+04  0.11567347761E+04  0.20541450536E+04  0.10100000352E+00 0.  1.
</event>
<event>
 5   0  0.2193129E-07  0.3573039E+04  0.7818609E-02  0.8096695E-01
       -1   -1    0    0    0  501  0.00000000000E+00  0.00000000000E+00  0.16565080282E+04  0.16565080282E+04  0.50400001928E-02 0.  1.
        1   -1    0    0  501    0  0.00000000000E+00  0.00000000000E+00 -0.19267353583E+04  0.19267353583E+04  0.50400001928E-02 0. -1.
    10030    2    1    2    0    0  0.00000000000E+00  0.00000000000E+00 -0.27022733013E+03  0.35832433865E+04  0.35730393724E+04 0.  0.
        1    1    3    3  502    0 -0.12559704510E+04 -0.78651199650E+03  0.86552827701E+03  0.17161591105E+04  0.50400001928E-02 0.  1.
       -1    1    3    3    0  502  0.12559704510E+04  0.78651199650E+03 -0.11357556071E+04  0.18670842760E+04  0.50400001928E-02 0. -1.
</event>
<event>
 5   0  0.6848661E-07  0.3672127E+04  0.7818609E-02  0.8074167E-01
       -2   -1    0    0    0  501  0.00000000000E+00  0.00000000000E+00  0.25192585859E+04  0.25192585859E+04  0.25500000920E-02 0.  1.
        2   -1    0    0  501    0  0.00000000000E+00  0.00000000000E+00 -0.13381430064E+04  0.13381430064E+04  0.25500000920E-02 0. -1.
    10030    2    1    2    0    0  0.00000000000E+00  0.00000000000E+00  0.11811155795E+04  0.38574015923E+04  0.36721265000E+04 0.  0.
        1    1    3    3  502    0  0.76110715693E+03 -0.12563544400E+03 -0.11596581601E+04  0.13927941044E+04  0.50400001928E-02 0. -1.
       -1    1    3    3    0  502 -0.76110715693E+03  0.12563544400E+03  0.23407737396E+04  0.24646074879E+04  0.50400001928E-02 0.  1.
</event>
<event>
 5   0  0.2086250E-07  0.3218049E+04  0.7818609E-02  0.8184067E-01
        1   -1    0    0  501    0  0.00000000000E+00  0.00000000000E+00  0.16754305348E+04  0.16754305349E+04  0.50400001928E-02 0. -1.
       -1   -1    0    0    0  501  0.00000000000E+00  0.00000000000E+00 -0.15452506624E+04  0.15452506625E+04  0.50400001928E-02 0.  1.
    10030    2    1    2    0    0  0.00000000000E+00  0.00000000000E+00  0.13017987240E+03  0.32206811973E+04  0.32180491879E+04 0.  0.
        3    1    3    3  502    0 -0.76800650612E+03  0.14134063925E+04  0.10265075189E+03  0.16118588061E+04  0.10100000352E+00 0.  1.
       -3    1    3    3    0  502  0.76800650612E+03 -0.14134063925E+04  0.27529120512E+02  0.16088223912E+04  0.10100000352E+00 0. -1.
</event>
<event>
 5   0  0.2086250E-07  0.3655072E+04  0.7818609E-02  0.8077992E-01
        1   -1    0    0  501    0  0.00000000000E+00  0.00000000000E+00  0.12651997297E+04  0.12651997297E+04  0.50400001928E-02 0.  1.
       -1   -1    0    0    0  501  0.00000000000E+00  0.00000000000E+00 -0.26398113719E+04  0.26398113719E+04  0.50400001928E-02 0. -1.
    10030    2    1    2    0    0  0.00000000000E+00  0.00000000000E+00 -0.13746116422E+04  0.39050111015E+04  0.36550724393E+04 0.  0.
        2    1    3    3  502    0 -0.87212945641E+03 -0.15191418516E+04 -0.13063211605E+03  0.17565496019E+04  0.25500000920E-02 0.  1.
       -2    1    3    3    0  502  0.87212945641E+03  0.15191418516E+04 -0.12439795262E+04  0.21484614997E+04  0.25500000920E-02 0. -1.
</event>
<event>
 5   0  0.2108068E-07  0.3503195E+04  0.7818609E-02  0.8113033E-01
       -1   -1    0    0    0  501  0.00000000000E+00  0.00000000000E+00  0.18561718172E+04  0.18561718172E+04  0.50400001928E-02 0.  1.
        1   -1    0    0  501    0  0.00000000000E+00  0.00000000000E+00 -0.16529149991E+04  0.16529149991E+04  0.50400001928E-02 0. -1.
    10030    2    1    2    0    0  0.00000000000E+00  0.00000000000E+00  0.20325681811E+03  0.35090868163E+04  0.35031952487E+04 0.  0.
        5    1    3    3  502    0 -0.94228624879E+03  0.11462569886E+04 -0.83066974662E+03  0.17005419068E+04  0.46999998093E+01 0. -1.
       -5    1    3    3    0  502  0.94228624879E+03 -0.11462569886E+04  0.10339265647E+04  0.18085449096E+04  0.46999998093E+01 0.  1.
</event>
<event>
 5   0  0.6669864E-07  0.3213793E+04  0.7818609E-02  0.8185184E-01
       -2   -1    0    0    0  501  0.00000000000E+00  0.00000000000E+00  0.12343097722E+04  0.12343097722E+04  0.25500000920E-02 0.  1.
        2   -1    0    0  501    0  0.00000000000E+00  0.00000000000E+00 -0.20919514287E+04  0.20919514287E+04  0.25500000920E-02 0. -1.
    10030    2    1    2    0    0  0.00000000000E+00  0.00000000000E+00 -0.85764165653E+03  0.33262612010E+04  0.32137928318E+04 0.  0.
        5    1    3    3  502    0 -0.92898454208E+03  0.11112103870E+04  0.29144474443E+03  0.14774176568E+04  0.46999998093E+01 0. -1.
       -5    1    3    3    0  502  0.92898454208E+03 -0.11112103870E+04 -0.11490864010E+04  0.18488435441E+04  0.46999998093E+01 0.  1.
</event>
<event>
 5   0  0.6669864E-07  0.3558998E+04  0.7818609E-02  0.8099949E-01
        2   -1    0    0  501    0  0.00000000000E+00  0.00000000000E+00  0.10548548398E+04  0.10548548398E+04  0.25500000920E-02 0. -1.
       -2   -1    0    0    0  501  0.00000000000E+00  0.00000000000E+00 -0.30019461302E+04  0.30019461302E+04  0.25500000920E-02 0.  1.
    10030    2    1    2    0    0  0.00000000000E+00  0.00000000000E+00 -0.19470912904E+04  0.40568009700E+04  0.35589984008E+04 0.  0.
        5    1    3    3  502    0  0.45045542905E+03 -0.14843044094E+04 -0.19676061953E+04  0.25055071150E+04  0.46999998093E+01 0.  1.
       -5    1    3    3    0  502 -0.45045542905E+03  0.14843044094E+04  0.20514904948E+02  0.15512938550E+04  0.46999998093E+01 0. -1.
</event>
<event>
 5   0  0.6669864E-07  0.3581640E+04  0.7818609E-02  0.8094710E-01
       -2   -1    0    0    0  501  0.00000000000E+00  0.00000000000E+00  0.11611730618E+04  0.11611730618E+04  0.25500000920E-02 0. -1.
        2   -1    0    0  501    0  0.00000000000E+00  0.00000000000E+00 -0.27618927626E+04  0.27618927626E+04  0.25500000920E-02 0.  1.
    10030    2    1    2    0    0  0.00000000000E+00  0.00000000000E+00 -0.16007197008E+04  0.39230658244E+04  0.35816395551E+04 0.  0.
        5    1    3    3  502    0 -0.15580034773E+04 -0.21844567008E+03  0.13671770615E+03  0.15791792702E+04  0.46999998093E+01 0. -1.
       -5    1    3    3    0  502  0.15580034773E+04  0.21844567008E+03 -0.17374374069E+04  0.23438865542E+04  0.46999998093E+01 0.  1.
</event>
<event>
 5   0  0.2086250E-07  0.3616697E+04  0.7818609E-02  0.8086678E-01
       -1   -1    0    0    0  501  0.00000000000E+00  0.00000000000E+00  0.31618431975E+04  0.31618431975E+04  0.50400001928E-02 0. -1.
        1   -1    0    0  501    0  0.00000000000E+00  0.00000000000E+00 -0.10342464349E+04  0.10342464349E+04  0.50400001928E-02 0.  1.
    10030    2    1    2    0    0  0.00000000000E+00  0.00000000000E+00  0.21275967627E+04  0.41960896324E+04  0.36166974187E+04 0.  0.
        4    1    3    3  502    0  0.99506195478E+03  0.53756797302E+03  0.27008702841E+04  0.29281102308E+04  0.12699999809E+01 0. -1.
       -4    1    3    3    0  502 -0.99506195478E+03 -0.53756797302E+03 -0.57327352145E+03  0.12679794016E+04  0.12699999809E+01 0.  1.
</event>
<event>
 5   0  0.6324216E-07  0.3009652E+04  0.7818609E-02  0.8240980E-01
       -2   -1    0    0    0  501  0.00000000000E+00  0.00000000000E+00  0.15998660272E+04  0.15998660272E+04  0.25500000920E-02 0. -1.
        2   -1    0    0  501    0  0.00000000000E+00  0.00000000000E+00 -0.14154317106E+04  0.14154317106E+04  0.25500000920E-02 0.  1.
    10030    2    1    2    0    0  0.00000000000E+00  0.00000000000E+00  0.18443431666E+03  0.30152977378E+04  0.30096518786E+04 0.  0.
        2    1    3    3  502    0  0.78826061141E+02 -0.21997005975E+03 -0.13971450182E+04  0.14165502381E+04  0.25500000920E-02 0.  1.
       -2    1    3    3    0  502 -0.78826061141E+02  0.21997005975E+03  0.15815793349E+04  0.15987474997E+04  0.25500000920E-02 0. -1.
</event>
<event>
 5   0  0.6729577E-07  0.3561942E+04  0.7818609E-02  0.8099265E-01
        2   -1    0    0  501    0  0.00000000000E+00  0.00000000000E+00  0.28087854703E+04  0.28087854703E+04  0.25500000920E-02 0. -1.
       -2   -1    0    0    0  501  0.00000000000E+00  0.00000000000E+00 -0.11292632173E+04  0.11292632173E+04  0.25500000920E-02 0.  1.
    10030    2    1    2    0    0  0.00000000000E+00  0.00000000000E+00  0.16795222531E+04  0.39380486876E+04  0.35619422324E+04 0.  0.
        3    1    3    3  502    0 -0.73458672987E+03 -0.67040154028E+02 -0.95243653463E+03  0.12046773048E+04  0.10100000352E+00 0.  1.
       -3    1    3    3    0  502  0.73458672987E+03  0.67040154028E+02  0.26319587877E+04  0.27333713828E+04  0.10100000352E+00 0. -1.
</event>
<event>
 5   0  0.2086250E-07  0.3415628E+04  0.7818609E-02  0.8134081E-01
        1   -1    0    0  501    0  0.00000000000E+00  0.00000000000E+00  0.93651117384E+03  0.93651117385E+03  0.50400001928E-02 0.  1.
       -1   -1    0    0    0  501  0.00000000000E+00  0.00000000000E+00 -0.31143545280E+04  0.31143545280E+04  0.50400001928E-02 0. -1.
    10030    2    1    2    0    0  0.00000000000E+00  0.00000000000E+00 -0.21778433541E+04  0.40508657018E+04  0.34156275059E+04 0.  0.
        3    1    3    3  502    0  0.44272911195E+02  0.16739313103E+04 -0.69091684164E+03  0.18114558273E+04  0.10100000352E+00 0. -1.
       -3    1    3    3    0  502 -0.44272911195E+02 -0.16739313103E+04 -0.14869265125E+04  0.22394098745E+04  0.10100000352E+00 0.  1.
</event>
<event>
 5   0  0.6729577E-07  0.3569052E+04  0.7818609E-02  0.8097618E-01
       -2   -1    0    0    0  501  0.00000000000E+00  0.00000000000E+00  0.14621178443E+04  0.14621178443E+04  0.25500000920E-02 0. -1.
        2   -1    0    0  501    0  0.00000000000E+00  0.00000000000E+00 -0.21780272919E+04  0.21780272919E+04  0.25500000920E-02 0.  1.
    10030    2    1    2    0    0  0.00000000000E+00  0.00000000000E+00 -0.71590944762E+03  0.36401451362E+04  0.35690517333E+04 0.  0.
        3    1    3    3  502    0 -0.12125616428E+04  0.31704374088E+03 -0.16535776180E+04  0.20748834714E+04  0.10100000352E+00 0.  1.
       -3    1    3    3    0  502  0.12125616428E+04 -0.31704374088E+03  0.93766817038E+03  0.15652616647E+04  0.10100000352E+00 0. -1.
</event>
<event>
 5   0  0.2193129E-07  0.3608963E+04  0.7818609E-02  0.8088442E-01
        1   -1    0    0  501    0  0.00000000000E+00  0.00000000000E+00  0.17838867623E+04  0.17838867623E+04  0.50400001928E-02 0. -1.
       -1   -1    0    0    0  501  0.00000000000E+00  0.00000000000E+00 -0.18253137117E+04  0.18253137117E+04  0.50400001928E-02 0.  1.
    10030    2    1    2    0    0  0.00000000000E+00  0.00000000000E+00 -0.41426949470E+02  0.36092004740E+04  0.36089627138E+04 0.  0.
        1    1    3    3  502    0 -0.84199238629E+03 -0.12058869878E+04  0.10248401518E+04  0.17925992142E+04  0.50400001928E-02 0. -1.
       -1    1    3    3    0  502  0.84199238629E+03  0.12058869878E+04 -0.10662671012E+04  0.18166012598E+04  0.50400001928E-02 0.  1.
</event>
<event>
 5   0  0.6669864E-07  0.3294719E+04  0.7818609E-02  0.8164240E-01
       -2   -1    0    0    0  501  0.00000000000E+00  0.00000000000E+00  0.14001268673E+04  0.14001268673E+04  0.25500000920E-02 0. -1.
        2   -1    0    0  501    0  0.00000000000E+00  0.00000000000E+00 -0.19382487008E+04  0.19382487008E+04  0.25500000920E-02 0.  1.
    10030    2    1    2    0    0  0.00000000000E+00  0.00000000000E+00 -0.53812183343E+03  0.33383755681E+04  0.32947194609E+04 0.  0.
        5    1    3    3  502    0 -0.15821118605E+04 -0.27801903487E+03  0.10101753803E+03  0.16095338318E+04  0.46999998093E+01 0. -1.
       -5    1    3    3    0  502  0.15821118605E+04  0.27801903487E+03 -0.63913937146E+03  0.17288417363E+04  0.46999998093E+01 0.  1.
</event>
<event>
 5   0  0.2086250E-07  0.3628300E+04  0.7818609E-02  0.8084040E-01
       -1   -1    0    0    0  501  0.00000000000E+00  0.00000000000E+00  0.13477069454E+04  0.13477069454E+04  0.50400001928E-02 0. -1.
        1   -1    0    0  501    0  0.00000000000E+00  0.00000000000E+00 -0.24420299271E+04  0.24420299271E+04  0.50400001928E-02 0.  1.
    10030    2    1    2    0    0  0.00000000000E+00  0.00000000000E+00 -0.10943229817E+04  0.37897368725E+04  0.36283002597E+04 0.  0.
        3    1    3    3  502    0 -0.35058529603E+02 -0.94618296472E+03  0.10691564900E+04  0.14281410692E+04  0.10100000352E+00 0. -1.
       -3    1    3    3    0  502  0.35058529603E+02  0.94618296472E+03 -0.21634794717E+04  0.23615958033E+04  0.10100000352E+00 0.  1.
</event>
<event>
 5   0  0.6324216E-07  0.3340734E+04  0.7818609E-02  0.8152607E-01
        2   -1    0    0  501    0  0.00000000000E+00  0.00000000000E+00  0.17872159123E+04  0.17872159123E+04  0.25500000920E-02 0. -1.
       -2   -1    0    0    0  501  0.00000000000E+00  0.00000000000E+00 -0.15611577853E+04  0.15611577853E+04  0.25500000920E-02 0.  1.
    10030    2    1    2    0    0  0.00000000000E+00  0.00000000000E+00  0.22605812703E+03  0.33483736976E+04  0.33407340723E+04 0.  0.
        2    1    3    3  502    0  0.16015519363E+04  0.27971921039E+03  0.49719998108E+03  0.17001233081E+04  0.25500000920E-02 0. -1.
       -2    1    3    3    0  502 -0.16015519363E+04 -0.27971921039E+03 -0.27114185404E+03  0.16482503895E+04  0.25500000920E-02 0.  1.
</event>
<event>
 5   0  0.2108068E-07  0.3575574E+04  0.7818609E-02  0.8096110E-01
       -1   -1    0    0    0  501  0.00000000000E+00  0.00000000000E+00  0.19215194105E+04  0.19215194105E+04  0.50400001928E-02 0.  1.
        1   -1    0    0  501    0  0.00000000000E+00  0.00000000000E+00 -0.16633616332E+04  0.16633616332E+04  0.50400001928E-02 0. -1.
    10030    2    1    2    0    0  0.00000000000E+00  0.00000000000E+00  0.25815777723E+03  0.35848810437E+04  0.35755736127E+04 0.  0.
        5    1    3    3  502    0  0.13133713260E+04  0.11313601323E+03  0.13398712510E+04  0.18796332240E+04  0.46999998093E+01 0.  1.
       -5    1    3    3    0  502 -0.13133713260E+04 -0.11313601323E+03 -0.10817134738E+04  0.17052478197E+04  0.46999998093E+01 0. -1.
</event>
<event>
 5   0  0.2086250E-07  0.3179501E+04  0.7818609E-02  0.8194252E-01
       -1   -1    0    0    0  501  0.00000000000E+00  0.00000000000E+00  0.11532564132E+04  0.11532564133E+04  0.50400001928E-02 0. -1.
        1   -1    0    0  501    0  0.00000000000E+00  0.00000000000E+00 -0.21914524541E+04  0.21914524541E+04  0.50400001928E-02 0.  1.
    10030    2    1    2    0    0  0.00000000000E+00  0.00000000000E+00 -0.10381960409E+04  0.33447088674E+04  0.31795009653E+04 0.  0.
        2    1    3    3  502    0  0.36593995468E+03  0.69668878384E+02 -0.21448926772E+04  0.21770003215E+04  0.25500000920E-02 0.  1.
       -2    1    3    3    0  502 -0.36593995468E+03 -0.69668878384E+02  0.11066966364E+04  0.11677085458E+04  0.25500000920E-02 0. -1.
</event>
<event>
 5   0  0.2086250E-07  0.3600161E+04  0.7818609E-02  0.8090455E-01
       -3   -1    0    0    0  501  0.00000000000E+00  0.00000000000E+00  0.18214881748E+04  0.18214881776E+04  0.10100000352E+00 0. -1.
        3   -1    0    0  501    0  0.00000000000E+00  0.00000000000E+00 -0.17789246729E+04  0.17789246758E+04  0.10100000352E+00 0.  1.
    10030    2    1    2    0    0  0.00000000000E+00  0.00000000000E+00  0.42563501952E+02  0.36004128534E+04  0.36001612552E+04 0.  0.
        2    1    3    3  502    0 -0.10205579316E+04 -0.12486715782E+04 -0.77850600846E+03  0.17907514644E+04  0.25500000920E-02 0.  1.
       -2    1    3    3    0  502  0.10205579316E+04  0.12486715782E+04  0.82106951041E+03  0.18096613890E+04  0.25500000920E-02 0. -1.
</event>
<event>
 5   0  0.6669864E-07  0.3493420E+04  0.7818609E-02  0.8115351E-01
        2   -1    0    0  501    0  0.00000000000E+00  0.00000000000E+00  0.10935680488E+04  0.10935680488E+04  0.25500000920E-02 0. -1.
       -2   -1    0    0    0  501  0.00000000000E+00  0.00000000000E+00 -0.27899464022E+04  0.27899464022E+04  0.25500000920E-02 0.  1.
    10030    2    1    2    0    0  0.00000000000E+00  0.00000000000E+00 -0.16963783534E+04  0.38835144509E+04  0.34934202400E+04 0.  0.
        5    1    3    3  502    0 -0.16892349682E+04  0.18722495039E+03 -0.12961864668E+04  0.21374492758E+04  0.46999998093E+01 0.  1.
       -5    1    3    3    0  502  0.16892349682E+04 -0.18722495039E+03 -0.40019188659E+03  0.17460651752E+04  0.46999998093E+01 0. -1.
</event>
<event>
 5   0  0.2108068E-07  0.3612363E+04  0.7818609E-02  0.8087666E-01
        1   -1    0    0  501    0  0.00000000000E+00  0.00000000000E+00  0.20115936584E+04  0.20115936584E+04  0.50400001928E-02 0.  1.
       -1   -1    0    0    0  501  0.00000000000E+00  0.00000000000E+00 -0.16217452241E+04  0.16217452242E+04  0.50400001928E-02 0. -1.
    10030    2    1    2    0    0  0.00000000000E+00  0.00000000000E+00  0.38984843426E+03  0.36333388826E+04  0.36123634416E+04 0.  0.
        5    1    3    3  502    0  0.48638093628E+03 -0.33229147458E+03  0.19122594200E+04  0.20009353360E+04  0.46999998093E+01 0.  1.
       -5    1    3    3    0  502 -0.48638093628E+03  0.33229147458E+03 -0.15224109858E+04  0.16324035466E+04  0.46999998093E+01 0. -1.
</event>
<event>
 5   0  0.6848661E-07  0.3616083E+04  0.7818609E-02  0.8086818E-01
        2   -1    0    0  501    0  0.00000000000E+00  0.00000000000E+00  0.15780422763E+04  0.15780422763E+04  0.25500000920E-02 0.  1.
       -2   -1    0    0    0  501  0.00000000000E+00  0.00000000000E+00 -0.20715629775E+04  0.20715629775E+04  0.25500000920E-02 0. -1.
    10030    2    1    2    0    0  0.00000000000E+00  0.00000000000E+00 -0.49352070121E+03  0.36496052538E+04  0.36160829396E+04 0.  0.
        1    1    3    3  502    0 -0.42798796383E+03 -0.16364701165E+04  0.39775641411E+03  0.17376473475E+04  0.50400001928E-02 0.  1.
       -1    1    3    3    0  502  0.42798796383E+03  0.16364701165E+04 -0.89127711533E+03  0.19119579063E+04  0.50400001928E-02 0. -1.
</event>
<event>
 5   0  0.6669864E-07  0.3620346E+04  0.7818609E-02  0.8085847E-01
       -2   -1    0    0    0  501  0.00000000000E+00  0.00000000000E+00  0.14297731468E+04  0.14297731468E+04  0.25500000920E-02 0.  1.
        2   -1    0    0  501    0  0.00000000000E+00  0.00000000000E+00 -0.22917809716E+04  0.22917809716E+04  0.25500000920E-02 0. -1.
    10030    2    1    2    0    0  0.00000000000E+00  0.00000000000E+00 -0.86200782478E+03  0.37215541185E+04  0.36203463324E+04 0.  0.
        5    1    3    3  502    0  0.14316241373E+04  0.65293380616E+03  0.48890669837E+03  0.16477020590E+04  0.46999998093E+01 0.  1.
       -5    1    3    3    0  502 -0.14316241373E+04 -0.65293380616E+03 -0.13509145232E+04  0.20738520594E+04  0.46999998093E+01 0. -1.
</event>
<event>
 5   0  0.6669864E-07  0.3601486E+04  0.7818609E-02  0.8090151E-01
        2   -1    0    0  501    0  0.00000000000E+00  0.00000000000E+00  0.26671407958E+04  0.26671407958E+04  0.25500000920E-02 0. -1.
       -2   -1    0    0    0  501  0.00000000000E+00  0.00000000000E+00 -0.12157871647E+04  0.12157871647E+04  0.25500000920E-02 0.  1.
    10030    2    1    2    0    0  0.00000000000E+00  0.00000000000E+00  0.14513536311E+04  0.38829279605E+04  0.36014861077E+04 0.  0.
        5    1    3    3  502    0 -0.26622587082E+03 -0.12195149210E+04  0.21250092760E+04  0.24645038791E+04  0.46999998093E+01 0. -1.
       -5    1    3    3    0  502  0.26622587082E+03  0.12195149210E+04 -0.67365564489E+03  0.14184240814E+04  0.46999998093E+01 0.  1.
</event>
<event>
 5   0  0.2108068E-07  0.3556344E+04  0.7818609E-02  0.8100565E-01
        1   -1    0    0  501    0  0.00000000000E+00  0.00000000000E+00  0.26150979799E+04  0.26150979799E+04  0.50400001928E-02 0. -1.
       -1   -1    0    0    0  501  0.00000000000E+00  0.00000000000E+00 -0.12090927288E+04  0.12090927288E+04  0.50400001928E-02 0.  1.
    10030    2    1    2    0    0  0.00000000000E+00  0.00000000000E+00  0.14060052512E+04  0.38241907087E+04  0.35563441636E+04 0.  0.
        5    1    3    3  502    0 -0.28929994808E+02  0.12479048582E+04  0.20647823181E+04  0.24127684495E+04  0.46999998093E+01 0.  1.
       -5    1    3    3    0  502  0.28929994808E+02 -0.12479048582E+04 -0.65877706695E+03  0.14114222592E+04  0.46999998093E+01 0. -1.
</event>
<event>
 5   0  0.2108068E-07  0.2983265E+04  0.7818609E-02  0.8248526E-01
        1   -1    0    0  501    0  0.00000000000E+00  0.00000000000E+00  0.22952585408E+04  0.22952585408E+04  0.50400001928E-02 0.  1.
       -1   -1    0    0    0  501  0.00000000000E+00  0.00000000000E+00 -0.96937539959E+03  0.96937539960E+03  0.50400001928E-02 0. -1.
    10030    2    1    2    0    0  0.00000000000E+00  0.00000000000E+00  0.13258831412E+04  0.32646339404E+04  0.29832647654E+04 0.  0.
        5    1    3    3  502    0  0.12906067612E+04  0.68906753165E+03  0.98098146427E+03  0.17614842033E+04  0.46999998093E+01 0. -1.
       -5    1    3    3    0  502 -0.12906067612E+04 -0.68906753165E+03  0.34490167690E+03  0.15031497371E+04  0.46999998093E+01 0.  1.
</event>
<event>
 5   0  0.6669864E-07  0.3611475E+04  0.7818609E-02  0.8087868E-01
        2   -1    0    0  501    0  0.00000000000E+00  0.00000000000E+00  0.19314748667E+04  0.19314748668E+04  0.25500000920E-02 0.  1.
       -2   -1    0    0    0  501  0.00000000000E+00  0.00000000000E+00 -0.16881858630E+04  0.16881858630E+04  0.25500000920E-02 0. -1.
    10030    2    1    2    0    0  0.00000000000E+00  0.00000000000E+00  0.24328900380E+03  0.36196607297E+04  0.36114753576E+04 0.  0.
        5    1    3    3  502    0 -0.18732237386E+03 -0.74819023799E+03  0.17580692109E+04  0.19198197166E+04  0.46999998093E+01 0.  1.
       -5    1    3    3    0  502  0.18732237386E+03  0.74819023799E+03 -0.15147802071E+04  0.16998410131E+04  0.46999998093E+01 0. -1.
</event>
<event>
 5   0  0.2086250E-07  0.3680741E+04  0.7818609E-02  0.8072243E-01
       -1   -1    0    0    0  501  0.00000000000E+00  0.00000000000E+00  0.13881664916E+04  0.13881664916E+04  0.50400001928E-02 0.  1.
        1   -1    0    0  501    0  0.00000000000E+00  0.00000000000E+00 -0.24398832174E+04  0.24398832174E+04  0.50400001928E-02 0. -1.
    10030    2    1    2    0    0  0.00000000000E+00  0.00000000000E+00 -0.10517167258E+04  0.38280497090E+04  0.36807412980E+04 0.  0.
        4    1    3    3  502    0 -0.65494246007E+03 -0.75696283852E+03 -0.21320164944E+04  0.23553000467E+04  0.12699999809E+01 0. -1.
       -4    1    3    3    0  502  0.65494246007E+03  0.75696283852E+03  0.10802997686E+04  0.14727496623E+04  0.12699999809E+01 0.  1.
</event>
<event>
 5   0  0.6848661E-07  0.3624896E+04  0.7818609E-02  0.8084813E-01
       -2   -1    0    0    0  501  0.00000000000E+00  0.00000000000E+00  0.19823173618E+04  0.19823173618E+04  0.25500000920E-02 0. -1.
        2   -1    0    0  501    0  0.00000000000E+00  0.00000000000E+00 -0.16571351278E+04  0.16571351278E+04  0.25500000920E-02 0.  1.
    10030    2    1    2    0    0  0.00000000000E+00  0.00000000000E+00  0.32518223407E+03  0.36394524896E+04  0.36248959901E+04 0.  0.
        1    1    3    3  502    0 -0.17512427467E+04 -0.46252583165E+03  0.97628649739E+02  0.18139218992E+04  0.50400001928E-02 0.  1.
       -1    1    3    3    0  502  0.17512427467E+04  0.46252583165E+03  0.22755358433E+03  0.18255305905E+04  0.50400001928E-02 0. -1.
</event>
<event>
 5   0  0.2108068E-07  0.3622590E+04  0.7818609E-02  0.8085337E-01
       -1   -1    0    0    0  501  0.00000000000E+00  0.00000000000E+00  0.10408697861E+04  0.10408697861E+04  0.50400001928E-02 0.  1.
        1   -1    0    0  501    0  0.00000000000E+00  0.00000000000E+00 -0.31519694589E+04  0.31519694589E+04  0.50400001928E-02 0. -1.
    10030    2    1    2    0    0  0.00000000000E+00  0.00000000000E+00 -0.21110996728E+04  0.41928392450E+04  0.36225901101E+04 0.  0.
        5    1    3    3  502    0 -0.26715746503E+03  0.17857415540E+04 -0.88974566778E+03  0.20129370214E+04  0.46999998093E+01 0. -1.
       -5    1    3    3    0  502  0.26715746503E+03 -0.17857415540E+04 -0.12213540051E+04  0.21799022236E+04  0.46999998093E+01 0.  1.
</event>
<event>
 5   0  0.2193129E-07  0.3580487E+04  0.7818609E-02  0.8094976E-01
       -1   -1    0    0    0  501  0.00000000000E+00  0.00000000000E+00  0.26801627545E+04  0.26801627545E+04  0.50400001928E-02 0. -1.
        1   -1    0    0  501    0  0.00000000000E+00  0.00000000000E+00 -0.11958126755E+04  0.11958126755E+04  0.50400001928E-02 0.  1.
    10030    2    1    2    0    0  0.00000000000E+00  0.00000000000E+00  0.14843500791E+04  0.38759754300E+04  0.35804874496E+04 0.  0.
        1    1    3    3  502    0  0.71647318519E+03 -0.12511492713E+04  0.18910136233E+04  0.23779488741E+04  0.50400001928E-02 0.  1.
       -1    1    3    3    0  502 -0.71647318519E+03  0.12511492713E+04 -0.40666354421E+03  0.14980265560E+04  0.50400001928E-02 0. -1.
</event>
<event>
 5   0  0.2193129E-07  0.3604203E+04  0.7818609E-02  0.8089530E-01
       -1   -1    0    0    0  501  0.00000000000E+00  0.00000000000E+00  0.15624836369E+04  0.15624836369E+04  0.50400001928E-02 0.  1.
        1   -1    0    0  501    0  0.00000000000E+00  0.00000000000E+00 -0.20784666872E+04  0.20784666873E+04  0.50400001928E-02 0. -1.
    10030    2    1    2    0    0  0.00000000000E+00  0.00000000000E+00 -0.51598305031E+03  0.36409503242E+04  0.36042032067E+04 0.  0.
        1    1    3    3  502    0  0.17168585537E+04 -0.41846075502E+03  0.98962914863E+02  0.17698887974E+04  0.50400001928E-02 0. -1.
       -1    1    3    3    0  502 -0.17168585537E+04  0.41846075502E+03 -0.61494596517E+03  0.18710615268E+04  0.50400001928E-02 0.  1.
</event>
<event>
 5   0  0.2086250E-07  0.3590036E+04  0.7818609E-02  0.8092778E-01
        1   -1    0    0  501    0  0.00000000000E+00  0.00000000000E+00  0.15629058967E+04  0.15629058967E+04  0.50400001928E-02 0. -1.
       -1   -1    0    0    0  501  0.00000000000E+00  0.00000000000E+00 -0.20616019853E+04  0.20616019853E+04  0.50400001928E-02 0.  1.
    10030    2    1    2    0    0  0.00000000000E+00  0.00000000000E+00 -0.49869608854E+03  0.36245078820E+04  0.35900361555E+04 0.  0.
        4    1    3    3  502    0  0.17555579995E+04 -0.33193965732E+03 -0.74711806718E+02  0.17882257387E+04  0.12699999809E+01 0. -1.
       -4    1    3    3    0  502 -0.17555579995E+04  0.33193965732E+03 -0.42398428183E+03  0.18362821433E+04  0.12699999809E+01 0.  1.
</event>
<event>
 5   0  0.6541476E-07  0.3660561E+04  0.7818609E-02  0.8076759E-01
       -2   -1    0    0    0  501  0.00000000000E+00  0.00000000000E+00  0.15026555754E+04  0.15026555754E+04  0.25500000920E-02 0.  1.
        2   -1    0    0  501    0  0.00000000000E+00  0.00000000000E+00 -0.22293374016E+04  0.22293374016E+04  0.25500000920E-02 0. -1.
    10030    2    1    2    0    0  0.00000000000E+00  0.00000000000E+00 -0.72668182615E+03  0.37319929770E+04  0.36605607636E+04 0.  0.
        4    1    3    3  502    0  0.77999094978E+03 -0.16535216050E+04 -0.45107294038E+03  0.18830793904E+04  0.12699999809E+01 0. -1.
       -4    1    3    3    0  502 -0.77999094978E+03  0.16535216050E+04 -0.27560888577E+03  0.18489135866E+04  0.12699999809E+01 0.  1.
</event>
<event>
 5   0  0.6729577E-07  0.3569390E+04  0.7818609E-02  0.8097540E-01
       -2   -1    0    0    0  501  0.00000000000E+00  0.00000000000E+00  0.15076111835E+04  0.15076111835E+04  0.25500000920E-02 0.  1.
        2   -1    0    0  501    0  0.00000000000E+00  0.00000000000E+00 -0.21127037719E+04  0.21127037719E+04  0.25500000920E-02 0. -1.
    10030    2    1    2    0    0  0.00000000000E+00  0.00000000000E+00 -0.60509258840E+03  0.36203149553E+04  0.35693897707E+04 0.  0.
        3    1    3    3  502    0 -0.92636868784E+03 -0.55829225276E+03 -0.17424080362E+04  0.20508132436E+04  0.10100000352E+00 0. -1.
       -3    1    3    3    0  502  0.92636868784E+03  0.55829225276E+03  0.11373154478E+04  0.15695017118E+04  0.10100000352E+00 0.  1.
</event>
<event>
 5   0  0.2193129E-07  0.3634045E+04  0.7818609E-02  0.8082738E-01
        1   -1    0    0  501    0  0.00000000000E+00  0.00000000000E+00  0.23707151883E+04  0.23707151883E+04  0.50400001928E-02 0. -1.
       -1   -1    0    0    0  501  0.00000000000E+00  0.00000000000E+00 -0.13926472002E+04  0.13926472002E+04  0.50400001928E-02 0.  1.
    10030    2    1    2    0    0  0.00000000000E+00  0.00000000000E+00  0.97806798809E+03  0.37633623885E+04  0.36340445069E+04 0.  0.
        1    1    3    3  502    0 -0.72203358188E+03 -0.36052768095E+03 -0.11968582285E+04  0.14435311986E+04  0.50400001928E-02 0.  1.
       -1    1    3    3    0  502  0.72203358188E+03  0.36052768095E+03  0.21749262166E+04  0.23198311899E+04  0.50400001928E-02 0. -1.
</event>
<event>
 5   0  0.6669864E-07  0.3600700E+04  0.7818609E-02  0.8090331E-01
       -2   -1    0    0    0  501  0.00000000000E+00  0.00000000000E+00  0.20820090849E+04  0.20820090849E+04  0.25500000920E-02 0.  1.
        2   -1    0    0  501    0  0.00000000000E+00  0.00000000000E+00 -0.15567939905E+04  0.15567939905E+04  0.25500000920E-02 0. -1.
    10030    2    1    2    0    0  0.00000000000E+00  0.00000000000E+00  0.52521509442E+03  0.36388030754E+04  0.36006995051E+04 0.  0.
        5    1    3    3  502    0  0.92747023059E+03  0.13392643511E+04 -0.51192785622E+03  0.17076071711E+04  0.46999998093E+01 0.  1.
       -5    1    3    3    0  502 -0.92747023059E+03 -0.13392643511E+04  0.10371429506E+04  0.19311959043E+04  0.46999998093E+01 0. -1.
</event>
<event>
 5   0  0.6729577E-07  0.3608221E+04  0.7818609E-02  0.8088611E-01
        2   -1    0    0  501    0  0.00000000000E+00  0.00000000000E+00  0.16476906081E+04  0.16476906081E+04  0.25500000920E-02 0.  1.
       -2   -1    0    0    0  501  0.00000000000E+00  0.00000000000E+00 -0.19753792857E+04  0.19753792857E+04  0.25500000920E-02 0. -1.
    10030    2    1    2    0    0  0.00000000000E+00  0.00000000000E+00 -0.32768867754E+03  0.36230698938E+04  0.36082205568E+04 0.  0.
        3    1    3    3  502    0  0.34616337208E+02 -0.17552414070E+04  0.25348999404E+03  0.17737891292E+04  0.10100000352E+00 0. -1.
       -3    1    3    3    0  502 -0.34616337208E+02  0.17552414070E+04 -0.58117867158E+03  0.18492807646E+04  0.10100000352E+00 0.  1.
</event>
<event>
 5   0  0.6541476E-07  0.3672578E+04  0.7818609E-02  0.8074066E-01
       -2   -1    0    0    0  501  0.00000000000E+00  0.00000000000E+00  0.12665519426E+04  0.12665519426E+04  0.25500000920E-02 0.  1.
        2   -1    0    0  501    0  0.00000000000E+00  0.00000000000E+00 -0.26623122952E+04  0.26623122952E+04  0.25500000920E-02 0. -1.
    10030    2    1    2    0    0  0.00000000000E+00  0.00000000000E+00 -0.13957603526E+04  0.39288642379E+04  0.36725777375E+04 0.  0.
        4    1    3    3  502    0 -0.16792617977E+04 -0.69480856117E+03 -0.97945100572E+03  0.20644624016E+04  0.12699999809E+01 0. -1.
       -4    1    3    3    0  502  0.16792617977E+04  0.69480856117E+03 -0.41630934683E+03  0.18644018363E+04  0.12699999809E+01 0.  1.
</event>
<event>
 5   0  0.6324216E-07  0.3666691E+04  0.7818609E-02  0.8075384E-01
        2   -1    0    0  501    0  0.00000000000E+00  0.00000000000E+00  0.14356750752E+04  0.14356750753E+04  0.25500000920E-02 0.  1.
       -2   -1    0    0    0  501  0.00000000000E+00  0.00000000000E+00 -0.23411669520E+04  0.23411669520E+04  0.25500000920E-02 0. -1.
    10030    2    1    2    0    0  0.00000000000E+00  0.00000000000E+00 -0.90549187680E+03  0.37768420273E+04  0.36666906278E+04 0.  0.
        2    1    3    3  502    0 -0.10957267959E+04 -0.11992905530E+04 -0.13281233177E+04  0.20982913499E+04  0.25500000920E-02 0. -1.
       -2    1    3    3    0  502  0.10957267959E+04  0.11992905530E+04  0.42263144093E+03  0.16785506774E+04  0.25500000920E-02 0.  1.
</event>
<event>
 5   0  0.6324216E-07  0.3528174E+04  0.7818609E-02  0.8107145E-01
       -2   -1    0    0    0  501  0.00000000000E+00  0.00000000000E+00  0.16912522626E+04  0.16912522626E+04  0.25500000920E-02 0. -1.
        2   -1    0    0  501    0  0.00000000000E+00  0.00000000000E+00 -0.18400583739E+04  0.18400583739E+04  0.25500000920E-02 0.  1.
    10030    2    1    2    0    0  0.00000000000E+00  0.00000000000E+00 -0.14880611132E+03  0.35313106366E+04  0.35281739687E+04 0.  0.
        2    1    3    3  502    0 -0.76281201434E+03 -0.15752846348E+04  0.14624482994E+03  0.17563574238E+04  0.25500000920E-02 0. -1.
       -2    1    3    3    0  502  0.76281201434E+03  0.15752846348E+04 -0.29505094126E+03  0.17749532128E+04  0.25500000920E-02 0.  1.
</event>
<event>
 5   0  0.6324216E-07  0.3508868E+04  0.7818609E-02  0.8111692E-01
       -2   -1    0    0    0  501  0.00000000000E+00  0.00000000000E+00  0.14698586244E+04  0.14698586244E+04  0.25500000920E-02 0.  1.
        2   -1    0    0  501    0  0.00000000000E+00  0.00000000000E+00 -0.20941050024E+04  0.20941050024E+04  0.25500000920E-02 0. -1.
    10030    2    1    2    0    0  0.00000000000E+00  0.00000000000E+00 -0.62424637803E+03  0.35639636267E+04  0.35088677935E+04 0.  0.
        2    1    3    3  502    0 -0.48879167654E+03 -0.12963029492E+04 -0.14054637135E+04  0.19734859739E+04  0.25500000920E-02 0.  1.
       -2    1    3    3    0  502  0.48879167654E+03  0.12963029492E+04  0.78121733545E+03  0.15904776529E+04  0.25500000920E-02 0. -1.
</event>
<event>
 5   0  0.6729577E-07  0.3820466E+04  0.7818609E-02  0.8041777E-01
       -2   -1    0    0    0  501  0.00000000000E+00  0.00000000000E+00  0.14385764571E+04  0.14385764571E+04  0.25500000920E-02 0. -1.
        2   -1    0    0  501    0  0.00000000000E+00  0.00000000000E+00 -0.25365284416E+04  0.25365284416E+04  0.25500000920E-02 0.  1.
    10030    2    1    2    0    0  0.00000000000E+00  0.00000000000E+00 -0.10979519845E+04  0.39751048987E+04  0.38204659919E+04 0.  0.
        3    1    3    3  502    0 -0.51594650038E+03 -0.35756746456E+03 -0.24261451183E+04  0.25060397899E+04  0.10100000352E+00 0.  1.
       -3    1    3    3    0  502  0.51594650038E+03  0.35756746456E+03  0.13281931339E+04  0.14690651088E+04  0.10100000352E+00 0. -1.
</event>
<event>
 5   0  0.6541476E-07  0.3569284E+04  0.7818609E-02  0.8097564E-01
       -2   -1    0    0    0  501  0.00000000000E+00  0.00000000000E+00  0.13178073682E+04  0.13178073682E+04  0.25500000920E-02 0. -1.
        2   -1    0    0  501    0  0.00000000000E+00  0.00000000000E+00 -0.24168539285E+04  0.24168539286E+04  0.25500000920E-02 0.  1.
    10030    2    1    2    0    0  0.00000000000E+00  0.00000000000E+00 -0.10990465603E+04  0.37346612968E+04  0.35692844745E+04 0.  0.
        4    1    3    3  502    0  0.18606581691E+03  0.32822866875E+03 -0.23746452801E+04  0.24044326495E+04  0.12699999809E+01 0.  1.
       -4    1    3    3    0  502 -0.18606581691E+03 -0.32822866875E+03  0.12755987197E+04  0.13302286472E+04  0.12699999809E+01 0. -1.
</event>
<event>
 5   0  0.6848661E-07  0.3606626E+04  0.7818609E-02  0.8088976E-01
       -2   -1    0    0    0  501  0.00000000000E+00  0.00000000000E+00  0.13635087400E+04  0.13635087400E+04  0.25500000920E-02 0.  1.
        2   -1    0    0  501    0  0.00000000000E+00  0.00000000000E+00 -0.23849773104E+04  0.23849773104E+04  0.25500000920E-02 0. -1.
    10030    2    1    2    0    0  0.00000000000E+00  0.00000000000E+00 -0.10214685705E+04  0.37484860504E+04  0.36066257956E+04 0.  0.
        1    1    3    3  502    0  0.49987285772E+02  0.11172224797E+03  0.13591867509E+04  0.13646864890E+04  0.50400001928E-02 0.  1.
       -1    1    3    3    0  502 -0.49987285772E+02 -0.11172224797E+03 -0.23806553214E+04  0.23837995614E+04  0.50400001928E-02 0. -1.
</event>
<event>
 5   0  0.2193129E-07  0.3303000E+04  0.7818609E-02  0.8162132E-01
       -1   -1    0    0    0  501  0.00000000000E+00  0.00000000000E+00  0.18328172568E+04  0.18328172568E+04  0.50400001928E-02 0.  1.
        1   -1    0    0  501    0  0.00000000000E+00  0.00000000000E+00 -0.14881199772E+04  0.14881199772E+04  0.50400001928E-02 0. -1.
    10030    2    1    2    0    0  0.00000000000E+00  0.00000000000E+00  0.34469727958E+03  0.33209372341E+04  0.33029998332E+04 0.  0.
        1    1    3    3  502    0  0.12568640859E+04 -0.34212881934E+03  0.11930922661E+04  0.17664168859E+04  0.50400001928E-02 0.  1.
       -1    1    3    3    0  502 -0.12568640859E+04  0.34212881934E+03 -0.84839498649E+03  0.15545203481E+04  0.50400001928E-02 0. -1.
</event>
<event>
 5   0  0.2086250E-07  0.3616337E+04  0.7818609E-02  0.8086760E-01
        1   -1    0    0  501    0  0.00000000000E+00  0.00000000000E+00  0.23889225247E+04  0.23889225247E+04  0.50400001928E-02 0.  1.
       -1   -1    0    0    0  501  0.00000000000E+00  0.00000000000E+00 -0.13685972683E+04  0.13685972683E+04  0.50400001928E-02 0. -1.
    10030    2    1    2    0    0  0.00000000000E+00  0.00000000000E+00  0.10203252564E+04  0.37575197930E+04  0.36163367329E+04 0.  0.
        3    1    3    3  502    0 -0.26546586594E+03 -0.91213559812E+02  0.23661460520E+04  0.23827377508E+04  0.10100000352E+00 0.  1.
       -3    1    3    3    0  502  0.26546586594E+03  0.91213559812E+02 -0.13458207956E+04  0.13747820422E+04  0.10100000352E+00 0. -1.
</event>
<event>
 5   0  0.2193129E-07  0.3592589E+04  0.7818609E-02  0.8092191E-01
        1   -1    0    0  501    0  0.00000000000E+00  0.00000000000E+00  0.14906210632E+04  0.14906210632E+04  0.50400001928E-02 0. -1.
       -1   -1    0    0    0  501  0.00000000000E+00  0.00000000000E+00 -0.21646504956E+04  0.21646504956E+04  0.50400001928E-02 0.  1.
    10030    2    1    2    0    0  0.00000000000E+00  0.00000000000E+00 -0.67402943238E+03  0.36552715588E+04  0.35925888288E+04 0.  0.
        1    1    3    3  502    0  0.10420909263E+04 -0.12691939457E+04  0.40360540723E+03  0.16910659642E+04  0.50400001928E-02 0. -1.
       -1    1    3    3    0  502 -0.10420909263E+04  0.12691939457E+04 -0.10776348396E+04  0.19642055946E+04  0.50400001928E-02 0.  1.
</event>
<event>
 5   0  0.6541476E-07  0.3602462E+04  0.7818609E-02  0.8089928E-01
        2   -1    0    0  501    0  0.00000000000E+00  0.00000000000E+00  0.19710404806E+04  0.19710404806E+04  0.25500000920E-02 0. -1.
       -2   -1    0    0    0  501  0.00000000000E+00  0.00000000000E+00 -0.16460512341E+04  0.16460512341E+04  0.25500000920E-02 0.  1.
    10030    2    1    2    0    0  0.00000000000E+00  0.00000000000E+00  0.32498924653E+03  0.36170917147E+04  0.36024622777E+04 0.  0.
        4    1    3    3  502    0 -0.15441612906E+04 -0.85734876077E+03  0.51741421320E+03  0.18404347502E+04  0.12699999809E+01 0. -1.
       -4    1    3    3    0  502  0.15441612906E+04  0.85734876077E+03 -0.19242496667E+03  0.17766569645E+04  0.12699999809E+01 0.  1.
</event>
<event>
 5   0  0.6324216E-07  0.3570698E+04  0.7818609E-02  0.8097237E-01
        2   -1    0    0  501    0  0.00000000000E+00  0.00000000000E+00  0.23372199918E+04  0.23372199918E+04  0.25500000920E-02 0.  1.
       -2   -1    0    0    0  501  0.00000000000E+00  0.00000000000E+00 -0.13637876586E+04  0.13637876586E+04  0.25500000920E-02 0. -1.
    10030    2    1    2    0    0  0.00000000000E+00  0.00000000000E+00  0.97343233323E+03  0.37010076504E+04  0.35706984080E+04 0.  0.
        2    1    3    3  502    0 -0.81157405242E+03 -0.15038491563E+04  0.10225515647E+04  0.19914382817E+04  0.25500000920E-02 0. -1.
       -2    1    3    3    0  502  0.81157405242E+03  0.15038491563E+04 -0.49119231462E+02  0.17095693687E+04  0.25500000920E-02 0.  1.
</event>
<event>
 5   0  0.6324216E-07  0.3611671E+04  0.7818609E-02  0.8087824E-01
        2   -1    0    0  501    0  0.00000000000E+00  0.00000000000E+00  0.13628561835E+04  0.13628561835E+04  0.25500000920E-02 0.  1.
       -2   -1    0    0    0  501  0.00000000000E+00  0.00000000000E+00 -0.23927994129E+04  0.23927994129E+04  0.25500000920E-02 0. -1.
    10030    2    1    2    0    0  0.00000000000E+00  0.00000000000E+00 -0.10299432294E+04  0.37556555964E+04  0.36116707910E+04 0.  0.
        2    1    3    3  502    0 -0.16259225105E+04 -0.78525837010E+03 -0.54413903869E+03  0.18858266123E+04  0.25500000920E-02 0.  1.
       -2    1    3    3    0  502  0.16259225105E+04  0.78525837010E+03 -0.48580419073E+03  0.18698289841E+04  0.25500000920E-02 0. -1.
</event>
<event>
 5   0  0.6848661E-07  0.3601350E+04  0.7818609E-02  0.8090183E-01
        2   -1    0    0  501    0  0.00000000000E+00  0.00000000000E+00  0.17966269665E+04  0.17966269665E+04  0.25500000920E-02 0.  1.
       -2   -1    0    0    0  501  0.00000000000E+00  0.00000000000E+00 -0.18047320339E+04  0.18047320339E+04  0.25500000920E-02 0. -1.
    10030    2    1    2    0    0  0.00000000000E+00  0.00000000000E+00 -0.81050674398E+01  0.36013590004E+04  0.36013498799E+04 0.  0.
        1    1    3    3  502    0 -0.16631417324E+03 -0.73875862793E+03  0.16296607347E+04  0.17970027337E+04  0.50400001928E-02 0.  1.
       -1    1    3    3    0  502  0.16631417324E+03  0.73875862793E+03 -0.16377658021E+04  0.18043562667E+04  0.50400001928E-02 0. -1.
</event>
<event>
 5   0  0.6669864E-07  0.3591635E+04  0.7818609E-02  0.8092410E-01
       -2   -1    0    0    0  501  0.00000000000E+00  0.00000000000E+00  0.15528281300E+04  0.15528281300E+04  0.25500000920E-02 0. -1.
        2   -1    0    0  501    0  0.00000000000E+00  0.00000000000E+00 -0.20768302439E+04  0.20768302439E+04  0.25500000920E-02 0.  1.
    10030    2    1    2    0    0  0.00000000000E+00  0.00000000000E+00 -0.52400211388E+03  0.36296583740E+04  0.35916349615E+04 0.  0.
        5    1    3    3  502    0  0.47284095756E+03 -0.61761046860E+03  0.13737504644E+04  0.15786809971E+04  0.46999998093E+01 0. -1.
       -5    1    3    3    0  502 -0.47284095756E+03  0.61761046860E+03 -0.18977525783E+04  0.20509773769E+04  0.46999998093E+01 0.  1.
</event>
<event>
 5   0  0.2086250E-07  0.3601220E+04  0.7818609E-02  0.8090212E-01
       -1   -1    0    0    0  501  0.00000000000E+00  0.00000000000E+00  0.15323410785E+04  0.15323410785E+04  0.50400001928E-02 0.  1.
        1   -1    0    0  501    0  0.00000000000E+00  0.00000000000E+00 -0.21158452573E+04  0.21158452573E+04  0.50400001928E-02 0. -1.
    10030    2    1    2    0    0  0.00000000000E+00  0.00000000000E+00 -0.58350417886E+03  0.36481863358E+04  0.36012201285E+04 0.  0.
        2    1    3    3  502    0 -0.42893837859E+03  0.12346186235E+04  0.96291773288E+03  0.16234167174E+04  0.25500000920E-02 0.  1.
       -2    1    3    3    0  502  0.42893837859E+03 -0.12346186235E+04 -0.15464219117E+04  0.20247696183E+04  0.25500000920E-02 0. -1.
</event>
<event>
 5   0  0.2086250E-07  0.3555336E+04  0.7818609E-02  0.8100800E-01
       -1   -1    0    0    0  501  0.00000000000E+00  0.00000000000E+00  0.21387328193E+04  0.21387328193E+04  0.50400001928E-02 0. -1.
        1   -1    0    0  501    0  0.00000000000E+00  0.00000000000E+00 -0.14775586246E+04  0.14775586246E+04  0.50400001928E-02 0.  1.
    10030    2    1    2    0    0  0.00000000000E+00  0.00000000000E+00  0.66117419471E+03  0.36162914439E+04  0.35553357776E+04 0.  0.
        3    1    3    3  502    0  0.85968614312E+03 -0.99602257520E+03 -0.88530815081E+03  0.15858410283E+04  0.10100000352E+00 0.  1.
       -3    1    3    3    0  502 -0.85968614312E+03  0.99602257520E+03  0.15464823455E+04  0.20304504156E+04  0.10100000352E+00 0. -1.
</event>
<event>
 5   0  0.2193129E-07  0.3791363E+04  0.7818609E-02  0.8048011E-01
        1   -1    0    0  501    0  0.00000000000E+00  0.00000000000E+00  0.20797365416E+04  0.20797365416E+04  0.50400001928E-02 0. -1.
       -1   -1    0    0    0  501  0.00000000000E+00  0.00000000000E+00 -0.17279148986E+04  0.17279148986E+04  0.50400001928E-02 0.  1.
    10030    2    1    2    0    0  0.00000000000E+00  0.00000000000E+00  0.35182164297E+03  0.38076514402E+04  0.37913626866E+04 0.  0.
        1    1    3    3  502    0  0.86603891970E+03 -0.62353459619E+02  0.18682905261E+04  0.20601992269E+04  0.50400001928E-02 0. -1.
       -1    1    3    3    0  502 -0.86603891970E+03  0.62353459619E+02 -0.15164688831E+04  0.17474522133E+04  0.50400001928E-02 0.  1.
</event>
<event>
 5   0  0.2086250E-07  0.3410464E+04  0.7818609E-02  0.8135343E-01
       -1   -1    0    0    0  501  0.00000000000E+00  0.00000000000E+00  0.14685632333E+04  0.14685632333E+04  0.50400001928E-02 0. -1.
        1   -1    0    0  501    0  0.00000000000E+00  0.00000000000E+00 -0.19800417103E+04  0.19800417103E+04  0.50400001928E-02 0.  1.
    10030    2    1    2    0    0  0.00000000000E+00  0.00000000000E+00 -0.51147847703E+03  0.34486049436E+04  0.34104641655E+04 0.  0.
        2    1    3    3  502    0  0.13344149959E+04 -0.55396216761E+03  0.66008208282E+03  0.15884727950E+04  0.25500000920E-02 0. -1.
       -2    1    3    3    0  502 -0.13344149959E+04  0.55396216761E+03 -0.11715605599E+04  0.18601321485E+04  0.25500000920E-02 0.  1.
</event>
<event>
 5   0  0.6729577E-07  0.3614097E+04  0.7818609E-02  0.8087270E-01
        2   -1    0    0  501    0  0.00000000000E+00  0.00000000000E+00  0.15503412390E+04  0.15503412390E+04  0.25500000920E-02 0. -1.
       -2   -1    0    0    0  501  0.00000000000E+00  0.00000000000E+00 -0.21062612688E+04  0.21062612688E+04  0.25500000920E-02 0.  1.
    10030    2    1    2    0    0  0.00000000000E+00  0.00000000000E+00 -0.55592002974E+03  0.36566025078E+04  0.36140966812E+04 0.  0.
        3    1    3    3  502    0 -0.10386348630E+04  0.26771455027E+03 -0.17493648198E+04  0.20520016428E+04  0.10100000352E+00 0.  1.
       -3    1    3    3    0  502  0.10386348630E+04 -0.26771455027E+03  0.11934447901E+04  0.16046008650E+04  0.10100000352E+00 0. -1.
</event>
<event>
 5   0  0.2086250E-07  0.3596327E+04  0.7818609E-02  0.8091333E-01
       -1   -1    0    0    0  501  0.00000000000E+00  0.00000000000E+00  0.16168781573E+04  0.16168781573E+04  0.50400001928E-02 0. -1.
        1   -1    0    0  501    0  0.00000000000E+00  0.00000000000E+00 -0.19997751173E+04  0.19997751173E+04  0.50400001928E-02 0.  1.
    10030    2    1    2    0    0  0.00000000000E+00  0.00000000000E+00 -0.38289696000E+03  0.36166532746E+04  0.35963274082E+04 0.  0.
        2    1    3    3  502    0  0.41920386358E+02  0.10728946380E+03 -0.19960610352E+04  0.19993819055E+04  0.25500000920E-02 0.  1.
       -2    1    3    3    0  502 -0.41920386358E+02 -0.10728946380E+03  0.16131640752E+04  0.16172713691E+04  0.25500000920E-02 0. -1.
</event>
<event>
 5   0  0.6669864E-07  0.3622684E+04  0.7818609E-02  0.8085315E-01
        2   -1    0    0  501    0  0.00000000000E+00  0.00000000000E+00  0.16278193283E+04  0.16278193283E+04  0.25500000920E-02 0.  1.
       -2   -1    0    0    0  501  0.00000000000E+00  0.00000000000E+00 -0.20155556128E+04  0.20155556128E+04  0.25500000920E-02 0. -1.
    10030    2    1    2    0    0  0.00000000000E+00  0.00000000000E+00 -0.38773628449E+03  0.36433749411E+04  0.36226842997E+04 0.  0.
        5    1    3    3  502    0 -0.12346589276E+04  0.52240907838E+03 -0.14188743404E+04  0.19520554287E+04  0.46999998093E+01 0. -1.
       -5    1    3    3    0  502  0.12346589276E+04 -0.52240907838E+03  0.10311380560E+04  0.16913195124E+04  0.46999998093E+01 0.  1.
</event>
<event>
 5   0  0.6541476E-07  0.3573102E+04  0.7818609E-02  0.8096681E-01
        2   -1    0    0  501    0  0.00000000000E+00  0.00000000000E+00  0.14172666304E+04  0.14172666304E+04  0.25500000920E-02 0.  1.
       -2   -1    0    0    0  501  0.00000000000E+00  0.00000000000E+00 -0.22520559850E+04  0.22520559850E+04  0.25500000920E-02 0. -1.
    10030    2    1    2    0    0  0.00000000000E+00  0.00000000000E+00 -0.83478935456E+03  0.36693226155E+04  0.35731016204E+04 0.  0.
        4    1    3    3  502    0  0.80881001391E+01  0.15815477025E+04 -0.12706756539E+04  0.20287870226E+04  0.12699999809E+01 0. -1.
       -4    1    3    3    0  502 -0.80881001391E+01 -0.15815477025E+04  0.43588629930E+03  0.16405355929E+04  0.12699999809E+01 0.  1.
</event>
<event>
 5   0  0.2108068E-07  0.3554722E+04  0.7818609E-02  0.8100943E-01
       -1   -1    0    0    0  501  0.00000000000E+00  0.00000000000E+00  0.30573499171E+04  0.30573499171E+04  0.50400001928E-02 0.  1.
        1   -1    0    0  501    0  0.00000000000E+00  0.00000000000E+00 -0.10332514870E+04  0.10332514871E+04  0.50400001928E-02 0. -1.
    10030    2    1    2    0    0  0.00000000000E+00  0.00000000000E+00  0.20240984301E+04  0.40906014042E+04  0.35547215634E+04 0.  0.
        5    1    3    3  502    0  0.12808352049E+04  0.11769968876E+04  0.14319218034E+04  0.22530607263E+04  0.46999998093E+01 0.  1.
       -5    1    3    3    0  502 -0.12808352049E+04 -0.11769968876E+04  0.59217662666E+03  0.18375406778E+04  0.46999998093E+01 0. -1.
</event>
<event>
 5   0  0.2086250E-07  0.3606026E+04  0.7818609E-02  0.8089113E-01
       -1   -1    0    0    0  501  0.00000000000E+00  0.00000000000E+00  0.15169389490E+04  0.15169389490E+04  0.50400001928E-02 0.  1.
        1   -1    0    0  501    0  0.00000000000E+00  0.00000000000E+00 -0.21430372160E+04  0.21430372160E+04  0.50400001928E-02 0. -1.
    10030    2    1    2    0    0  0.00000000000E+00  0.00000000000E+00 -0.62609826699E+03  0.36599761650E+04  0.36060264126E+04 0.  0.
        3    1    3    3  502    0  0.15076180079E+04  0.60424610121E+03 -0.11075964930E+04  0.19659082914E+04  0.10100000352E+00 0. -1.
       -3    1    3    3    0  502 -0.15076180079E+04 -0.60424610121E+03  0.48149822604E+03  0.16940678736E+04  0.10100000352E+00 0.  1.
</event>
<event>
 5   0  0.2193129E-07  0.3587298E+04  0.7818609E-02  0.8093408E-01
        1   -1    0    0  501    0  0.00000000000E+00  0.00000000000E+00  0.16482322035E+04  0.16482322035E+04  0.50400001928E-02 0.  1.
       -1   -1    0    0    0  501  0.00000000000E+00  0.00000000000E+00 -0.19518950039E+04  0.19518950039E+04  0.50400001928E-02 0. -1.
    10030    2    1    2    0    0  0.00000000000E+00  0.00000000000E+00 -0.30366280040E+03  0.36001272073E+04  0.35872977034E+04 0.  0.
        1    1    3    3  502    0  0.63207330405E+02  0.62155759355E+03 -0.18391674823E+04  0.19423866857E+04  0.50400001928E-02 0. -1.
       -1    1    3    3    0  502 -0.63207330405E+02 -0.62155759355E+03  0.15355046819E+04  0.16577405216E+04  0.50400001928E-02 0.  1.
</event>
<event>
 5   0  0.2108068E-07  0.3590009E+04  0.7818609E-02  0.8092784E-01
       -1   -1    0    0    0  501  0.00000000000E+00  0.00000000000E+00  0.25490877392E+04  0.25490877392E+04  0.50400001928E-02 0. -1.
        1   -1    0    0  501    0  0.00000000000E+00  0.00000000000E+00 -0.12639975382E+04  0.12639975383E+04  0.50400001928E-02 0.  1.
    10030    2    1    2    0    0  0.00000000000E+00  0.00000000000E+00  0.12850902010E+04  0.38130852775E+04  0.35900087059E+04 0.  0.
        5    1    3    3  502    0  0.80747190831E+03  0.12325979847E+04 -0.44619049160E+03  0.15396157701E+04  0.46999998093E+01 0.  1.
       -5    1    3    3    0  502 -0.80747190831E+03 -0.12325979847E+04  0.17312806926E+04  0.22734695074E+04  0.46999998093E+01 0. -1.
</event>
<event>
 5   0  0.6324216E-07  0.3602334E+04  0.7818609E-02  0.8089957E-01
        2   -1    0    0  501    0  0.00000000000E+00  0.00000000000E+00  0.19245195805E+04  0.19245195805E+04  0.25500000920E-02 0.  1.
       -2   -1    0    0    0  501  0.00000000000E+00  0.00000000000E+00 -0.16857205376E+04  0.16857205376E+04  0.25500000920E-02 0. -1.
    10030    2    1    2    0    0  0.00000000000E+00  0.00000000000E+00  0.23879904293E+03  0.36102401181E+04  0.36023337891E+04 0.  0.
        2    1    3    3  502    0  0.42200048517E+03 -0.15676685156E+04  0.90119701556E+03  0.18568319916E+04  0.25500000920E-02 0.  1.
       -2    1    3    3    0  502 -0.42200048517E+03  0.15676685156E+04 -0.66239797263E+03  0.17534081266E+04  0.25500000920E-02 0. -1.
</event>
<event>
 5   0  0.2086250E-07  0.3535914E+04  0.7818609E-02  0.8105331E-01
       -1   -1    0    0    0  501  0.00000000000E+00  0.00000000000E+00  0.20532939074E+04  0.20532939074E+04  0.50400001928E-02 0.  1.
        1   -1    0    0  501    0  0.00000000000E+00  0.00000000000E+00 -0.15222724491E+04  0.15222724491E+04  0.50400001928E-02 0. -1.
    10030    2    1    2    0    0  0.00000000000E+00  0.00000000000E+00  0.53102145838E+03  0.35755663565E+04  0.35359144476E+04 0.  0.
        2    1    3    3  502    0 -0.92251662833E+02 -0.15562893823E+04  0.11086023579E+04  0.19129940404E+04  0.25500000920E-02 0.  1.
       -2    1    3    3    0  502  0.92251662833E+02  0.15562893823E+04 -0.57758089951E+03  0.16625723161E+04  0.25500000920E-02 0. -1.
</event>
<event>
 5   0  0.6669864E-07  0.3583562E+04  0.7818609E-02  0.8094267E-01
       -2   -1    0    0    0  501  0.00000000000E+00  0.00000000000E+00  0.16809807990E+04  0.16809807990E+04  0.25500000920E-02 0.  1.
        2   -1    0    0  501    0  0.00000000000E+00  0.00000000000E+00 -0.19098848916E+04  0.19098848916E+04  0.25500000920E-02 0. -1.
    10030    2    1    2    0    0  0.00000000000E+00  0.00000000000E+00 -0.22890409262E+03  0.35908656906E+04  0.35835623790E+04 0.  0.
        5    1    3    3  502    0 -0.11602630069E+04 -0.74262336500E+03 -0.12625436351E+04  0.18686193373E+04  0.46999998093E+01 0. -1.
       -5    1    3    3    0  502  0.11602630069E+04  0.74262336500E+03  0.10336395425E+04  0.17222463532E+04  0.46999998093E+01 0.  1.
</event>
<event>
 5   0  0.2086250E-07  0.3609559E+04  0.7818609E-02  0.8088306E-01
       -1   -1    0    0    0  501  0.00000000000E+00  0.00000000000E+00  0.18941584970E+04  0.18941584970E+04  0.50400001928E-02 0.  1.
        1   -1    0    0  501    0  0.00000000000E+00  0.00000000000E+00 -0.17196175990E+04  0.17196175990E+04  0.50400001928E-02 0. -1.
    10030    2    1    2    0    0  0.00000000000E+00  0.00000000000E+00  0.17454089798E+03  0.36137760960E+04  0.36095585806E+04 0.  0.
        3    1    3    3  502    0 -0.62510503075E+03 -0.10513377902E+04  0.14159084048E+04  0.18710596114E+04  0.10100000352E+00 0.  1.
       -3    1    3    3    0  502  0.62510503075E+03  0.10513377902E+04 -0.12413675068E+04  0.17427164846E+04  0.10100000352E+00 0. -1.
</event>
<event>
 5   0  0.6729577E-07  0.3602767E+04  0.7818609E-02  0.8089858E-01
       -2   -1    0    0    0  501  0.00000000000E+00  0.00000000000E+00  0.18853331858E+04  0.18853331858E+04  0.25500000920E-02 0.  1.
        2   -1    0    0  501    0  0.00000000000E+00  0.00000000000E+00 -0.17211719667E+04  0.17211719667E+04  0.25500000920E-02 0. -1.
    10030    2    1    2    0    0  0.00000000000E+00  0.00000000000E+00  0.16416121905E+03  0.36065051525E+04  0.36027670628E+04 0.  0.
        3    1    3    3  502    0  0.56886509879E+03  0.97874571880E+03 -0.13205984014E+04  0.17394053095E+04  0.10100000352E+00 0. -1.
       -3    1    3    3    0  502 -0.56886509879E+03 -0.97874571880E+03  0.14847596205E+04  0.18670998430E+04  0.10100000352E+00 0.  1.
</event>
<event>
 5   0  0.6669864E-07  0.3210021E+04  0.7818609E-02  0.8186176E-01
        2   -1    0    0  501    0  0.00000000000E+00  0.00000000000E+00  0.10531182097E+04  0.10531182097E+04  0.25500000920E-02 0.  1.
       -2   -1    0    0    0  501  0.00000000000E+00  0.00000000000E+00 -0.24461253680E+04  0.24461253680E+04  0.25500000920E-02 0. -1.
    10030    2    1    2    0    0  0.00000000000E+00  0.00000000000E+00 -0.13930071583E+04  0.34992435778E+04  0.32100212886E+04 0.  0.
        5    1    3    3  502    0  0.23765102885E+03 -0.31356461384E+03  0.99972684952E+03  0.10743726738E+04  0.46999998093E+01 0.  1.
       -5    1    3    3    0  502 -0.23765102885E+03  0.31356461384E+03 -0.23927340078E+04  0.24248709040E+04  0.46999998093E+01 0. -1.
</event>
<event>
 5   0  0.6669864E-07  0.3603935E+04  0.7818609E-02  0.8089591E-01
        2   -1    0    0  501    0  0.00000000000E+00  0.00000000000E+00  0.26498813563E+04  0.26498813563E+04  0.25500000920E-02 0. -1.
       -2   -1    0    0    0  501  0.00000000000E+00  0.00000000000E+00 -0.12253709048E+04  0.12253709048E+04  0.25500000920E-02 0.  1.
    10030    2    1    2    0    0  0.00000000000E+00  0.00000000000E+00  0.14245104515E+04  0.38752522611E+04  0.36039353574E+04 0.  0.
        5    1    3    3  502    0  0.17478937254E+03  0.72026735942E+03 -0.10538726632E+04  0.12884122299E+04  0.46999998093E+01 0.  1.
       -5    1    3    3    0  502 -0.17478937254E+03 -0.72026735942E+03  0.24783831147E+04  0.25868400312E+04  0.46999998093E+01 0. -1.
</event>
<event>
 5   0  0.6729577E-07  0.3566472E+04  0.7818609E-02  0.8098215E-01
       -2   -1    0    0    0  501  0.00000000000E+00  0.00000000000E+00  0.13394425936E+04  0.13394425936E+04  0.25500000920E-02 0. -1.
        2   -1    0    0  501    0  0.00000000000E+00  0.00000000000E+00 -0.23740707495E+04  0.23740707495E+04  0.25500000920E-02 0.  1.
    10030    2    1    2    0    0  0.00000000000E+00  0.00000000000E+00 -0.10346281559E+04  0.37135133432E+04  0.35664724770E+04 0.  0.
        3    1    3    3  502    0  0.39720184318E+03  0.43451602085E+02  0.12922305275E+04  0.13525964263E+04  0.10100000352E+00 0. -1.
       -3    1    3    3    0  502 -0.39720184318E+03 -0.43451602085E+02 -0.23268586834E+04  0.23609169169E+04  0.10100000352E+00 0.  1.
</event>
<event>
 5   0  0.2193129E-07  0.3588642E+04  0.7818609E-02  0.8093098E-01
       -1   -1    0    0    0  501  0.00000000000E+00  0.00000000000E+00  0.12400221432E+04  0.12400221432E+04  0.50400001928E-02 0. -1.
        1   -1    0    0  501    0  0.00000000000E+00  0.00000000000E+00 -0.25963948302E+04  0.25963948302E+04  0.50400001928E-02 0.  1.
    10030    2    1    2    0    0  0.00000000000E+00  0.00000000000E+00 -0.13563726870E+04  0.38364169734E+04  0.35886415714E+04 0.  0.
        1    1    3    3  502    0 -0.97994793102E+02  0.18711541761E+03  0.12266850707E+04  0.12447374911E+04  0.50400001928E-02 0. -1.
       -1    1    3    3    0  502  0.97994793102E+02 -0.18711541761E+03 -0.25830577578E+04  0.25916794823E+04  0.50400001928E-02 0.  1.
</event>
<event>
 5   0  0.2086250E-07  0.3177636E+04  0.7818609E-02  0.8194749E-01
        1   -1    0    0  501    0  0.00000000000E+00  0.00000000000E+00  0.28268998659E+04  0.28268998659E+04  0.50400001928E-02 0. -1.
       -1   -1    0    0    0  501  0.00000000000E+00  0.00000000000E+00 -0.89297197809E+03  0.89297197811E+03  0.50400001928E-02 0.  1.
    10030    2    1    2    0    0  0.00000000000E+00  0.00000000000E+00  0.19339278878E+04  0.37198718440E+04  0.31776358288E+04 0.  0.
        4    1    3    3  502    0 -0.98829468835E+02  0.45338771856E+03  0.27458046105E+04  0.27847391726E+04  0.12699999809E+01 0. -1.
       -4    1    3    3    0  502  0.98829468835E+02 -0.45338771856E+03 -0.81187672276E+03  0.93513267139E+03  0.12699999809E+01 0.  1.
</event>
<event>
 5   0  0.2108068E-07  0.3193574E+04  0.7818609E-02  0.8190516E-01
       -1   -1    0    0    0  501  0.00000000000E+00  0.00000000000E+00  0.15247319901E+04  0.15247319901E+04  0.50400001928E-02 0.  1.
        1   -1    0    0  501    0  0.00000000000E+00  0.00000000000E+00 -0.16722473644E+04  0.16722473644E+04  0.50400001928E-02 0. -1.
    10030    2    1    2    0    0  0.00000000000E+00  0.00000000000E+00 -0.14751537423E+03  0.31969793545E+04  0.31935742057E+04 0.  0.
        5    1    3    3  502    0  0.13978689131E+04 -0.77171179736E+03 -0.62327739072E+02  0.15979622753E+04  0.46999998093E+01 0.  1.
       -5    1    3    3    0  502 -0.13978689131E+04  0.77171179736E+03 -0.85187635158E+02  0.15990170792E+04  0.46999998093E+01 0. -1.
</event>
<event>
 5   0  0.6324216E-07  0.3546924E+04  0.7818609E-02  0.8102759E-01
        2   -1    0    0  501    0  0.00000000000E+00  0.00000000000E+00  0.15236993472E+04  0.15236993472E+04  0.25500000920E-02 0.  1.
       -2   -1    0    0    0  501  0.00000000000E+00  0.00000000000E+00 -0.20641648142E+04  0.20641648142E+04  0.25500000920E-02 0. -1.
    10030    2    1    2    0    0  0.00000000000E+00  0.00000000000E+00 -0.54046546696E+03  0.35878641614E+04  0.35469235007E+04 0.  0.
        2    1    3    3  502    0  0.35240087697E+02 -0.12037395041E+04 -0.15871570365E+04  0.19923097440E+04  0.25500000920E-02 0. -1.
       -2    1    3    3    0  502 -0.35240087697E+02  0.12037395041E+04  0.10466915695E+04  0.15955544175E+04  0.25500000920E-02 0.  1.
</event>
<event>
 5   0  0.2086250E-07  0.3560082E+04  0.7818609E-02  0.8099697E-01
        1   -1    0    0  501    0  0.00000000000E+00  0.00000000000E+00  0.18315897630E+04  0.18315897631E+04  0.50400001928E-02 0. -1.
       -1   -1    0    0    0  501  0.00000000000E+00  0.00000000000E+00 -0.17299434711E+04  0.17299434711E+04  0.50400001928E-02 0.  1.
    10030    2    1    2    0    0  0.00000000000E+00  0.00000000000E+00  0.10164629195E+03  0.35615332342E+04  0.35600824442E+04 0.  0.
        3    1    3    3  502    0  0.10466325035E+04 -0.37983096842E+03  0.14402143661E+04  0.18204198946E+04  0.10100000352E+00 0. -1.
       -3    1    3    3    0  502 -0.10466325035E+04  0.37983096842E+03 -0.13385680742E+04  0.17411133396E+04  0.10100000352E+00 0.  1.
</event>
<event>
 5   0  0.2086250E-07  0.3621139E+04  0.7818609E-02  0.8085667E-01
       -1   -1    0    0    0  501  0.00000000000E+00  0.00000000000E+00  0.14882273747E+04  0.14882273747E+04  0.50400001928E-02 0. -1.
        1   -1    0    0  501    0  0.00000000000E+00  0.00000000000E+00 -0.22027293427E+04  0.22027293427E+04  0.50400001928E-02 0.  1.
    10030    2    1    2    0    0  0.00000000000E+00  0.00000000000E+00 -0.71450196800E+03  0.36909567173E+04  0.36211391063E+04 0.  0.
        4    1    3    3  502    0 -0.15593831394E+04 -0.69052264618E+03  0.26247092397E+03  0.17255114892E+04  0.12699999809E+01 0. -1.
       -4    1    3    3    0  502  0.15593831394E+04  0.69052264618E+03 -0.97697289197E+03  0.19654452282E+04  0.12699999809E+01 0.  1.
</event>
<event>
 5   0  0.6541476E-07  0.3611679E+04  0.7818609E-02  0.8087822E-01
       -2   -1    0    0    0  501  0.00000000000E+00  0.00000000000E+00  0.18527096155E+04  0.18527096155E+04  0.25500000920E-02 0. -1.
        2   -1    0    0  501    0  0.00000000000E+00  0.00000000000E+00 -0.17601546994E+04  0.17601546994E+04  0.25500000920E-02 0.  1.
    10030    2    1    2    0    0  0.00000000000E+00  0.00000000000E+00  0.92554916112E+02  0.36128643149E+04  0.36116785773E+04 0.  0.
        4    1    3    3  502    0 -0.16121061370E+04 -0.80378654130E+03 -0.80629959103E+02  0.18031810237E+04  0.12699999809E+01 0.  1.
       -4    1    3    3    0  502  0.16121061370E+04  0.80378654130E+03  0.17318487521E+03  0.18096832913E+04  0.12699999809E+01 0. -1.
</event>
<event>
 5   0  0.2086250E-07  0.3552211E+04  0.7818609E-02  0.8101527E-01
        1   -1    0    0  501    0  0.00000000000E+00  0.00000000000E+00  0.15815445887E+04  0.15815445887E+04  0.50400001928E-02 0. -1.
       -1   -1    0    0    0  501  0.00000000000E+00  0.00000000000E+00 -0.19946008879E+04  0.19946008879E+04  0.50400001928E-02 0.  1.
    10030    2    1    2    0    0  0.00000000000E+00  0.00000000000E+00 -0.41305629913E+03  0.35761454766E+04  0.35522107150E+04 0.  0.
        4    1    3    3  502    0 -0.11235189028E+04 -0.12304194563E+04 -0.82575129100E+03  0.18595950018E+04  0.12699999809E+01 0.  1.
       -4    1    3    3    0  502  0.11235189028E+04  0.12304194563E+04  0.41269499187E+03  0.17165504748E+04  0.12699999809E+01 0. -1.
</event>
<event>
 5   0  0.2086250E-07  0.3617063E+04  0.7818609E-02  0.8086594E-01
        1   -1    0    0  501    0  0.00000000000E+00  0.00000000000E+00  0.25903792501E+04  0.25903792501E+04  0.50400001928E-02 0. -1.
       -1   -1    0    0    0  501  0.00000000000E+00  0.00000000000E+00 -0.12626666789E+04  0.12626666789E+04  0.50400001928E-02 0.  1.
    10030    2    1    2    0    0  0.00000000000E+00  0.00000000000E+00  0.13277125712E+04  0.38530459289E+04  0.36170626562E+04 0.  0.
        4    1    3    3  502    0 -0.11191401451E+04  0.35917924846E+03 -0.80033751998E+03  0.14219796608E+04  0.12699999809E+01 0.  1.
       -4    1    3    3    0  502  0.11191401451E+04 -0.35917924846E+03  0.21280500912E+04  0.24310662682E+04  0.12699999809E+01 0. -1.
</event>
<event>
 5   0  0.2193129E-07  0.3588006E+04  0.7818609E-02  0.8093245E-01
       -1   -1    0    0    0  501  0.00000000000E+00  0.00000000000E+00  0.28852314001E+04  0.28852314001E+04  0.50400001928E-02 0. -1.
        1   -1    0    0  501    0  0.00000000000E+00  0.00000000000E+00 -0.11154897855E+04  0.11154897855E+04  0.50400001928E-02 0.  1.
    10030    2    1    2    0    0  0.00000000000E+00  0.00000000000E+00  0.17697416146E+04  0.40007211855E+04  0.35880056608E+04 0.  0.
        1    1    3    3  502    0  0.79162369393E+03 -0.25069112702E+03 -0.88831295607E+03  0.12159827392E+04  0.50400001928E-02 0.  1.
       -1    1    3    3    0  502 -0.79162369393E+03  0.25069112702E+03  0.26580545707E+04  0.27847384464E+04  0.50400001928E-02 0. -1.
</event>
<event>
 5   0  0.6848661E-07  0.3567087E+04  0.7818609E-02  0.8098073E-01
        2   -1    0    0  501    0  0.00000000000E+00  0.00000000000E+00  0.16535688089E+04  0.16535688089E+04  0.25500000920E-02 0.  1.
       -2   -1    0    0    0  501  0.00000000000E+00  0.00000000000E+00 -0.19237348088E+04  0.19237348088E+04  0.25500000920E-02 0. -1.
    10030    2    1    2    0    0  0.00000000000E+00  0.00000000000E+00 -0.27016599989E+03  0.35773036178E+04  0.35670872580E+04 0.  0.
        1    1    3    3  502    0 -0.13242464271E+04  0.82439698380E+03 -0.10022959709E+04  0.18541456793E+04  0.50400001928E-02 0. -1.
       -1    1    3    3    0  502  0.13242464271E+04 -0.82439698380E+03  0.73212997098E+03  0.17231579385E+04  0.50400001928E-02 0.  1.
</event>
<event>
 5   0  0.2086250E-07  0.3422687E+04  0.7818609E-02  0.8132361E-01
        1   -1    0    0  501    0  0.00000000000E+00  0.00000000000E+00  0.18115943471E+04  0.18115943471E+04  0.50400001928E-02 0. -1.
       -1   -1    0    0    0  501  0.00000000000E+00  0.00000000000E+00 -0.16166401549E+04  0.16166401549E+04  0.50400001928E-02 0.  1.
    10030    2    1    2    0    0  0.00000000000E+00  0.00000000000E+00  0.19495419218E+03  0.34282345021E+04  0.34226867610E+04 0.  0.
        3    1    3    3  502    0  0.85172596278E+03 -0.14308299737E+04  0.49306614907E+03  0.17366133038E+04  0.10100000352E+00 0. -1.
       -3    1    3    3    0  502 -0.85172596278E+03  0.14308299737E+04 -0.29811195690E+03  0.16916211983E+04  0.10100000352E+00 0.  1.
</event>
<event>
 5   0  0.6324216E-07  0.3591914E+04  0.7818609E-02  0.8092346E-01
        2   -1    0    0  501    0  0.00000000000E+00  0.00000000000E+00  0.22693079846E+04  0.22693079846E+04  0.25500000920E-02 0.  1.
       -2   -1    0    0    0  501  0.00000000000E+00  0.00000000000E+00 -0.14213418493E+04  0.14213418493E+04  0.25500000920E-02 0. -1.
    10030    2    1    2    0    0  0.00000000000E+00  0.00000000000E+00  0.84796613531E+03  0.36906498340E+04  0.35919144798E+04 0.  0.
        2    1    3    3  502    0 -0.16707660431E+04 -0.64785311309E+03  0.30115811785E+03  0.18171045757E+04  0.25500000920E-02 0.  1.
       -2    1    3    3    0  502  0.16707660431E+04  0.64785311309E+03  0.54680801745E+03  0.18735452583E+04  0.25500000920E-02 0. -1.
</event>
<event>
 5   0  0.6729577E-07  0.3315919E+04  0.7818609E-02  0.8158857E-01
       -2   -1    0    0    0  501  0.00000000000E+00  0.00000000000E+00  0.10894565856E+04  0.10894565856E+04  0.25500000920E-02 0.  1.
        2   -1    0    0  501    0  0.00000000000E+00  0.00000000000E+00 -0.25231202510E+04  0.25231202510E+04  0.25500000920E-02 0. -1.
    10030    2    1    2    0    0  0.00000000000E+00  0.00000000000E+00 -0.14336636654E+04  0.36125768366E+04  0.33159191629E+04 0.  0.
        3    1    3    3  502    0 -0.24596847556E+03 -0.70439691402E+03 -0.23298851927E+04  0.24464342469E+04  0.10100000352E+00 0. -1.
       -3    1    3    3    0  502  0.24596847556E+03  0.70439691402E+03  0.89622152721E+03  0.11661425897E+04  0.10100000352E+00 0.  1.
</event>
<event>
 5   0  0.2108068E-07  0.3614632E+04  0.7818609E-02  0.8087148E-01
        1   -1    0    0  501    0  0.00000000000E+00  0.00000000000E+00  0.27146105473E+04  0.27146105473E+04  0.50400001928E-02 0. -1.
       -1   -1    0    0    0  501  0.00000000000E+00  0.00000000000E+00 -0.12032634448E+04  0.12032634448E+04  0.50400001928E-02 0.  1.
    10030    2    1    2    0    0  0.00000000000E+00  0.00000000000E+00  0.15113471025E+04  0.39178739921E+04  0.36146322848E+04 0.  0.
        5    1    3    3  502    0  0.94732748576E+03 -0.26572268952E+03 -0.88753500710E+03  0.13250578824E+04  0.46999998093E+01 0.  1.
       -5    1    3    3    0  502 -0.94732748576E+03  0.26572268952E+03  0.23988821096E+04  0.25928161097E+04  0.46999998093E+01 0. -1.
</event>
<event>
 5   0  0.6541476E-07  0.3640587E+04  0.7818609E-02  0.8081258E-01
        2   -1    0    0  501    0  0.00000000000E+00  0.00000000000E+00  0.21319898961E+04  0.21319898961E+04  0.25500000920E-02 0.  1.
       -2   -1    0    0    0  501  0.00000000000E+00  0.00000000000E+00 -0.15541667832E+04  0.15541667832E+04  0.25500000920E-02 0. -1.
    10030    2    1    2    0    0  0.00000000000E+00  0.00000000000E+00  0.57782311293E+03  0.36861566793E+04  0.36405866992E+04 0.  0.
        4    1    3    3  502    0 -0.78916447805E+03  0.98970749345E+03 -0.10355773584E+04  0.16354582154E+04  0.12699999809E+01 0. -1.
       -4    1    3    3    0  502  0.78916447805E+03 -0.98970749345E+03  0.16134004714E+04  0.20506984639E+04  0.12699999809E+01 0.  1.
</event>
<event>
 5   0  0.6541476E-07  0.3629795E+04  0.7818609E-02  0.8083701E-01
        2   -1    0    0  501    0  0.00000000000E+00  0.00000000000E+00  0.23552202167E+04  0.23552202167E+04  0.25500000920E-02 0. -1.
       -2   -1    0    0    0  501  0.00000000000E+00  0.00000000000E+00 -0.13985329424E+04  0.13985329424E+04  0.25500000920E-02 0.  1.
    10030    2    1    2    0    0  0.00000000000E+00  0.00000000000E+00  0.95668727435E+03  0.37537531591E+04  0.36297950684E+04 0.  0.
        4    1    3    3  502    0  0.39855317554E+03  0.15902435405E+04 -0.32678878615E+03  0.16716792981E+04  0.12699999809E+01 0.  1.
       -4    1    3    3    0  502 -0.39855317554E+03 -0.15902435405E+04  0.12834760605E+04  0.20820738610E+04  0.12699999809E+01 0. -1.
</event>
<event>
 5   0  0.6324216E-07  0.3602091E+04  0.7818609E-02  0.8090013E-01
        2   -1    0    0  501    0  0.00000000000E+00  0.00000000000E+00  0.18158329347E+04  0.18158329347E+04  0.25500000920E-02 0. -1.
       -2   -1    0    0    0  501  0.00000000000E+00  0.00000000000E+00 -0.17863786770E+04  0.17863786770E+04  0.25500000920E-02 0.  1.
    10030    2    1    2    0    0  0.00000000000E+00  0.00000000000E+00  0.29454257770E+02  0.36022116117E+04  0.36020911902E+04 0.  0.
        2    1    3    3  502    0  0.57437980238E+02  0.17937030449E+04  0.16670424802E+03  0.18023484794E+04  0.25500000920E-02 0. -1.
       -2    1    3    3    0  502 -0.57437980238E+02 -0.17937030449E+04 -0.13724999025E+03  0.17998631323E+04  0.25500000920E-02 0.  1.
</event>
<event>
 5   0  0.2108068E-07  0.3019935E+04  0.7818609E-02  0.8238061E-01
        1   -1    0    0  501    0  0.00000000000E+00  0.00000000000E+00  0.13354033261E+04  0.13354033261E+04  0.50400001928E-02 0. -1.
       -1   -1    0    0    0  501  0.00000000000E+00  0.00000000000E+00 -0.17073506281E+04  0.17073506281E+04  0.50400001928E-02 0.  1.
    10030    2    1    2    0    0  0.00000000000E+00  0.00000000000E+00 -0.37194730194E+03  0.30427539542E+04  0.30199349050E+04 0.  0.
        5    1    3    3  502    0 -0.10449006596E+04 -0.75691657700E+03  0.60432523113E+03  0.14247705668E+04  0.46999998093E+01 0. -1.
       -5    1    3    3    0  502  0.10449006596E+04  0.75691657700E+03 -0.97627253307E+03  0.16179833874E+04  0.46999998093E+01 0.  1.
</event>
<event>
 5   0  0.6729577E-07  0.3605573E+04  0.7818609E-02  0.8089216E-01
       -2   -1    0    0    0  501  0.00000000000E+00  0.00000000000E+00  0.13472211445E+04  0.13472211445E+04  0.25500000920E-02 0.  1.
        2   -1    0    0  501    0  0.00000000000E+00  0.00000000000E+00 -0.24124026519E+04  0.24124026519E+04  0.25500000920E-02 0. -1.
    10030    2    1    2    0    0  0.00000000000E+00  0.00000000000E+00 -0.10651815074E+04  0.37596237965E+04  0.36055733868E+04 0.  0.
        3    1    3    3  502    0  0.11725314770E+04  0.12965319991E+04 -0.73063847255E+02  0.17496181370E+04  0.10100000352E+00 0.  1.
       -3    1    3    3    0  502 -0.11725314770E+04 -0.12965319991E+04 -0.99211766015E+03  0.20100056595E+04  0.10100000352E+00 0. -1.
</event>
<event>
 5   0  0.2086250E-07  0.3395613E+04  0.7818609E-02  0.8138984E-01
        1   -1    0    0  501    0  0.00000000000E+00  0.00000000000E+00  0.18303482202E+04  0.18303482202E+04  0.50400001928E-02 0. -1.
       -1   -1    0    0    0  501  0.00000000000E+00  0.00000000000E+00 -0.15748622075E+04  0.15748622075E+04  0.50400001928E-02 0.  1.
    10030    2    1    2    0    0  0.00000000000E+00  0.00000000000E+00  0.25548601271E+03  0.34052104278E+04  0.33956126037E+04 0.  0.
        3    1    3    3  502    0 -0.15581007391E+04  0.27374280721E+03 -0.49038644316E+03  0.16562282185E+04  0.10100000352E+00 0. -1.
       -3    1    3    3    0  502  0.15581007391E+04 -0.27374280721E+03  0.74587245588E+03  0.17489822093E+04  0.10100000352E+00 0.  1.
</event>
<event>
 5   0  0.6541476E-07  0.3663380E+04  0.7818609E-02  0.8076126E-01
        2   -1    0    0  501    0  0.00000000000E+00  0.00000000000E+00  0.22598403852E+04  0.22598403852E+04  0.25500000920E-02 0.  1.
       -2   -1    0    0    0  501  0.00000000000E+00  0.00000000000E+00 -0.14846573578E+04  0.14846573578E+04  0.25500000920E-02 0. -1.
    10030    2    1    2    0    0  0.00000000000E+00  0.00000000000E+00  0.77518302734E+03  0.37444977430E+04  0.36633802179E+04 0.  0.
        4    1    3    3  502    0  0.91461677179E+03 -0.45610823231E+03 -0.11661087542E+04  0.15506030434E+04  0.12699999809E+01 0. -1.
       -4    1    3    3    0  502 -0.91461677179E+03  0.45610823231E+03  0.19412917815E+04  0.21938946995E+04  0.12699999809E+01 0.  1.
</event>
<event>
 5   0  0.2086250E-07  0.3309786E+04  0.7818609E-02  0.8160410E-01
       -1   -1    0    0    0  501  0.00000000000E+00  0.00000000000E+00  0.27027534940E+04  0.27027534940E+04  0.50400001928E-02 0. -1.
        1   -1    0    0  501    0  0.00000000000E+00  0.00000000000E+00 -0.10132890626E+04  0.10132890626E+04  0.50400001928E-02 0.  1.
    10030    2    1    2    0    0  0.00000000000E+00  0.00000000000E+00  0.16894644314E+04  0.37160425566E+04  0.33097858265E+04 0.  0.
        4    1    3    3  502    0 -0.14566031643E+04  0.34171595791E+03  0.16387960106E+04  0.22190350496E+04  0.12699999809E+01 0. -1.
       -4    1    3    3    0  502  0.14566031643E+04 -0.34171595791E+03  0.50668420808E+02  0.14970075070E+04  0.12699999809E+01 0.  1.
</event>
<event>
 5   0  0.2086250E-07  0.3509262E+04  0.7818609E-02  0.8111598E-01
       -1   -1    0    0    0  501  0.00000000000E+00  0.00000000000E+00  0.10787733950E+04  0.10787733950E+04  0.50400001928E-02 0.  1.
        1   -1    0    0  501    0  0.00000000000E+00  0.00000000000E+00 -0.28539175019E+04  0.28539175019E+04  0.50400001928E-02 0. -1.
    10030    2    1    2    0    0  0.00000000000E+00  0.00000000000E+00 -0.17751441069E+04  0.39326908969E+04  0.35092621861E+04 0.  0.
        3    1    3    3  502    0  0.58368703957E+03 -0.15882049633E+04 -0.14079793623E+04  0.22012477054E+04  0.10100000352E+00 0. -1.
       -3    1    3    3    0  502 -0.58368703957E+03  0.15882049633E+04 -0.36716474459E+03  0.17314431915E+04  0.10100000352E+00 0.  1.
</event>
<event>
 5   0  0.6324216E-07  0.3537118E+04  0.7818609E-02  0.8105049E-01
       -2   -1    0    0    0  501  0.00000000000E+00  0.00000000000E+00  0.15259647022E+04  0.15259647022E+04  0.25500000920E-02 0. -1.
        2   -1    0    0  501    0  0.00000000000E+00  0.00000000000E+00 -0.20497208865E+04  0.20497208865E+04  0.25500000920E-02 0.  1.
    10030    2    1    2    0    0  0.00000000000E+00  0.00000000000E+00 -0.52375618432E+03  0.35756855886E+04  0.35371184442E+04 0.  0.
        2    1    3    3  502    0 -0.82950413122E+03  0.15321282079E+04 -0.56901277246E+03  0.18328310027E+04  0.25500000920E-02 0. -1.
       -2    1    3    3    0  502  0.82950413122E+03 -0.15321282079E+04  0.45256588144E+02  0.17428545860E+04  0.25500000920E-02 0.  1.
</event>
<event>
 5   0  0.2086250E-07  0.3579716E+04  0.7818609E-02  0.8095154E-01
        1   -1    0    0  501    0  0.00000000000E+00  0.00000000000E+00  0.15237395899E+04  0.15237395899E+04  0.50400001928E-02 0. -1.
       -1   -1    0    0    0  501  0.00000000000E+00  0.00000000000E+00 -0.21024537858E+04  0.21024537859E+04  0.50400001928E-02 0.  1.
    10030    2    1    2    0    0  0.00000000000E+00  0.00000000000E+00 -0.57871419594E+03  0.36261933758E+04  0.35797162287E+04 0.  0.
        3    1    3    3  502    0  0.39560878246E+03  0.13127364843E+04  0.87615012872E+03  0.16270901770E+04  0.10100000352E+00 0. -1.
       -3    1    3    3    0  502 -0.39560878246E+03 -0.13127364843E+04 -0.14548643247E+04  0.19991031988E+04  0.10100000352E+00 0.  1.
</event>
<event>
 5   0  0.6541476E-07  0.3570321E+04  0.7818609E-02  0.8097324E-01
        2   -1    0    0  501    0  0.00000000000E+00  0.00000000000E+00  0.20086272912E+04  0.20086272912E+04  0.25500000920E-02 0. -1.
       -2   -1    0    0    0  501  0.00000000000E+00  0.00000000000E+00 -0.15865554440E+04  0.15865554440E+04  0.25500000920E-02 0.  1.
    10030    2    1    2    0    0  0.00000000000E+00  0.00000000000E+00  0.42207184724E+03  0.35951827352E+04  0.35703213098E+04 0.  0.
        4    1    3    3  502    0 -0.94740977293E+03 -0.12286192082E+04  0.11001945552E+04  0.19019779465E+04  0.12699999809E+01 0. -1.
       -4    1    3    3    0  502  0.94740977293E+03  0.12286192082E+04 -0.67812270796E+03  0.16932047888E+04  0.12699999809E+01 0.  1.
</event>
<event>
 5   0  0.6848661E-07  0.3528011E+04  0.7818609E-02  0.8107184E-01
        2   -1    0    0  501    0  0.00000000000E+00  0.00000000000E+00  0.19457866034E+04  0.19457866034E+04  0.25500000920E-02 0.  1.
       -2   -1    0    0    0  501  0.00000000000E+00  0.00000000000E+00 -0.15992072809E+04  0.15992072809E+04  0.25500000920E-02 0. -1.
    10030    2    1    2    0    0  0.00000000000E+00  0.00000000000E+00  0.34657932248E+03  0.35449938843E+04  0.35280113964E+04 0.  0.
        1    1    3    3  502    0 -0.14039295597E+04 -0.10560384697E+04  0.33368462215E+03  0.17881780910E+04  0.50400001928E-02 0.  1.
       -1    1    3    3    0  502  0.14039295597E+04  0.10560384697E+04  0.12894700322E+02  0.17568157933E+04  0.50400001928E-02 0. -1.
</event>
<event>
 5   0  0.6848661E-07  0.3844268E+04  0.7818609E-02  0.8036721E-01
        2   -1    0    0  501    0  0.00000000000E+00  0.00000000000E+00  0.15795119610E+04  0.15795119610E+04  0.25500000920E-02 0. -1.
       -2   -1    0    0    0  501  0.00000000000E+00  0.00000000000E+00 -0.23390767726E+04  0.23390767726E+04  0.25500000920E-02 0.  1.
    10030    2    1    2    0    0  0.00000000000E+00  0.00000000000E+00 -0.75956481161E+03  0.39185887337E+04  0.38442683258E+04 0.  0.
        1    1    3    3  502    0  0.11500092984E+04  0.78753402722E+03 -0.17289526219E+04  0.22208125538E+04  0.50400001928E-02 0.  1.
       -1    1    3    3    0  502 -0.11500092984E+04 -0.78753402722E+03  0.96938781024E+03  0.16977761799E+04  0.50400001928E-02 0. -1.
</event>
<event>
 5   0  0.6729577E-07  0.3623416E+04  0.7818609E-02  0.8085149E-01
       -2   -1    0    0    0  501  0.00000000000E+00  0.00000000000E+00  0.20864407917E+04  0.20864407917E+04  0.25500000920E-02 0. -1.
        2   -1    0    0  501    0  0.00000000000E+00  0.00000000000E+00 -0.15731506636E+04  0.15731506636E+04  0.25500000920E-02 0.  1.
    10030    2    1    2    0    0  0.00000000000E+00  0.00000000000E+00  0.51329012808E+03  0.36595914554E+04  0.36234159111E+04 0.  0.
        3    1    3    3  502    0  0.10200856074E+04  0.75949132694E+03  0.15598310635E+04  0.20125791112E+04  0.10100000352E+00 0. -1.
       -3    1    3    3    0  502 -0.10200856074E+04 -0.75949132694E+03 -0.10465409354E+04  0.16470123442E+04  0.10100000352E+00 0.  1.
</event>
<event>
 5   0  0.6669864E-07  0.3652749E+04  0.7818609E-02  0.8078515E-01
        2   -1    0    0  501    0  0.00000000000E+00  0.00000000000E+00  0.20437913272E+04  0.20437913272E+04  0.25500000920E-02 0. -1.
       -2   -1    0    0    0  501  0.00000000000E+00  0.00000000000E+00 -0.16320864524E+04  0.16320864524E+04  0.25500000920E-02 0.  1.
    10030    2    1    2    0    0  0.00000000000E+00  0.00000000000E+00  0.41170487473E+03  0.36758777796E+04  0.36527491765E+04 0.  0.
        5    1    3    3  502    0 -0.98922948541E+03  0.19335639586E+02  0.17507187157E+04  0.20109666714E+04  0.46999998093E+01 0. -1.
       -5    1    3    3    0  502  0.98922948541E+03 -0.19335639586E+02 -0.13390138410E+04  0.16649111082E+04  0.46999998093E+01 0.  1.
</event>
<event>
 5   0  0.2086250E-07  0.3605480E+04  0.7818609E-02  0.8089238E-01
        1   -1    0    0  501    0  0.00000000000E+00  0.00000000000E+00  0.21647304227E+04  0.21647304227E+04  0.50400001928E-02 0.  1.
       -1   -1    0    0    0  501  0.00000000000E+00  0.00000000000E+00 -0.15012821385E+04  0.15012821385E+04  0.50400001928E-02 0. -1.
    10030    2    1    2    0    0  0.00000000000E+00  0.00000000000E+00  0.66344828414E+03  0.36660125612E+04  0.36054797840E+04 0.  0.
        3    1    3    3  502    0 -0.96595469450E+03  0.12627664945E+04  0.11958294375E+04  0.19893857708E+04  0.10100000352E+00 0.  1.
       -3    1    3    3    0  502  0.96595469450E+03 -0.12627664945E+04 -0.53238115333E+03  0.16766267904E+04  0.10100000352E+00 0. -1.
</event>
<event>
 5   0  0.2086250E-07  0.3519375E+04  0.7818609E-02  0.8109214E-01
       -1   -1    0    0    0  501  0.00000000000E+00  0.00000000000E+00  0.15636180886E+04  0.15636180886E+04  0.50400001928E-02 0. -1.
        1   -1    0    0  501    0  0.00000000000E+00  0.00000000000E+00 -0.19803430251E+04  0.19803430251E+04  0.50400001928E-02 0.  1.
    10030    2    1    2    0    0  0.00000000000E+00  0.00000000000E+00 -0.41672493645E+03  0.35439611137E+04  0.35193750443E+04 0.  0.
        4    1    3    3  502    0  0.11741909115E+04 -0.10836268250E+04  0.53403080342E+03  0.16846845118E+04  0.12699999809E+01 0. -1.
       -4    1    3    3    0  502 -0.11741909115E+04  0.10836268250E+04 -0.95075573987E+03  0.18592766019E+04  0.12699999809E+01 0.  1.
</event>
<event>
 5   0  0.6541476E-07  0.3581810E+04  0.7818609E-02  0.8094671E-01
        2   -1    0    0  501    0  0.00000000000E+00  0.00000000000E+00  0.17050635652E+04  0.17050635652E+04  0.25500000920E-02 0. -1.
       -2   -1    0    0    0  501  0.00000000000E+00  0.00000000000E+00 -0.18810677311E+04  0.18810677311E+04  0.25500000920E-02 0.  1.
    10030    2    1    2    0    0  0.00000000000E+00  0.00000000000E+00 -0.17600416590E+03  0.35861312963E+04  0.35818096275E+04 0.  0.
        4    1    3    3  502    0 -0.17505938753E+04  0.25480039946E+02 -0.46543211153E+03  0.18115895816E+04  0.12699999809E+01 0.  1.
       -4    1    3    3    0  502  0.17505938753E+04 -0.25480039946E+02  0.28942794563E+03  0.17745417147E+04  0.12699999809E+01 0. -1.
</event>
<event>
 5   0  0.2086250E-07  0.3643251E+04  0.7818609E-02  0.8080656E-01
       -1   -1    0    0    0  501  0.00000000000E+00  0.00000000000E+00  0.29727278562E+04  0.29727278562E+04  0.50400001928E-02 0.  1.
        1   -1    0    0  501    0  0.00000000000E+00  0.00000000000E+00 -0.11162542149E+04  0.11162542149E+04  0.50400001928E-02 0. -1.
    10030    2    1    2    0    0  0.00000000000E+00  0.00000000000E+00  0.18564736413E+04  0.40889820712E+04  0.36432512948E+04 0.  0.
        3    1    3    3  502    0 -0.15573268666E+04  0.84385549808E+03  0.14056764603E+04  0.22612574804E+04  0.10100000352E+00 0. -1.
       -3    1    3    3    0  502  0.15573268666E+04 -0.84385549808E+03  0.45079718102E+03  0.18277245908E+04  0.10100000352E+00 0.  1.
</event>
<event>
 5   0  0.2086250E-07  0.3567789E+04  0.7818609E-02  0.8097910E-01
        1   -1    0    0  501    0  0.00000000000E+00  0.00000000000E+00  0.24025268529E+04  0.24025268529E+04  0.50400001928E-02 0. -1.
       -1   -1    0    0    0  501  0.00000000000E+00  0.00000000000E+00 -0.13245554195E+04  0.13245554195E+04  0.50400001928E-02 0.  1.
    10030    2    1    2    0    0  0.00000000000E+00  0.00000000000E+00  0.10779714334E+04  0.37270822724E+04  0.35677892110E+04 0.  0.
        4    1    3    3  502    0 -0.22917726958E+03 -0.11937198388E+04  0.19029566600E+04  0.22580378512E+04  0.12699999809E+01 0. -1.
       -4    1    3    3    0  502  0.22917726958E+03  0.11937198388E+04 -0.82498522665E+03  0.14690444212E+04  0.12699999809E+01 0.  1.
</event>
<event>
 5   0  0.2108068E-07  0.3567908E+04  0.7818609E-02  0.8097882E-01
       -1   -1    0    0    0  501  0.00000000000E+00  0.00000000000E+00  0.15529371705E+04  0.15529371705E+04  0.50400001928E-02 0.  1.
        1   -1    0    0  501    0  0.00000000000E+00  0.00000000000E+00 -0.20493376222E+04  0.20493376222E+04  0.50400001928E-02 0. -1.
    10030    2    1    2    0    0  0.00000000000E+00  0.00000000000E+00 -0.49640045169E+03  0.36022747927E+04  0.35679083892E+04 0.  0.
        5    1    3    3  502    0  0.10991243915E+04 -0.10779051009E+04  0.66187916004E+03  0.16757266922E+04  0.46999998093E+01 0.  1.
       -5    1    3    3    0  502 -0.10991243915E+04  0.10779051009E+04 -0.11582796117E+04  0.19265481005E+04  0.46999998093E+01 0. -1.
</event>
<event>
 5   0  0.2086250E-07  0.3733143E+04  0.7818609E-02  0.8060656E-01
       -1   -1    0    0    0  501  0.00000000000E+00  0.00000000000E+00  0.19832238734E+04  0.19832238734E+04  0.50400001928E-02 0.  1.
        1   -1    0    0  501    0  0.00000000000E+00  0.00000000000E+00 -0.17567803512E+04  0.17567803512E+04  0.50400001928E-02 0. -1.
    10030    2    1    2    0    0  0.00000000000E+00  0.00000000000E+00  0.22644352223E+03  0.37400042245E+04  0.37331427686E+04 0.  0.
        3    1    3    3  502    0  0.25055730868E+03 -0.10522399237E+04 -0.14107911253E+04  0.17777287283E+04  0.10100000352E+00 0. -1.
       -3    1    3    3    0  502 -0.25055730868E+03  0.10522399237E+04  0.16372346475E+04  0.19622754963E+04  0.10100000352E+00 0.  1.
</event>
<event>
 5   0  0.2108068E-07  0.3589792E+04  0.7818609E-02  0.8092834E-01
        1   -1    0    0  501    0  0.00000000000E+00  0.00000000000E+00  0.21463669924E+04  0.21463669924E+04  0.50400001928E-02 0.  1.
       -1   -1    0    0    0  501  0.00000000000E+00  0.00000000000E+00 -0.15009791385E+04  0.15009791385E+04  0.50400001928E-02 0. -1.
    10030    2    1    2    0    0  0.00000000000E+00  0.00000000000E+00  0.64538785394E+03  0.36473461309E+04  0.35897922386E+04 0.  0.
        5    1    3    3  502    0  0.80837700922E+02  0.73551249034E+03 -0.13387964790E+04  0.15296769135E+04  0.46999998093E+01 0. -1.
       -5    1    3    3    0  502 -0.80837700922E+02 -0.73551249034E+03  0.19841843330E+04  0.21176692174E+04  0.46999998093E+01 0.  1.
</event>
<event>
 5   0  0.2086250E-07  0.3582828E+04  0.7818609E-02  0.8094437E-01
       -1   -1    0    0    0  501  0.00000000000E+00  0.00000000000E+00  0.14321781454E+04  0.14321781454E+04  0.50400001928E-02 0. -1.
        1   -1    0    0  501    0  0.00000000000E+00  0.00000000000E+00 -0.22407571983E+04  0.22407571983E+04  0.50400001928E-02 0.  1.
    10030    2    1    2    0    0  0.00000000000E+00  0.00000000000E+00 -0.80857905285E+03  0.36729353437E+04  0.35828276479E+04 0.  0.
        2    1    3    3  502    0  0.19722237306E+03 -0.17626066675E+04 -0.14599130044E+03  0.17796045596E+04  0.25500000920E-02 0. -1.
       -2    1    3    3    0  502 -0.19722237306E+03  0.17626066675E+04 -0.66258775241E+03  0.18933307842E+04  0.25500000920E-02 0.  1.
</event>
<event>
 5   0  0.2086250E-07  0.3438147E+04  0.7818609E-02  0.8128607E-01
        1   -1    0    0  501    0  0.00000000000E+00  0.00000000000E+00  0.26371909980E+04  0.26371909980E+04  0.50400001928E-02 0. -1.
       -1   -1    0    0    0  501  0.00000000000E+00  0.00000000000E+00 -0.11205913551E+04  0.11205913551E+04  0.50400001928E-02 0.  1.
    10030    2    1    2    0    0  0.00000000000E+00  0.00000000000E+00  0.15165996428E+04  0.37577823531E+04  0.34381468463E+04 0.  0.
        2    1    3    3  502    0 -0.16647844276E+04 -0.42417155491E+03  0.82553939928E+03  0.19060283309E+04  0.25500000920E-02 0.  1.
       -2    1    3    3    0  502  0.16647844276E+04  0.42417155491E+03  0.69106024356E+03  0.18517540222E+04  0.25500000920E-02 0. -1.
</event>
<event>
 5   0  0.6669864E-07  0.3599936E+04  0.7818609E-02  0.8090506E-01
       -2   -1    0    0    0  501  0.00000000000E+00  0.00000000000E+00  0.15928900827E+04  0.15928900827E+04  0.25500000920E-02 0.  1.
        2   -1    0    0  501    0  0.00000000000E+00  0.00000000000E+00 -0.20339665392E+04  0.20339665392E+04  0.25500000920E-02 0. -1.
    10030    2    1    2    0    0  0.00000000000E+00  0.00000000000E+00 -0.44107645652E+03  0.36268566219E+04  0.35999361821E+04 0.  0.
        5    1    3    3  502    0  0.13426012009E+04 -0.35544050396E+03  0.93298984762E+03  0.16731431745E+04  0.46999998093E+01 0.  1.
       -5    1    3    3    0  502 -0.13426012009E+04  0.35544050396E+03 -0.13740663041E+04  0.19537134474E+04  0.46999998093E+01 0. -1.
</event>
<event>
 5   0  0.2086250E-07  0.3588173E+04  0.7818609E-02  0.8093206E-01
        1   -1    0    0  501    0  0.00000000000E+00  0.00000000000E+00  0.12124730126E+04  0.12124730126E+04  0.50400001928E-02 0. -1.
       -1   -1    0    0    0  501  0.00000000000E+00  0.00000000000E+00 -0.26546946586E+04  0.26546946586E+04  0.50400001928E-02 0.  1.
    10030    2    1    2    0    0  0.00000000000E+00  0.00000000000E+00 -0.14422216461E+04  0.38671676712E+04  0.35881725880E+04 0.  0.
        3    1    3    3  502    0 -0.42623784291E+03 -0.16495370531E+04 -0.11517294593E+03  0.17076053426E+04  0.10100000352E+00 0.  1.
       -3    1    3    3    0  502  0.42623784291E+03  0.16495370531E+04 -0.13270487002E+04  0.21595623286E+04  0.10100000352E+00 0. -1.
</event>
<event>
 5   0  0.6669864E-07  0.3531180E+04  0.7818609E-02  0.8106440E-01
        2   -1    0    0  501    0  0.00000000000E+00  0.00000000000E+00  0.13263630484E+04  0.13263630484E+04  0.25500000920E-02 0.  1.
       -2   -1    0    0    0  501  0.00000000000E+00  0.00000000000E+00 -0.23502681567E+04  0.23502681567E+04  0.25500000920E-02 0. -1.
    10030    2    1    2    0    0  0.00000000000E+00  0.00000000000E+00 -0.10239051083E+04  0.36766312051E+04  0.35311804467E+04 0.  0.
        5    1    3    3  502    0 -0.34029714448E+03 -0.14327582958E+04  0.50217345799E+03  0.15558916262E+04  0.46999998093E+01 0.  1.
       -5    1    3    3    0  502  0.34029714448E+03  0.14327582958E+04 -0.15260785663E+04  0.21207395788E+04  0.46999998093E+01 0. -1.
</event>
<event>
 5   0  0.2086250E-07  0.3568653E+04  0.7818609E-02  0.8097710E-01
       -1   -1    0    0    0  501  0.00000000000E+00  0.00000000000E+00  0.13273429023E+04  0.13273429023E+04  0.50400001928E-02 0.  1.
        1   -1    0    0  501    0  0.00000000000E+00  0.00000000000E+00 -0.23986429740E+04  0.23986429740E+04  0.50400001928E-02 0. -1.
    10030    2    1    2    0    0  0.00000000000E+00  0.00000000000E+00 -0.10713000717E+04  0.37259858763E+04  0.35686533744E+04 0.  0.
        3    1    3    3  502    0  0.16473726011E+04  0.66237374130E+03 -0.35109077900E+03  0.18099282321E+04  0.10100000352E+00 0. -1.
       -3    1    3    3    0  502 -0.16473726011E+04 -0.66237374130E+03 -0.72020929268E+03  0.19160576441E+04  0.10100000352E+00 0.  1.
</event>
<event>
 5   0  0.6541476E-07  0.3620461E+04  0.7818609E-02  0.8085821E-01
       -2   -1    0    0    0  501  0.00000000000E+00  0.00000000000E+00  0.15019502637E+04  0.15019502637E+04  0.25500000920E-02 0.  1.
        2   -1    0    0  501    0  0.00000000000E+00  0.00000000000E+00 -0.21817858078E+04  0.21817858078E+04  0.25500000920E-02 0. -1.
    10030    2    1    2    0    0  0.00000000000E+00  0.00000000000E+00 -0.67983554409E+03  0.36837360716E+04  0.36204606168E+04 0.  0.
        4    1    3    3  502    0  0.90874493599E+03 -0.11679502643E+03  0.12486094081E+04  0.15487044598E+04  0.12699999809E+01 0.  1.
       -4    1    3    3    0  502 -0.90874493599E+03  0.11679502643E+03 -0.19284449522E+04  0.21350316118E+04  0.12699999809E+01 0. -1.
</event>
<event>
 5   0  0.2086250E-07  0.3659481E+04  0.7818609E-02  0.8077001E-01
        1   -1    0    0  501    0  0.00000000000E+00  0.00000000000E+00  0.25531958870E+04  0.25531958870E+04  0.50400001928E-02 0. -1.
       -1   -1    0    0    0  501  0.00000000000E+00  0.00000000000E+00 -0.13112780154E+04  0.13112780154E+04  0.50400001928E-02 0.  1.
    10030    2    1    2    0    0  0.00000000000E+00  0.00000000000E+00  0.12419178716E+04  0.38644739025E+04  0.36594806384E+04 0.  0.
        4    1    3    3  502    0  0.13553451060E+04 -0.11809573924E+04  0.98113243614E+03  0.20479851535E+04  0.12699999809E+01 0. -1.
       -4    1    3    3    0  502 -0.13553451060E+04  0.11809573924E+04  0.26078543548E+03  0.18164887490E+04  0.12699999809E+01 0.  1.
</event>
<event>
 5   0  0.6541476E-07  0.3617558E+04  0.7818609E-02  0.8086482E-01
        2   -1    0    0  501    0  0.00000000000E+00  0.00000000000E+00  0.25558290951E+04  0.25558290951E+04  0.25500000920E-02 0. -1.
       -2   -1    0    0    0  501  0.00000000000E+00  0.00000000000E+00 -0.12800864924E+04  0.12800864924E+04  0.25500000920E-02 0.  1.
    10030    2    1    2    0    0  0.00000000000E+00  0.00000000000E+00  0.12757426027E+04  0.38359155875E+04  0.36175584592E+04 0.  0.
        4    1    3    3  502    0 -0.99058989427E+03 -0.61455083358E+03 -0.82862648192E+03  0.14302323326E+04  0.12699999809E+01 0.  1.
       -4    1    3    3    0  502  0.99058989427E+03  0.61455083358E+03  0.21043690846E+04  0.24056832549E+04  0.12699999809E+01 0. -1.
</event>
<event>
 5   0  0.6324216E-07  0.3579372E+04  0.7818609E-02  0.8095233E-01
        2   -1    0    0  501    0  0.00000000000E+00  0.00000000000E+00  0.22124656206E+04  0.22124656206E+04  0.25500000920E-02 0.  1.
       -2   -1    0    0    0  501  0.00000000000E+00  0.00000000000E+00 -0.14476951356E+04  0.14476951356E+04  0.25500000920E-02 0. -1.
    10030    2    1    2    0    0  0.00000000000E+00  0.00000000000E+00  0.76477048495E+03  0.36601607562E+04  0.35793718537E+04 0.  0.
        2    1    3    3  502    0 -0.10085039552E+04  0.12849698801E+04 -0.36538449288E+03  0.16738379994E+04  0.25500000920E-02 0. -1.
       -2    1    3    3    0  502  0.10085039552E+04 -0.12849698801E+04  0.11301549778E+04  0.19863227569E+04  0.25500000920E-02 0.  1.
</event>
<event>
 5   0  0.2193129E-07  0.3524822E+04  0.7818609E-02  0.8107933E-01
        1   -1    0    0  501    0  0.00000000000E+00  0.00000000000E+00  0.22296545883E+04  0.22296545883E+04  0.50400001928E-02 0.  1.
       -1   -1    0    0    0  501  0.00000000000E+00  0.00000000000E+00 -0.13930821717E+04  0.13930821717E+04  0.50400001928E-02 0. -1.
    10030    2    1    2    0    0  0.00000000000E+00  0.00000000000E+00  0.83657241665E+03  0.36227367600E+04  0.35248217294E+04 0.  0.
        1    1    3    3  502    0  0.83405920952E+03 -0.73425407498E+03  0.18242440110E+04  0.21360360538E+04  0.50400001928E-02 0.  1.
       -1    1    3    3    0  502 -0.83405920952E+03  0.73425407498E+03 -0.98767159432E+03  0.14867007062E+04  0.50400001928E-02 0. -1.
</event>
<event>
 5   0  0.2193129E-07  0.3604882E+04  0.7818609E-02  0.8089374E-01
       -1   -1    0    0    0  501  0.00000000000E+00  0.00000000000E+00  0.18215936914E+04  0.18215936915E+04  0.50400001928E-02 0. -1.
        1   -1    0    0  501    0  0.00000000000E+00  0.00000000000E+00 -0.17834894043E+04  0.17834894043E+04  0.50400001928E-02 0.  1.
    10030    2    1    2    0    0  0.00000000000E+00  0.00000000000E+00  0.38104287186E+02  0.36050830957E+04  0.36048817166E+04 0.  0.
        1    1    3    3  502    0  0.25482924669E+03 -0.14427343336E+04  0.10690501969E+04  0.18136396075E+04  0.50400001928E-02 0. -1.
       -1    1    3    3    0  502 -0.25482924669E+03  0.14427343336E+04 -0.10309459098E+04  0.17914434882E+04  0.50400001928E-02 0.  1.
</event>
<event>
 5   0  0.6669864E-07  0.3805641E+04  0.7818609E-02  0.8044945E-01
       -2   -1    0    0    0  501  0.00000000000E+00  0.00000000000E+00  0.10957930400E+04  0.10957930400E+04  0.25500000920E-02 0. -1.
        2   -1    0    0  501    0  0.00000000000E+00  0.00000000000E+00 -0.33042062453E+04  0.33042062453E+04  0.25500000920E-02 0.  1.
    10030    2    1    2    0    0  0.00000000000E+00  0.00000000000E+00 -0.22084132053E+04  0.43999992853E+04  0.38056411845E+04 0.  0.
        5    1    3    3  502    0  0.74948680039E+02  0.56298150009E+03 -0.32039161431E+04  0.32538694221E+04  0.46999998093E+01 0.  1.
       -5    1    3    3    0  502 -0.74948680039E+02 -0.56298150009E+03  0.99550293782E+03  0.11461298632E+04  0.46999998093E+01 0. -1.
</event>
<event>
 5   0  0.6729577E-07  0.3659084E+04  0.7818609E-02  0.8077090E-01
        2   -1    0    0  501    0  0.00000000000E+00  0.00000000000E+00  0.23275610338E+04  0.23275610338E+04  0.25500000920E-02 0.  1.
       -2   -1    0    0    0  501  0.00000000000E+00  0.00000000000E+00 -0.14380817578E+04  0.14380817578E+04  0.25500000920E-02 0. -1.
    10030    2    1    2    0    0  0.00000000000E+00  0.00000000000E+00  0.88947927598E+03  0.37656427916E+04  0.36590835262E+04 0.  0.
        3    1    3    3  502    0  0.17986133633E+04  0.16218142382E+03  0.74637981144E+03  0.19540715642E+04  0.10100000352E+00 0. -1.
       -3    1    3    3    0  502 -0.17986133633E+04 -0.16218142382E+03  0.14309946454E+03  0.18115712274E+04  0.10100000352E+00 0.  1.
</event>
<event>
 5   0  0.6669864E-07  0.3613013E+04  0.7818609E-02  0.8087517E-01
       -2   -1    0    0    0  501  0.00000000000E+00  0.00000000000E+00  0.28725869865E+04  0.28725869865E+04  0.25500000920E-02 0. -1.
        2   -1    0    0  501    0  0.00000000000E+00  0.00000000000E+00 -0.11360720968E+04  0.11360720968E+04  0.25500000920E-02 0.  1.
    10030    2    1    2    0    0  0.00000000000E+00  0.00000000000E+00  0.17365148897E+04  0.40086590832E+04  0.36130131031E+04 0.  0.
        5    1    3    3  502    0  0.61521270812E+03  0.15947235235E+04  0.15169285222E+04  0.22853279904E+04  0.46999998093E+01 0. -1.
       -5    1    3    3    0  502 -0.61521270812E+03 -0.15947235235E+04  0.21958636755E+03  0.17233310928E+04  0.46999998093E+01 0.  1.
</event>
<event>
 5   0  0.2086250E-07  0.3599282E+04  0.7818609E-02  0.8090656E-01
        1   -1    0    0  501    0  0.00000000000E+00  0.00000000000E+00  0.20111443940E+04  0.20111443940E+04  0.50400001928E-02 0.  1.
       -1   -1    0    0    0  501  0.00000000000E+00  0.00000000000E+00 -0.16103801652E+04  0.16103801652E+04  0.50400001928E-02 0. -1.
    10030    2    1    2    0    0  0.00000000000E+00  0.00000000000E+00  0.40076422885E+03  0.36215245592E+04  0.35992816180E+04 0.  0.
        2    1    3    3  502    0  0.61405585562E+03  0.91473033236E+03  0.16321695987E+04  0.19692063817E+04  0.25500000920E-02 0.  1.
       -2    1    3    3    0  502 -0.61405585562E+03 -0.91473033236E+03 -0.12314053699E+04  0.16523181775E+04  0.25500000920E-02 0. -1.
</event>
<event>
 5   0  0.6541476E-07  0.3605029E+04  0.7818609E-02  0.8089341E-01
        2   -1    0    0  501    0  0.00000000000E+00  0.00000000000E+00  0.15388906782E+04  0.15388906782E+04  0.25500000920E-02 0. -1.
       -2   -1    0    0    0  501  0.00000000000E+00  0.00000000000E+00 -0.21112985740E+04  0.21112985740E+04  0.25500000920E-02 0.  1.
    10030    2    1    2    0    0  0.00000000000E+00  0.00000000000E+00 -0.57240789580E+03  0.36501892521E+04  0.36050285404E+04 0.  0.
        4    1    3    3  502    0  0.16645113222E+04 -0.68585729774E+03 -0.19531359412E+03  0.18108415689E+04  0.12699999809E+01 0. -1.
       -4    1    3    3    0  502 -0.16645113222E+04  0.68585729774E+03 -0.37709430168E+03  0.18393476832E+04  0.12699999809E+01 0.  1.
</event>
<event>
 5   0  0.2086250E-07  0.3628636E+04  0.7818609E-02  0.8083964E-01
        1   -1    0    0  501    0  0.00000000000E+00  0.00000000000E+00  0.15422418181E+04  0.15422418181E+04  0.50400001928E-02 0. -1.
       -1   -1    0    0    0  501  0.00000000000E+00  0.00000000000E+00 -0.21343929328E+04  0.21343929328E+04  0.50400001928E-02 0.  1.
    10030    2    1    2    0    0  0.00000000000E+00  0.00000000000E+00 -0.59215111471E+03  0.36766347509E+04  0.36286361279E+04 0.  0.
        3    1    3    3  502    0 -0.42088142337E+02  0.17244910663E+04  0.27359742129E+03  0.17465670352E+04  0.10100000352E+00 0. -1.
       -3    1    3    3    0  502  0.42088142337E+02 -0.17244910663E+04 -0.86574853601E+03  0.19300677157E+04  0.10100000352E+00 0.  1.
</event>
<event>
 5   0  0.6729577E-07  0.3592845E+04  0.7818609E-02  0.8092132E-01
       -2   -1    0    0    0  501  0.00000000000E+00  0.00000000000E+00  0.16169391291E+04  0.16169391291E+04  0.25500000920E-02 0. -1.
        2   -1    0    0  501    0  0.00000000000E+00  0.00000000000E+00 -0.19958293775E+04  0.19958293775E+04  0.25500000920E-02 0.  1.
    10030    2    1    2    0    0  0.00000000000E+00  0.00000000000E+00 -0.37889024843E+03  0.36127685066E+04  0.35928454548E+04 0.  0.
        3    1    3    3  502    0  0.63209820092E+03 -0.90985913591E+03 -0.16114093525E+04  0.19555132049E+04  0.10100000352E+00 0.  1.
       -3    1    3    3    0  502 -0.63209820092E+03  0.90985913591E+03  0.12325191041E+04  0.16572553017E+04  0.10100000352E+00 0. -1.
</event>
<event>
 5   0  0.2193129E-07  0.3628840E+04  0.7818609E-02  0.8083917E-01
       -1   -1    0    0    0  501  0.00000000000E+00  0.00000000000E+00  0.16623761245E+04  0.16623761245E+04  0.50400001928E-02 0.  1.
        1   -1    0    0  501    0  0.00000000000E+00  0.00000000000E+00 -0.19803700718E+04  0.19803700718E+04  0.50400001928E-02 0. -1.
    10030    2    1    2    0    0  0.00000000000E+00  0.00000000000E+00 -0.31799394722E+03  0.36427461963E+04  0.36288399938E+04 0.  0.
        1    1    3    3  502    0 -0.10311715742E+03  0.69538230415E+02  0.16580920351E+04  0.16627501046E+04  0.50400001928E-02 0.  1.
       -1    1    3    3    0  502  0.10311715742E+03 -0.69538230415E+02 -0.19760859823E+04  0.19799960917E+04  0.50400001928E-02 0. -1.
</event>
<event>
 5   0  0.6669864E-07  0.3814823E+04  0.7818609E-02  0.8042981E-01
       -2   -1    0    0    0  501  0.00000000000E+00  0.00000000000E+00  0.21210148226E+04  0.21210148226E+04  0.25500000920E-02 0.  1.
        2   -1    0    0  501    0  0.00000000000E+00  0.00000000000E+00 -0.17153197471E+04  0.17153197471E+04  0.25500000920E-02 0. -1.
    10030    2    1    2    0    0  0.00000000000E+00  0.00000000000E+00  0.40569507547E+03  0.38363345697E+04  0.38148229889E+04 0.  0.
        5    1    3    3  502    0  0.11685731676E+03 -0.55741470821E+03 -0.16278102991E+04  0.17245739327E+04  0.46999998093E+01 0. -1.
       -5    1    3    3    0  502 -0.11685731676E+03  0.55741470821E+03  0.20335053746E+04  0.21117606370E+04  0.46999998093E+01 0.  1.
</event>
<event>
 5   0  0.2086250E-07  0.3600420E+04  0.7818609E-02  0.8090395E-01
       -1   -1    0    0    0  501  0.00000000000E+00  0.00000000000E+00  0.21118778972E+04  0.21118778972E+04  0.50400001928E-02 0.  1.
        1   -1    0    0  501    0  0.00000000000E+00  0.00000000000E+00 -0.15345378926E+04  0.15345378927E+04  0.50400001928E-02 0. -1.
    10030    2    1    2    0    0  0.00000000000E+00  0.00000000000E+00  0.57734000458E+03  0.36464157899E+04  0.36004203410E+04 0.  0.
        4    1    3    3  502    0  0.70507079996E+03 -0.59439292922E+03  0.18544893815E+04  0.20711253623E+04  0.12699999809E+01 0.  1.
       -4    1    3    3    0  502 -0.70507079996E+03  0.59439292922E+03 -0.12771493770E+04  0.15752904276E+04  0.12699999809E+01 0. -1.
</event>
<event>
 5   0  0.6324216E-07  0.3597637E+04  0.7818609E-02  0.8091033E-01
       -2   -1    0    0    0  501  0.00000000000E+00  0.00000000000E+00  0.13824446355E+04  0.13824446355E+04  0.25500000920E-02 0. -1.
        2   -1    0    0  501    0  0.00000000000E+00  0.00000000000E+00 -0.23405992228E+04  0.23405992228E+04  0.25500000920E-02 0.  1.
    10030    2    1    2    0    0  0.00000000000E+00  0.00000000000E+00 -0.95815458721E+03  0.37230438583E+04  0.35976374689E+04 0.  0.
        2    1    3    3  502    0  0.60755760868E+03  0.51945124699E+03 -0.21467062210E+04  0.22906993354E+04  0.25500000920E-02 0.  1.
       -2    1    3    3    0  502 -0.60755760868E+03 -0.51945124699E+03  0.11885516338E+04  0.14323445229E+04  0.25500000920E-02 0. -1.
</event>
<event>
 5   0  0.6729577E-07  0.3595655E+04  0.7818609E-02  0.8091488E-01
        2   -1    0    0  501    0  0.00000000000E+00  0.00000000000E+00  0.15910653580E+04  0.15910653580E+04  0.25500000920E-02 0. -1.
       -2   -1    0    0    0  501  0.00000000000E+00  0.00000000000E+00 -0.20314587377E+04  0.20314587377E+04  0.25500000920E-02 0.  1.
    10030    2    1    2    0    0  0.00000000000E+00  0.00000000000E+00 -0.44039337970E+03  0.36225240956E+04  0.35956549466E+04 0.  0.
        3    1    3    3  502    0 -0.14644662934E+04  0.34978832912E+03  0.76957546074E+03  0.16909345935E+04  0.10100000352E+00 0. -1.
       -3    1    3    3    0  502  0.14644662934E+04 -0.34978832912E+03 -0.12099688404E+04  0.19315895021E+04  0.10100000352E+00 0.  1.
</event>
<event>
 5   0  0.2108068E-07  0.3604001E+04  0.7818609E-02  0.8089576E-01
        1   -1    0    0  501    0  0.00000000000E+00  0.00000000000E+00  0.25213580283E+04  0.25213580283E+04  0.50400001928E-02 0. -1.
       -1   -1    0    0    0  501  0.00000000000E+00  0.00000000000E+00 -0.12878795124E+04  0.12878795125E+04  0.50400001928E-02 0.  1.
    10030    2    1    2    0    0  0.00000000000E+00  0.00000000000E+00  0.12334785158E+04  0.38092375407E+04  0.36040007482E+04 0.  0.
        5    1    3    3  502    0  0.46109007505E+03  0.45465604221E+03  0.23941290422E+04  0.24801596994E+04  0.46999998093E+01 0. -1.
       -5    1    3    3    0  502 -0.46109007505E+03 -0.45465604221E+03 -0.11606505263E+04  0.13290778413E+04  0.46999998093E+01 0.  1.
</event>
<event>
 5   0  0.2086250E-07  0.3175369E+04  0.7818609E-02  0.8195353E-01
       -1   -1    0    0    0  501  0.00000000000E+00  0.00000000000E+00  0.26043856550E+04  0.26043856550E+04  0.50400001928E-02 0.  1.
        1   -1    0    0  501    0  0.00000000000E+00  0.00000000000E+00 -0.96788331503E+03  0.96788331504E+03  0.50400001928E-02 0. -1.
    10030    2    1    2    0    0  0.00000000000E+00  0.00000000000E+00  0.16365023399E+04  0.35722689700E+04  0.31753685905E+04 0.  0.
        2    1    3    3  502    0  0.23298634041E+03 -0.82451399042E+03  0.23219746530E+04  0.24750095443E+04  0.25500000920E-02 0.  1.
       -2    1    3    3    0  502 -0.23298634041E+03  0.82451399042E+03 -0.68547231310E+03  0.10972594257E+04  0.25500000920E-02 0. -1.
</event>
<event>
 5   0  0.6541476E-07  0.3255210E+04  0.7818609E-02  0.8174387E-01
       -2   -1    0    0    0  501  0.00000000000E+00  0.00000000000E+00  0.83879901565E+03  0.83879901565E+03  0.25500000920E-02 0. -1.
        2   -1    0    0  501    0  0.00000000000E+00  0.00000000000E+00 -0.31582030827E+04  0.31582030827E+04  0.25500000920E-02 0.  1.
    10030    2    1    2    0    0  0.00000000000E+00  0.00000000000E+00 -0.23194040671E+04  0.39970020984E+04  0.32552097549E+04 0.  0.
        4    1    3    3  502    0 -0.27875619116E+03  0.96984990986E+03 -0.27277284473E+04  0.29084047099E+04  0.12699999809E+01 0.  1.
       -4    1    3    3    0  502  0.27875619116E+03 -0.96984990986E+03  0.40832438020E+03  0.10885973884E+04  0.12699999809E+01 0. -1.
</event>
<event>
 5   0  0.6324216E-07  0.3583263E+04  0.7818609E-02  0.8094336E-01
        2   -1    0    0  501    0  0.00000000000E+00  0.00000000000E+00  0.16068590576E+04  0.16068590576E+04  0.25500000920E-02 0.  1.
       -2   -1    0    0    0  501  0.00000000000E+00  0.00000000000E+00 -0.19976507030E+04  0.19976507030E+04  0.25500000920E-02 0. -1.
    10030    2    1    2    0    0  0.00000000000E+00  0.00000000000E+00 -0.39079164538E+03  0.36045097606E+04  0.35832628294E+04 0.  0.
        2    1    3    3  502    0 -0.14820827951E+04 -0.98120370445E+03  0.30911498098E+02  0.17777192247E+04  0.25500000920E-02 0.  1.
       -2    1    3    3    0  502  0.14820827951E+04  0.98120370445E+03 -0.42170314347E+03  0.18267905360E+04  0.25500000920E-02 0. -1.
</event>
<event>
 5   0  0.2086250E-07  0.3443873E+04  0.7818609E-02  0.8127222E-01
        1   -1    0    0  501    0  0.00000000000E+00  0.00000000000E+00  0.20847107381E+04  0.20847107381E+04  0.50400001928E-02 0.  1.
       -1   -1    0    0    0  501  0.00000000000E+00  0.00000000000E+00 -0.14222910801E+04  0.14222910802E+04  0.50400001928E-02 0. -1.
    10030    2    1    2    0    0  0.00000000000E+00  0.00000000000E+00  0.66241965796E+03  0.35070018183E+04  0.34438731031E+04 0.  0.
        2    1    3    3  502    0  0.12691284761E+04  0.11254155863E+04  0.29436392082E+02  0.16965004662E+04  0.25500000920E-02 0. -1.
       -2    1    3    3    0  502 -0.12691284761E+04 -0.11254155863E+04  0.63298326588E+03  0.18105013520E+04  0.25500000920E-02 0.  1.
</event>
<event>
 5   0  0.6324216E-07  0.3566295E+04  0.7818609E-02  0.8098256E-01
        2   -1    0    0  501    0  0.00000000000E+00  0.00000000000E+00  0.26270340218E+04  0.26270340219E+04  0.25500000920E-02 0. -1.
       -2   -1    0    0    0  501  0.00000000000E+00  0.00000000000E+00 -0.12103441724E+04  0.12103441724E+04  0.25500000920E-02 0.  1.
    10030    2    1    2    0    0  0.00000000000E+00  0.00000000000E+00  0.14166898494E+04  0.38373781943E+04  0.35662951751E+04 0.  0.
        2    1    3    3  502    0 -0.89917176592E+03 -0.14831765694E+04  0.26300998690E+03  0.17542795826E+04  0.25500000920E-02 0.  1.
       -2    1    3    3    0  502  0.89917176592E+03  0.14831765694E+04  0.11536798625E+04  0.20830986117E+04  0.25500000920E-02 0. -1.
</event>
<event>
 5   0  0.6669864E-07  0.3634905E+04  0.7818609E-02  0.8082543E-01
       -2   -1    0    0    0  501  0.00000000000E+00  0.00000000000E+00  0.15054946290E+04  0.15054946290E+04  0.25500000920E-02 0. -1.
        2   -1    0    0  501    0  0.00000000000E+00  0.00000000000E+00 -0.21940526205E+04  0.21940526205E+04  0.25500000920E-02 0.  1.
    10030    2    1    2    0    0  0.00000000000E+00  0.00000000000E+00 -0.68855799156E+03  0.36995472495E+04  0.36349054656E+04 0.  0.
        5    1    3    3  502    0  0.46229666813E+03  0.45446647679E+03 -0.20723707944E+04  0.21714052564E+04  0.46999998093E+01 0.  1.
       -5    1    3    3    0  502 -0.46229666813E+03 -0.45446647679E+03  0.13838128029E+04  0.15281419932E+04  0.46999998093E+01 0. -1.
</event>
<event>
 5   0  0.6541476E-07  0.3742246E+04  0.7818609E-02  0.8058664E-01
        2   -1    0    0  501    0  0.00000000000E+00  0.00000000000E+00  0.20692487400E+04  0.20692487400E+04  0.25500000920E-02 0. -1.
       -2   -1    0    0    0  501  0.00000000000E+00  0.00000000000E+00 -0.16919673940E+04  0.16919673940E+04  0.25500000920E-02 0.  1.
    10030    2    1    2    0    0  0.00000000000E+00  0.00000000000E+00  0.37728134603E+03  0.37612161340E+04  0.37422460626E+04 0.  0.
        4    1    3    3  502    0 -0.28958432371E+03 -0.65490697626E+03  0.19260845176E+04  0.20548881746E+04  0.12699999809E+01 0. -1.
       -4    1    3    3    0  502  0.28958432371E+03  0.65490697626E+03 -0.15488031716E+04  0.17063279595E+04  0.12699999809E+01 0.  1.
</event>
<event>
 5   0  0.6324216E-07  0.3602363E+04  0.7818609E-02  0.8089951E-01
       -2   -1    0    0    0  501  0.00000000000E+00  0.00000000000E+00  0.20050832555E+04  0.20050832555E+04  0.25500000920E-02 0. -1.
        2   -1    0    0  501    0  0.00000000000E+00  0.00000000000E+00 -0.16180147083E+04  0.16180147083E+04  0.25500000920E-02 0.  1.
    10030    2    1    2    0    0  0.00000000000E+00  0.00000000000E+00  0.38706854722E+03  0.36230979639E+04  0.36023626685E+04 0.  0.
        2    1    3    3  502    0 -0.18119685771E+03  0.70360280823E+03 -0.14640923195E+04  0.16344587891E+04  0.25500000920E-02 0.  1.
       -2    1    3    3    0  502  0.18119685771E+03 -0.70360280823E+03  0.18511608668E+04  0.19886391748E+04  0.25500000920E-02 0. -1.
</event>
<event>
 5   0  0.6669864E-07  0.3617079E+04  0.7818609E-02  0.8086591E-01
        2   -1    0    0  501    0  0.00000000000E+00  0.00000000000E+00  0.19380064248E+04  0.19380064248E+04  0.25500000920E-02 0. -1.
       -2   -1    0    0    0  501  0.00000000000E+00  0.00000000000E+00 -0.16877217322E+04  0.16877217323E+04  0.25500000920E-02 0.  1.
    10030    2    1    2    0    0  0.00000000000E+00  0.00000000000E+00  0.25028469257E+03  0.36257281571E+04  0.36170792418E+04 0.  0.
        5    1    3    3  502    0 -0.51702546444E+03  0.13375006986E+04 -0.97956818615E+03  0.17366057039E+04  0.46999998093E+01 0.  1.
       -5    1    3    3    0  502  0.51702546444E+03 -0.13375006986E+04  0.12298528787E+04  0.18891224531E+04  0.46999998093E+01 0. -1.
</event>
<event>
 5   0  0.2193129E-07  0.3624898E+04  0.7818609E-02  0.8084812E-01
       -1   -1    0    0    0  501  0.00000000000E+00  0.00000000000E+00  0.10728131433E+04  0.10728131433E+04  0.50400001928E-02 0.  1.
        1   -1    0    0  501    0  0.00000000000E+00  0.00000000000E+00 -0.30620166714E+04  0.30620166714E+04  0.50400001928E-02 0. -1.
    10030    2    1    2    0    0  0.00000000000E+00  0.00000000000E+00 -0.19892035281E+04  0.41348298147E+04  0.36248981944E+04 0.  0.
        1    1    3    3  502    0  0.64318781598E+03  0.14929834710E+04 -0.80436872904E+02  0.16276241280E+04  0.50400001928E-02 0.  1.
       -1    1    3    3    0  502 -0.64318781598E+03 -0.14929834710E+04 -0.19087666552E+04  0.25072056867E+04  0.50400001928E-02 0. -1.
</event>
<event>
 5   0  0.6729577E-07  0.3611177E+04  0.7818609E-02  0.8087936E-01
       -2   -1    0    0    0  501  0.00000000000E+00  0.00000000000E+00  0.20487469558E+04  0.20487469558E+04  0.25500000920E-02 0.  1.
        2   -1    0    0  501    0  0.00000000000E+00  0.00000000000E+00 -0.15912892758E+04  0.15912892758E+04  0.25500000920E-02 0. -1.
    10030    2    1    2    0    0  0.00000000000E+00  0.00000000000E+00  0.45745767995E+03  0.36400362316E+04  0.36111765726E+04 0.  0.
        3    1    3    3  502    0  0.11904836401E+04  0.10863007580E+04  0.10493904036E+04  0.19231538845E+04  0.10100000352E+00 0.  1.
       -3    1    3    3    0  502 -0.11904836401E+04 -0.10863007580E+04 -0.59193272363E+03  0.17168823471E+04  0.10100000352E+00 0. -1.
</event>
<event>
 5   0  0.2193129E-07  0.3601961E+04  0.7818609E-02  0.8090043E-01
       -1   -1    0    0    0  501  0.00000000000E+00  0.00000000000E+00  0.17224478459E+04  0.17224478459E+04  0.50400001928E-02 0.  1.
        1   -1    0    0  501    0  0.00000000000E+00  0.00000000000E+00 -0.18830936958E+04  0.18830936958E+04  0.50400001928E-02 0. -1.
    10030    2    1    2    0    0  0.00000000000E+00  0.00000000000E+00 -0.16064584987E+03  0.36055415417E+04  0.36019609548E+04 0.  0.
        1    1    3    3  502    0 -0.78556738562E+03  0.15059059038E+04 -0.67980219344E+03  0.18294807270E+04  0.50400001928E-02 0. -1.
       -1    1    3    3    0  502  0.78556738562E+03 -0.15059059038E+04  0.51915634357E+03  0.17760608147E+04  0.50400001928E-02 0.  1.
</event>
<event>
 5   0  0.6324216E-07  0.3576923E+04  0.7818609E-02  0.8095798E-01
        2   -1    0    0  501    0  0.00000000000E+00  0.00000000000E+00  0.13048599651E+04  0.13048599651E+04  0.25500000920E-02 0.  1.
       -2   -1    0    0    0  501  0.00000000000E+00  0.00000000000E+00 -0.24512928326E+04  0.24512928326E+04  0.25500000920E-02 0. -1.
    10030    2    1    2    0    0  0.00000000000E+00  0.00000000000E+00 -0.11464328674E+04  0.37561527977E+04  0.35769226327E+04 0.  0.
        2    1    3    3  502    0 -0.15423714129E+04  0.17275753632E+03 -0.15064772441E+04  0.21629212719E+04  0.25500000920E-02 0. -1.
       -2    1    3    3    0  502  0.15423714129E+04 -0.17275753632E+03  0.36004437664E+03  0.15932315258E+04  0.25500000920E-02 0.  1.
</event>
<event>
 5   0  0.6669864E-07  0.3703916E+04  0.7818609E-02  0.8067095E-01
       -2   -1    0    0    0  501  0.00000000000E+00  0.00000000000E+00  0.14703201394E+04  0.14703201394E+04  0.25500000920E-02 0.  1.
        2   -1    0    0  501    0  0.00000000000E+00  0.00000000000E+00 -0.23326540675E+04  0.23326540675E+04  0.25500000920E-02 0. -1.
    10030    2    1    2    0    0  0.00000000000E+00  0.00000000000E+00 -0.86233392815E+03  0.38029742069E+04  0.37039159028E+04 0.  0.
        5    1    3    3  502    0  0.21003555564E+03  0.18178959224E+04 -0.13919289134E+03  0.18352812510E+04  0.46999998093E+01 0.  1.
       -5    1    3    3    0  502 -0.21003555564E+03 -0.18178959224E+04 -0.72314103681E+03  0.19676929559E+04  0.46999998093E+01 0. -1.
</event>
<event>
 5   0  0.2086250E-07  0.3528154E+04  0.7818609E-02  0.8107150E-01
        1   -1    0    0  501    0  0.00000000000E+00  0.00000000000E+00  0.20227583835E+04  0.20227583835E+04  0.50400001928E-02 0. -1.
       -1   -1    0    0    0  501  0.00000000000E+00  0.00000000000E+00 -0.15384775717E+04  0.15384775718E+04  0.50400001928E-02 0.  1.
    10030    2    1    2    0    0  0.00000000000E+00  0.00000000000E+00  0.48428081177E+03  0.35612359553E+04  0.35281544219E+04 0.  0.
        3    1    3    3  502    0  0.11474592216E+04  0.74436215750E+03  0.13666920897E+04  0.19335420773E+04  0.10100000352E+00 0. -1.
       -3    1    3    3    0  502 -0.11474592216E+04 -0.74436215750E+03 -0.88241127790E+03  0.16276938779E+04  0.10100000352E+00 0.  1.
</event>
<event>
 5   0  0.2193129E-07  0.3523546E+04  0.7818609E-02  0.8108232E-01
       -1   -1    0    0    0  501  0.00000000000E+00  0.00000000000E+00  0.19226447336E+04  0.19226447336E+04  0.50400001928E-02 0. -1.
        1   -1    0    0  501    0  0.00000000000E+00  0.00000000000E+00 -0.16143618412E+04  0.16143618412E+04  0.50400001928E-02 0.  1.
    10030    2    1    2    0    0  0.00000000000E+00  0.00000000000E+00  0.30828289239E+03  0.35370065748E+04  0.35235461071E+04 0.  0.
        1    1    3    3  502    0 -0.56688098133E+03  0.36185662467E+03  0.17887200925E+04  0.19109719604E+04  0.50400001928E-02 0. -1.
       -1    1    3    3    0  502  0.56688098133E+03 -0.36185662467E+03 -0.14804372001E+04  0.16260346145E+04  0.50400001928E-02 0.  1.
</event>
<event>
 5   0  0.2108068E-07  0.3588176E+04  0.7818609E-02  0.8093206E-01
       -1   -1    0    0    0  501  0.00000000000E+00  0.00000000000E+00  0.26768866602E+04  0.26768866602E+04  0.50400001928E-02 0. -1.
        1   -1    0    0  501    0  0.00000000000E+00  0.00000000000E+00 -0.12024233011E+04  0.12024233011E+04  0.50400001928E-02 0.  1.
    10030    2    1    2    0    0  0.00000000000E+00  0.00000000000E+00  0.14744633591E+04  0.38793099613E+04  0.35881755222E+04 0.  0.
        5    1    3    3  502    0  0.15750336320E+04  0.71326157453E+03  0.12548873288E+04  0.21364075720E+04  0.46999998093E+01 0. -1.
       -5    1    3    3    0  502 -0.15750336320E+04 -0.71326157453E+03  0.21957603033E+03  0.17429023893E+04  0.46999998093E+01 0.  1.
</event>
<event>
 5   0  0.2086250E-07  0.3437222E+04  0.7818609E-02  0.8128831E-01
       -1   -1    0    0    0  501  0.00000000000E+00  0.00000000000E+00  0.17978213868E+04  0.17978213868E+04  0.50400001928E-02 0.  1.
        1   -1    0    0  501    0  0.00000000000E+00  0.00000000000E+00 -0.16428901015E+04  0.16428901015E+04  0.50400001928E-02 0. -1.
    10030    2    1    2    0    0  0.00000000000E+00  0.00000000000E+00  0.15493128529E+03  0.34407114883E+04  0.34372215294E+04 0.  0.
        3    1    3    3  502    0  0.31119995429E+01  0.93692369991E+03 -0.13647564826E+04  0.16554141388E+04  0.10100000352E+00 0. -1.
       -3    1    3    3    0  502 -0.31119995429E+01 -0.93692369991E+03  0.15196877679E+04  0.17852973495E+04  0.10100000352E+00 0.  1.
</event>
<event>
 5   0  0.6669864E-07  0.3403702E+04  0.7818609E-02  0.8136998E-01
        2   -1    0    0  501    0  0.00000000000E+00  0.00000000000E+00  0.22284294653E+04  0.22284294653E+04  0.25500000920E-02 0. -1.
       -2   -1    0    0    0  501  0.00000000000E+00  0.00000000000E+00 -0.12997031226E+04  0.12997031226E+04  0.25500000920E-02 0.  1.
    10030    2    1    2    0    0  0.00000000000E+00  0.00000000000E+00  0.92872634278E+03  0.35281325879E+04  0.34037019461E+04 0.  0.
        5    1    3    3  502    0 -0.12518199316E+04 -0.31551656706E+03  0.16138071372E+04  0.20666396423E+04  0.46999998093E+01 0. -1.
       -5    1    3    3    0  502  0.12518199316E+04  0.31551656706E+03 -0.68508079438E+03  0.14614929456E+04  0.46999998093E+01 0.  1.
</event>
<event>
 5   0  0.6669864E-07  0.3245158E+04  0.7818609E-02  0.8176992E-01
       -2   -1    0    0    0  501  0.00000000000E+00  0.00000000000E+00  0.14355750156E+04  0.14355750156E+04  0.25500000920E-02 0.  1.
        2   -1    0    0  501    0  0.00000000000E+00  0.00000000000E+00 -0.18339431586E+04  0.18339431586E+04  0.25500000920E-02 0. -1.
    10030    2    1    2    0    0  0.00000000000E+00  0.00000000000E+00 -0.39836814300E+03  0.32695181742E+04  0.32451582264E+04 0.  0.
        5    1    3    3  502    0 -0.96972323632E+03 -0.10979911303E+04 -0.90212711197E+03  0.17204078276E+04  0.46999998093E+01 0. -1.
       -5    1    3    3    0  502  0.96972323632E+03  0.10979911303E+04  0.50375896897E+03  0.15491103466E+04  0.46999998093E+01 0.  1.
</event>
<event>
 5   0  0.2193129E-07  0.3590449E+04  0.7818609E-02  0.8092683E-01
       -1   -1    0    0    0  501  0.00000000000E+00  0.00000000000E+00  0.26587389932E+04  0.26587389932E+04  0.50400001928E-02 0.  1.
        1   -1    0    0  501    0  0.00000000000E+00  0.00000000000E+00 -0.12121655515E+04  0.12121655516E+04  0.50400001928E-02 0. -1.
    10030    2    1    2    0    0  0.00000000000E+00  0.00000000000E+00  0.14465734416E+04  0.38709045447E+04  0.35904494527E+04 0.  0.
        1    1    3    3  502    0  0.67603897469E+03 -0.13720643690E+04 -0.28993297084E+03  0.15568077774E+04  0.50400001928E-02 0. -1.
       -1    1    3    3    0  502 -0.67603897469E+03  0.13720643690E+04  0.17365064125E+04  0.23140967674E+04  0.50400001928E-02 0.  1.
</event>
<event>
 5   0  0.2108068E-07  0.3610212E+04  0.7818609E-02  0.8088156E-01
       -1   -1    0    0    0  501  0.00000000000E+00  0.00000000000E+00  0.27871000668E+04  0.27871000668E+04  0.50400001928E-02 0. -1.
        1   -1    0    0  501    0  0.00000000000E+00  0.00000000000E+00 -0.11691034597E+04  0.11691034597E+04  0.50400001928E-02 0.  1.
    10030    2    1    2    0    0  0.00000000000E+00  0.00000000000E+00  0.16179966071E+04  0.39562035265E+04  0.36102123653E+04 0.  0.
        5    1    3    3  502    0 -0.90318125595E+03 -0.15011012348E+04  0.12858383604E+04  0.21731184223E+04  0.46999998093E+01 0. -1.
       -5    1    3    3    0  502  0.90318125595E+03  0.15011012348E+04  0.33215824674E+03  0.17830851043E+04  0.46999998093E+01 0.  1.
</event>
<event>
 5   0  0.6729577E-07  0.3656195E+04  0.7818609E-02  0.8077739E-01
       -2   -1    0    0    0  501  0.00000000000E+00  0.00000000000E+00  0.19867555250E+04  0.19867555250E+04  0.25500000920E-02 0.  1.
        2   -1    0    0  501    0  0.00000000000E+00  0.00000000000E+00 -0.16821100078E+04  0.16821100078E+04  0.25500000920E-02 0. -1.
    10030    2    1    2    0    0  0.00000000000E+00  0.00000000000E+00  0.30464551717E+03  0.36688655328E+04  0.36561954825E+04 0.  0.
        3    1    3    3  502    0 -0.92991392832E+03  0.94344265137E+03 -0.11118514110E+04  0.17294616274E+04  0.10100000352E+00 0. -1.
       -3    1    3    3    0  502  0.92991392832E+03 -0.94344265137E+03  0.14164969281E+04  0.19394039054E+04  0.10100000352E+00 0.  1.
</event>
<event>
 5   0  0.6669864E-07  0.3593240E+04  0.7818609E-02  0.8092042E-01
        2   -1    0    0  501    0  0.00000000000E+00  0.00000000000E+00  0.26456069061E+04  0.26456069061E+04  0.25500000920E-02 0.  1.
       -2   -1    0    0    0  501  0.00000000000E+00  0.00000000000E+00 -0.12200768351E+04  0.12200768351E+04  0.25500000920E-02 0. -1.
    10030    2    1    2    0    0  0.00000000000E+00  0.00000000000E+00  0.14255300711E+04  0.38656837412E+04  0.35932401539E+04 0.  0.
        5    1    3    3  502    0 -0.30196337438E+03  0.17469132540E+04  0.10262959656E+04  0.20484612019E+04  0.46999998093E+01 0.  1.
       -5    1    3    3    0  502  0.30196337438E+03 -0.17469132540E+04  0.39923410545E+03  0.18172225393E+04  0.46999998093E+01 0. -1.
</event>
<event>
 5   0  0.6541476E-07  0.3574956E+04  0.7818609E-02  0.8096252E-01
       -2   -1    0    0    0  501  0.00000000000E+00  0.00000000000E+00  0.26070627571E+04  0.26070627571E+04  0.25500000920E-02 0. -1.
        2   -1    0    0  501    0  0.00000000000E+00  0.00000000000E+00 -0.12255469795E+04  0.12255469795E+04  0.25500000920E-02 0.  1.
    10030    2    1    2    0    0  0.00000000000E+00  0.00000000000E+00  0.13815157777E+04  0.38326097366E+04  0.35749561604E+04 0.  0.
        4    1    3    3  502    0  0.12638162389E+04 -0.40183839393E+03 -0.59410606671E+03  0.14531583575E+04  0.12699999809E+01 0.  1.
       -4    1    3    3    0  502 -0.12638162389E+04  0.40183839393E+03  0.19756218444E+04  0.23794513791E+04  0.12699999809E+01 0. -1.
</event>
<event>
 5   0  0.2086250E-07  0.3599562E+04  0.7818609E-02  0.8090592E-01
        1   -1    0    0  501    0  0.00000000000E+00  0.00000000000E+00  0.20483140134E+04  0.20483140134E+04  0.50400001928E-02 0. -1.
       -1   -1    0    0    0  501  0.00000000000E+00  0.00000000000E+00 -0.15814039817E+04  0.15814039817E+04  0.50400001928E-02 0.  1.
    10030    2    1    2    0    0  0.00000000000E+00  0.00000000000E+00  0.46691003171E+03  0.36297179952E+04  0.35995621604E+04 0.  0.
        3    1    3    3  502    0 -0.56662843255E+03 -0.38339343587E+03  0.19120793232E+04  0.20307894169E+04  0.10100000352E+00 0. -1.
       -3    1    3    3    0  502  0.56662843255E+03  0.38339343587E+03 -0.14451692915E+04  0.15989285783E+04  0.10100000352E+00 0.  1.
</event>
<event>
 5   0  0.2086250E-07  0.3589191E+04  0.7818609E-02  0.8092972E-01
       -1   -1    0    0    0  501  0.00000000000E+00  0.00000000000E+00  0.14872859365E+04  0.14872859365E+04  0.50400001928E-02 0. -1.
        1   -1    0    0  501    0  0.00000000000E+00  0.00000000000E+00 -0.21654026995E+04  0.21654026996E+04  0.50400001928E-02 0.  1.
    10030    2    1    2    0    0  0.00000000000E+00  0.00000000000E+00 -0.67811676307E+03  0.36526886360E+04  0.35891909851E+04 0.  0.
        4    1    3    3  502    0 -0.17247235388E+04  0.45958729103E+03 -0.52857755742E+03  0.18615282997E+04  0.12699999809E+01 0.  1.
       -4    1    3    3    0  502  0.17247235388E+04 -0.45958729103E+03 -0.14953920564E+03  0.17911603363E+04  0.12699999809E+01 0. -1.
</event>
<event>
 5   0  0.2086250E-07  0.3640052E+04  0.7818609E-02  0.8081378E-01
       -1   -1    0    0    0  501  0.00000000000E+00  0.00000000000E+00  0.15522525988E+04  0.15522525988E+04  0.50400001928E-02 0.  1.
        1   -1    0    0  501    0  0.00000000000E+00  0.00000000000E+00 -0.21339924157E+04  0.21339924157E+04  0.50400001928E-02 0. -1.
    10030    2    1    2    0    0  0.00000000000E+00  0.00000000000E+00 -0.58173981690E+03  0.36862450145E+04  0.36400523475E+04 0.  0.
        4    1    3    3  502    0  0.12746345111E+03  0.92054546241E+03 -0.18756062623E+04  0.20932155512E+04  0.12699999809E+01 0. -1.
       -4    1    3    3    0  502 -0.12746345111E+03 -0.92054546241E+03  0.12938664454E+04  0.15930294633E+04  0.12699999809E+01 0.  1.
</event>
<event>
 5   0  0.2086250E-07  0.3615680E+04  0.7818609E-02  0.8086909E-01
        1   -1    0    0  501    0  0.00000000000E+00  0.00000000000E+00  0.23987059332E+04  0.23987059332E+04  0.50400001928E-02 0.  1.
       -1   -1    0    0    0  501  0.00000000000E+00  0.00000000000E+00 -0.13625201671E+04  0.13625201671E+04  0.50400001928E-02 0. -1.
    10030    2    1    2    0    0  0.00000000000E+00  0.00000000000E+00  0.10361857661E+04  0.37612261003E+04  0.36156798580E+04 0.  0.
        4    1    3    3  502    0 -0.12603293756E+04  0.12638749264E+04  0.21935037022E+03  0.17983120315E+04  0.12699999809E+01 0. -1.
       -4    1    3    3    0  502  0.12603293756E+04 -0.12638749264E+04  0.81683539587E+03  0.19629140688E+04  0.12699999809E+01 0.  1.
</event>
<event>
 5   0  0.2193129E-07  0.3598261E+04  0.7818609E-02  0.8090890E-01
       -1   -1    0    0    0  501  0.00000000000E+00  0.00000000000E+00  0.16693732266E+04  0.16693732266E+04  0.50400001928E-02 0.  1.
        1   -1    0    0  501    0  0.00000000000E+00  0.00000000000E+00 -0.19389731619E+04  0.19389731619E+04  0.50400001928E-02 0. -1.
    10030    2    1    2    0    0  0.00000000000E+00  0.00000000000E+00 -0.26959993527E+03  0.36083463885E+04  0.35982606262E+04 0.  0.
        1    1    3    3  502    0  0.13770578225E+04  0.95943086982E+03 -0.78474784293E+03  0.18527344703E+04  0.50400001928E-02 0.  1.
       -1    1    3    3    0  502 -0.13770578225E+04 -0.95943086982E+03  0.51514790766E+03  0.17556119182E+04  0.50400001928E-02 0. -1.
</event>
<event>
 5   0  0.2108068E-07  0.3588256E+04  0.7818609E-02  0.8093187E-01
       -1   -1    0    0    0  501  0.00000000000E+00  0.00000000000E+00  0.20685024805E+04  0.20685024805E+04  0.50400001928E-02 0. -1.
        1   -1    0    0  501    0  0.00000000000E+00  0.00000000000E+00 -0.15561478147E+04  0.15561478148E+04  0.50400001928E-02 0.  1.
    10030    2    1    2    0    0  0.00000000000E+00  0.00000000000E+00  0.51235466577E+03  0.36246502953E+04  0.35882561864E+04 0.  0.
        5    1    3    3  502    0  0.17433056346E+03 -0.16539760319E+04 -0.42358606736E+03  0.17162386506E+04  0.46999998093E+01 0.  1.
       -5    1    3    3    0  502 -0.17433056346E+03  0.16539760319E+04  0.93594073313E+03  0.19084116446E+04  0.46999998093E+01 0. -1.
</event>
<event>
 5   0  0.6541476E-07  0.3531855E+04  0.7818609E-02  0.8106282E-01
        2   -1    0    0  501    0  0.00000000000E+00  0.00000000000E+00  0.20301375530E+04  0.20301375530E+04  0.25500000920E-02 0.  1.
       -2   -1    0    0    0  501  0.00000000000E+00  0.00000000000E+00 -0.15361025614E+04  0.15361025614E+04  0.25500000920E-02 0. -1.
    10030    2    1    2    0    0  0.00000000000E+00  0.00000000000E+00  0.49403499156E+03  0.35662401144E+04  0.35318547508E+04 0.  0.
        4    1    3    3  502    0 -0.81474553080E+03  0.12947619884E+04 -0.64377264364E+03  0.16597179628E+04  0.12699999809E+01 0. -1.
       -4    1    3    3    0  502  0.81474553080E+03 -0.12947619884E+04  0.11378076352E+04  0.19065221515E+04  0.12699999809E+01 0.  1.
</event>
<event>
 5   0  0.2108068E-07  0.3614463E+04  0.7818609E-02  0.8087187E-01
        1   -1    0    0  501    0  0.00000000000E+00  0.00000000000E+00  0.11870339507E+04  0.11870339507E+04  0.50400001928E-02 0.  1.
       -1   -1    0    0    0  501  0.00000000000E+00  0.00000000000E+00 -0.27514673360E+04  0.27514673360E+04  0.50400001928E-02 0. -1.
    10030    2    1    2    0    0  0.00000000000E+00  0.00000000000E+00 -0.15644333853E+04  0.39385012867E+04  0.36144626943E+04 0.  0.
        5    1    3    3  502    0 -0.15856613880E+04 -0.29022885363E+03  0.10804063397E+03  0.16156267184E+04  0.46999998093E+01 0. -1.
       -5    1    3    3    0  502  0.15856613880E+04  0.29022885363E+03 -0.16724740193E+04  0.23228745683E+04  0.46999998093E+01 0.  1.
</event>
<event>
 5   0  0.6541476E-07  0.3207497E+04  0.7818609E-02  0.8186840E-01
        2   -1    0    0  501    0  0.00000000000E+00  0.00000000000E+00  0.20583204913E+04  0.20583204913E+04  0.25500000920E-02 0.  1.
       -2   -1    0    0    0  501  0.00000000000E+00  0.00000000000E+00 -0.12495671652E+04  0.12495671652E+04  0.25500000920E-02 0. -1.
    10030    2    1    2    0    0  0.00000000000E+00  0.00000000000E+00  0.80875332606E+03  0.33078876565E+04  0.32074972807E+04 0.  0.
        4    1    3    3  502    0 -0.26194372241E+03  0.90665469921E+02 -0.12246748443E+04  0.12556531480E+04  0.12699999809E+01 0. -1.
       -4    1    3    3    0  502  0.26194372241E+03 -0.90665469921E+02  0.20334281703E+04  0.20522345085E+04  0.12699999809E+01 0.  1.
</event>
<event>
 5   0  0.2193129E-07  0.3200565E+04  0.7818609E-02  0.8188668E-01
       -1   -1    0    0    0  501  0.00000000000E+00  0.00000000000E+00  0.11459883534E+04  0.11459883534E+04  0.50400001928E-02 0.  1.
        1   -1    0    0  501    0  0.00000000000E+00  0.00000000000E+00 -0.22346690533E+04  0.22346690533E+04  0.50400001928E-02 0. -1.
    10030    2    1    2    0    0  0.00000000000E+00  0.00000000000E+00 -0.10886806999E+04  0.33806574068E+04  0.32005653931E+04 0.  0.
        1    1    3    3  502    0  0.11033318469E+04 -0.93597412807E+03 -0.12665656285E+04  0.19229085324E+04  0.50400001928E-02 0. -1.
       -1    1    3    3    0  502 -0.11033318469E+04  0.93597412807E+03  0.17788492856E+03  0.14577488743E+04  0.50400001928E-02 0.  1.
</event>
<event>
 5   0  0.6848661E-07  0.3575995E+04  0.7818609E-02  0.8096013E-01
        2   -1    0    0  501    0  0.00000000000E+00  0.00000000000E+00  0.19375584675E+04  0.19375584675E+04  0.25500000920E-02 0.  1.
       -2   -1    0    0    0  501  0.00000000000E+00  0.00000000000E+00 -0.16499809903E+04  0.16499809903E+04  0.25500000920E-02 0. -1.
    10030    2    1    2    0    0  0.00000000000E+00  0.00000000000E+00  0.28757747723E+03  0.35875394578E+04  0.35759947645E+04 0.  0.
        1    1    3    3  502    0 -0.12829111038E+04 -0.71108527756E+03  0.11695530762E+04  0.18759950881E+04  0.50400001928E-02 0.  1.
       -1    1    3    3    0  502  0.12829111038E+04  0.71108527756E+03 -0.88197559899E+03  0.17115443697E+04  0.50400001928E-02 0. -1.
</event>
<event>
 5   0  0.2086250E-07  0.3595259E+04  0.7818609E-02  0.8091579E-01
       -1   -1    0    0    0  501  0.00000000000E+00  0.00000000000E+00  0.17493696495E+04  0.17493696495E+04  0.50400001928E-02 0.  1.
        1   -1    0    0  501    0  0.00000000000E+00  0.00000000000E+00 -0.18472204972E+04  0.18472204972E+04  0.50400001928E-02 0. -1.
    10030    2    1    2    0    0  0.00000000000E+00  0.00000000000E+00 -0.97850847717E+02  0.35965901468E+04  0.35952588078E+04 0.  0.
        3    1    3    3  502    0 -0.13193827266E+04 -0.99201261558E+03 -0.76095556730E+03  0.18176669646E+04  0.10100000352E+00 0. -1.
       -3    1    3    3    0  502  0.13193827266E+04  0.99201261558E+03  0.66310471958E+03  0.17789231821E+04  0.10100000352E+00 0.  1.
</event>
<event>
 5   0  0.6324216E-07  0.3436621E+04  0.7818609E-02  0.8128976E-01
       -2   -1    0    0    0  501  0.00000000000E+00  0.00000000000E+00  0.14335253816E+04  0.14335253816E+04  0.25500000920E-02 0.  1.
        2   -1    0    0  501    0  0.00000000000E+00  0.00000000000E+00 -0.20596717465E+04  0.20596717465E+04  0.25500000920E-02 0. -1.
    10030    2    1    2    0    0  0.00000000000E+00  0.00000000000E+00 -0.62614636491E+03  0.34931971282E+04  0.34366214377E+04 0.  0.
        2    1    3    3  502    0  0.23518646241E+03  0.72099025976E+03  0.12542093284E+04  0.14656673109E+04  0.25500000920E-02 0.  1.
       -2    1    3    3    0  502 -0.23518646241E+03 -0.72099025976E+03 -0.18803556933E+04  0.20275298173E+04  0.25500000920E-02 0. -1.
</event>
<event>
 5   0  0.2193129E-07  0.3537027E+04  0.7818609E-02  0.8105071E-01
       -1   -1    0    0    0  501  0.00000000000E+00  0.00000000000E+00  0.13385611578E+04  0.13385611578E+04  0.50400001928E-02 0. -1.
        1   -1    0    0  501    0  0.00000000000E+00  0.00000000000E+00 -0.23365680237E+04  0.23365680237E+04  0.50400001928E-02 0.  1.
    10030    2    1    2    0    0  0.00000000000E+00  0.00000000000E+00 -0.99800686598E+03  0.36751291815E+04  0.35370265473E+04 0.  0.
        1    1    3    3  502    0  0.48928420711E+03  0.50370731835E+03  0.11874912085E+04  0.13795852522E+04  0.50400001928E-02 0. -1.
       -1    1    3    3    0  502 -0.48928420711E+03 -0.50370731835E+03 -0.21854980744E+04  0.22955439293E+04  0.50400001928E-02 0.  1.
</event>
<event>
 5   0  0.2108068E-07  0.3610809E+04  0.7818609E-02  0.8088020E-01
       -1   -1    0    0    0  501  0.00000000000E+00  0.00000000000E+00  0.33599449416E+04  0.33599449416E+04  0.50400001928E-02 0. -1.
        1   -1    0    0  501    0  0.00000000000E+00  0.00000000000E+00 -0.97010084386E+03  0.97010084388E+03  0.50400001928E-02 0.  1.
    10030    2    1    2    0    0  0.00000000000E+00  0.00000000000E+00  0.23898440978E+04  0.43300457855E+04  0.36108090081E+04 0.  0.
        5    1    3    3  502    0 -0.13315154272E+04 -0.10988813064E+04  0.18283280772E+04  0.25146131127E+04  0.46999998093E+01 0. -1.
       -5    1    3    3    0  502  0.13315154272E+04  0.10988813064E+04  0.56151602051E+03  0.18154326728E+04  0.46999998093E+01 0.  1.
</event>
<event>
 5   0  0.2193129E-07  0.3596003E+04  0.7818609E-02  0.8091408E-01
       -1   -1    0    0    0  501  0.00000000000E+00  0.00000000000E+00  0.18385640334E+04  0.18385640334E+04  0.50400001928E-02 0.  1.
        1   -1    0    0  501    0  0.00000000000E+00  0.00000000000E+00 -0.17583343227E+04  0.17583343227E+04  0.50400001928E-02 0. -1.
    10030    2    1    2    0    0  0.00000000000E+00  0.00000000000E+00  0.80229710737E+02  0.35968983561E+04  0.35960034730E+04 0.  0.
        1    1    3    3  502    0 -0.84455000087E+03  0.94229843778E+03 -0.12375515207E+04  0.17699505124E+04  0.50400001928E-02 0. -1.
       -1    1    3    3    0  502  0.84455000087E+03 -0.94229843778E+03  0.13177812315E+04  0.18269478438E+04  0.50400001928E-02 0.  1.
</event>
<event>
 5   0  0.6669864E-07  0.3590290E+04  0.7818609E-02  0.8092719E-01
       -2   -1    0    0    0  501  0.00000000000E+00  0.00000000000E+00  0.16117162613E+04  0.16117162613E+04  0.25500000920E-02 0.  1.
        2   -1    0    0  501    0  0.00000000000E+00  0.00000000000E+00 -0.19994497454E+04  0.19994497454E+04  0.25500000920E-02 0. -1.
    10030    2    1    2    0    0  0.00000000000E+00  0.00000000000E+00 -0.38773348413E+03  0.36111660067E+04  0.35902900542E+04 0.  0.
        5    1    3    3  502    0 -0.18377639293E+02  0.14798549387E+04  0.82802065458E+03  0.16958622207E+04  0.46999998093E+01 0.  1.
       -5    1    3    3    0  502  0.18377639293E+02 -0.14798549387E+04 -0.12157541387E+04  0.19153037861E+04  0.46999998093E+01 0. -1.
</event>
<event>
 5   0  0.6729577E-07  0.3632039E+04  0.7818609E-02  0.8083192E-01
       -2   -1    0    0    0  501  0.00000000000E+00  0.00000000000E+00  0.13701191967E+04  0.13701191967E+04  0.25500000920E-02 0. -1.
        2   -1    0    0  501    0  0.00000000000E+00  0.00000000000E+00 -0.24070365869E+04  0.24070365869E+04  0.25500000920E-02 0.  1.
    10030    2    1    2    0    0  0.00000000000E+00  0.00000000000E+00 -0.10369173902E+04  0.37771557836E+04  0.36320391159E+04 0.  0.
        3    1    3    3  502    0 -0.14807131123E+04 -0.91691663054E+03  0.16566965360E+02  0.17417008649E+04  0.10100000352E+00 0. -1.
       -3    1    3    3    0  502  0.14807131123E+04  0.91691663054E+03 -0.10534843556E+04  0.20354549187E+04  0.10100000352E+00 0.  1.
</event>
<event>
 5   0  0.6848661E-07  0.3609498E+04  0.7818609E-02  0.8088319E-01
       -2   -1    0    0    0  501  0.00000000000E+00  0.00000000000E+00  0.25184610154E+04  0.25184610154E+04  0.25500000920E-02 0.  1.
        2   -1    0    0  501    0  0.00000000000E+00  0.00000000000E+00 -0.12932975003E+04  0.12932975003E+04  0.25500000920E-02 0. -1.
    10030    2    1    2    0    0  0.00000000000E+00  0.00000000000E+00  0.12251635151E+04  0.38117585157E+04  0.36094982121E+04 0.  0.
        1    1    3    3  502    0  0.39508393709E+03  0.17986188934E+03 -0.12373435265E+04  0.13112820518E+04  0.50400001928E-02 0. -1.
       -1    1    3    3    0  502 -0.39508393709E+03 -0.17986188934E+03  0.24625070416E+04  0.25004764639E+04  0.50400001928E-02 0.  1.
</event>
<event>
 5   0  0.2086250E-07  0.3595335E+04  0.7818609E-02  0.8091561E-01
       -1   -1    0    0    0  501  0.00000000000E+00  0.00000000000E+00  0.15443092710E+04  0.15443092710E+04  0.50400001928E-02 0. -1.
        1   -1    0    0  501    0  0.00000000000E+00  0.00000000000E+00 -0.20925915312E+04  0.20925915312E+04  0.50400001928E-02 0.  1.
    10030    2    1    2    0    0  0.00000000000E+00  0.00000000000E+00 -0.54828226023E+03  0.36369008022E+04  0.35953350342E+04 0.  0.
        2    1    3    3  502    0  0.12760731504E+04  0.10912091573E+04  0.37555231187E+03  0.17205056376E+04  0.25500000920E-02 0. -1.
       -2    1    3    3    0  502 -0.12760731504E+04 -0.10912091573E+04 -0.92383457210E+03  0.19163951646E+04  0.25500000920E-02 0.  1.
</event>
<event>
 5   0  0.2193129E-07  0.2885610E+04  0.7818609E-02  0.8277172E-01
        1   -1    0    0  501    0  0.00000000000E+00  0.00000000000E+00  0.14112573818E+04  0.14112573818E+04  0.50400001928E-02 0.  1.
       -1   -1    0    0    0  501  0.00000000000E+00  0.00000000000E+00 -0.14750577538E+04  0.14750577538E+04  0.50400001928E-02 0. -1.
    10030    2    1    2    0    0  0.00000000000E+00  0.00000000000E+00 -0.63800371964E+02  0.28863151356E+04  0.28856099138E+04 0.  0.
        1    1    3    3  502    0  0.17689446779E+03  0.65643940385E+03  0.12409994470E+04  0.14150208377E+04  0.50400001928E-02 0.  1.
       -1    1    3    3    0  502 -0.17689446779E+03 -0.65643940385E+03 -0.13047998189E+04  0.14712942980E+04  0.50400001928E-02 0. -1.
</event>
<event>
 5   0  0.6669864E-07  0.3427265E+04  0.7818609E-02  0.8131247E-01
       -2   -1    0    0    0  501  0.00000000000E+00  0.00000000000E+00  0.13284552788E+04  0.13284552788E+04  0.25500000920E-02 0. -1.
        2   -1    0    0  501    0  0.00000000000E+00  0.00000000000E+00 -0.22104900062E+04  0.22104900062E+04  0.25500000920E-02 0.  1.
    10030    2    1    2    0    0  0.00000000000E+00  0.00000000000E+00 -0.88203472738E+03  0.35389452851E+04  0.34272654508E+04 0.  0.
        5    1    3    3  502    0 -0.10393211020E+04  0.36839654926E+03  0.91344645823E+03  0.14318906706E+04  0.46999998093E+01 0. -1.
       -5    1    3    3    0  502  0.10393211020E+04 -0.36839654926E+03 -0.17954811856E+04  0.21070546145E+04  0.46999998093E+01 0.  1.
</event>
<event>
 5   0  0.2108068E-07  0.3673737E+04  0.7818609E-02  0.8073807E-01
       -1   -1    0    0    0  501  0.00000000000E+00  0.00000000000E+00  0.13769454324E+04  0.13769454324E+04  0.50400001928E-02 0. -1.
        1   -1    0    0  501    0  0.00000000000E+00  0.00000000000E+00 -0.24504138563E+04  0.24504138563E+04  0.50400001928E-02 0.  1.
    10030    2    1    2    0    0  0.00000000000E+00  0.00000000000E+00 -0.10734684239E+04  0.38273592887E+04  0.36737371527E+04 0.  0.
        5    1    3    3  502    0  0.10458057359E+04  0.67446708072E+02 -0.21083946191E+04  0.23544869198E+04  0.46999998093E+01 0.  1.
       -5    1    3    3    0  502 -0.10458057359E+04 -0.67446708072E+02  0.10349261952E+04  0.14728723689E+04  0.46999998093E+01 0. -1.
</event>
<event>
 5   0  0.2086250E-07  0.3522644E+04  0.7818609E-02  0.8108444E-01
        1   -1    0    0  501    0  0.00000000000E+00  0.00000000000E+00  0.17238816051E+04  0.17238816051E+04  0.50400001928E-02 0. -1.
       -1   -1    0    0    0  501  0.00000000000E+00  0.00000000000E+00 -0.17995760521E+04  0.17995760521E+04  0.50400001928E-02 0.  1.
    10030    2    1    2    0    0  0.00000000000E+00  0.00000000000E+00 -0.75694446967E+02  0.35234576572E+04  0.35226444914E+04 0.  0.
        4    1    3    3  502    0  0.75515002228E+03  0.14476947510E+04  0.62274659407E+03  0.17475372905E+04  0.12699999809E+01 0. -1.
       -4    1    3    3    0  502 -0.75515002228E+03 -0.14476947510E+04 -0.69844104104E+03  0.17759203667E+04  0.12699999809E+01 0.  1.
</event>
<event>
 5   0  0.6669864E-07  0.3582072E+04  0.7818609E-02  0.8094611E-01
       -2   -1    0    0    0  501  0.00000000000E+00  0.00000000000E+00  0.17822474870E+04  0.17822474870E+04  0.25500000920E-02 0. -1.
        2   -1    0    0  501    0  0.00000000000E+00  0.00000000000E+00 -0.17998679108E+04  0.17998679108E+04  0.25500000920E-02 0.  1.
    10030    2    1    2    0    0  0.00000000000E+00  0.00000000000E+00 -0.17620423806E+02  0.35821153978E+04  0.35820720601E+04 0.  0.
        5    1    3    3  502    0 -0.60126787762E+03  0.13663945731E+04 -0.99838308721E+03  0.17959254073E+04  0.46999998093E+01 0.  1.
       -5    1    3    3    0  502  0.60126787762E+03 -0.13663945731E+04  0.98076266341E+03  0.17861899904E+04  0.46999998093E+01 0. -1.
</event>
<event>
 5   0  0.2086250E-07  0.3575899E+04  0.7818609E-02  0.8096035E-01
        3   -1    0    0  501    0  0.00000000000E+00  0.00000000000E+00  0.19463498112E+04  0.19463498139E+04  0.10100000352E+00 0. -1.
       -3   -1    0    0    0  501  0.00000000000E+00  0.00000000000E+00 -0.16424405142E+04  0.16424405173E+04  0.10100000352E+00 0.  1.
    10030    2    1    2    0    0  0.00000000000E+00  0.00000000000E+00  0.30390929702E+03  0.35887903312E+04  0.35758992128E+04 0.  0.
        3    1    3    3  502    0  0.76642042160E+03  0.15651554079E+04 -0.24905063529E+03  0.17604368614E+04  0.10100000352E+00 0.  1.
       -3    1    3    3    0  502 -0.76642042160E+03 -0.15651554079E+04  0.55295993231E+03  0.18283534698E+04  0.10100000352E+00 0. -1.
</event>
<event>
 5   0  0.6669864E-07  0.3556792E+04  0.7818609E-02  0.8100461E-01
       -2   -1    0    0    0  501  0.00000000000E+00  0.00000000000E+00  0.16908956572E+04  0.16908956572E+04  0.25500000920E-02 0. -1.
        2   -1    0    0  501    0  0.00000000000E+00  0.00000000000E+00 -0.18704241283E+04  0.18704241283E+04  0.25500000920E-02 0.  1.
    10030    2    1    2    0    0  0.00000000000E+00  0.00000000000E+00 -0.17952847112E+03  0.35613197855E+04  0.35567918329E+04 0.  0.
        5    1    3    3  502    0 -0.16463675844E+04 -0.54880666049E+03 -0.47878809262E+03  0.18002708411E+04  0.46999998093E+01 0.  1.
       -5    1    3    3    0  502  0.16463675844E+04  0.54880666049E+03  0.29925962150E+03  0.17610489444E+04  0.46999998093E+01 0. -1.
</event>
<event>
 5   0  0.6541476E-07  0.3620304E+04  0.7818609E-02  0.8085857E-01
       -2   -1    0    0    0  501  0.00000000000E+00  0.00000000000E+00  0.10600163193E+04  0.10600163193E+04  0.25500000920E-02 0.  1.
        2   -1    0    0  501    0  0.00000000000E+00  0.00000000000E+00 -0.30911312567E+04  0.30911312567E+04  0.25500000920E-02 0. -1.
    10030    2    1    2    0    0  0.00000000000E+00  0.00000000000E+00 -0.20311149374E+04  0.41511475760E+04  0.36203036211E+04 0.  0.
        4    1    3    3  502    0 -0.30277629280E+03  0.17335191219E+04 -0.52923785860E+03  0.18376224730E+04  0.12699999809E+01 0.  1.
       -4    1    3    3    0  502  0.30277629280E+03 -0.17335191219E+04 -0.15018770788E+04  0.23135251030E+04  0.12699999809E+01 0. -1.
</event>
<event>
 5   0  0.6848661E-07  0.3601080E+04  0.7818609E-02  0.8090244E-01
       -2   -1    0    0    0  501  0.00000000000E+00  0.00000000000E+00  0.11179585604E+04  0.11179585604E+04  0.25500000920E-02 0.  1.
        2   -1    0    0  501    0  0.00000000000E+00  0.00000000000E+00 -0.28998795310E+04  0.28998795310E+04  0.25500000920E-02 0. -1.
    10030    2    1    2    0    0  0.00000000000E+00  0.00000000000E+00 -0.17819209706E+04  0.40178380914E+04  0.36010804744E+04 0.  0.
        1    1    3    3  502    0  0.95368841455E+03 -0.13165925347E+04 -0.17544872241E+04  0.23918952557E+04  0.50400001928E-02 0. -1.
       -1    1    3    3    0  502 -0.95368841455E+03  0.13165925347E+04 -0.27433746417E+02  0.16259428357E+04  0.50400001928E-02 0.  1.
</event>
<event>
 5   0  0.6848661E-07  0.3609079E+04  0.7818609E-02  0.8088415E-01
       -2   -1    0    0    0  501  0.00000000000E+00  0.00000000000E+00  0.14801111035E+04  0.14801111035E+04  0.25500000920E-02 0.  1.
        2   -1    0    0  501    0  0.00000000000E+00  0.00000000000E+00 -0.22000798949E+04  0.22000798949E+04  0.25500000920E-02 0. -1.
    10030    2    1    2    0    0  0.00000000000E+00  0.00000000000E+00 -0.71996879134E+03  0.36801909984E+04  0.36090789302E+04 0.  0.
        1    1    3    3  502    0 -0.32383859887E+03 -0.11034293328E+04 -0.17780453845E+04  0.21175157898E+04  0.50400001928E-02 0. -1.
       -1    1    3    3    0  502  0.32383859887E+03  0.11034293328E+04  0.10580765932E+04  0.15626752086E+04  0.50400001928E-02 0.  1.
</event>
<event>
 5   0  0.2086250E-07  0.3593853E+04  0.7818609E-02  0.8091901E-01
       -1   -1    0    0    0  501  0.00000000000E+00  0.00000000000E+00  0.33354611149E+04  0.33354611149E+04  0.50400001928E-02 0. -1.
        1   -1    0    0  501    0  0.00000000000E+00  0.00000000000E+00 -0.96806533155E+03  0.96806533156E+03  0.50400001928E-02 0.  1.
    10030    2    1    2    0    0  0.00000000000E+00  0.00000000000E+00  0.23673957833E+04  0.43035264465E+04  0.35938526793E+04 0.  0.
        2    1    3    3  502    0 -0.17254481693E+04  0.43550185993E+03  0.88526374049E+03  0.19875928016E+04  0.25500000920E-02 0.  1.
       -2    1    3    3    0  502  0.17254481693E+04 -0.43550185993E+03  0.14821320428E+04  0.23159336448E+04  0.25500000920E-02 0. -1.
</event>
<event>
 5   0  0.6848661E-07  0.3566319E+04  0.7818609E-02  0.8098251E-01
       -2   -1    0    0    0  501  0.00000000000E+00  0.00000000000E+00  0.15228218833E+04  0.15228218833E+04  0.25500000920E-02 0. -1.
        2   -1    0    0  501    0  0.00000000000E+00  0.00000000000E+00 -0.20880041137E+04  0.20880041137E+04  0.25500000920E-02 0.  1.
    10030    2    1    2    0    0  0.00000000000E+00  0.00000000000E+00 -0.56518223041E+03  0.36108259970E+04  0.35663193108E+04 0.  0.
        1    1    3    3  502    0 -0.67114229127E+02  0.14147065276E+04  0.81433125012E+03  0.16337179266E+04  0.50400001928E-02 0. -1.
       -1    1    3    3    0  502  0.67114229127E+02 -0.14147065276E+04 -0.13795134805E+04  0.19771080704E+04  0.50400001928E-02 0.  1.
</event>
<event>
 5   0  0.2108068E-07  0.3608165E+04  0.7818609E-02  0.8088624E-01
       -1   -1    0    0    0  501  0.00000000000E+00  0.00000000000E+00  0.12923214342E+04  0.12923214342E+04  0.50400001928E-02 0. -1.
        1   -1    0    0  501    0  0.00000000000E+00  0.00000000000E+00 -0.25185015402E+04  0.25185015402E+04  0.50400001928E-02 0.  1.
    10030    2    1    2    0    0  0.00000000000E+00  0.00000000000E+00 -0.12261801059E+04  0.38108229744E+04  0.36081649200E+04 0.  0.
        5    1    3    3  502    0 -0.32393001820E+03  0.94385435520E+03  0.97428982919E+03  0.13946520935E+04  0.46999998093E+01 0. -1.
       -5    1    3    3    0  502  0.32393001820E+03 -0.94385435520E+03 -0.22004699351E+04  0.24161708809E+04  0.46999998093E+01 0.  1.
</event>
<event>
 5   0  0.2086250E-07  0.3631151E+04  0.7818609E-02  0.8083393E-01
        1   -1    0    0  501    0  0.00000000000E+00  0.00000000000E+00  0.26863302949E+04  0.26863302949E+04  0.50400001928E-02 0.  1.
       -1   -1    0    0    0  501  0.00000000000E+00  0.00000000000E+00 -0.12270697678E+04  0.12270697679E+04  0.50400001928E-02 0. -1.
    10030    2    1    2    0    0  0.00000000000E+00  0.00000000000E+00  0.14592605270E+04  0.39134000627E+04  0.36311511625E+04 0.  0.
        3    1    3    3  502    0 -0.10691857031E+04  0.14568811233E+04  0.91832228502E+03  0.20270610510E+04  0.10100000352E+00 0. -1.
       -3    1    3    3    0  502  0.10691857031E+04 -0.14568811233E+04  0.54093824198E+03  0.18863390117E+04  0.10100000352E+00 0.  1.
</event>
<event>
 5   0  0.6541476E-07  0.3587625E+04  0.7818609E-02  0.8093332E-01
       -2   -1    0    0    0  501  0.00000000000E+00  0.00000000000E+00  0.16624682256E+04  0.16624682256E+04  0.25500000920E-02 0.  1.
        2   -1    0    0  501    0  0.00000000000E+00  0.00000000000E+00 -0.19355342399E+04  0.19355342399E+04  0.25500000920E-02 0. -1.
    10030    2    1    2    0    0  0.00000000000E+00  0.00000000000E+00 -0.27306601432E+03  0.35980024656E+04  0.35876254952E+04 0.  0.
        4    1    3    3  502    0 -0.14155537819E+04  0.25709333989E+03  0.93795429545E+03  0.17174543278E+04  0.12699999809E+01 0.  1.
       -4    1    3    3    0  502  0.14155537819E+04 -0.25709333989E+03 -0.12110203098E+04  0.18805481378E+04  0.12699999809E+01 0. -1.
</event>
<event>
 5   0  0.2193129E-07  0.3605964E+04  0.7818609E-02  0.8089127E-01
        1   -1    0    0  501    0  0.00000000000E+00  0.00000000000E+00  0.23456286187E+04  0.23456286187E+04  0.50400001928E-02 0. -1.
       -1   -1    0    0    0  501  0.00000000000E+00  0.00000000000E+00 -0.13858732267E+04  0.13858732267E+04  0.50400001928E-02 0.  1.
    10030    2    1    2    0    0  0.00000000000E+00  0.00000000000E+00  0.95975539202E+03  0.37315018454E+04  0.36059638947E+04 0.  0.
        1    1    3    3  502    0 -0.13681932056E+04  0.11415810837E+04  0.76437417045E+03  0.19389244160E+04  0.50400001928E-02 0. -1.
       -1    1    3    3    0  502  0.13681932056E+04 -0.11415810837E+04  0.19538122157E+03  0.17925774294E+04  0.50400001928E-02 0.  1.
</event>
<event>
 5   0  0.6729577E-07  0.3590380E+04  0.7818609E-02  0.8092699E-01
       -2   -1    0    0    0  501  0.00000000000E+00  0.00000000000E+00  0.20594732433E+04  0.20594732433E+04  0.25500000920E-02 0. -1.
        2   -1    0    0  501    0  0.00000000000E+00  0.00000000000E+00 -0.15648210530E+04  0.15648210530E+04  0.25500000920E-02 0.  1.
    10030    2    1    2    0    0  0.00000000000E+00  0.00000000000E+00  0.49465219030E+03  0.36242942964E+04  0.35903799739E+04 0.  0.
        3    1    3    3  502    0  0.14221569645E+03  0.12665431600E+04  0.15235268947E+04  0.19863260280E+04  0.10100000352E+00 0. -1.
       -3    1    3    3    0  502 -0.14221569645E+03 -0.12665431600E+04 -0.10288747044E+04  0.16379682683E+04  0.10100000352E+00 0.  1.
</event>
<event>
 5   0  0.6729577E-07  0.3614369E+04  0.7818609E-02  0.8087208E-01
       -2   -1    0    0    0  501  0.00000000000E+00  0.00000000000E+00  0.18785196717E+04  0.18785196717E+04  0.25500000920E-02 0.  1.
        2   -1    0    0  501    0  0.00000000000E+00  0.00000000000E+00 -0.17385580686E+04  0.17385580687E+04  0.25500000920E-02 0. -1.
    10030    2    1    2    0    0  0.00000000000E+00  0.00000000000E+00  0.13996160303E+03  0.36170777403E+04  0.36143688424E+04 0.  0.
        3    1    3    3  502    0 -0.17233992714E+03  0.97323386718E+03  0.15840688977E+04  0.18671259983E+04  0.10100000352E+00 0.  1.
       -3    1    3    3    0  502  0.17233992714E+03 -0.97323386718E+03 -0.14441072947E+04  0.17499517420E+04  0.10100000352E+00 0. -1.
</event>
<event>
 5   0  0.6729577E-07  0.3656576E+04  0.7818609E-02  0.8077654E-01
       -2   -1    0    0    0  501  0.00000000000E+00  0.00000000000E+00  0.18618561110E+04  0.18618561110E+04  0.25500000920E-02 0. -1.
        2   -1    0    0  501    0  0.00000000000E+00  0.00000000000E+00 -0.17953254397E+04  0.17953254397E+04  0.25500000920E-02 0.  1.
    10030    2    1    2    0    0  0.00000000000E+00  0.00000000000E+00  0.66530671323E+02  0.36571815507E+04  0.36565763447E+04 0.  0.
        3    1    3    3  502    0  0.12655489094E+04  0.84431424232E+03 -0.98088328325E+03  0.18101415987E+04  0.10100000352E+00 0.  1.
       -3    1    3    3    0  502 -0.12655489094E+04 -0.84431424232E+03  0.10474139546E+04  0.18470399520E+04  0.10100000352E+00 0. -1.
</event>
<event>
 5   0  0.2086250E-07  0.3585705E+04  0.7818609E-02  0.8093774E-01
       -1   -1    0    0    0  501  0.00000000000E+00  0.00000000000E+00  0.20759395756E+04  0.20759395756E+04  0.50400001928E-02 0.  1.
        1   -1    0    0  501    0  0.00000000000E+00  0.00000000000E+00 -0.15483687010E+04  0.15483687010E+04  0.50400001928E-02 0. -1.
    10030    2    1    2    0    0  0.00000000000E+00  0.00000000000E+00  0.52757087468E+03  0.36243082766E+04  0.35857048758E+04 0.  0.
        2    1    3    3  502    0 -0.14161642772E+03  0.92229206900E+03 -0.12835918730E+04  0.15869108260E+04  0.25500000920E-02 0. -1.
       -2    1    3    3    0  502  0.14161642772E+03 -0.92229206900E+03  0.18111627477E+04  0.20373974506E+04  0.25500000920E-02 0.  1.
</event>
<event>
 5   0  0.6669864E-07  0.3602421E+04  0.7818609E-02  0.8089937E-01
       -2   -1    0    0    0  501  0.00000000000E+00  0.00000000000E+00  0.12064575216E+04  0.12064575216E+04  0.25500000920E-02 0. -1.
        2   -1    0    0  501    0  0.00000000000E+00  0.00000000000E+00 -0.26891621508E+04  0.26891621508E+04  0.25500000920E-02 0.  1.
    10030    2    1    2    0    0  0.00000000000E+00  0.00000000000E+00 -0.14827046292E+04  0.38956196723E+04  0.36024213543E+04 0.  0.
        5    1    3    3  502    0  0.18876190721E+03 -0.11110686772E+04  0.77807966216E+03  0.13695016297E+04  0.46999998093E+01 0. -1.
       -5    1    3    3    0  502 -0.18876190721E+03  0.11110686772E+04 -0.22607842914E+04  0.25261180426E+04  0.46999998093E+01 0.  1.
</event>
<event>
 5   0  0.6669864E-07  0.3656151E+04  0.7818609E-02  0.8077749E-01
        2   -1    0    0  501    0  0.00000000000E+00  0.00000000000E+00  0.16766363570E+04  0.16766363570E+04  0.25500000920E-02 0. -1.
       -2   -1    0    0    0  501  0.00000000000E+00  0.00000000000E+00 -0.19931927931E+04  0.19931927931E+04  0.25500000920E-02 0.  1.
    10030    2    1    2    0    0  0.00000000000E+00  0.00000000000E+00 -0.31655643612E+03  0.36698291502E+04  0.36561507100E+04 0.  0.
        5    1    3    3  502    0 -0.32682364162E+02  0.83544264634E+02 -0.19909759923E+04  0.19930015737E+04  0.46999998093E+01 0.  1.
       -5    1    3    3    0  502  0.32682364162E+02 -0.83544264634E+02  0.16744195562E+04  0.16768275764E+04  0.46999998093E+01 0. -1.
</event>
<event>
 5   0  0.6541476E-07  0.3377805E+04  0.7818609E-02  0.8143375E-01
       -2   -1    0    0    0  501  0.00000000000E+00  0.00000000000E+00  0.17138436078E+04  0.17138436078E+04  0.25500000920E-02 0. -1.
        2   -1    0    0  501    0  0.00000000000E+00  0.00000000000E+00 -0.16643246508E+04  0.16643246508E+04  0.25500000920E-02 0.  1.
    10030    2    1    2    0    0  0.00000000000E+00  0.00000000000E+00  0.49518956934E+02  0.33781682586E+04  0.33778053017E+04 0.  0.
        4    1    3    3  502    0  0.73715737738E+02 -0.12644397779E+04  0.11420852319E+04  0.17054624745E+04  0.12699999809E+01 0.  1.
       -4    1    3    3    0  502 -0.73715737738E+02  0.12644397779E+04 -0.10925662750E+04  0.16727057841E+04  0.12699999809E+01 0. -1.
</event>
<event>
 5   0  0.6541476E-07  0.3546604E+04  0.7818609E-02  0.8102833E-01
        2   -1    0    0  501    0  0.00000000000E+00  0.00000000000E+00  0.16219321270E+04  0.16219321270E+04  0.25500000920E-02 0. -1.
       -2   -1    0    0    0  501  0.00000000000E+00  0.00000000000E+00 -0.19387989751E+04  0.19387989751E+04  0.25500000920E-02 0.  1.
    10030    2    1    2    0    0  0.00000000000E+00  0.00000000000E+00 -0.31686684809E+03  0.35607311022E+04  0.35466042044E+04 0.  0.
        4    1    3    3  502    0 -0.13411538307E+04 -0.37833518581E+03  0.94264263005E+03  0.16823816009E+04  0.12699999809E+01 0. -1.
       -4    1    3    3    0  502  0.13411538307E+04  0.37833518581E+03 -0.12595094781E+04  0.18783495012E+04  0.12699999809E+01 0.  1.
</event>
<event>
 5   0  0.2086250E-07  0.3593433E+04  0.7818609E-02  0.8091998E-01
       -1   -1    0    0    0  501  0.00000000000E+00  0.00000000000E+00  0.14422304479E+04  0.14422304479E+04  0.50400001928E-02 0.  1.
        1   -1    0    0  501    0  0.00000000000E+00  0.00000000000E+00 -0.22383311189E+04  0.22383311189E+04  0.50400001928E-02 0. -1.
    10030    2    1    2    0    0  0.00000000000E+00  0.00000000000E+00 -0.79610067097E+03  0.36805615668E+04  0.35934325051E+04 0.  0.
        4    1    3    3  502    0 -0.14283942443E+04 -0.81585402258E+03 -0.11382482956E+04  0.20003846377E+04  0.12699999809E+01 0. -1.
       -4    1    3    3    0  502  0.14283942443E+04  0.81585402258E+03  0.34214762466E+03  0.16801769291E+04  0.12699999809E+01 0.  1.
</event>
<event>
 5   0  0.6729577E-07  0.3618978E+04  0.7818609E-02  0.8086158E-01
       -2   -1    0    0    0  501  0.00000000000E+00  0.00000000000E+00  0.12635594274E+04  0.12635594274E+04  0.25500000920E-02 0.  1.
        2   -1    0    0  501    0  0.00000000000E+00  0.00000000000E+00 -0.25912912266E+04  0.25912912266E+04  0.25500000920E-02 0. -1.
    10030    2    1    2    0    0  0.00000000000E+00  0.00000000000E+00 -0.13277317991E+04  0.38548506540E+04  0.36189780096E+04 0.  0.
        3    1    3    3  502    0  0.14355437642E+04  0.53409012125E+03  0.36236543369E+03  0.15739589812E+04  0.10100000352E+00 0.  1.
       -3    1    3    3    0  502 -0.14355437642E+04 -0.53409012125E+03 -0.16900972328E+04  0.22808916728E+04  0.10100000352E+00 0. -1.
</event>
<event>
 5   0  0.2086250E-07  0.3621511E+04  0.7818609E-02  0.8085582E-01
       -1   -1    0    0    0  501  0.00000000000E+00  0.00000000000E+00  0.12241101726E+04  0.12241101726E+04  0.50400001928E-02 0. -1.
        1   -1    0    0  501    0  0.00000000000E+00  0.00000000000E+00 -0.26785454828E+04  0.26785454828E+04  0.50400001928E-02 0.  1.
    10030    2    1    2    0    0  0.00000000000E+00  0.00000000000E+00 -0.14544353102E+04  0.39026556553E+04  0.36215106092E+04 0.  0.
        4    1    3    3  502    0 -0.71725530892E+03 -0.13321441248E+04 -0.17993233867E+04  0.23508784337E+04  0.12699999809E+01 0.  1.
       -4    1    3    3    0  502  0.71725530892E+03  0.13321441248E+04  0.34488807649E+03  0.15517772216E+04  0.12699999809E+01 0. -1.
</event>
<event>
 5   0  0.6848661E-07  0.3611594E+04  0.7818609E-02  0.8087841E-01
       -2   -1    0    0    0  501  0.00000000000E+00  0.00000000000E+00  0.15510026203E+04  0.15510026203E+04  0.25500000920E-02 0.  1.
        2   -1    0    0  501    0  0.00000000000E+00  0.00000000000E+00 -0.21024482743E+04  0.21024482743E+04  0.25500000920E-02 0. -1.
    10030    2    1    2    0    0  0.00000000000E+00  0.00000000000E+00 -0.55144565400E+03  0.36534508946E+04  0.36115939874E+04 0.  0.
        1    1    3    3  502    0 -0.49293242105E+03  0.17362244807E+04 -0.21634877896E+03  0.18177636297E+04  0.50400001928E-02 0.  1.
       -1    1    3    3    0  502  0.49293242105E+03 -0.17362244807E+04 -0.33509687504E+03  0.18356872650E+04  0.50400001928E-02 0. -1.
</event>
<event>
 5   0  0.6324216E-07  0.3517231E+04  0.7818609E-02  0.8109719E-01
       -2   -1    0    0    0  501  0.00000000000E+00  0.00000000000E+00  0.19218196430E+04  0.19218196430E+04  0.25500000920E-02 0.  1.
        2   -1    0    0  501    0  0.00000000000E+00  0.00000000000E+00 -0.16092709755E+04  0.16092709755E+04  0.25500000920E-02 0. -1.
    10030    2    1    2    0    0  0.00000000000E+00  0.00000000000E+00  0.31254866751E+03  0.35310906184E+04  0.35172310538E+04 0.  0.
        2    1    3    3  502    0 -0.71571439878E+03  0.15982532989E+04 -0.58173312056E+01  0.17511980326E+04  0.25500000920E-02 0. -1.
       -2    1    3    3    0  502  0.71571439878E+03 -0.15982532989E+04  0.31836599872E+03  0.17798925858E+04  0.25500000920E-02 0.  1.
</event>
<event>
 5   0  0.2193129E-07  0.3585987E+04  0.7818609E-02  0.8093709E-01
        1   -1    0    0  501    0  0.00000000000E+00  0.00000000000E+00  0.25177853705E+04  0.25177853705E+04  0.50400001928E-02 0.  1.
       -1   -1    0    0    0  501  0.00000000000E+00  0.00000000000E+00 -0.12768463191E+04  0.12768463191E+04  0.50400001928E-02 0. -1.
    10030    2    1    2    0    0  0.00000000000E+00  0.00000000000E+00  0.12409390514E+04  0.37946316896E+04  0.35859866049E+04 0.  0.
        1    1    3    3  502    0  0.10318548760E+04  0.18097999022E+03 -0.91930439141E+03  0.13937714325E+04  0.50400001928E-02 0. -1.
       -1    1    3    3    0  502 -0.10318548760E+04 -0.18097999022E+03  0.21602434428E+04  0.24008602571E+04  0.50400001928E-02 0.  1.
</event>
<event>
 5   0  0.2086250E-07  0.3588537E+04  0.7818609E-02  0.8093122E-01
       -1   -1    0    0    0  501  0.00000000000E+00  0.00000000000E+00  0.18365669110E+04  0.18365669110E+04  0.50400001928E-02 0.  1.
        1   -1    0    0  501    0  0.00000000000E+00  0.00000000000E+00 -0.17529442842E+04  0.17529442842E+04  0.50400001928E-02 0. -1.
    10030    2    1    2    0    0  0.00000000000E+00  0.00000000000E+00  0.83622626758E+02  0.35895111952E+04  0.35885370107E+04 0.  0.
        2    1    3    3  502    0 -0.17500141420E+04 -0.32643829230E+03  0.26612208108E+03  0.17999812271E+04  0.25500000920E-02 0.  1.
       -2    1    3    3    0  502  0.17500141420E+04  0.32643829230E+03 -0.18249945432E+03  0.17895299681E+04  0.25500000920E-02 0. -1.
</event>
<event>
 5   0  0.6541476E-07  0.3745242E+04  0.7818609E-02  0.8058009E-01
        2   -1    0    0  501    0  0.00000000000E+00  0.00000000000E+00  0.25796109664E+04  0.25796109664E+04  0.25500000920E-02 0.  1.
       -2   -1    0    0    0  501  0.00000000000E+00  0.00000000000E+00 -0.13593947128E+04  0.13593947128E+04  0.25500000920E-02 0. -1.
    10030    2    1    2    0    0  0.00000000000E+00  0.00000000000E+00  0.12202162536E+04  0.39390056792E+04  0.37452420530E+04 0.  0.
        4    1    3    3  502    0  0.17196595758E+04 -0.68327617494E+03  0.30781406251E+03  0.18758588694E+04  0.12699999809E+01 0. -1.
       -4    1    3    3    0  502 -0.17196595758E+04  0.68327617494E+03  0.91240219105E+03  0.20631468098E+04  0.12699999809E+01 0.  1.
</event>
<event>
 5   0  0.6541476E-07  0.3531648E+04  0.7818609E-02  0.8106330E-01
        2   -1    0    0  501    0  0.00000000000E+00  0.00000000000E+00  0.24045912314E+04  0.24045912314E+04  0.25500000920E-02 0. -1.
       -2   -1    0    0    0  501  0.00000000000E+00  0.00000000000E+00 -0.12967419900E+04  0.12967419900E+04  0.25500000920E-02 0.  1.
    10030    2    1    2    0    0  0.00000000000E+00  0.00000000000E+00  0.11078492414E+04  0.37013332214E+04  0.35316480111E+04 0.  0.
        4    1    3    3  502    0 -0.95639790399E+03 -0.23625379486E+03 -0.98196318696E+03  0.13909587053E+04  0.12699999809E+01 0.  1.
       -4    1    3    3    0  502  0.95639790399E+03  0.23625379486E+03  0.20898124283E+04  0.23103745162E+04  0.12699999809E+01 0. -1.
</event>
<event>
 5   0  0.2086250E-07  0.3601015E+04  0.7818609E-02  0.8090259E-01
       -1   -1    0    0    0  501  0.00000000000E+00  0.00000000000E+00  0.15860978036E+04  0.15860978036E+04  0.50400001928E-02 0.  1.
        1   -1    0    0  501    0  0.00000000000E+00  0.00000000000E+00 -0.20439008273E+04  0.20439008273E+04  0.50400001928E-02 0. -1.
    10030    2    1    2    0    0  0.00000000000E+00  0.00000000000E+00 -0.45780302365E+03  0.36299986309E+04  0.36010146420E+04 0.  0.
        4    1    3    3  502    0 -0.14804009333E+04 -0.24378068239E+03 -0.12323071975E+04  0.19415454119E+04  0.12699999809E+01 0. -1.
       -4    1    3    3    0  502  0.14804009333E+04  0.24378068239E+03  0.77450417381E+03  0.16884532190E+04  0.12699999809E+01 0.  1.
</event>
<event>
 5   0  0.2086250E-07  0.3602470E+04  0.7818609E-02  0.8089926E-01
        1   -1    0    0  501    0  0.00000000000E+00  0.00000000000E+00  0.19733687672E+04  0.19733687672E+04  0.50400001928E-02 0.  1.
       -1   -1    0    0    0  501  0.00000000000E+00  0.00000000000E+00 -0.16441159677E+04  0.16441159677E+04  0.50400001928E-02 0. -1.
    10030    2    1    2    0    0  0.00000000000E+00  0.00000000000E+00  0.32925279953E+03  0.36174847349E+04  0.36024697641E+04 0.  0.
        2    1    3    3  502    0  0.66139647704E+02 -0.38614531162E+03 -0.16008152475E+04  0.16480570716E+04  0.25500000920E-02 0. -1.
       -2    1    3    3    0  502 -0.66139647704E+02  0.38614531162E+03  0.19300680470E+04  0.19694276633E+04  0.25500000920E-02 0.  1.
</event>
<event>
 5   0  0.6669864E-07  0.3496822E+04  0.7818609E-02  0.8114544E-01
        2   -1    0    0  501    0  0.00000000000E+00  0.00000000000E+00  0.20640360247E+04  0.20640360247E+04  0.25500000920E-02 0. -1.
       -2   -1    0    0    0  501  0.00000000000E+00  0.00000000000E+00 -0.14810501977E+04  0.14810501977E+04  0.25500000920E-02 0.  1.
    10030    2    1    2    0    0  0.00000000000E+00  0.00000000000E+00  0.58298582697E+03  0.35450862224E+04  0.34968219643E+04 0.  0.
        5    1    3    3  502    0  0.31191574329E+02 -0.97341799231E+03  0.17635685735E+04  0.20146244577E+04  0.46999998093E+01 0. -1.
       -5    1    3    3    0  502 -0.31191574329E+02  0.97341799231E+03 -0.11805827465E+04  0.15304617648E+04  0.46999998093E+01 0.  1.
</event>
<event>
 5   0  0.6669864E-07  0.3604636E+04  0.7818609E-02  0.8089431E-01
       -2   -1    0    0    0  501  0.00000000000E+00  0.00000000000E+00  0.15709689570E+04  0.15709689570E+04  0.25500000920E-02 0.  1.
        2   -1    0    0  501    0  0.00000000000E+00  0.00000000000E+00 -0.20677366598E+04  0.20677366598E+04  0.25500000920E-02 0. -1.
    10030    2    1    2    0    0  0.00000000000E+00  0.00000000000E+00 -0.49676770273E+03  0.36387056168E+04  0.36046359616E+04 0.  0.
        5    1    3    3  502    0 -0.80804806624E+03  0.16028598656E+04 -0.84906946847E+02  0.17970344197E+04  0.46999998093E+01 0. -1.
       -5    1    3    3    0  502  0.80804806624E+03 -0.16028598656E+04 -0.41186075588E+03  0.18416711971E+04  0.46999998093E+01 0.  1.
</event>
<event>
 5   0  0.2108068E-07  0.3582034E+04  0.7818609E-02  0.8094619E-01
        1   -1    0    0  501    0  0.00000000000E+00  0.00000000000E+00  0.18355156504E+04  0.18355156504E+04  0.50400001928E-02 0.  1.
       -1   -1    0    0    0  501  0.00000000000E+00  0.00000000000E+00 -0.17475970497E+04  0.17475970497E+04  0.50400001928E-02 0. -1.
    10030    2    1    2    0    0  0.00000000000E+00  0.00000000000E+00  0.87918600674E+02  0.35831127002E+04  0.35820339113E+04 0.  0.
        5    1    3    3  502    0 -0.10627725223E+04 -0.14063484895E+04 -0.27302434553E+03  0.17837785432E+04  0.46999998093E+01 0. -1.
       -5    1    3    3    0  502  0.10627725223E+04  0.14063484895E+04  0.36094294620E+03  0.17993341569E+04  0.46999998093E+01 0.  1.
</event>
<event>
 5   0  0.6324216E-07  0.3564290E+04  0.7818609E-02  0.8098721E-01
        2   -1    0    0  501    0  0.00000000000E+00  0.00000000000E+00  0.29286214606E+04  0.29286214606E+04  0.25500000920E-02 0.  1.
       -2   -1    0    0    0  501  0.00000000000E+00  0.00000000000E+00 -0.10844832376E+04  0.10844832376E+04  0.25500000920E-02 0. -1.
    10030    2    1    2    0    0  0.00000000000E+00  0.00000000000E+00  0.18441382231E+04  0.40131046982E+04  0.35642900461E+04 0.  0.
        2    1    3    3  502    0 -0.25013106619E+03  0.15406589549E+04 -0.46382480190E+02  0.15615207011E+04  0.25500000920E-02 0. -1.
       -2    1    3    3    0  502  0.25013106619E+03 -0.15406589549E+04  0.18905207032E+04  0.24515839971E+04  0.25500000920E-02 0.  1.
</event>
<event>
 5   0  0.2086250E-07  0.3331488E+04  0.7818609E-02  0.8154929E-01
       -1   -1    0    0    0  501  0.00000000000E+00  0.00000000000E+00  0.15068937318E+04  0.15068937318E+04  0.50400001928E-02 0.  1.
        1   -1    0    0  501    0  0.00000000000E+00  0.00000000000E+00 -0.18413400804E+04  0.18413400804E+04  0.50400001928E-02 0. -1.
    10030    2    1    2    0    0  0.00000000000E+00  0.00000000000E+00 -0.33444634862E+03  0.33482338122E+04  0.33314884513E+04 0.  0.
        4    1    3    3  502    0 -0.38754126450E+03  0.15485742392E+04 -0.64546348661E+03  0.17218870844E+04  0.12699999809E+01 0. -1.
       -4    1    3    3    0  502  0.38754126450E+03 -0.15485742392E+04  0.31101713799E+03  0.16263467278E+04  0.12699999809E+01 0.  1.
</event>
<event>
 5   0  0.6729577E-07  0.3664410E+04  0.7818609E-02  0.8075895E-01
        2   -1    0    0  501    0  0.00000000000E+00  0.00000000000E+00  0.20228269145E+04  0.20228269145E+04  0.25500000920E-02 0. -1.
       -2   -1    0    0    0  501  0.00000000000E+00  0.00000000000E+00 -0.16595464343E+04  0.16595464343E+04  0.25500000920E-02 0.  1.
    10030    2    1    2    0    0  0.00000000000E+00  0.00000000000E+00  0.36328048026E+03  0.36823733488E+04  0.36644100170E+04 0.  0.
        3    1    3    3  502    0 -0.17564023896E+03 -0.71816551463E+03 -0.15029917466E+04  0.16749911643E+04  0.10100000352E+00 0.  1.
       -3    1    3    3    0  502  0.17564023896E+03  0.71816551463E+03  0.18662722268E+04  0.20073821845E+04  0.10100000352E+00 0. -1.
</event>
<event>
 5   0  0.2086250E-07  0.3648766E+04  0.7818609E-02  0.8079412E-01
       -1   -1    0    0    0  501  0.00000000000E+00  0.00000000000E+00  0.12516713989E+04  0.12516713989E+04  0.50400001928E-02 0. -1.
        1   -1    0    0  501    0  0.00000000000E+00  0.00000000000E+00 -0.26591426057E+04  0.26591426057E+04  0.50400001928E-02 0.  1.
    10030    2    1    2    0    0  0.00000000000E+00  0.00000000000E+00 -0.14074712068E+04  0.39108140046E+04  0.36487656791E+04 0.  0.
        2    1    3    3  502    0 -0.10173024489E+04  0.91114019814E+03 -0.20002778978E+04  0.24220223785E+04  0.25500000920E-02 0.  1.
       -2    1    3    3    0  502  0.10173024489E+04 -0.91114019814E+03  0.59280669103E+03  0.14887916262E+04  0.25500000920E-02 0. -1.
</event>
<event>
 5   0  0.6324216E-07  0.3608384E+04  0.7818609E-02  0.8088574E-01
        2   -1    0    0  501    0  0.00000000000E+00  0.00000000000E+00  0.25062461153E+04  0.25062461153E+04  0.25500000920E-02 0. -1.
       -2   -1    0    0    0  501  0.00000000000E+00  0.00000000000E+00 -0.12987985408E+04  0.12987985408E+04  0.25500000920E-02 0.  1.
    10030    2    1    2    0    0  0.00000000000E+00  0.00000000000E+00  0.12074475745E+04  0.38050446561E+04  0.36083840136E+04 0.  0.
        2    1    3    3  502    0  0.12293103412E+04 -0.12658775898E+04  0.20711529592E+03  0.17766673108E+04  0.25500000920E-02 0.  1.
       -2    1    3    3    0  502 -0.12293103412E+04  0.12658775898E+04  0.10003322786E+04  0.20283773453E+04  0.25500000920E-02 0. -1.
</event>
<event>
 5   0  0.2086250E-07  0.3189203E+04  0.7818609E-02  0.8191674E-01
       -1   -1    0    0    0  501  0.00000000000E+00  0.00000000000E+00  0.15578031729E+04  0.15578031729E+04  0.50400001928E-02 0.  1.
        1   -1    0    0  501    0  0.00000000000E+00  0.00000000000E+00 -0.16322695559E+04  0.16322695559E+04  0.50400001928E-02 0. -1.
    10030    2    1    2    0    0  0.00000000000E+00  0.00000000000E+00 -0.74466383009E+02  0.31900727289E+04  0.31892034700E+04 0.  0.
        3    1    3    3  502    0  0.10810692441E+04  0.33813851516E+03 -0.11599054987E+04  0.16212430854E+04  0.10100000352E+00 0. -1.
       -3    1    3    3    0  502 -0.10810692441E+04 -0.33813851516E+03  0.10854391157E+04  0.15688296434E+04  0.10100000352E+00 0.  1.
</event>
<event>
 5   0  0.6324216E-07  0.3601889E+04  0.7818609E-02  0.8090059E-01
        2   -1    0    0  501    0  0.00000000000E+00  0.00000000000E+00  0.22877072528E+04  0.22877072528E+04  0.25500000920E-02 0. -1.
       -2   -1    0    0    0  501  0.00000000000E+00  0.00000000000E+00 -0.14177514185E+04  0.14177514185E+04  0.25500000920E-02 0.  1.
    10030    2    1    2    0    0  0.00000000000E+00  0.00000000000E+00  0.86995583430E+03  0.37054586712E+04  0.36018885061E+04 0.  0.
        2    1    3    3  502    0  0.17454285441E+04 -0.41776901446E+03  0.58877050962E+03  0.18888362727E+04  0.25500000920E-02 0.  1.
       -2    1    3    3    0  502 -0.17454285441E+04  0.41776901446E+03  0.28118532468E+03  0.18166223985E+04  0.25500000920E-02 0. -1.
</event>
<event>
 5   0  0.2108068E-07  0.3608505E+04  0.7818609E-02  0.8088546E-01
       -1   -1    0    0    0  501  0.00000000000E+00  0.00000000000E+00  0.18112136826E+04  0.18112136826E+04  0.50400001928E-02 0.  1.
        1   -1    0    0  501    0  0.00000000000E+00  0.00000000000E+00 -0.17973184563E+04  0.17973184564E+04  0.50400001928E-02 0. -1.
    10030    2    1    2    0    0  0.00000000000E+00  0.00000000000E+00  0.13895226275E+02  0.36085321390E+04  0.36085053860E+04 0.  0.
        5    1    3    3  502    0  0.92611129348E+03  0.73515869969E+02  0.15536390660E+04  0.18102218506E+04  0.46999998093E+01 0.  1.
       -5    1    3    3    0  502 -0.92611129348E+03 -0.73515869969E+02 -0.15397438398E+04  0.17983102883E+04  0.46999998093E+01 0. -1.
</event>
<event>
 5   0  0.2086250E-07  0.3592011E+04  0.7818609E-02  0.8092324E-01
       -1   -1    0    0    0  501  0.00000000000E+00  0.00000000000E+00  0.16299416637E+04  0.16299416637E+04  0.50400001928E-02 0.  1.
        1   -1    0    0  501    0  0.00000000000E+00  0.00000000000E+00 -0.19789884449E+04  0.19789884449E+04  0.50400001928E-02 0. -1.
    10030    2    1    2    0    0  0.00000000000E+00  0.00000000000E+00 -0.34904678122E+03  0.36089301087E+04  0.35920109791E+04 0.  0.
        4    1    3    3  502    0 -0.64236749377E+03 -0.12677524089E+03  0.15057552840E+04  0.16419526628E+04  0.12699999809E+01 0.  1.
       -4    1    3    3    0  502  0.64236749377E+03  0.12677524089E+03 -0.18548020652E+04  0.19669774459E+04  0.12699999809E+01 0. -1.
</event>
<event>
 5   0  0.6729577E-07  0.3602369E+04  0.7818609E-02  0.8089949E-01
       -2   -1    0    0    0  501  0.00000000000E+00  0.00000000000E+00  0.22616492866E+04  0.22616492866E+04  0.25500000920E-02 0.  1.
        2   -1    0    0  501    0  0.00000000000E+00  0.00000000000E+00 -0.14344686625E+04  0.14344686625E+04  0.25500000920E-02 0. -1.
    10030    2    1    2    0    0  0.00000000000E+00  0.00000000000E+00  0.82718062413E+03  0.36961179492E+04  0.36023686803E+04 0.  0.
        3    1    3    3  502    0 -0.13183375533E+03 -0.10235047338E+04 -0.11010812048E+04  0.15090798219E+04  0.10100000352E+00 0. -1.
       -3    1    3    3    0  502  0.13183375533E+03  0.10235047338E+04  0.19282618289E+04  0.21870381273E+04  0.10100000352E+00 0.  1.
</event>
<event>
 5   0  0.2086250E-07  0.3570888E+04  0.7818609E-02  0.8097193E-01
       -1   -1    0    0    0  501  0.00000000000E+00  0.00000000000E+00  0.16475665827E+04  0.16475665827E+04  0.50400001928E-02 0. -1.
        1   -1    0    0  501    0  0.00000000000E+00  0.00000000000E+00 -0.19348598304E+04  0.19348598304E+04  0.50400001928E-02 0.  1.
    10030    2    1    2    0    0  0.00000000000E+00  0.00000000000E+00 -0.28729324764E+03  0.35824264131E+04  0.35708880682E+04 0.  0.
        3    1    3    3  502    0 -0.12387762861E+04  0.53905785357E+03 -0.13147489615E+04  0.18851299421E+04  0.10100000352E+00 0.  1.
       -3    1    3    3    0  502  0.12387762861E+04 -0.53905785357E+03  0.10274557138E+04  0.16972964711E+04  0.10100000352E+00 0. -1.
</event>
<event>
 5   0  0.2086250E-07  0.3592427E+04  0.7818609E-02  0.8092228E-01
        1   -1    0    0  501    0  0.00000000000E+00  0.00000000000E+00  0.26685100214E+04  0.26685100214E+04  0.50400001928E-02 0.  1.
       -1   -1    0    0    0  501  0.00000000000E+00  0.00000000000E+00 -0.12090581603E+04  0.12090581604E+04  0.50400001928E-02 0. -1.
    10030    2    1    2    0    0  0.00000000000E+00  0.00000000000E+00  0.14594518610E+04  0.38775681817E+04  0.35924274898E+04 0.  0.
        2    1    3    3  502    0  0.80640067952E+03  0.46450830602E+03  0.23880070052E+04  0.25629333739E+04  0.25500000920E-02 0.  1.
       -2    1    3    3    0  502 -0.80640067952E+03 -0.46450830602E+03 -0.92855514413E+03  0.13146348078E+04  0.25500000920E-02 0. -1.
</event>
<event>
 5   0  0.2086250E-07  0.3611220E+04  0.7818609E-02  0.8087926E-01
       -1   -1    0    0    0  501  0.00000000000E+00  0.00000000000E+00  0.17835711203E+04  0.17835711203E+04  0.50400001928E-02 0. -1.
        1   -1    0    0  501    0  0.00000000000E+00  0.00000000000E+00 -0.18279214458E+04  0.18279214458E+04  0.50400001928E-02 0.  1.
    10030    2    1    2    0    0  0.00000000000E+00  0.00000000000E+00 -0.44350325524E+02  0.36114925660E+04  0.36112202374E+04 0.  0.
        2    1    3    3  502    0  0.31926901731E+02 -0.15774032031E+04  0.85596150044E+03  0.17949624738E+04  0.25500000920E-02 0. -1.
       -2    1    3    3    0  502 -0.31926901731E+02  0.15774032031E+04 -0.90031182597E+03  0.18165300922E+04  0.25500000920E-02 0.  1.
</event>
<event>
 5   0  0.6541476E-07  0.3532839E+04  0.7818609E-02  0.8106051E-01
       -2   -1    0    0    0  501  0.00000000000E+00  0.00000000000E+00  0.10459104526E+04  0.10459104526E+04  0.25500000920E-02 0. -1.
        2   -1    0    0  501    0  0.00000000000E+00  0.00000000000E+00 -0.29832743536E+04  0.29832743536E+04  0.25500000920E-02 0.  1.
    10030    2    1    2    0    0  0.00000000000E+00  0.00000000000E+00 -0.19373639010E+04  0.40291848061E+04  0.35328389883E+04 0.  0.
        4    1    3    3  502    0  0.51728968696E+03 -0.13134793794E+03  0.95175543436E+03  0.10911832664E+04  0.12699999809E+01 0. -1.
       -4    1    3    3    0  502 -0.51728968696E+03  0.13134793794E+03 -0.28891193354E+04  0.29380015398E+04  0.12699999809E+01 0.  1.
</event>
<event>
 5   0  0.2193129E-07  0.3587411E+04  0.7818609E-02  0.8093382E-01
       -1   -1    0    0    0  501  0.00000000000E+00  0.00000000000E+00  0.32860364992E+04  0.32860364992E+04  0.50400001928E-02 0. -1.
        1   -1    0    0  501    0  0.00000000000E+00  0.00000000000E+00 -0.97910621510E+03  0.97910621512E+03  0.50400001928E-02 0.  1.
    10030    2    1    2    0    0  0.00000000000E+00  0.00000000000E+00  0.23069302841E+04  0.42651427143E+04  0.35874106313E+04 0.  0.
        1    1    3    3  502    0 -0.17342148858E+04  0.45787062631E+03  0.11353568863E+04  0.21227769643E+04  0.50400001928E-02 0. -1.
       -1    1    3    3    0  502  0.17342148858E+04 -0.45787062631E+03  0.11715733977E+04  0.21423657500E+04  0.50400001928E-02 0.  1.
</event>
<event>
 5   0  0.2193129E-07  0.3633667E+04  0.7818609E-02  0.8082823E-01
       -1   -1    0    0    0  501  0.00000000000E+00  0.00000000000E+00  0.15088778589E+04  0.15088778589E+04  0.50400001928E-02 0.  1.
        1   -1    0    0  501    0  0.00000000000E+00  0.00000000000E+00 -0.21876416880E+04  0.21876416880E+04  0.50400001928E-02 0. -1.
    10030    2    1    2    0    0  0.00000000000E+00  0.00000000000E+00 -0.67876382905E+03  0.36965195469E+04  0.36336670768E+04 0.  0.
        1    1    3    3  502    0 -0.13087907277E+04 -0.65676250865E+02  0.94081203690E+03  0.16131874744E+04  0.50400001928E-02 0.  1.
       -1    1    3    3    0  502  0.13087907277E+04  0.65676250865E+02 -0.16195758659E+04  0.20833320725E+04  0.50400001928E-02 0. -1.
</event>
<event>
 5   0  0.6669864E-07  0.3622682E+04  0.7818609E-02  0.8085316E-01
       -2   -1    0    0    0  501  0.00000000000E+00  0.00000000000E+00  0.13605560900E+04  0.13605560900E+04  0.25500000920E-02 0.  1.
        2   -1    0    0  501    0  0.00000000000E+00  0.00000000000E+00 -0.24114823909E+04  0.24114823909E+04  0.25500000920E-02 0. -1.
    10030    2    1    2    0    0  0.00000000000E+00  0.00000000000E+00 -0.10509263009E+04  0.37720384810E+04  0.36226824608E+04 0.  0.
        5    1    3    3  502    0  0.42202764318E+03  0.45320823171E+03  0.12468983888E+04  0.13922222218E+04  0.46999998093E+01 0.  1.
       -5    1    3    3    0  502 -0.42202764318E+03 -0.45320823171E+03 -0.22978246897E+04  0.23798162592E+04  0.46999998093E+01 0. -1.
</event>
<event>
 5   0  0.6848661E-07  0.3566934E+04  0.7818609E-02  0.8098108E-01
       -2   -1    0    0    0  501  0.00000000000E+00  0.00000000000E+00  0.27358030966E+04  0.27358030966E+04  0.25500000920E-02 0.  1.
        2   -1    0    0  501    0  0.00000000000E+00  0.00000000000E+00 -0.11626403556E+04  0.11626403556E+04  0.25500000920E-02 0. -1.
    10030    2    1    2    0    0  0.00000000000E+00  0.00000000000E+00  0.15731627411E+04  0.38984434522E+04  0.35669343055E+04 0.  0.
        1    1    3    3  502    0 -0.30125360674E+03  0.12380741774E+04  0.21504252393E+04  0.24995819879E+04  0.50400001928E-02 0.  1.
       -1    1    3    3    0  502  0.30125360674E+03 -0.12380741774E+04 -0.57726249821E+03  0.13988614643E+04  0.50400001928E-02 0. -1.
</event>
<event>
 5   0  0.6848661E-07  0.3536995E+04  0.7818609E-02  0.8105078E-01
       -2   -1    0    0    0  501  0.00000000000E+00  0.00000000000E+00  0.16886351869E+04  0.16886351869E+04  0.25500000920E-02 0.  1.
        2   -1    0    0  501    0  0.00000000000E+00  0.00000000000E+00 -0.18521363325E+04  0.18521363325E+04  0.25500000920E-02 0. -1.
    10030    2    1    2    0    0  0.00000000000E+00  0.00000000000E+00 -0.16350114561E+03  0.35407715194E+04  0.35369945333E+04 0.  0.
        1    1    3    3  502    0  0.78889749500E+03 -0.90477026833E+03  0.12183333157E+04  0.17103521755E+04  0.50400001928E-02 0.  1.
       -1    1    3    3    0  502 -0.78889749500E+03  0.90477026833E+03 -0.13818344613E+04  0.18304193439E+04  0.50400001928E-02 0. -1.
</event>
<event>
 5   0  0.2086250E-07  0.3579036E+04  0.7818609E-02  0.8095311E-01
       -1   -1    0    0    0  501  0.00000000000E+00  0.00000000000E+00  0.22494129842E+04  0.22494129842E+04  0.50400001928E-02 0. -1.
        1   -1    0    0  501    0  0.00000000000E+00  0.00000000000E+00 -0.14236493323E+04  0.14236493323E+04  0.50400001928E-02 0.  1.
    10030    2    1    2    0    0  0.00000000000E+00  0.00000000000E+00  0.82576365192E+03  0.36730623166E+04  0.35790363469E+04 0.  0.
        3    1    3    3  502    0  0.12288094208E+04  0.45387345004E+03  0.16640919998E+04  0.21178233862E+04  0.10100000352E+00 0. -1.
       -3    1    3    3    0  502 -0.12288094208E+04 -0.45387345004E+03 -0.83832834788E+03  0.15552389303E+04  0.10100000352E+00 0.  1.
</event>
<event>
 5   0  0.6669864E-07  0.3440125E+04  0.7818609E-02  0.8128128E-01
        2   -1    0    0  501    0  0.00000000000E+00  0.00000000000E+00  0.16055732619E+04  0.16055732619E+04  0.25500000920E-02 0. -1.
       -2   -1    0    0    0  501  0.00000000000E+00  0.00000000000E+00 -0.18427160198E+04  0.18427160198E+04  0.25500000920E-02 0.  1.
    10030    2    1    2    0    0  0.00000000000E+00  0.00000000000E+00 -0.23714275788E+03  0.34482892816E+04  0.34401253294E+04 0.  0.
        5    1    3    3  502    0  0.73095223084E+03 -0.93435351015E+02  0.14393281084E+04  0.16170061293E+04  0.46999998093E+01 0. -1.
       -5    1    3    3    0  502 -0.73095223084E+03  0.93435351015E+02 -0.16764708663E+04  0.18312831523E+04  0.46999998093E+01 0.  1.
</event>
<event>
 5   0  0.6324216E-07  0.3623704E+04  0.7818609E-02  0.8085084E-01
       -2   -1    0    0    0  501  0.00000000000E+00  0.00000000000E+00  0.15857918658E+04  0.15857918658E+04  0.25500000920E-02 0.  1.
        2   -1    0    0  501    0  0.00000000000E+00  0.00000000000E+00 -0.20701377008E+04  0.20701377008E+04  0.25500000920E-02 0. -1.
    10030    2    1    2    0    0  0.00000000000E+00  0.00000000000E+00 -0.48434583507E+03  0.36559295666E+04  0.36237039211E+04 0.  0.
        2    1    3    3  502    0 -0.17858615462E+04 -0.18663063433E+03 -0.48655644383E+03  0.18603412668E+04  0.25500000920E-02 0. -1.
       -2    1    3    3    0  502  0.17858615462E+04  0.18663063433E+03  0.22106087612E+01  0.17955882998E+04  0.25500000920E-02 0.  1.
</event>
<event>
 5   0  0.2108068E-07  0.3556048E+04  0.7818609E-02  0.8100634E-01
        1   -1    0    0  501    0  0.00000000000E+00  0.00000000000E+00  0.22129163011E+04  0.22129163011E+04  0.50400001928E-02 0.  1.
       -1   -1    0    0    0  501  0.00000000000E+00  0.00000000000E+00 -0.14285986493E+04  0.14285986493E+04  0.50400001928E-02 0. -1.
    10030    2    1    2    0    0  0.00000000000E+00  0.00000000000E+00  0.78431765183E+03  0.36415149504E+04  0.35560479405E+04 0.  0.
        5    1    3    3  502    0  0.76690550525E+03 -0.15305571029E+04 -0.99588837408E+02  0.17148437613E+04  0.46999998093E+01 0. -1.
       -5    1    3    3    0  502 -0.76690550525E+03  0.15305571029E+04  0.88390648924E+03  0.19266711891E+04  0.46999998093E+01 0.  1.
</event>
<event>
 5   0  0.6848661E-07  0.3570356E+04  0.7818609E-02  0.8097316E-01
        2   -1    0    0  501    0  0.00000000000E+00  0.00000000000E+00  0.15425327682E+04  0.15425327682E+04  0.25500000920E-02 0.  1.
       -2   -1    0    0    0  501  0.00000000000E+00  0.00000000000E+00 -0.20659925531E+04  0.20659925531E+04  0.25500000920E-02 0. -1.
    10030    2    1    2    0    0  0.00000000000E+00  0.00000000000E+00 -0.52345978488E+03  0.36085253214E+04  0.35703564036E+04 0.  0.
        1    1    3    3  502    0  0.13121815293E+04  0.90977316533E+03 -0.10686089052E+04  0.19213101183E+04  0.50400001928E-02 0.  1.
       -1    1    3    3    0  502 -0.13121815293E+04 -0.90977316533E+03  0.54514912030E+03  0.16872152031E+04  0.50400001928E-02 0. -1.
</event>
<event>
 5   0  0.6541476E-07  0.3584855E+04  0.7818609E-02  0.8093970E-01
       -2   -1    0    0    0  501  0.00000000000E+00  0.00000000000E+00  0.22134478032E+04  0.22134478032E+04  0.25500000920E-02 0. -1.
        2   -1    0    0  501    0  0.00000000000E+00  0.00000000000E+00 -0.14514892234E+04  0.14514892234E+04  0.25500000920E-02 0.  1.
    10030    2    1    2    0    0  0.00000000000E+00  0.00000000000E+00  0.76195857981E+03  0.36649370266E+04  0.35848546039E+04 0.  0.
        4    1    3    3  502    0 -0.10367375331E+04  0.53986459404E+03  0.17702006514E+04  0.21212945226E+04  0.12699999809E+01 0. -1.
       -4    1    3    3    0  502  0.10367375331E+04 -0.53986459404E+03 -0.10082420715E+04  0.15436425040E+04  0.12699999809E+01 0.  1.
</event>
<event>
 5   0  0.6848661E-07  0.3591709E+04  0.7818609E-02  0.8092394E-01
        2   -1    0    0  501    0  0.00000000000E+00  0.00000000000E+00  0.19959723751E+04  0.19959723751E+04  0.25500000920E-02 0.  1.
       -2   -1    0    0    0  501  0.00000000000E+00  0.00000000000E+00 -0.16158004792E+04  0.16158004792E+04  0.25500000920E-02 0. -1.
    10030    2    1    2    0    0  0.00000000000E+00  0.00000000000E+00  0.38017189594E+03  0.36117728543E+04  0.35917088525E+04 0.  0.
        1    1    3    3  502    0  0.26727344885E+02  0.56633856154E+03  0.19036117372E+04  0.19862505791E+04  0.50400001928E-02 0.  1.
       -1    1    3    3    0  502 -0.26727344885E+02 -0.56633856154E+03 -0.15234398412E+04  0.16255222752E+04  0.50400001928E-02 0. -1.
</event>
<event>
 5   0  0.6324216E-07  0.3573731E+04  0.7818609E-02  0.8096536E-01
        2   -1    0    0  501    0  0.00000000000E+00  0.00000000000E+00  0.20935185850E+04  0.20935185850E+04  0.25500000920E-02 0.  1.
       -2   -1    0    0    0  501  0.00000000000E+00  0.00000000000E+00 -0.15251299077E+04  0.15251299077E+04  0.25500000920E-02 0. -1.
    10030    2    1    2    0    0  0.00000000000E+00  0.00000000000E+00  0.56838867729E+03  0.36186484927E+04  0.35737307153E+04 0.  0.
        2    1    3    3  502    0 -0.51960569725E+03  0.93419040138E+02  0.20127447939E+04  0.20808312769E+04  0.25500000920E-02 0.  1.
       -2    1    3    3    0  502  0.51960569725E+03 -0.93419040138E+02 -0.14443561166E+04  0.15378172158E+04  0.25500000920E-02 0. -1.
</event>
<event>
 5   0  0.2086250E-07  0.3660834E+04  0.7818609E-02  0.8076697E-01
       -1   -1    0    0    0  501  0.00000000000E+00  0.00000000000E+00  0.19064703167E+04  0.19064703167E+04  0.50400001928E-02 0.  1.
        1   -1    0    0  501    0  0.00000000000E+00  0.00000000000E+00 -0.17573978007E+04  0.17573978007E+04  0.50400001928E-02 0. -1.
    10030    2    1    2    0    0  0.00000000000E+00  0.00000000000E+00  0.14907251607E+03  0.36638681174E+04  0.36608341900E+04 0.  0.
        2    1    3    3  502    0  0.51506246351E+03  0.11961443045E+04  0.13618277860E+04  0.18843103399E+04  0.25500000920E-02 0.  1.
       -2    1    3    3    0  502 -0.51506246351E+03 -0.11961443045E+04 -0.12127552699E+04  0.17795577774E+04  0.25500000920E-02 0. -1.
</event>
<event>
 5   0  0.2086250E-07  0.3531688E+04  0.7818609E-02  0.8106321E-01
       -1   -1    0    0    0  501  0.00000000000E+00  0.00000000000E+00  0.14233538735E+04  0.14233538735E+04  0.50400001928E-02 0. -1.
        1   -1    0    0  501    0  0.00000000000E+00  0.00000000000E+00 -0.21907442308E+04  0.21907442308E+04  0.50400001928E-02 0.  1.
    10030    2    1    2    0    0  0.00000000000E+00  0.00000000000E+00 -0.76739035729E+03  0.36140981043E+04  0.35316875778E+04 0.  0.
        2    1    3    3  502    0 -0.85403623900E+03 -0.12660922587E+04  0.52346470302E+03  0.16144295588E+04  0.25500000920E-02 0. -1.
       -2    1    3    3    0  502  0.85403623900E+03  0.12660922587E+04 -0.12908550603E+04  0.19996685455E+04  0.25500000920E-02 0.  1.
</event>
<event>
 5   0  0.6848661E-07  0.3477775E+04  0.7818609E-02  0.8119077E-01
        2   -1    0    0  501    0  0.00000000000E+00  0.00000000000E+00  0.24127444862E+04  0.24127444862E+04  0.25500000920E-02 0. -1.
       -2   -1    0    0    0  501  0.00000000000E+00  0.00000000000E+00 -0.12532326588E+04  0.12532326588E+04  0.25500000920E-02 0.  1.
    10030    2    1    2    0    0  0.00000000000E+00  0.00000000000E+00  0.11595118274E+04  0.36659771450E+04  0.34777752587E+04 0.  0.
        1    1    3    3  502    0 -0.15000206077E+04  0.79471293499E+03  0.18239527716E+03  0.17073073859E+04  0.50400001928E-02 0.  1.
       -1    1    3    3    0  502  0.15000206077E+04 -0.79471293499E+03  0.97711655023E+03  0.19586697592E+04  0.50400001928E-02 0. -1.
</event>
<event>
 5   0  0.2086250E-07  0.3343721E+04  0.7818609E-02  0.8151859E-01
       -1   -1    0    0    0  501  0.00000000000E+00  0.00000000000E+00  0.19088150911E+04  0.19088150911E+04  0.50400001928E-02 0. -1.
        1   -1    0    0  501    0  0.00000000000E+00  0.00000000000E+00 -0.14643210977E+04  0.14643210977E+04  0.50400001928E-02 0.  1.
    10030    2    1    2    0    0  0.00000000000E+00  0.00000000000E+00  0.44449399345E+03  0.33731361888E+04  0.33437214055E+04 0.  0.
        3    1    3    3  502    0  0.11613188940E+04 -0.63286829309E+03 -0.80945911545E+03  0.15506153358E+04  0.10100000352E+00 0.  1.
       -3    1    3    3    0  502 -0.11613188940E+04  0.63286829309E+03  0.12539531089E+04  0.18225208530E+04  0.10100000352E+00 0. -1.
</event>
<event>
 5   0  0.2108068E-07  0.3309525E+04  0.7818609E-02  0.8160476E-01
       -1   -1    0    0    0  501  0.00000000000E+00  0.00000000000E+00  0.19003170081E+04  0.19003170081E+04  0.50400001928E-02 0.  1.
        1   -1    0    0  501    0  0.00000000000E+00  0.00000000000E+00 -0.14409380856E+04  0.14409380856E+04  0.50400001928E-02 0. -1.
    10030    2    1    2    0    0  0.00000000000E+00  0.00000000000E+00  0.45937892249E+03  0.33412550937E+04  0.33095251332E+04 0.  0.
        5    1    3    3  502    0  0.91670416307E+03 -0.18115709704E+03 -0.11490731502E+04  0.14810657011E+04  0.46999998093E+01 0. -1.
       -5    1    3    3    0  502 -0.91670416307E+03  0.18115709704E+03  0.16084520727E+04  0.18601893927E+04  0.46999998093E+01 0.  1.
</event>
<event>
 5   0  0.6848661E-07  0.3629756E+04  0.7818609E-02  0.8083710E-01
       -2   -1    0    0    0  501  0.00000000000E+00  0.00000000000E+00  0.13486491847E+04  0.13486491847E+04  0.25500000920E-02 0.  1.
        2   -1    0    0  501    0  0.00000000000E+00  0.00000000000E+00 -0.24422819397E+04  0.24422819397E+04  0.25500000920E-02 0. -1.
    10030    2    1    2    0    0  0.00000000000E+00  0.00000000000E+00 -0.10936327550E+04  0.37909311245E+04  0.36297556650E+04 0.  0.
        1    1    3    3  502    0  0.38507103320E+03 -0.12870114481E+04  0.72765746633E+03  0.15277969618E+04  0.50400001928E-02 0.  1.
       -1    1    3    3    0  502 -0.38507103320E+03  0.12870114481E+04 -0.18212902213E+04  0.22631341627E+04  0.50400001928E-02 0. -1.
</event>
<event>
 5   0  0.2086250E-07  0.3655118E+04  0.7818609E-02  0.8077982E-01
        1   -1    0    0  501    0  0.00000000000E+00  0.00000000000E+00  0.17100664142E+04  0.17100664142E+04  0.50400001928E-02 0.  1.
       -1   -1    0    0    0  501  0.00000000000E+00  0.00000000000E+00 -0.19531236992E+04  0.19531236992E+04  0.50400001928E-02 0. -1.
    10030    2    1    2    0    0  0.00000000000E+00  0.00000000000E+00 -0.24305728504E+03  0.36631901134E+04  0.36551176401E+04 0.  0.
        4    1    3    3  502    0  0.16535941053E+04 -0.53033212449E+03 -0.69229850491E+03  0.18694663571E+04  0.12699999809E+01 0. -1.
       -4    1    3    3    0  502 -0.16535941053E+04  0.53033212449E+03  0.44924121987E+03  0.17937237563E+04  0.12699999809E+01 0.  1.
</event>
<event>
 5   0  0.6324216E-07  0.3609178E+04  0.7818609E-02  0.8088393E-01
        2   -1    0    0  501    0  0.00000000000E+00  0.00000000000E+00  0.15886117741E+04  0.15886117741E+04  0.25500000920E-02 0. -1.
       -2   -1    0    0    0  501  0.00000000000E+00  0.00000000000E+00 -0.20499290364E+04  0.20499290364E+04  0.25500000920E-02 0.  1.
    10030    2    1    2    0    0  0.00000000000E+00  0.00000000000E+00 -0.46131726236E+03  0.36385408105E+04  0.36091779691E+04 0.  0.
        2    1    3    3  502    0  0.52878027009E+03  0.16551819244E+04 -0.72176206443E+03  0.18815356108E+04  0.25500000920E-02 0. -1.
       -2    1    3    3    0  502 -0.52878027009E+03 -0.16551819244E+04  0.26044480208E+03  0.17570051997E+04  0.25500000920E-02 0.  1.
</event>
<event>
 5   0  0.2193129E-07  0.3682981E+04  0.7818609E-02  0.8071744E-01
       -1   -1    0    0    0  501  0.00000000000E+00  0.00000000000E+00  0.13623858194E+04  0.13623858194E+04  0.50400001928E-02 0. -1.
        1   -1    0    0  501    0  0.00000000000E+00  0.00000000000E+00 -0.24890801370E+04  0.24890801370E+04  0.50400001928E-02 0.  1.
    10030    2    1    2    0    0  0.00000000000E+00  0.00000000000E+00 -0.11266943176E+04  0.38514659564E+04  0.36829811197E+04 0.  0.
        1    1    3    3  502    0  0.18647618297E+03 -0.39137493373E+02 -0.24787439127E+04  0.24860564143E+04  0.50400001928E-02 0.  1.
       -1    1    3    3    0  502 -0.18647618297E+03  0.39137493373E+02  0.13520495951E+04  0.13654095421E+04  0.50400001928E-02 0. -1.
</event>
<event>
 5   0  0.2193129E-07  0.3593686E+04  0.7818609E-02  0.8091940E-01
       -1   -1    0    0    0  501  0.00000000000E+00  0.00000000000E+00  0.21539015767E+04  0.21539015767E+04  0.50400001928E-02 0.  1.
        1   -1    0    0  501    0  0.00000000000E+00  0.00000000000E+00 -0.14989747015E+04  0.14989747015E+04  0.50400001928E-02 0. -1.
    10030    2    1    2    0    0  0.00000000000E+00  0.00000000000E+00  0.65492687519E+03  0.36528762782E+04  0.35936855583E+04 0.  0.
        1    1    3    3  502    0 -0.13115104344E+04  0.46508774498E+03 -0.82804420141E+03  0.16192663244E+04  0.50400001928E-02 0. -1.
       -1    1    3    3    0  502  0.13115104344E+04 -0.46508774498E+03  0.14829710766E+04  0.20336099538E+04  0.50400001928E-02 0.  1.
</event>
<event>
 5   0  0.6669864E-07  0.3602146E+04  0.7818609E-02  0.8090000E-01
       -2   -1    0    0    0  501  0.00000000000E+00  0.00000000000E+00  0.18427289479E+04  0.18427289479E+04  0.25500000920E-02 0. -1.
        2   -1    0    0  501    0  0.00000000000E+00  0.00000000000E+00 -0.17603584772E+04  0.17603584772E+04  0.25500000920E-02 0.  1.
    10030    2    1    2    0    0  0.00000000000E+00  0.00000000000E+00  0.82370470711E+02  0.36030874252E+04  0.36021457631E+04 0.  0.
        5    1    3    3  502    0 -0.83855887898E+02 -0.10685984646E+04  0.14889429423E+04  0.18346410177E+04  0.46999998093E+01 0. -1.
       -5    1    3    3    0  502  0.83855887898E+02  0.10685984646E+04 -0.14065724716E+04  0.17684464075E+04  0.46999998093E+01 0.  1.
</event>
<event>
 5   0  0.2086250E-07  0.3640674E+04  0.7818609E-02  0.8081238E-01
        1   -1    0    0  501    0  0.00000000000E+00  0.00000000000E+00  0.24764845258E+04  0.24764845258E+04  0.50400001928E-02 0. -1.
       -1   -1    0    0    0  501  0.00000000000E+00  0.00000000000E+00 -0.13380363729E+04  0.13380363729E+04  0.50400001928E-02 0.  1.
    10030    2    1    2    0    0  0.00000000000E+00  0.00000000000E+00  0.11384481529E+04  0.38145208987E+04  0.36406737687E+04 0.  0.
        3    1    3    3  502    0  0.36778298603E+03  0.17034787093E+04  0.18259936394E+02  0.17428245676E+04  0.10100000352E+00 0.  1.
       -3    1    3    3    0  502 -0.36778298603E+03 -0.17034787093E+04  0.11201882165E+04  0.20716963312E+04  0.10100000352E+00 0. -1.
</event>
<event>
 5   0  0.2108068E-07  0.3609884E+04  0.7818609E-02  0.8088231E-01
       -1   -1    0    0    0  501  0.00000000000E+00  0.00000000000E+00  0.25178941287E+04  0.25178941287E+04  0.50400001928E-02 0. -1.
        1   -1    0    0  501    0  0.00000000000E+00  0.00000000000E+00 -0.12938654750E+04  0.12938654750E+04  0.50400001928E-02 0.  1.
    10030    2    1    2    0    0  0.00000000000E+00  0.00000000000E+00  0.12240286537E+04  0.38117596037E+04  0.36098843654E+04 0.  0.
        5    1    3    3  502    0  0.81295747428E+03  0.66885787689E+03 -0.93610099620E+03  0.14087504675E+04  0.46999998093E+01 0.  1.
       -5    1    3    3    0  502 -0.81295747428E+03 -0.66885787689E+03  0.21601296499E+04  0.24030091363E+04  0.46999998093E+01 0. -1.
</event>
<event>
 5   0  0.6324216E-07  0.3593167E+04  0.7818609E-02  0.8092059E-01
       -2   -1    0    0    0  501  0.00000000000E+00  0.00000000000E+00  0.13693653378E+04  0.13693653378E+04  0.25500000920E-02 0. -1.
        2   -1    0    0  501    0  0.00000000000E+00  0.00000000000E+00 -0.23570858224E+04  0.23570858224E+04  0.25500000920E-02 0.  1.
    10030    2    1    2    0    0  0.00000000000E+00  0.00000000000E+00 -0.98772048461E+03  0.37264511602E+04  0.35931666387E+04 0.  0.
        2    1    3    3  502    0 -0.11609466274E+04 -0.13525953035E+04 -0.72668838985E+03  0.19249382179E+04  0.25500000920E-02 0. -1.
       -2    1    3    3    0  502  0.11609466274E+04  0.13525953035E+04 -0.26103209476E+03  0.18015129423E+04  0.25500000920E-02 0.  1.
</event>
<event>
 5   0  0.6541476E-07  0.3694978E+04  0.7818609E-02  0.8069076E-01
       -2   -1    0    0    0  501  0.00000000000E+00  0.00000000000E+00  0.13776578829E+04  0.13776578829E+04  0.25500000920E-02 0. -1.
        2   -1    0    0  501    0  0.00000000000E+00  0.00000000000E+00 -0.24775488422E+04  0.24775488422E+04  0.25500000920E-02 0.  1.
    10030    2    1    2    0    0  0.00000000000E+00  0.00000000000E+00 -0.10998909593E+04  0.38552067252E+04  0.36949775062E+04 0.  0.
        4    1    3    3  502    0 -0.99512733843E+03 -0.14520420967E+04 -0.11350749921E+04  0.20945408854E+04  0.12699999809E+01 0.  1.
       -4    1    3    3    0  502  0.99512733843E+03  0.14520420967E+04  0.35184032818E+02  0.17606658397E+04  0.12699999809E+01 0. -1.
</event>
<event>
 5   0  0.2086250E-07  0.3728421E+04  0.7818609E-02  0.8061692E-01
       -1   -1    0    0    0  501  0.00000000000E+00  0.00000000000E+00  0.14408144647E+04  0.14408144647E+04  0.50400001928E-02 0. -1.
        1   -1    0    0  501    0  0.00000000000E+00  0.00000000000E+00 -0.24120251759E+04  0.24120251759E+04  0.50400001928E-02 0.  1.
    10030    2    1    2    0    0  0.00000000000E+00  0.00000000000E+00 -0.97121071117E+03  0.38528396406E+04  0.37284209863E+04 0.  0.
        3    1    3    3  502    0  0.22250738010E+03 -0.97427295686E+03 -0.21118306695E+04  0.23363531658E+04  0.10100000352E+00 0.  1.
       -3    1    3    3    0  502 -0.22250738010E+03  0.97427295686E+03  0.11406199583E+04  0.15164864748E+04  0.10100000352E+00 0. -1.
</event>
<event>
 5   0  0.6324216E-07  0.3448471E+04  0.7818609E-02  0.8126111E-01
       -2   -1    0    0    0  501  0.00000000000E+00  0.00000000000E+00  0.15408435774E+04  0.15408435774E+04  0.25500000920E-02 0. -1.
        2   -1    0    0  501    0  0.00000000000E+00  0.00000000000E+00 -0.19294551900E+04  0.19294551900E+04  0.25500000920E-02 0.  1.
    10030    2    1    2    0    0  0.00000000000E+00  0.00000000000E+00 -0.38861161253E+03  0.34702987674E+04  0.34484713352E+04 0.  0.
        2    1    3    3  502    0 -0.11308967250E+04  0.85886683821E+03  0.78984594652E+03  0.16249419274E+04  0.25500000920E-02 0. -1.
       -2    1    3    3    0  502  0.11308967250E+04 -0.85886683821E+03 -0.11784575590E+04  0.18453568400E+04  0.25500000920E-02 0.  1.
</event>
<event>
 5   0  0.6541476E-07  0.3608365E+04  0.7818609E-02  0.8088578E-01
       -2   -1    0    0    0  501  0.00000000000E+00  0.00000000000E+00  0.20192202345E+04  0.20192202345E+04  0.25500000920E-02 0.  1.
        2   -1    0    0  501    0  0.00000000000E+00  0.00000000000E+00 -0.16120449671E+04  0.16120449671E+04  0.25500000920E-02 0. -1.
    10030    2    1    2    0    0  0.00000000000E+00  0.00000000000E+00  0.40717526736E+03  0.36312652016E+04  0.36083646249E+04 0.  0.
        4    1    3    3  502    0 -0.62316870575E+03  0.16874905224E+04  0.34269917955E+03  0.18312312359E+04  0.12699999809E+01 0. -1.
       -4    1    3    3    0  502  0.62316870575E+03 -0.16874905224E+04  0.64476087808E+02  0.18000339657E+04  0.12699999809E+01 0.  1.
</event>
<event>
 5   0  0.6729577E-07  0.3597100E+04  0.7818609E-02  0.8091156E-01
        2   -1    0    0  501    0  0.00000000000E+00  0.00000000000E+00  0.20759598161E+04  0.20759598161E+04  0.25500000920E-02 0. -1.
       -2   -1    0    0    0  501  0.00000000000E+00  0.00000000000E+00 -0.15582106497E+04  0.15582106498E+04  0.25500000920E-02 0.  1.
    10030    2    1    2    0    0  0.00000000000E+00  0.00000000000E+00  0.51774916636E+03  0.36341704659E+04  0.35971003288E+04 0.  0.
        3    1    3    3  502    0  0.11410627819E+04 -0.77845714840E+03 -0.90484783197E+03  0.16512932548E+04  0.10100000352E+00 0.  1.
       -3    1    3    3    0  502 -0.11410627819E+04  0.77845714840E+03  0.14225969983E+04  0.19828772110E+04  0.10100000352E+00 0. -1.
</event>
<event>
 5   0  0.2108068E-07  0.3554391E+04  0.7818609E-02  0.8101020E-01
        1   -1    0    0  501    0  0.00000000000E+00  0.00000000000E+00  0.18294032929E+04  0.18294032929E+04  0.50400001928E-02 0. -1.
       -1   -1    0    0    0  501  0.00000000000E+00  0.00000000000E+00 -0.17264779634E+04  0.17264779634E+04  0.50400001928E-02 0.  1.
    10030    2    1    2    0    0  0.00000000000E+00  0.00000000000E+00  0.10292532950E+03  0.35558812564E+04  0.35543913524E+04 0.  0.
        5    1    3    3  502    0  0.11496953394E+04  0.82537574574E+03 -0.10238636479E+04  0.17468152033E+04  0.46999998093E+01 0.  1.
       -5    1    3    3    0  502 -0.11496953394E+04 -0.82537574574E+03  0.11267889774E+04  0.18090660531E+04  0.46999998093E+01 0. -1.
</event>
<event>
 5   0  0.6324216E-07  0.3553429E+04  0.7818609E-02  0.8101243E-01
        2   -1    0    0  501    0  0.00000000000E+00  0.00000000000E+00  0.20424081045E+04  0.20424081045E+04  0.25500000920E-02 0.  1.
       -2   -1    0    0    0  501  0.00000000000E+00  0.00000000000E+00 -0.15455845564E+04  0.15455845564E+04  0.25500000920E-02 0. -1.
    10030    2    1    2    0    0  0.00000000000E+00  0.00000000000E+00  0.49682354809E+03  0.35879926609E+04  0.35534290055E+04 0.  0.
        2    1    3    3  502    0 -0.13793364731E+04 -0.39196797074E+03 -0.81084242631E+03  0.16473231124E+04  0.25500000920E-02 0. -1.
       -2    1    3    3    0  502  0.13793364731E+04  0.39196797074E+03  0.13076659744E+04  0.19406695486E+04  0.25500000920E-02 0.  1.
</event>
<event>
 5   0  0.2086250E-07  0.3593428E+04  0.7818609E-02  0.8091999E-01
        3   -1    0    0  501    0  0.00000000000E+00  0.00000000000E+00  0.21817673088E+04  0.21817673111E+04  0.10100000352E+00 0. -1.
       -3   -1    0    0    0  501  0.00000000000E+00  0.00000000000E+00 -0.14796175006E+04  0.14796175040E+04  0.10100000352E+00 0.  1.
    10030    2    1    2    0    0  0.00000000000E+00  0.00000000000E+00  0.70214980824E+03  0.36613848151E+04  0.35934279471E+04 0.  0.
        5    1    3    3  502    0  0.66403329733E+03 -0.44672248501E+03 -0.12879662483E+04  0.15163707809E+04  0.46999998093E+01 0.  1.
       -5    1    3    3    0  502 -0.66403329733E+03  0.44672248501E+03  0.19901160565E+04  0.21450140342E+04  0.46999998093E+01 0. -1.
</event>
<event>
 5   0  0.2086250E-07  0.3538133E+04  0.7818609E-02  0.8104812E-01
       -1   -1    0    0    0  501  0.00000000000E+00  0.00000000000E+00  0.26980520145E+04  0.26980520145E+04  0.50400001928E-02 0. -1.
        1   -1    0    0  501    0  0.00000000000E+00  0.00000000000E+00 -0.11599468728E+04  0.11599468728E+04  0.50400001928E-02 0.  1.
    10030    2    1    2    0    0  0.00000000000E+00  0.00000000000E+00  0.15381051417E+04  0.38579988873E+04  0.35381334044E+04 0.  0.
        4    1    3    3  502    0 -0.77860168329E+02 -0.73685297044E+03  0.25206997403E+04  0.26273452951E+04  0.12699999809E+01 0. -1.
       -4    1    3    3    0  502  0.77860168329E+02  0.73685297044E+03 -0.98259459860E+03  0.12306535922E+04  0.12699999809E+01 0.  1.
</event>
<event>
 5   0  0.6324216E-07  0.3648533E+04  0.7818609E-02  0.8079464E-01
        2   -1    0    0  501    0  0.00000000000E+00  0.00000000000E+00  0.14303868134E+04  0.14303868134E+04  0.25500000920E-02 0. -1.
       -2   -1    0    0    0  501  0.00000000000E+00  0.00000000000E+00 -0.23266076818E+04  0.23266076818E+04  0.25500000920E-02 0.  1.
    10030    2    1    2    0    0  0.00000000000E+00  0.00000000000E+00 -0.89622086833E+03  0.37569944952E+04  0.36485333755E+04 0.  0.
        2    1    3    3  502    0  0.53000443998E+03 -0.86536272362E+02  0.13471492973E+04  0.14502428976E+04  0.25500000920E-02 0. -1.
       -2    1    3    3    0  502 -0.53000443998E+03  0.86536272362E+02 -0.22433701657E+04  0.23067515976E+04  0.25500000920E-02 0.  1.
</event>
<event>
 5   0  0.2108068E-07  0.3052892E+04  0.7818609E-02  0.8228787E-01
       -1   -1    0    0    0  501  0.00000000000E+00  0.00000000000E+00  0.27448109831E+04  0.27448109831E+04  0.50400001928E-02 0. -1.
        1   -1    0    0  501    0  0.00000000000E+00  0.00000000000E+00 -0.84888793493E+03  0.84888793495E+03  0.50400001928E-02 0.  1.
    10030    2    1    2    0    0  0.00000000000E+00  0.00000000000E+00  0.18959230482E+04  0.35936989181E+04  0.30528916963E+04 0.  0.
        5    1    3    3  502    0  0.43689245514E+03  0.40173432264E+03  0.26034109475E+04  0.26702127509E+04  0.46999998093E+01 0. -1.
       -5    1    3    3    0  502 -0.43689245514E+03 -0.40173432264E+03 -0.70748789931E+03  0.92348616720E+03  0.46999998093E+01 0.  1.
</event>
<event>
 5   0  0.2108068E-07  0.3661968E+04  0.7818609E-02  0.8076443E-01
        1   -1    0    0  501    0  0.00000000000E+00  0.00000000000E+00  0.22856406602E+04  0.22856406602E+04  0.50400001928E-02 0.  1.
       -1   -1    0    0    0  501  0.00000000000E+00  0.00000000000E+00 -0.14667671803E+04  0.14667671803E+04  0.50400001928E-02 0. -1.
    10030    2    1    2    0    0  0.00000000000E+00  0.00000000000E+00  0.81887347994E+03  0.37524078405E+04  0.36619681628E+04 0.  0.
        5    1    3    3  502    0  0.71319287295E+02  0.24993949117E+03 -0.14477610654E+04  0.14709148114E+04  0.46999998093E+01 0. -1.
       -5    1    3    3    0  502 -0.71319287295E+02 -0.24993949117E+03  0.22666345453E+04  0.22814930291E+04  0.46999998093E+01 0.  1.
</event>
<event>
 5   0  0.2086250E-07  0.3604420E+04  0.7818609E-02  0.8089480E-01
       -1   -1    0    0    0  501  0.00000000000E+00  0.00000000000E+00  0.20615729177E+04  0.20615729177E+04  0.50400001928E-02 0.  1.
        1   -1    0    0  501    0  0.00000000000E+00  0.00000000000E+00 -0.15754772318E+04  0.15754772318E+04  0.50400001928E-02 0. -1.
    10030    2    1    2    0    0  0.00000000000E+00  0.00000000000E+00  0.48609568594E+03  0.36370501495E+04  0.36044201717E+04 0.  0.
        3    1    3    3  502    0 -0.15976806171E+04  0.16671411806E+03  0.10675027610E+04  0.19287143662E+04  0.10100000352E+00 0. -1.
       -3    1    3    3    0  502  0.15976806171E+04 -0.16671411806E+03 -0.58140707501E+03  0.17083357833E+04  0.10100000352E+00 0.  1.
</event>
<event>
 5   0  0.2086250E-07  0.4138131E+04  0.7818609E-02  0.7977246E-01
        1   -1    0    0  501    0  0.00000000000E+00  0.00000000000E+00  0.15347310835E+04  0.15347310835E+04  0.50400001928E-02 0.  1.
       -1   -1    0    0    0  501  0.00000000000E+00  0.00000000000E+00 -0.27894346448E+04  0.27894346449E+04  0.50400001928E-02 0. -1.
    10030    2    1    2    0    0  0.00000000000E+00  0.00000000000E+00 -0.12547035614E+04  0.43241657283E+04  0.41381310055E+04 0.  0.
        2    1    3    3  502    0  0.22452060252E+03 -0.10856455086E+04  0.11981829602E+04  0.16323841697E+04  0.25500000920E-02 0.  1.
       -2    1    3    3    0  502 -0.22452060252E+03  0.10856455086E+04 -0.24528865216E+04  0.26917815586E+04  0.25500000920E-02 0. -1.
</event>
<event>
 5   0  0.6669864E-07  0.2892087E+04  0.7818609E-02  0.8275236E-01
       -2   -1    0    0    0  501  0.00000000000E+00  0.00000000000E+00  0.85528509805E+03  0.85528509806E+03  0.25500000920E-02 0.  1.
        2   -1    0    0  501    0  0.00000000000E+00  0.00000000000E+00 -0.24448468676E+04  0.24448468676E+04  0.25500000920E-02 0. -1.
    10030    2    1    2    0    0  0.00000000000E+00  0.00000000000E+00 -0.15895617696E+04  0.33001319657E+04  0.28920865083E+04 0.  0.
        5    1    3    3  502    0 -0.86164955028E+03  0.28353627000E+03 -0.20798057919E+04  0.22690189479E+04  0.46999998093E+01 0. -1.
       -5    1    3    3    0  502  0.86164955028E+03 -0.28353627000E+03  0.49024402236E+03  0.10311130177E+04  0.46999998093E+01 0.  1.
</event>
<event>
 5   0  0.2086250E-07  0.3596550E+04  0.7818609E-02  0.8091282E-01
        1   -1    0    0  501    0  0.00000000000E+00  0.00000000000E+00  0.25483814624E+04  0.25483814624E+04  0.50400001928E-02 0. -1.
       -1   -1    0    0    0  501  0.00000000000E+00  0.00000000000E+00 -0.12689598078E+04  0.12689598078E+04  0.50400001928E-02 0.  1.
    10030    2    1    2    0    0  0.00000000000E+00  0.00000000000E+00  0.12794216546E+04  0.38173412702E+04  0.35965503754E+04 0.  0.
        4    1    3    3  502    0  0.86263216117E+03 -0.14092465664E+04  0.13929848930E+04  0.21611382777E+04  0.12699999809E+01 0. -1.
       -4    1    3    3    0  502 -0.86263216117E+03  0.14092465664E+04 -0.11356323841E+03  0.16562029925E+04  0.12699999809E+01 0.  1.
</event>
<event>
 5   0  0.2108068E-07  0.3636614E+04  0.7818609E-02  0.8082156E-01
       -1   -1    0    0    0  501  0.00000000000E+00  0.00000000000E+00  0.14859737808E+04  0.14859737808E+04  0.50400001928E-02 0. -1.
        1   -1    0    0  501    0  0.00000000000E+00  0.00000000000E+00 -0.22249658519E+04  0.22249658519E+04  0.50400001928E-02 0.  1.
    10030    2    1    2    0    0  0.00000000000E+00  0.00000000000E+00 -0.73899207115E+03  0.37109396327E+04  0.36366143151E+04 0.  0.
        5    1    3    3  502    0  0.33554299570E+03  0.15891510657E+04  0.46466361957E+03  0.16893562623E+04  0.46999998093E+01 0. -1.
       -5    1    3    3    0  502 -0.33554299570E+03 -0.15891510657E+04 -0.12036556907E+04  0.20215833704E+04  0.46999998093E+01 0.  1.
</event>
<event>
 5   0  0.6324216E-07  0.3459719E+04  0.7818609E-02  0.8123403E-01
       -2   -1    0    0    0  501  0.00000000000E+00  0.00000000000E+00  0.16905362326E+04  0.16905362326E+04  0.25500000920E-02 0. -1.
        2   -1    0    0  501    0  0.00000000000E+00  0.00000000000E+00 -0.17700969749E+04  0.17700969749E+04  0.25500000920E-02 0.  1.
    10030    2    1    2    0    0  0.00000000000E+00  0.00000000000E+00 -0.79560742310E+02  0.34606332076E+04  0.34597185269E+04 0.  0.
        2    1    3    3  502    0  0.11024098228E+03  0.35724135746E+03 -0.17292025122E+04  0.17691568020E+04  0.25500000920E-02 0.  1.
       -2    1    3    3    0  502 -0.11024098228E+03 -0.35724135746E+03  0.16496417699E+04  0.16914764056E+04  0.25500000920E-02 0. -1.
</event>
<event>
 5   0  0.2086250E-07  0.3578042E+04  0.7818609E-02  0.8095540E-01
        1   -1    0    0  501    0  0.00000000000E+00  0.00000000000E+00  0.19235901087E+04  0.19235901087E+04  0.50400001928E-02 0. -1.
       -1   -1    0    0    0  501  0.00000000000E+00  0.00000000000E+00 -0.16638660791E+04  0.16638660791E+04  0.50400001928E-02 0.  1.
    10030    2    1    2    0    0  0.00000000000E+00  0.00000000000E+00  0.25972402963E+03  0.35874561878E+04  0.35780421081E+04 0.  0.
        2    1    3    3  502    0  0.77150518530E+03  0.15721025842E+04 -0.23698252018E+03  0.17671693470E+04  0.25500000920E-02 0.  1.
       -2    1    3    3    0  502 -0.77150518530E+03 -0.15721025842E+04  0.49670654980E+03  0.18202868408E+04  0.25500000920E-02 0. -1.
</event>
<event>
 5   0  0.6669864E-07  0.3672533E+04  0.7818609E-02  0.8074076E-01
        2   -1    0    0  501    0  0.00000000000E+00  0.00000000000E+00  0.16250089129E+04  0.16250089129E+04  0.25500000920E-02 0. -1.
       -2   -1    0    0    0  501  0.00000000000E+00  0.00000000000E+00 -0.20749887927E+04  0.20749887927E+04  0.25500000920E-02 0.  1.
    10030    2    1    2    0    0  0.00000000000E+00  0.00000000000E+00 -0.44997987982E+03  0.36999977057E+04  0.36725333395E+04 0.  0.
        5    1    3    3  502    0 -0.95241210336E+03 -0.13062412157E+04  0.65244111917E+03  0.17432889698E+04  0.46999998093E+01 0. -1.
       -5    1    3    3    0  502  0.95241210336E+03  0.13062412157E+04 -0.11024209990E+04  0.19567087359E+04  0.46999998093E+01 0.  1.
</event>
<event>
 5   0  0.2193129E-07  0.3617948E+04  0.7818609E-02  0.8086393E-01
        1   -1    0    0  501    0  0.00000000000E+00  0.00000000000E+00  0.27513506888E+04  0.27513506888E+04  0.50400001928E-02 0.  1.
       -1   -1    0    0    0  501  0.00000000000E+00  0.00000000000E+00 -0.11893747789E+04  0.11893747789E+04  0.50400001928E-02 0. -1.
    10030    2    1    2    0    0  0.00000000000E+00  0.00000000000E+00  0.15619759098E+04  0.39407254677E+04  0.36179481020E+04 0.  0.
        1    1    3    3  502    0  0.72455843918E+03  0.12167128159E+04  0.20070268007E+04  0.24563248130E+04  0.50400001928E-02 0.  1.
       -1    1    3    3    0  502 -0.72455843918E+03 -0.12167128159E+04 -0.44505089090E+03  0.14844006547E+04  0.50400001928E-02 0. -1.
</event>
<event>
 5   0  0.6729577E-07  0.3073593E+04  0.7818609E-02  0.8223023E-01
        2   -1    0    0  501    0  0.00000000000E+00  0.00000000000E+00  0.16332444031E+04  0.16332444031E+04  0.25500000920E-02 0.  1.
       -2   -1    0    0    0  501  0.00000000000E+00  0.00000000000E+00 -0.14460442393E+04  0.14460442393E+04  0.25500000920E-02 0. -1.
    10030    2    1    2    0    0  0.00000000000E+00  0.00000000000E+00  0.18720016385E+03  0.30792886424E+04  0.30735931159E+04 0.  0.
        3    1    3    3  502    0  0.10257460380E+04 -0.11296909223E+04 -0.89459981012E+02  0.15285154932E+04  0.10100000352E+00 0. -1.
       -3    1    3    3    0  502 -0.10257460380E+04  0.11296909223E+04  0.27666014486E+03  0.15507731493E+04  0.10100000352E+00 0.  1.
</event>
<event>
 5   0  0.6669864E-07  0.3634608E+04  0.7818609E-02  0.8082610E-01
       -2   -1    0    0    0  501  0.00000000000E+00  0.00000000000E+00  0.31326885091E+04  0.31326885091E+04  0.25500000920E-02 0.  1.
        2   -1    0    0  501    0  0.00000000000E+00  0.00000000000E+00 -0.10542362963E+04  0.10542362963E+04  0.25500000920E-02 0. -1.
    10030    2    1    2    0    0  0.00000000000E+00  0.00000000000E+00  0.20784522128E+04  0.41869248054E+04  0.36346080566E+04 0.  0.
        5    1    3    3  502    0 -0.66067525918E+03  0.73266600085E+03  0.27973459621E+04  0.29662194438E+04  0.46999998093E+01 0.  1.
       -5    1    3    3    0  502  0.66067525918E+03 -0.73266600085E+03 -0.71889374937E+03  0.12207053616E+04  0.46999998093E+01 0. -1.
</event>
<event>
 5   0  0.2193129E-07  0.3574746E+04  0.7818609E-02  0.8096301E-01
       -1   -1    0    0    0  501  0.00000000000E+00  0.00000000000E+00  0.16423691916E+04  0.16423691916E+04  0.50400001928E-02 0. -1.
        1   -1    0    0  501    0  0.00000000000E+00  0.00000000000E+00 -0.19451789917E+04  0.19451789917E+04  0.50400001928E-02 0.  1.
    10030    2    1    2    0    0  0.00000000000E+00  0.00000000000E+00 -0.30280980016E+03  0.35875481833E+04  0.35747458920E+04 0.  0.
        1    1    3    3  502    0  0.91052705969E+02  0.99585881573E+03 -0.16381545353E+04  0.19192643532E+04  0.50400001928E-02 0.  1.
       -1    1    3    3    0  502 -0.91052705969E+02 -0.99585881573E+03  0.13353447351E+04  0.16682838301E+04  0.50400001928E-02 0. -1.
</event>
<event>
 5   0  0.6324216E-07  0.3217433E+04  0.7818609E-02  0.8184228E-01
        2   -1    0    0  501    0  0.00000000000E+00  0.00000000000E+00  0.12522387841E+04  0.12522387841E+04  0.25500000920E-02 0.  1.
       -2   -1    0    0    0  501  0.00000000000E+00  0.00000000000E+00 -0.20666729739E+04  0.20666729739E+04  0.25500000920E-02 0. -1.
    10030    2    1    2    0    0  0.00000000000E+00  0.00000000000E+00 -0.81443418982E+03  0.33189117579E+04  0.32174325490E+04 0.  0.
        2    1    3    3  502    0  0.65564401975E+03  0.78826623994E+03  0.87153332485E+03  0.13456608347E+04  0.25500000920E-02 0.  1.
       -2    1    3    3    0  502 -0.65564401975E+03 -0.78826623994E+03 -0.16859675147E+04  0.19732509233E+04  0.25500000920E-02 0. -1.
</event>
<event>
 5   0  0.6669864E-07  0.3795784E+04  0.7818609E-02  0.8047060E-01
       -2   -1    0    0    0  501  0.00000000000E+00  0.00000000000E+00  0.27380546135E+04  0.27380546135E+04  0.25500000920E-02 0.  1.
        2   -1    0    0  501    0  0.00000000000E+00  0.00000000000E+00 -0.13155301513E+04  0.13155301513E+04  0.25500000920E-02 0. -1.
    10030    2    1    2    0    0  0.00000000000E+00  0.00000000000E+00  0.14225244623E+04  0.40535847648E+04  0.37957836609E+04 0.  0.
        5    1    3    3  502    0  0.36768802206E+03  0.10490928096E+04  0.23539756244E+04  0.26032697776E+04  0.46999998093E+01 0.  1.
       -5    1    3    3    0  502 -0.36768802206E+03 -0.10490928096E+04 -0.93145116217E+03  0.14503149872E+04  0.46999998093E+01 0. -1.
</event>
<event>
 5   0  0.2086250E-07  0.3293489E+04  0.7818609E-02  0.8164554E-01
        1   -1    0    0  501    0  0.00000000000E+00  0.00000000000E+00  0.13726739353E+04  0.13726739353E+04  0.50400001928E-02 0.  1.
       -1   -1    0    0    0  501  0.00000000000E+00  0.00000000000E+00 -0.19755362656E+04  0.19755362656E+04  0.50400001928E-02 0. -1.
    10030    2    1    2    0    0  0.00000000000E+00  0.00000000000E+00 -0.60286233030E+03  0.33482102009E+04  0.32934888129E+04 0.  0.
        4    1    3    3  502    0 -0.10526325790E+04 -0.12285484076E+04  0.10917891533E+02  0.16178650591E+04  0.12699999809E+01 0.  1.
       -4    1    3    3    0  502  0.10526325790E+04  0.12285484076E+04 -0.61378022183E+03  0.17303451418E+04  0.12699999809E+01 0. -1.
</event>
<event>
 5   0  0.6669864E-07  0.3584657E+04  0.7818609E-02  0.8094015E-01
       -2   -1    0    0    0  501  0.00000000000E+00  0.00000000000E+00  0.32086532521E+04  0.32086532521E+04  0.25500000920E-02 0.  1.
        2   -1    0    0  501    0  0.00000000000E+00  0.00000000000E+00 -0.10011804891E+04  0.10011804891E+04  0.25500000920E-02 0. -1.
    10030    2    1    2    0    0  0.00000000000E+00  0.00000000000E+00  0.22074727630E+04  0.42098337412E+04  0.35846567659E+04 0.  0.
        5    1    3    3  502    0 -0.76582590391E+03  0.14093254229E+04  0.16441063224E+03  0.16123710518E+04  0.46999998093E+01 0. -1.
       -5    1    3    3    0  502  0.76582590391E+03 -0.14093254229E+04  0.20430621308E+04  0.25974626894E+04  0.46999998093E+01 0.  1.
</event>
<event>
 5   0  0.2086250E-07  0.3578783E+04  0.7818609E-02  0.8095369E-01
        1   -1    0    0  501    0  0.00000000000E+00  0.00000000000E+00  0.29407899433E+04  0.29407899433E+04  0.50400001928E-02 0.  1.
       -1   -1    0    0    0  501  0.00000000000E+00  0.00000000000E+00 -0.10887968020E+04  0.10887968021E+04  0.50400001928E-02 0. -1.
    10030    2    1    2    0    0  0.00000000000E+00  0.00000000000E+00  0.18519931412E+04  0.40295867453E+04  0.35787834166E+04 0.  0.
        4    1    3    3  502    0 -0.12597597127E+04 -0.79154870985E+03  0.20453995222E+04  0.25292696006E+04  0.12699999809E+01 0.  1.
       -4    1    3    3    0  502  0.12597597127E+04  0.79154870985E+03 -0.19340638099E+03  0.15003171448E+04  0.12699999809E+01 0. -1.
</event>
<event>
 5   0  0.2108068E-07  0.3590978E+04  0.7818609E-02  0.8092561E-01
       -1   -1    0    0    0  501  0.00000000000E+00  0.00000000000E+00  0.17799737690E+04  0.17799737690E+04  0.50400001928E-02 0. -1.
        1   -1    0    0  501    0  0.00000000000E+00  0.00000000000E+00 -0.18111395376E+04  0.18111395376E+04  0.50400001928E-02 0.  1.
    10030    2    1    2    0    0  0.00000000000E+00  0.00000000000E+00 -0.31165768604E+02  0.35911133067E+04  0.35909780668E+04 0.  0.
        5    1    3    3  502    0  0.46331680076E+03  0.58390698094E+03  0.16179255892E+04  0.17813801173E+04  0.46999998093E+01 0. -1.
       -5    1    3    3    0  502 -0.46331680076E+03 -0.58390698094E+03 -0.16490913578E+04  0.18097331894E+04  0.46999998093E+01 0.  1.
</event>
<event>
 5   0  0.2108068E-07  0.3628026E+04  0.7818609E-02  0.8084102E-01
        1   -1    0    0  501    0  0.00000000000E+00  0.00000000000E+00  0.12472064423E+04  0.12472064423E+04  0.50400001928E-02 0.  1.
       -1   -1    0    0    0  501  0.00000000000E+00  0.00000000000E+00 -0.26384107367E+04  0.26384107367E+04  0.50400001928E-02 0. -1.
    10030    2    1    2    0    0  0.00000000000E+00  0.00000000000E+00 -0.13912042944E+04  0.38856171791E+04  0.36280258369E+04 0.  0.
        5    1    3    3  502    0  0.89163669072E+03 -0.89367848180E+03 -0.20907599698E+04  0.24423301494E+04  0.46999998093E+01 0. -1.
       -5    1    3    3    0  502 -0.89163669072E+03  0.89367848180E+03  0.69955567540E+03  0.14432870297E+04  0.46999998093E+01 0.  1.
</event>
<event>
 5   0  0.6729577E-07  0.3629203E+04  0.7818609E-02  0.8083835E-01
       -2   -1    0    0    0  501  0.00000000000E+00  0.00000000000E+00  0.15382363715E+04  0.15382363715E+04  0.25500000920E-02 0. -1.
        2   -1    0    0  501    0  0.00000000000E+00  0.00000000000E+00 -0.21406190595E+04  0.21406190595E+04  0.25500000920E-02 0.  1.
    10030    2    1    2    0    0  0.00000000000E+00  0.00000000000E+00 -0.60238268796E+03  0.36788554310E+04  0.36292027195E+04 0.  0.
        3    1    3    3  502    0 -0.12826611445E+04 -0.79575844777E+01  0.99991731247E+03  0.16263817439E+04  0.10100000352E+00 0. -1.
       -3    1    3    3    0  502  0.12826611445E+04  0.79575844777E+01 -0.16023000004E+04  0.20524736871E+04  0.10100000352E+00 0.  1.
</event>
<event>
 5   0  0.2108068E-07  0.3652146E+04  0.7818609E-02  0.8078650E-01
       -1   -1    0    0    0  501  0.00000000000E+00  0.00000000000E+00  0.13570929533E+04  0.13570929533E+04  0.50400001928E-02 0. -1.
        1   -1    0    0  501    0  0.00000000000E+00  0.00000000000E+00 -0.24571221706E+04  0.24571221706E+04  0.50400001928E-02 0.  1.
    10030    2    1    2    0    0  0.00000000000E+00  0.00000000000E+00 -0.11000292173E+04  0.38142151240E+04  0.36521463187E+04 0.  0.
        5    1    3    3  502    0  0.68500380282E+02 -0.16558472742E+04  0.25082428983E+03  0.16761436132E+04  0.46999998093E+01 0. -1.
       -5    1    3    3    0  502 -0.68500380282E+02  0.16558472742E+04 -0.13508535071E+04  0.21380715108E+04  0.46999998093E+01 0.  1.
</event>
<event>
 5   0  0.2108068E-07  0.3306264E+04  0.7818609E-02  0.8161303E-01
       -1   -1    0    0    0  501  0.00000000000E+00  0.00000000000E+00  0.19778946479E+04  0.19778946479E+04  0.50400001928E-02 0. -1.
        1   -1    0    0  501    0  0.00000000000E+00  0.00000000000E+00 -0.13816944732E+04  0.13816944732E+04  0.50400001928E-02 0.  1.
    10030    2    1    2    0    0  0.00000000000E+00  0.00000000000E+00  0.59620017475E+03  0.33595891211E+04  0.33062644199E+04 0.  0.
        5    1    3    3  502    0  0.11899710065E+04 -0.99489605397E+03 -0.28293955428E+03  0.15766819705E+04  0.46999998093E+01 0.  1.
       -5    1    3    3    0  502 -0.11899710065E+04  0.99489605397E+03  0.87913972903E+03  0.17829071506E+04  0.46999998093E+01 0. -1.
</event>
<event>
 5   0  0.6729577E-07  0.3601505E+04  0.7818609E-02  0.8090147E-01
        2   -1    0    0  501    0  0.00000000000E+00  0.00000000000E+00  0.19060739194E+04  0.19060739194E+04  0.25500000920E-02 0.  1.
       -2   -1    0    0    0  501  0.00000000000E+00  0.00000000000E+00 -0.17012506172E+04  0.17012506172E+04  0.25500000920E-02 0. -1.
    10030    2    1    2    0    0  0.00000000000E+00  0.00000000000E+00  0.20482330218E+03  0.36073245366E+04  0.36015049253E+04 0.  0.
        3    1    3    3  502    0 -0.74215810650E+03  0.15207990160E+04 -0.51427887974E+03  0.17686466800E+04  0.10100000352E+00 0. -1.
       -3    1    3    3    0  502  0.74215810650E+03 -0.15207990160E+04  0.71910218192E+03  0.18386778566E+04  0.10100000352E+00 0.  1.
</event>
<event>
 5   0  0.6848661E-07  0.3459016E+04  0.7818609E-02  0.8123572E-01
       -2   -1    0    0    0  501  0.00000000000E+00  0.00000000000E+00  0.13911298662E+04  0.13911298662E+04  0.25500000920E-02 0.  1.
        2   -1    0    0  501    0  0.00000000000E+00  0.00000000000E+00 -0.21501930476E+04  0.21501930476E+04  0.25500000920E-02 0. -1.
    10030    2    1    2    0    0  0.00000000000E+00  0.00000000000E+00 -0.75906318140E+03  0.35413229138E+04  0.34590159101E+04 0.  0.
        1    1    3    3  502    0 -0.23406836505E+03 -0.11419900010E+04  0.92847154034E+03  0.14902981458E+04  0.50400001928E-02 0.  1.
       -1    1    3    3    0  502  0.23406836505E+03  0.11419900010E+04 -0.16875347217E+04  0.20510247680E+04  0.50400001928E-02 0. -1.
</event>
<event>
 5   0  0.6541476E-07  0.3593565E+04  0.7818609E-02  0.8091967E-01
       -2   -1    0    0    0  501  0.00000000000E+00  0.00000000000E+00  0.15291277822E+04  0.15291277822E+04  0.25500000920E-02 0. -1.
        2   -1    0    0  501    0  0.00000000000E+00  0.00000000000E+00 -0.21112869393E+04  0.21112869393E+04  0.25500000920E-02 0.  1.
    10030    2    1    2    0    0  0.00000000000E+00  0.00000000000E+00 -0.58215915712E+03  0.36404147214E+04  0.35935650905E+04 0.  0.
        4    1    3    3  502    0  0.49750982142E+03  0.27729846314E+03  0.14352543536E+04  0.15441396092E+04  0.12699999809E+01 0. -1.
       -4    1    3    3    0  502 -0.49750982142E+03 -0.27729846314E+03 -0.20174135108E+04  0.20962751123E+04  0.12699999809E+01 0.  1.
</event>
<event>
 5   0  0.2086250E-07  0.3583524E+04  0.7818609E-02  0.8094276E-01
        1   -1    0    0  501    0  0.00000000000E+00  0.00000000000E+00  0.23274763787E+04  0.23274763787E+04  0.50400001928E-02 0.  1.
       -1   -1    0    0    0  501  0.00000000000E+00  0.00000000000E+00 -0.13793524572E+04  0.13793524572E+04  0.50400001928E-02 0. -1.
    10030    2    1    2    0    0  0.00000000000E+00  0.00000000000E+00  0.94812392145E+03  0.37068288359E+04  0.35835235521E+04 0.  0.
        2    1    3    3  502    0  0.70976099267E+03 -0.40382194382E+03 -0.11756751778E+04  0.14314485505E+04  0.25500000920E-02 0. -1.
       -2    1    3    3    0  502 -0.70976099267E+03  0.40382194382E+03  0.21237990993E+04  0.22753802854E+04  0.25500000920E-02 0.  1.
</event>
<event>
 5   0  0.6669864E-07  0.3493006E+04  0.7818609E-02  0.8115449E-01
        2   -1    0    0  501    0  0.00000000000E+00  0.00000000000E+00  0.19815752033E+04  0.19815752033E+04  0.25500000920E-02 0. -1.
       -2   -1    0    0    0  501  0.00000000000E+00  0.00000000000E+00 -0.15393175573E+04  0.15393175573E+04  0.25500000920E-02 0.  1.
    10030    2    1    2    0    0  0.00000000000E+00  0.00000000000E+00  0.44225764597E+03  0.35208927606E+04  0.34930064424E+04 0.  0.
        5    1    3    3  502    0  0.98562108983E+03 -0.45067333173E+03 -0.11593655481E+04  0.15870431464E+04  0.46999998093E+01 0.  1.
       -5    1    3    3    0  502 -0.98562108983E+03  0.45067333173E+03  0.16016231940E+04  0.19338496142E+04  0.46999998093E+01 0. -1.
</event>
<event>
 5   0  0.2086250E-07  0.3545364E+04  0.7818609E-02  0.8103123E-01
        1   -1    0    0  501    0  0.00000000000E+00  0.00000000000E+00  0.24101339776E+04  0.24101339776E+04  0.50400001928E-02 0. -1.
       -1   -1    0    0    0  501  0.00000000000E+00  0.00000000000E+00 -0.13038286414E+04  0.13038286414E+04  0.50400001928E-02 0.  1.
    10030    2    1    2    0    0  0.00000000000E+00  0.00000000000E+00  0.11063053362E+04  0.37139626190E+04  0.35453641334E+04 0.  0.
        4    1    3    3  502    0 -0.15495298174E+04 -0.70120594954E+02 -0.34581800985E+03  0.15891983078E+04  0.12699999809E+01 0.  1.
       -4    1    3    3    0  502  0.15495298174E+04  0.70120594954E+02  0.14521233460E+04  0.21247643111E+04  0.12699999809E+01 0. -1.
</event>
<event>
 5   0  0.6848661E-07  0.3215518E+04  0.7818609E-02  0.8184731E-01
       -2   -1    0    0    0  501  0.00000000000E+00  0.00000000000E+00  0.13530855354E+04  0.13530855354E+04  0.25500000920E-02 0.  1.
        2   -1    0    0  501    0  0.00000000000E+00  0.00000000000E+00 -0.19103667208E+04  0.19103667208E+04  0.25500000920E-02 0. -1.
    10030    2    1    2    0    0  0.00000000000E+00  0.00000000000E+00 -0.55728118540E+03  0.32634522562E+04  0.32155183578E+04 0.  0.
        1    1    3    3  502    0 -0.15500870184E+04  0.41830968710E+03 -0.19290155852E+03  0.16170849608E+04  0.50400001928E-02 0. -1.
       -1    1    3    3    0  502  0.15500870184E+04 -0.41830968710E+03 -0.36437962687E+03  0.16463672955E+04  0.50400001928E-02 0.  1.
</event>
<event>
 5   0  0.6669864E-07  0.3537372E+04  0.7818609E-02  0.8104990E-01
       -2   -1    0    0    0  501  0.00000000000E+00  0.00000000000E+00  0.28691664266E+04  0.28691664266E+04  0.25500000920E-02 0.  1.
        2   -1    0    0  501    0  0.00000000000E+00  0.00000000000E+00 -0.10902994142E+04  0.10902994142E+04  0.25500000920E-02 0. -1.
    10030    2    1    2    0    0  0.00000000000E+00  0.00000000000E+00  0.17788670124E+04  0.39594658408E+04  0.35373721739E+04 0.  0.
        5    1    3    3  502    0 -0.56738619842E+03  0.16530161795E+04  0.11935907397E+04  0.21163814713E+04  0.46999998093E+01 0. -1.
       -5    1    3    3    0  502  0.56738619842E+03 -0.16530161795E+04  0.58527627265E+03  0.18430843696E+04  0.46999998093E+01 0.  1.
</event>
<event>
 5   0  0.6324216E-07  0.3432031E+04  0.7818609E-02  0.8130089E-01
        2   -1    0    0  501    0  0.00000000000E+00  0.00000000000E+00  0.27838902208E+04  0.27838902208E+04  0.25500000920E-02 0.  1.
       -2   -1    0    0    0  501  0.00000000000E+00  0.00000000000E+00 -0.10577679089E+04  0.10577679089E+04  0.25500000920E-02 0. -1.
    10030    2    1    2    0    0  0.00000000000E+00  0.00000000000E+00  0.17261223119E+04  0.38416581297E+04  0.34320313154E+04 0.  0.
        2    1    3    3  502    0  0.57671792021E+03 -0.90811358460E+02  0.26693044330E+04  0.27324048782E+04  0.25500000920E-02 0.  1.
       -2    1    3    3    0  502 -0.57671792021E+03  0.90811358460E+02 -0.94318212116E+03  0.11092532515E+04  0.25500000920E-02 0. -1.
</event>
<event>
 5   0  0.2193129E-07  0.3637733E+04  0.7818609E-02  0.8081903E-01
        1   -1    0    0  501    0  0.00000000000E+00  0.00000000000E+00  0.26688088556E+04  0.26688088556E+04  0.50400001928E-02 0. -1.
       -1   -1    0    0    0  501  0.00000000000E+00  0.00000000000E+00 -0.12396075972E+04  0.12396075972E+04  0.50400001928E-02 0.  1.
    10030    2    1    2    0    0  0.00000000000E+00  0.00000000000E+00  0.14292012584E+04  0.39084164528E+04  0.36377332134E+04 0.  0.
        1    1    3    3  502    0 -0.88091682773E+03  0.52840515748E+03 -0.89810585292E+03  0.13644854675E+04  0.50400001928E-02 0.  1.
       -1    1    3    3    0  502  0.88091682773E+03 -0.52840515748E+03  0.23273071113E+04  0.25439309854E+04  0.50400001928E-02 0. -1.
</event>
<event>
 5   0  0.2086250E-07  0.3584725E+04  0.7818609E-02  0.8094000E-01
       -1   -1    0    0    0  501  0.00000000000E+00  0.00000000000E+00  0.20030399646E+04  0.20030399646E+04  0.50400001928E-02 0. -1.
        1   -1    0    0  501    0  0.00000000000E+00  0.00000000000E+00 -0.16038437130E+04  0.16038437130E+04  0.50400001928E-02 0.  1.
    10030    2    1    2    0    0  0.00000000000E+00  0.00000000000E+00  0.39919625159E+03  0.36068836776E+04  0.35847248453E+04 0.  0.
        4    1    3    3  502    0  0.38970706384E+03 -0.39116554754E+03 -0.15161343328E+04  0.16135510557E+04  0.12699999809E+01 0.  1.
       -4    1    3    3    0  502 -0.38970706384E+03  0.39116554754E+03  0.19153305844E+04  0.19933326220E+04  0.12699999809E+01 0. -1.
</event>
<event>
 5   0  0.6324216E-07  0.3590625E+04  0.7818609E-02  0.8092642E-01
        2   -1    0    0  501    0  0.00000000000E+00  0.00000000000E+00  0.16579221865E+04  0.16579221865E+04  0.25500000920E-02 0.  1.
       -2   -1    0    0    0  501  0.00000000000E+00  0.00000000000E+00 -0.19440886734E+04  0.19440886734E+04  0.25500000920E-02 0. -1.
    10030    2    1    2    0    0  0.00000000000E+00  0.00000000000E+00 -0.28616648686E+03  0.36020108599E+04  0.35906254298E+04 0.  0.
        2    1    3    3  502    0 -0.10923454412E+04  0.12942817713E+04 -0.74059246489E+03  0.18484753354E+04  0.25500000920E-02 0. -1.
       -2    1    3    3    0  502  0.10923454412E+04 -0.12942817713E+04  0.45442597803E+03  0.17535355246E+04  0.25500000920E-02 0.  1.
</event>
<event>
 5   0  0.6669864E-07  0.3469022E+04  0.7818609E-02  0.8121171E-01
       -2   -1    0    0    0  501  0.00000000000E+00  0.00000000000E+00  0.15619287467E+04  0.15619287467E+04  0.25500000920E-02 0.  1.
        2   -1    0    0  501    0  0.00000000000E+00  0.00000000000E+00 -0.19261622226E+04  0.19261622226E+04  0.25500000920E-02 0. -1.
    10030    2    1    2    0    0  0.00000000000E+00  0.00000000000E+00 -0.36423347589E+03  0.34880909694E+04  0.34690218485E+04 0.  0.
        5    1    3    3  502    0 -0.33456676172E+03  0.11849040333E+04 -0.14105417236E+04  0.18723200929E+04  0.46999998093E+01 0. -1.
       -5    1    3    3    0  502  0.33456676172E+03 -0.11849040333E+04  0.10463082477E+04  0.16157708765E+04  0.46999998093E+01 0.  1.
</event>
<event>
 5   0  0.2193129E-07  0.3596289E+04  0.7818609E-02  0.8091342E-01
       -1   -1    0    0    0  501  0.00000000000E+00  0.00000000000E+00  0.15125466820E+04  0.15125466820E+04  0.50400001928E-02 0. -1.
        1   -1    0    0  501    0  0.00000000000E+00  0.00000000000E+00 -0.21376681741E+04  0.21376681741E+04  0.50400001928E-02 0.  1.
    10030    2    1    2    0    0  0.00000000000E+00  0.00000000000E+00 -0.62512149210E+03  0.36502148562E+04  0.35962885891E+04 0.  0.
        1    1    3    3  502    0 -0.12399720962E+04 -0.12507352096E+04  0.55441133457E+02  0.17620848683E+04  0.50400001928E-02 0. -1.
       -1    1    3    3    0  502  0.12399720962E+04  0.12507352096E+04 -0.68056262556E+03  0.18881299879E+04  0.50400001928E-02 0.  1.
</event>
<event>
 5   0  0.2086250E-07  0.3595537E+04  0.7818609E-02  0.8091515E-01
       -1   -1    0    0    0  501  0.00000000000E+00  0.00000000000E+00  0.20012411858E+04  0.20012411858E+04  0.50400001928E-02 0.  1.
        1   -1    0    0  501    0  0.00000000000E+00  0.00000000000E+00 -0.16149833118E+04  0.16149833118E+04  0.50400001928E-02 0. -1.
    10030    2    1    2    0    0  0.00000000000E+00  0.00000000000E+00  0.38625787405E+03  0.36162244976E+04  0.35955367432E+04 0.  0.
        2    1    3    3  502    0 -0.12441075779E+04  0.66865971845E+03  0.13117611505E+04  0.19275961196E+04  0.25500000920E-02 0.  1.
       -2    1    3    3    0  502  0.12441075779E+04 -0.66865971845E+03 -0.92550327640E+03  0.16886283780E+04  0.25500000920E-02 0. -1.
</event>
<event>
 5   0  0.6541476E-07  0.3566140E+04  0.7818609E-02  0.8098292E-01
        2   -1    0    0  501    0  0.00000000000E+00  0.00000000000E+00  0.12949687721E+04  0.12949687721E+04  0.25500000920E-02 0. -1.
       -2   -1    0    0    0  501  0.00000000000E+00  0.00000000000E+00 -0.24551472358E+04  0.24551472358E+04  0.25500000920E-02 0.  1.
    10030    2    1    2    0    0  0.00000000000E+00  0.00000000000E+00 -0.11601784637E+04  0.37501160080E+04  0.35661402112E+04 0.  0.
        4    1    3    3  502    0 -0.38377581177E+03 -0.75957728481E+03  0.10676197739E+04  0.13653040393E+04  0.12699999809E+01 0. -1.
       -4    1    3    3    0  502  0.38377581177E+03  0.75957728481E+03 -0.22277982376E+04  0.23848119686E+04  0.12699999809E+01 0.  1.
</event>
<event>
 5   0  0.2086250E-07  0.3562382E+04  0.7818609E-02  0.8099163E-01
        3   -1    0    0  501    0  0.00000000000E+00  0.00000000000E+00  0.19328899662E+04  0.19328899688E+04  0.10100000352E+00 0.  1.
       -3   -1    0    0    0  501  0.00000000000E+00  0.00000000000E+00 -0.16413974478E+04  0.16413974509E+04  0.10100000352E+00 0. -1.
    10030    2    1    2    0    0  0.00000000000E+00  0.00000000000E+00  0.29149251833E+03  0.35742874197E+04  0.35623816009E+04 0.  0.
        1    1    3    3  502    0 -0.13986685315E+04 -0.78395711812E+02 -0.95803088556E+03  0.16971277873E+04  0.50400001928E-02 0. -1.
       -1    1    3    3    0  502  0.13986685315E+04  0.78395711812E+02  0.12495234039E+04  0.18771596324E+04  0.50400001928E-02 0.  1.
</event>
<event>
 5   0  0.6541476E-07  0.3604877E+04  0.7818609E-02  0.8089376E-01
        2   -1    0    0  501    0  0.00000000000E+00  0.00000000000E+00  0.19184743663E+04  0.19184743663E+04  0.25500000920E-02 0.  1.
       -2   -1    0    0    0  501  0.00000000000E+00  0.00000000000E+00 -0.16934207256E+04  0.16934207256E+04  0.25500000920E-02 0. -1.
    10030    2    1    2    0    0  0.00000000000E+00  0.00000000000E+00  0.22505364070E+03  0.36118950919E+04  0.36048768375E+04 0.  0.
        4    1    3    3  502    0  0.16337716649E+04  0.38255856342E+03 -0.54695042305E+03  0.17648561657E+04  0.12699999809E+01 0. -1.
       -4    1    3    3    0  502 -0.16337716649E+04 -0.38255856342E+03  0.77200406374E+03  0.18470389262E+04  0.12699999809E+01 0.  1.
</event>
<event>
 5   0  0.6541476E-07  0.3624616E+04  0.7818609E-02  0.8084876E-01
       -2   -1    0    0    0  501  0.00000000000E+00  0.00000000000E+00  0.13870582072E+04  0.13870582072E+04  0.25500000920E-02 0. -1.
        2   -1    0    0  501    0  0.00000000000E+00  0.00000000000E+00 -0.23679331938E+04  0.23679331938E+04  0.25500000920E-02 0.  1.
    10030    2    1    2    0    0  0.00000000000E+00  0.00000000000E+00 -0.98087498661E+03  0.37549914011E+04  0.36246164877E+04 0.  0.
        4    1    3    3  502    0 -0.14909774901E+04 -0.46081838080E+03 -0.14450437702E+04  0.21268569690E+04  0.12699999809E+01 0.  1.
       -4    1    3    3    0  502  0.14909774901E+04  0.46081838080E+03  0.46416878356E+03  0.16281344320E+04  0.12699999809E+01 0. -1.
</event>
<event>
 5   0  0.6729577E-07  0.3599695E+04  0.7818609E-02  0.8090562E-01
        2   -1    0    0  501    0  0.00000000000E+00  0.00000000000E+00  0.20208826587E+04  0.20208826587E+04  0.25500000920E-02 0. -1.
       -2   -1    0    0    0  501  0.00000000000E+00  0.00000000000E+00 -0.16029880793E+04  0.16029880793E+04  0.25500000920E-02 0.  1.
    10030    2    1    2    0    0  0.00000000000E+00  0.00000000000E+00  0.41789457948E+03  0.36238707380E+04  0.35996948824E+04 0.  0.
        3    1    3    3  502    0 -0.51675645046E+03 -0.47098600867E+03  0.18785748389E+04  0.20044721213E+04  0.10100000352E+00 0. -1.
       -3    1    3    3    0  502  0.51675645046E+03  0.47098600867E+03 -0.14606802594E+04  0.16193986167E+04  0.10100000352E+00 0.  1.
</event>
<event>
 5   0  0.2086250E-07  0.3421407E+04  0.7818609E-02  0.8132672E-01
       -1   -1    0    0    0  501  0.00000000000E+00  0.00000000000E+00  0.92697466051E+03  0.92697466052E+03  0.50400001928E-02 0. -1.
        1   -1    0    0  501    0  0.00000000000E+00  0.00000000000E+00 -0.31570517800E+04  0.31570517800E+04  0.50400001928E-02 0.  1.
    10030    2    1    2    0    0  0.00000000000E+00  0.00000000000E+00 -0.22300771195E+04  0.40840264405E+04  0.34214073140E+04 0.  0.
        2    1    3    3  502    0 -0.15365344641E+04  0.20040739596E+02 -0.20124100023E+04  0.25320216839E+04  0.25500000920E-02 0. -1.
       -2    1    3    3    0  502  0.15365344641E+04 -0.20040739596E+02 -0.21766711718E+03  0.15520047566E+04  0.25500000920E-02 0.  1.
</event>
<event>
 5   0  0.2193129E-07  0.3599077E+04  0.7818609E-02  0.8090703E-01
       -1   -1    0    0    0  501  0.00000000000E+00  0.00000000000E+00  0.17610743330E+04  0.17610743330E+04  0.50400001928E-02 0. -1.
        1   -1    0    0  501    0  0.00000000000E+00  0.00000000000E+00 -0.18388426563E+04  0.18388426563E+04  0.50400001928E-02 0.  1.
    10030    2    1    2    0    0  0.00000000000E+00  0.00000000000E+00 -0.77768323306E+02  0.35999169893E+04  0.35990768841E+04 0.  0.
        1    1    3    3  502    0  0.10607742207E+02  0.25767762263E+03  0.17424943067E+04  0.17614757138E+04  0.50400001928E-02 0. -1.
       -1    1    3    3    0  502 -0.10607742207E+02 -0.25767762263E+03 -0.18202626300E+04  0.18384412755E+04  0.50400001928E-02 0.  1.
</event>
<event>
 5   0  0.2086250E-07  0.3570532E+04  0.7818609E-02  0.8097275E-01
       -3   -1    0    0    0  501  0.00000000000E+00  0.00000000000E+00  0.19619510447E+04  0.19619510473E+04  0.10100000352E+00 0.  1.
        3   -1    0    0  501    0  0.00000000000E+00  0.00000000000E+00 -0.16244920717E+04  0.16244920748E+04  0.10100000352E+00 0. -1.
    10030    2    1    2    0    0  0.00000000000E+00  0.00000000000E+00  0.33745897304E+03  0.35864431222E+04  0.35705315725E+04 0.  0.
        2    1    3    3  502    0  0.74924080488E+03 -0.82165407939E+03  0.15716270037E+04  0.19252243113E+04  0.25500000920E-02 0.  1.
       -2    1    3    3    0  502 -0.74924080488E+03  0.82165407939E+03 -0.12341680307E+04  0.16612188109E+04  0.25500000920E-02 0. -1.
</event>
<event>
 5   0  0.6848661E-07  0.3611258E+04  0.7818609E-02  0.8087918E-01
        2   -1    0    0  501    0  0.00000000000E+00  0.00000000000E+00  0.20457518428E+04  0.20457518428E+04  0.25500000920E-02 0.  1.
       -2   -1    0    0    0  501  0.00000000000E+00  0.00000000000E+00 -0.15936905899E+04  0.15936905899E+04  0.25500000920E-02 0. -1.
    10030    2    1    2    0    0  0.00000000000E+00  0.00000000000E+00  0.45206125289E+03  0.36394424327E+04  0.36112576541E+04 0.  0.
        1    1    3    3  502    0  0.77040988041E+03 -0.13543075027E+04 -0.69356852838E+03  0.17054962619E+04  0.50400001928E-02 0. -1.
       -1    1    3    3    0  502 -0.77040988041E+03  0.13543075027E+04  0.11456297813E+04  0.19339461708E+04  0.50400001928E-02 0.  1.
</event>
<event>
 5   0  0.6669864E-07  0.3605832E+04  0.7818609E-02  0.8089157E-01
       -2   -1    0    0    0  501  0.00000000000E+00  0.00000000000E+00  0.15620029227E+04  0.15620029227E+04  0.25500000920E-02 0.  1.
        2   -1    0    0  501    0  0.00000000000E+00  0.00000000000E+00 -0.20809861834E+04  0.20809861834E+04  0.25500000920E-02 0. -1.
    10030    2    1    2    0    0  0.00000000000E+00  0.00000000000E+00 -0.51898326068E+03  0.36429891061E+04  0.36058322205E+04 0.  0.
        5    1    3    3  502    0  0.81195380391E+03 -0.12021093520E+04  0.82212363883E+03  0.16674067414E+04  0.46999998093E+01 0.  1.
       -5    1    3    3    0  502 -0.81195380391E+03  0.12021093520E+04 -0.13411068995E+04  0.19755823647E+04  0.46999998093E+01 0. -1.
</event>
<event>
 5   0  0.6541476E-07  0.3780023E+04  0.7818609E-02  0.8050456E-01
       -2   -1    0    0    0  501  0.00000000000E+00  0.00000000000E+00  0.13631841979E+04  0.13631841979E+04  0.25500000920E-02 0.  1.
        2   -1    0    0  501    0  0.00000000000E+00  0.00000000000E+00 -0.26204406673E+04  0.26204406673E+04  0.25500000920E-02 0. -1.
    10030    2    1    2    0    0  0.00000000000E+00  0.00000000000E+00 -0.12572564694E+04  0.39836248652E+04  0.37800229148E+04 0.  0.
        4    1    3    3  502    0 -0.81298927328E+03 -0.10950980301E+04  0.75026168331E+03  0.15566263072E+04  0.12699999809E+01 0.  1.
       -4    1    3    3    0  502  0.81298927328E+03  0.10950980301E+04 -0.20075181528E+04  0.24269985580E+04  0.12699999809E+01 0. -1.
</event>
<event>
 5   0  0.2108068E-07  0.3280205E+04  0.7818609E-02  0.8167950E-01
        1   -1    0    0  501    0  0.00000000000E+00  0.00000000000E+00  0.16295987894E+04  0.16295987894E+04  0.50400001928E-02 0. -1.
       -1   -1    0    0    0  501  0.00000000000E+00  0.00000000000E+00 -0.16506743685E+04  0.16506743685E+04  0.50400001928E-02 0.  1.
    10030    2    1    2    0    0  0.00000000000E+00  0.00000000000E+00 -0.21075579138E+02  0.32802731580E+04  0.32802054525E+04 0.  0.
        5    1    3    3  502    0  0.69492315854E+03 -0.10711995803E+04 -0.10398928618E+04  0.16467501301E+04  0.46999998093E+01 0.  1.
       -5    1    3    3    0  502 -0.69492315854E+03  0.10711995803E+04  0.10188172826E+04  0.16335230278E+04  0.46999998093E+01 0. -1.
</event>
<event>
 5   0  0.2086250E-07  0.3592526E+04  0.7818609E-02  0.8092206E-01
        1   -1    0    0  501    0  0.00000000000E+00  0.00000000000E+00  0.16313483030E+04  0.16313483030E+04  0.50400001928E-02 0.  1.
       -1   -1    0    0    0  501  0.00000000000E+00  0.00000000000E+00 -0.19778487735E+04  0.19778487735E+04  0.50400001928E-02 0. -1.
    10030    2    1    2    0    0  0.00000000000E+00  0.00000000000E+00 -0.34650047043E+03  0.36091970765E+04  0.35925257078E+04 0.  0.
        3    1    3    3  502    0  0.95809534945E+03  0.25066182117E+03 -0.16787979650E+04  0.19491384416E+04  0.10100000352E+00 0. -1.
       -3    1    3    3    0  502 -0.95809534945E+03 -0.25066182117E+03  0.13322974945E+04  0.16600586349E+04  0.10100000352E+00 0.  1.
</event>
<event>
 5   0  0.2086250E-07  0.3584768E+04  0.7818609E-02  0.8093990E-01
        1   -1    0    0  501    0  0.00000000000E+00  0.00000000000E+00  0.27444577550E+04  0.27444577550E+04  0.50400001928E-02 0.  1.
       -1   -1    0    0    0  501  0.00000000000E+00  0.00000000000E+00 -0.11705921889E+04  0.11705921890E+04  0.50400001928E-02 0. -1.
    10030    2    1    2    0    0  0.00000000000E+00  0.00000000000E+00  0.15738655660E+04  0.39150499439E+04  0.35847682273E+04 0.  0.
        2    1    3    3  502    0  0.44598072507E+03 -0.16455747341E+04  0.13908998861E+04  0.22003221368E+04  0.25500000920E-02 0.  1.
       -2    1    3    3    0  502 -0.44598072507E+03  0.16455747341E+04  0.18296567992E+03  0.17147278071E+04  0.25500000920E-02 0. -1.
</event>
<event>
 5   0  0.2086250E-07  0.3514266E+04  0.7818609E-02  0.8110417E-01
        1   -1    0    0  501    0  0.00000000000E+00  0.00000000000E+00  0.16536336111E+04  0.16536336111E+04  0.50400001928E-02 0.  1.
       -1   -1    0    0    0  501  0.00000000000E+00  0.00000000000E+00 -0.18671106203E+04  0.18671106203E+04  0.50400001928E-02 0. -1.
    10030    2    1    2    0    0  0.00000000000E+00  0.00000000000E+00 -0.21347700915E+03  0.35207442314E+04  0.35142662832E+04 0.  0.
        2    1    3    3  502    0 -0.28418940183E+03 -0.30369039003E+03 -0.18170835483E+04  0.18640772759E+04  0.25500000920E-02 0. -1.
       -2    1    3    3    0  502  0.28418940183E+03  0.30369039003E+03  0.16036065391E+04  0.16566669555E+04  0.25500000920E-02 0.  1.
</event>
<event>
 5   0  0.2108068E-07  0.3596536E+04  0.7818609E-02  0.8091286E-01
        1   -1    0    0  501    0  0.00000000000E+00  0.00000000000E+00  0.18271793445E+04  0.18271793445E+04  0.50400001928E-02 0.  1.
       -1   -1    0    0    0  501  0.00000000000E+00  0.00000000000E+00 -0.17698144935E+04  0.17698144935E+04  0.50400001928E-02 0. -1.
    10030    2    1    2    0    0  0.00000000000E+00  0.00000000000E+00  0.57364851009E+02  0.35969938380E+04  0.35965363816E+04 0.  0.
        5    1    3    3  502    0  0.16370455076E+04 -0.43970466066E+03  0.62916550013E+03  0.18080734219E+04  0.46999998093E+01 0.  1.
       -5    1    3    3    0  502 -0.16370455076E+04  0.43970466066E+03 -0.57180064912E+03  0.17889204160E+04  0.46999998093E+01 0. -1.
</event>
<event>
 5   0  0.6848661E-07  0.3619400E+04  0.7818609E-02  0.8086062E-01
       -2   -1    0    0    0  501  0.00000000000E+00  0.00000000000E+00  0.21088153402E+04  0.21088153402E+04  0.25500000920E-02 0. -1.
        2   -1    0    0  501    0  0.00000000000E+00  0.00000000000E+00 -0.15530111698E+04  0.15530111698E+04  0.25500000920E-02 0.  1.
    10030    2    1    2    0    0  0.00000000000E+00  0.00000000000E+00  0.55580417041E+03  0.36618265099E+04  0.36193998277E+04 0.  0.
        1    1    3    3  502    0  0.97418526515E+02 -0.15235831913E+04  0.12610011079E+04  0.19801312846E+04  0.50400001928E-02 0. -1.
       -1    1    3    3    0  502 -0.97418526515E+02  0.15235831913E+04 -0.70519693747E+03  0.16816952253E+04  0.50400001928E-02 0.  1.
</event>
<event>
 5   0  0.2086250E-07  0.3601009E+04  0.7818609E-02  0.8090261E-01
        1   -1    0    0  501    0  0.00000000000E+00  0.00000000000E+00  0.30600466192E+04  0.30600466192E+04  0.50400001928E-02 0.  1.
       -1   -1    0    0    0  501  0.00000000000E+00  0.00000000000E+00 -0.10594007569E+04  0.10594007569E+04  0.50400001928E-02 0. -1.
    10030    2    1    2    0    0  0.00000000000E+00  0.00000000000E+00  0.20006458623E+04  0.41194473761E+04  0.36010085835E+04 0.  0.
        4    1    3    3  502    0 -0.11230537801E+04 -0.21356074363E+03 -0.59097083606E+03  0.12868978694E+04  0.12699999809E+01 0. -1.
       -4    1    3    3    0  502  0.11230537801E+04  0.21356074363E+03  0.25916166984E+04  0.28325495068E+04  0.12699999809E+01 0.  1.
</event>
<event>
 5   0  0.2193129E-07  0.3594344E+04  0.7818609E-02  0.8091789E-01
        1   -1    0    0  501    0  0.00000000000E+00  0.00000000000E+00  0.25560192392E+04  0.25560192392E+04  0.50400001928E-02 0. -1.
       -1   -1    0    0    0  501  0.00000000000E+00  0.00000000000E+00 -0.12636160199E+04  0.12636160199E+04  0.50400001928E-02 0.  1.
    10030    2    1    2    0    0  0.00000000000E+00  0.00000000000E+00  0.12924032193E+04  0.38196352591E+04  0.35943438109E+04 0.  0.
        1    1    3    3  502    0 -0.15347785112E+04  0.72681401634E+03  0.21093886969E+02  0.16983075825E+04  0.50400001928E-02 0.  1.
       -1    1    3    3    0  502  0.15347785112E+04 -0.72681401634E+03  0.12713093323E+04  0.21213276765E+04  0.50400001928E-02 0. -1.
</event>
<event>
 5   0  0.6541476E-07  0.3630357E+04  0.7818609E-02  0.8083573E-01
       -2   -1    0    0    0  501  0.00000000000E+00  0.00000000000E+00  0.18776561743E+04  0.18776561743E+04  0.25500000920E-02 0.  1.
        2   -1    0    0  501    0  0.00000000000E+00  0.00000000000E+00 -0.17547797315E+04  0.17547797315E+04  0.25500000920E-02 0. -1.
    10030    2    1    2    0    0  0.00000000000E+00  0.00000000000E+00  0.12287644284E+03  0.36324359058E+04  0.36303570058E+04 0.  0.
        4    1    3    3  502    0  0.29697818919E+03 -0.24292985748E+03  0.18366188968E+04  0.18762679833E+04  0.12699999809E+01 0.  1.
       -4    1    3    3    0  502 -0.29697818919E+03  0.24292985748E+03 -0.17137424539E+04  0.17561679224E+04  0.12699999809E+01 0. -1.
</event>
<event>
 5   0  0.2108068E-07  0.3610669E+04  0.7818609E-02  0.8088052E-01
       -1   -1    0    0    0  501  0.00000000000E+00  0.00000000000E+00  0.12822188943E+04  0.12822188943E+04  0.50400001928E-02 0. -1.
        1   -1    0    0  501    0  0.00000000000E+00  0.00000000000E+00 -0.25418697554E+04  0.25418697554E+04  0.50400001928E-02 0.  1.
    10030    2    1    2    0    0  0.00000000000E+00  0.00000000000E+00 -0.12596508612E+04  0.38240886497E+04  0.36106694267E+04 0.  0.
        5    1    3    3  502    0  0.13627326872E+04  0.11225392381E+04 -0.10290355397E+04  0.20435437235E+04  0.46999998093E+01 0. -1.
       -5    1    3    3    0  502 -0.13627326872E+04 -0.11225392381E+04 -0.23061532148E+03  0.17805449262E+04  0.46999998093E+01 0.  1.
</event>
<event>
 5   0  0.2086250E-07  0.3555701E+04  0.7818609E-02  0.8100715E-01
        3   -1    0    0  501    0  0.00000000000E+00  0.00000000000E+00  0.11055433707E+04  0.11055433753E+04  0.10100000352E+00 0. -1.
       -3   -1    0    0    0  501  0.00000000000E+00  0.00000000000E+00 -0.28590040266E+04  0.28590040284E+04  0.10100000352E+00 0.  1.
    10030    2    1    2    0    0  0.00000000000E+00  0.00000000000E+00 -0.17534606559E+04  0.39645474037E+04  0.35557013155E+04 0.  0.
        2    1    3    3  502    0 -0.64402957476E+03  0.10614318911E+04 -0.22955837323E+04  0.26098115688E+04  0.25500000920E-02 0.  1.
       -2    1    3    3    0  502  0.64402957476E+03 -0.10614318911E+04  0.54212307640E+03  0.13547358350E+04  0.25500000920E-02 0. -1.
</event>
<event>
 5   0  0.2086250E-07  0.3535017E+04  0.7818609E-02  0.8105541E-01
        1   -1    0    0  501    0  0.00000000000E+00  0.00000000000E+00  0.27458779249E+04  0.27458779249E+04  0.50400001928E-02 0. -1.
       -1   -1    0    0    0  501  0.00000000000E+00  0.00000000000E+00 -0.11377365884E+04  0.11377365884E+04  0.50400001928E-02 0.  1.
    10030    2    1    2    0    0  0.00000000000E+00  0.00000000000E+00  0.16081413365E+04  0.38836145133E+04  0.35350167085E+04 0.  0.
        4    1    3    3  502    0  0.10455821401E+03  0.11433535953E+04 -0.67228436437E+03  0.13304727518E+04  0.12699999809E+01 0.  1.
       -4    1    3    3    0  502 -0.10455821401E+03 -0.11433535953E+04  0.22804257009E+04  0.25531417614E+04  0.12699999809E+01 0. -1.
</event>
<event>
 5   0  0.6848661E-07  0.4004285E+04  0.7818609E-02  0.8003683E-01
       -2   -1    0    0    0  501  0.00000000000E+00  0.00000000000E+00  0.27832067283E+04  0.27832067283E+04  0.25500000920E-02 0. -1.
        2   -1    0    0  501    0  0.00000000000E+00  0.00000000000E+00 -0.14402721542E+04  0.14402721542E+04  0.25500000920E-02 0.  1.
    10030    2    1    2    0    0  0.00000000000E+00  0.00000000000E+00  0.13429345740E+04  0.42234788825E+04  0.40042852796E+04 0.  0.
        1    1    3    3  502    0 -0.17383165013E+04 -0.97950811945E+03  0.49689356514E+03  0.20562304418E+04  0.50400001928E-02 0. -1.
       -1    1    3    3    0  502  0.17383165013E+04  0.97950811945E+03  0.84604100890E+03  0.21672484407E+04  0.50400001928E-02 0.  1.
</event>
<event>
 5   0  0.2086250E-07  0.3606996E+04  0.7818609E-02  0.8088891E-01
       -1   -1    0    0    0  501  0.00000000000E+00  0.00000000000E+00  0.15539545681E+04  0.15539545681E+04  0.50400001928E-02 0. -1.
        1   -1    0    0  501    0  0.00000000000E+00  0.00000000000E+00 -0.20931148111E+04  0.20931148111E+04  0.50400001928E-02 0.  1.
    10030    2    1    2    0    0  0.00000000000E+00  0.00000000000E+00 -0.53916024295E+03  0.36470693792E+04  0.36069961587E+04 0.  0.
        4    1    3    3  502    0  0.17543477985E+04 -0.14664968010E+03 -0.66554471428E+03  0.18820716528E+04  0.12699999809E+01 0.  1.
       -4    1    3    3    0  502 -0.17543477985E+04  0.14664968010E+03  0.12638447133E+03  0.17649977264E+04  0.12699999809E+01 0. -1.
</event>
<event>
 5   0  0.6848661E-07  0.3576922E+04  0.7818609E-02  0.8095799E-01
       -2   -1    0    0    0  501  0.00000000000E+00  0.00000000000E+00  0.13077395425E+04  0.13077395425E+04  0.25500000920E-02 0.  1.
        2   -1    0    0  501    0  0.00000000000E+00  0.00000000000E+00 -0.24458941348E+04  0.24458941348E+04  0.25500000920E-02 0. -1.
    10030    2    1    2    0    0  0.00000000000E+00  0.00000000000E+00 -0.11381545923E+04  0.37536336773E+04  0.35769218481E+04 0.  0.
        1    1    3    3  502    0 -0.73090984265E+03 -0.98658364016E+03  0.79555703792E+03  0.14630404908E+04  0.50400001928E-02 0.  1.
       -1    1    3    3    0  502  0.73090984265E+03  0.98658364016E+03 -0.19337116302E+04  0.22905931865E+04  0.50400001928E-02 0. -1.
</event>
<event>
 5   0  0.6729577E-07  0.3952202E+04  0.7818609E-02  0.8014259E-01
        2   -1    0    0  501    0  0.00000000000E+00  0.00000000000E+00  0.17136887166E+04  0.17136887166E+04  0.25500000920E-02 0. -1.
       -2   -1    0    0    0  501  0.00000000000E+00  0.00000000000E+00 -0.22786957933E+04  0.22786957933E+04  0.25500000920E-02 0.  1.
    10030    2    1    2    0    0  0.00000000000E+00  0.00000000000E+00 -0.56500707670E+03  0.39923845099E+04  0.39522020544E+04 0.  0.
        3    1    3    3  502    0 -0.18938002292E+04  0.45078614248E+02 -0.85077427119E+03  0.20766146153E+04  0.10100000352E+00 0.  1.
       -3    1    3    3    0  502  0.18938002292E+04 -0.45078614248E+02  0.28576719448E+03  0.19157698947E+04  0.10100000352E+00 0. -1.
</event>
<event>
 5   0  0.6729577E-07  0.3620583E+04  0.7818609E-02  0.8085793E-01
        2   -1    0    0  501    0  0.00000000000E+00  0.00000000000E+00  0.26016254104E+04  0.26016254104E+04  0.25500000920E-02 0.  1.
       -2   -1    0    0    0  501  0.00000000000E+00  0.00000000000E+00 -0.12596571772E+04  0.12596571772E+04  0.25500000920E-02 0. -1.
    10030    2    1    2    0    0  0.00000000000E+00  0.00000000000E+00  0.13419682332E+04  0.38612825875E+04  0.36205834449E+04 0.  0.
        3    1    3    3  502    0  0.14031467258E+04  0.10959229051E+04  0.10203088473E+04  0.20520472466E+04  0.10100000352E+00 0.  1.
       -3    1    3    3    0  502 -0.14031467258E+04 -0.10959229051E+04  0.32165938594E+03  0.18092353409E+04  0.10100000352E+00 0. -1.
</event>
<event>
 5   0  0.2193129E-07  0.3570044E+04  0.7818609E-02  0.8097388E-01
        1   -1    0    0  501    0  0.00000000000E+00  0.00000000000E+00  0.25165428400E+04  0.25165428400E+04  0.50400001928E-02 0. -1.
       -1   -1    0    0    0  501  0.00000000000E+00  0.00000000000E+00 -0.12661428469E+04  0.12661428470E+04  0.50400001928E-02 0.  1.
    10030    2    1    2    0    0  0.00000000000E+00  0.00000000000E+00  0.12503999931E+04  0.37826856870E+04  0.35700435381E+04 0.  0.
        1    1    3    3  502    0  0.97593637454E+03  0.12144087496E+04  0.15483354997E+04  0.21964933959E+04  0.50400001928E-02 0. -1.
       -1    1    3    3    0  502 -0.97593637454E+03 -0.12144087496E+04 -0.29793550666E+03  0.15861922911E+04  0.50400001928E-02 0.  1.
</event>
<event>
 5   0  0.2108068E-07  0.2920107E+04  0.7818609E-02  0.8266920E-01
       -1   -1    0    0    0  501  0.00000000000E+00  0.00000000000E+00  0.10850791405E+04  0.10850791405E+04  0.50400001928E-02 0. -1.
        1   -1    0    0  501    0  0.00000000000E+00  0.00000000000E+00 -0.19646094965E+04  0.19646094965E+04  0.50400001928E-02 0.  1.
    10030    2    1    2    0    0  0.00000000000E+00  0.00000000000E+00 -0.87953035602E+03  0.30496886371E+04  0.29201073843E+04 0.  0.
        5    1    3    3  502    0  0.12257878537E+04  0.77367725950E+03 -0.62246323377E+03  0.15775344470E+04  0.46999998093E+01 0.  1.
       -5    1    3    3    0  502 -0.12257878537E+04 -0.77367725950E+03 -0.25706712225E+03  0.14721541901E+04  0.46999998093E+01 0. -1.
</event>
<event>
 5   0  0.6729577E-07  0.3594050E+04  0.7818609E-02  0.8091856E-01
       -2   -1    0    0    0  501  0.00000000000E+00  0.00000000000E+00  0.13681170736E+04  0.13681170736E+04  0.25500000920E-02 0. -1.
        2   -1    0    0  501    0  0.00000000000E+00  0.00000000000E+00 -0.23603966773E+04  0.23603966773E+04  0.25500000920E-02 0.  1.
    10030    2    1    2    0    0  0.00000000000E+00  0.00000000000E+00 -0.99227960367E+03  0.37285137510E+04  0.35940500802E+04 0.  0.
        3    1    3    3  502    0  0.11458697625E+03 -0.15358757659E+04 -0.14566599887E+04  0.21198827506E+04  0.10100000352E+00 0.  1.
       -3    1    3    3    0  502 -0.11458697625E+03  0.15358757659E+04  0.46438038501E+03  0.16086310004E+04  0.10100000352E+00 0. -1.
</event>
<event>
 5   0  0.2108068E-07  0.3596049E+04  0.7818609E-02  0.8091397E-01
        1   -1    0    0  501    0  0.00000000000E+00  0.00000000000E+00  0.21959925882E+04  0.21959925882E+04  0.50400001928E-02 0.  1.
       -1   -1    0    0    0  501  0.00000000000E+00  0.00000000000E+00 -0.14721783771E+04  0.14721783771E+04  0.50400001928E-02 0. -1.
    10030    2    1    2    0    0  0.00000000000E+00  0.00000000000E+00  0.72381421107E+03  0.36681709654E+04  0.35960493905E+04 0.  0.
        5    1    3    3  502    0 -0.10070335653E+04  0.14855709900E+04  0.47286810841E+03  0.18559806319E+04  0.46999998093E+01 0.  1.
       -5    1    3    3    0  502  0.10070335653E+04 -0.14855709900E+04  0.25094610265E+03  0.18121903334E+04  0.46999998093E+01 0. -1.
</event>
<event>
 5   0  0.6324216E-07  0.3527723E+04  0.7818609E-02  0.8107251E-01
        2   -1    0    0  501    0  0.00000000000E+00  0.00000000000E+00  0.11246893011E+04  0.11246893011E+04  0.25500000920E-02 0. -1.
       -2   -1    0    0    0  501  0.00000000000E+00  0.00000000000E+00 -0.27662816398E+04  0.27662816398E+04  0.25500000920E-02 0.  1.
    10030    2    1    2    0    0  0.00000000000E+00  0.00000000000E+00 -0.16415923387E+04  0.38909709409E+04  0.35277229847E+04 0.  0.
        2    1    3    3  502    0  0.50379856018E+03 -0.45602671309E+03  0.97451637838E+03  0.11880469368E+04  0.25500000920E-02 0. -1.
       -2    1    3    3    0  502 -0.50379856018E+03  0.45602671309E+03 -0.26161087171E+04  0.27029240041E+04  0.25500000920E-02 0.  1.
</event>
<event>
 5   0  0.2086250E-07  0.3603221E+04  0.7818609E-02  0.8089754E-01
        1   -1    0    0  501    0  0.00000000000E+00  0.00000000000E+00  0.20617669259E+04  0.20617669259E+04  0.50400001928E-02 0.  1.
       -1   -1    0    0    0  501  0.00000000000E+00  0.00000000000E+00 -0.15742810146E+04  0.15742810146E+04  0.50400001928E-02 0. -1.
    10030    2    1    2    0    0  0.00000000000E+00  0.00000000000E+00  0.48748591138E+03  0.36360479405E+04  0.36032210745E+04 0.  0.
        3    1    3    3  502    0 -0.16070901506E+04  0.63695289412E+03  0.75566416191E+03  0.18866573821E+04  0.10100000352E+00 0. -1.
       -3    1    3    3    0  502  0.16070901506E+04 -0.63695289412E+03 -0.26817825053E+03  0.17493905584E+04  0.10100000352E+00 0.  1.
</event>
<event>
 5   0  0.2086250E-07  0.3609762E+04  0.7818609E-02  0.8088259E-01
       -1   -1    0    0    0  501  0.00000000000E+00  0.00000000000E+00  0.17482323355E+04  0.17482323355E+04  0.50400001928E-02 0.  1.
        1   -1    0    0  501    0  0.00000000000E+00  0.00000000000E+00 -0.18633648564E+04  0.18633648564E+04  0.50400001928E-02 0. -1.
    10030    2    1    2    0    0  0.00000000000E+00  0.00000000000E+00 -0.11513252095E+03  0.36115971919E+04  0.36097615959E+04 0.  0.
        3    1    3    3  502    0  0.13969947580E+03  0.71840339567E+03  0.15931136914E+04  0.17531772946E+04  0.10100000352E+00 0.  1.
       -3    1    3    3    0  502 -0.13969947580E+03 -0.71840339567E+03 -0.17082462124E+04  0.18584198973E+04  0.10100000352E+00 0. -1.
</event>
<event>
 5   0  0.2086250E-07  0.3608227E+04  0.7818609E-02  0.8088610E-01
       -1   -1    0    0    0  501  0.00000000000E+00  0.00000000000E+00  0.15294838248E+04  0.15294838248E+04  0.50400001928E-02 0. -1.
        1   -1    0    0  501    0  0.00000000000E+00  0.00000000000E+00 -0.21280546979E+04  0.21280546979E+04  0.50400001928E-02 0.  1.
    10030    2    1    2    0    0  0.00000000000E+00  0.00000000000E+00 -0.59857087312E+03  0.36575385227E+04  0.36082268436E+04 0.  0.
        4    1    3    3  502    0 -0.10338320509E+04  0.54090320826E+03 -0.16941135531E+04  0.20570384862E+04  0.12699999809E+01 0.  1.
       -4    1    3    3    0  502  0.10338320509E+04 -0.54090320826E+03  0.10955426800E+04  0.16005000364E+04  0.12699999809E+01 0. -1.
</event>
<event>
 5   0  0.6541476E-07  0.3765564E+04  0.7818609E-02  0.8053585E-01
       -2   -1    0    0    0  501  0.00000000000E+00  0.00000000000E+00  0.16338582958E+04  0.16338582958E+04  0.25500000920E-02 0. -1.
        2   -1    0    0  501    0  0.00000000000E+00  0.00000000000E+00 -0.21696295850E+04  0.21696295850E+04  0.25500000920E-02 0.  1.
    10030    2    1    2    0    0  0.00000000000E+00  0.00000000000E+00 -0.53577128920E+03  0.38034878808E+04  0.37655635946E+04 0.  0.
        4    1    3    3  502    0  0.10490950133E+04  0.15228180552E+04 -0.62541452914E+03  0.19521065858E+04  0.12699999809E+01 0.  1.
       -4    1    3    3    0  502 -0.10490950133E+04 -0.15228180552E+04  0.89643239943E+02  0.18513812950E+04  0.12699999809E+01 0. -1.
</event>
<event>
 5   0  0.2086250E-07  0.3624620E+04  0.7818609E-02  0.8084875E-01
        1   -1    0    0  501    0  0.00000000000E+00  0.00000000000E+00  0.24880546281E+04  0.24880546281E+04  0.50400001928E-02 0. -1.
       -1   -1    0    0    0  501  0.00000000000E+00  0.00000000000E+00 -0.13200949117E+04  0.13200949118E+04  0.50400001928E-02 0.  1.
    10030    2    1    2    0    0  0.00000000000E+00  0.00000000000E+00  0.11679597164E+04  0.38081495399E+04  0.36246203965E+04 0.  0.
        3    1    3    3  502    0  0.24090947932E+03 -0.87271348779E+03  0.22334425087E+04  0.24099650742E+04  0.10100000352E+00 0. -1.
       -3    1    3    3    0  502 -0.24090947932E+03  0.87271348779E+03 -0.10654827923E+04  0.13981844657E+04  0.10100000352E+00 0.  1.
</event>
<event>
 5   0  0.2108068E-07  0.3621584E+04  0.7818609E-02  0.8085565E-01
       -1   -1    0    0    0  501  0.00000000000E+00  0.00000000000E+00  0.14322416822E+04  0.14322416822E+04  0.50400001928E-02 0. -1.
        1   -1    0    0  501    0  0.00000000000E+00  0.00000000000E+00 -0.22893960846E+04  0.22893960846E+04  0.50400001928E-02 0.  1.
    10030    2    1    2    0    0  0.00000000000E+00  0.00000000000E+00 -0.85715440241E+03  0.37216377669E+04  0.36215844596E+04 0.  0.
        5    1    3    3  502    0 -0.13669425824E+04  0.84711095790E+03  0.42677480615E+03  0.16638172447E+04  0.46999998093E+01 0. -1.
       -5    1    3    3    0  502  0.13669425824E+04 -0.84711095790E+03 -0.12839292086E+04  0.20578205221E+04  0.46999998093E+01 0.  1.
</event>
<event>
 5   0  0.2086250E-07  0.3520179E+04  0.7818609E-02  0.8109024E-01
       -1   -1    0    0    0  501  0.00000000000E+00  0.00000000000E+00  0.13068206880E+04  0.13068206880E+04  0.50400001928E-02 0. -1.
        1   -1    0    0  501    0  0.00000000000E+00  0.00000000000E+00 -0.23705732775E+04  0.23705732775E+04  0.50400001928E-02 0.  1.
    10030    2    1    2    0    0  0.00000000000E+00  0.00000000000E+00 -0.10637525895E+04  0.36773939654E+04  0.35201785190E+04 0.  0.
        4    1    3    3  502    0 -0.15206202643E+04  0.58689337981E+03 -0.12257568826E+04  0.20394144688E+04  0.12699999809E+01 0.  1.
       -4    1    3    3    0  502  0.15206202643E+04 -0.58689337981E+03  0.16200429305E+03  0.16379794966E+04  0.12699999809E+01 0. -1.
</event>
<event>
 5   0  0.6324216E-07  0.3180634E+04  0.7818609E-02  0.8193951E-01
        2   -1    0    0  501    0  0.00000000000E+00  0.00000000000E+00  0.25903330108E+04  0.25903330108E+04  0.25500000920E-02 0. -1.
       -2   -1    0    0    0  501  0.00000000000E+00  0.00000000000E+00 -0.97636391682E+03  0.97636391683E+03  0.25500000920E-02 0.  1.
    10030    2    1    2    0    0  0.00000000000E+00  0.00000000000E+00  0.16139690939E+04  0.35666969276E+04  0.31806337006E+04 0.  0.
        2    1    3    3  502    0  0.64575429465E+03 -0.12092941138E+04  0.17108725184E+04  0.21923675870E+04  0.25500000920E-02 0. -1.
       -2    1    3    3    0  502 -0.64575429465E+03  0.12092941138E+04 -0.96903424425E+02  0.13743293405E+04  0.25500000920E-02 0.  1.
</event>
<event>
 5   0  0.6541476E-07  0.3672689E+04  0.7818609E-02  0.8074041E-01
       -2   -1    0    0    0  501  0.00000000000E+00  0.00000000000E+00  0.13803981634E+04  0.13803981634E+04  0.25500000920E-02 0. -1.
        2   -1    0    0  501    0  0.00000000000E+00  0.00000000000E+00 -0.24428904156E+04  0.24428904156E+04  0.25500000920E-02 0.  1.
    10030    2    1    2    0    0  0.00000000000E+00  0.00000000000E+00 -0.10624922522E+04  0.38232885790E+04  0.36726891745E+04 0.  0.
        4    1    3    3  502    0  0.10007758328E+04 -0.36434267660E+03 -0.20885363357E+04  0.23444153838E+04  0.12699999809E+01 0.  1.
       -4    1    3    3    0  502 -0.10007758328E+04  0.36434267660E+03  0.10260440835E+04  0.14788731952E+04  0.12699999809E+01 0. -1.
</event>
<event>
 5   0  0.6541476E-07  0.3593923E+04  0.7818609E-02  0.8091885E-01
        2   -1    0    0  501    0  0.00000000000E+00  0.00000000000E+00  0.10496578556E+04  0.10496578556E+04  0.25500000920E-02 0.  1.
       -2   -1    0    0    0  501  0.00000000000E+00  0.00000000000E+00 -0.30763072514E+04  0.30763072514E+04  0.25500000920E-02 0. -1.
    10030    2    1    2    0    0  0.00000000000E+00  0.00000000000E+00 -0.20266493958E+04  0.41259651071E+04  0.35939226885E+04 0.  0.
        4    1    3    3  502    0 -0.17290053924E+04  0.32272038037E+03 -0.14358599497E+04  0.22705293433E+04  0.12699999809E+01 0.  1.
       -4    1    3    3    0  502  0.17290053924E+04 -0.32272038037E+03 -0.59078944612E+03  0.18554357638E+04  0.12699999809E+01 0. -1.
</event>
<event>
 5   0  0.2086250E-07  0.3570911E+04  0.7818609E-02  0.8097188E-01
       -1   -1    0    0    0  501  0.00000000000E+00  0.00000000000E+00  0.13319978663E+04  0.13319978663E+04  0.50400001928E-02 0.  1.
        1   -1    0    0  501    0  0.00000000000E+00  0.00000000000E+00 -0.23932854087E+04  0.23932854087E+04  0.50400001928E-02 0. -1.
    10030    2    1    2    0    0  0.00000000000E+00  0.00000000000E+00 -0.10612875424E+04  0.37252832750E+04  0.35709108405E+04 0.  0.
        4    1    3    3  502    0  0.42106344862E+03 -0.45783244215E+03  0.12153092161E+04  0.13652410324E+04  0.12699999809E+01 0.  1.
       -4    1    3    3    0  502 -0.42106344862E+03  0.45783244215E+03 -0.22765967585E+04  0.23600422426E+04  0.12699999809E+01 0. -1.
</event>
<event>
 5   0  0.6324216E-07  0.3615103E+04  0.7818609E-02  0.8087041E-01
       -2   -1    0    0    0  501  0.00000000000E+00  0.00000000000E+00  0.20243676546E+04  0.20243676546E+04  0.25500000920E-02 0.  1.
        2   -1    0    0  501    0  0.00000000000E+00  0.00000000000E+00 -0.16139573416E+04  0.16139573416E+04  0.25500000920E-02 0. -1.
    10030    2    1    2    0    0  0.00000000000E+00  0.00000000000E+00  0.41041031297E+03  0.36383249962E+04  0.36151033391E+04 0.  0.
        2    1    3    3  502    0  0.11729058117E+04 -0.38195956429E+03  0.15349194923E+04  0.19691569261E+04  0.25500000920E-02 0.  1.
       -2    1    3    3    0  502 -0.11729058117E+04  0.38195956429E+03 -0.11245091793E+04  0.16691680701E+04  0.25500000920E-02 0. -1.
</event>
<event>
 5   0  0.6541476E-07  0.3656298E+04  0.7818609E-02  0.8077716E-01
       -2   -1    0    0    0  501  0.00000000000E+00  0.00000000000E+00  0.24462549202E+04  0.24462549202E+04  0.25500000920E-02 0. -1.
        2   -1    0    0  501    0  0.00000000000E+00  0.00000000000E+00 -0.13662229742E+04  0.13662229743E+04  0.25500000920E-02 0.  1.
    10030    2    1    2    0    0  0.00000000000E+00  0.00000000000E+00  0.10800319459E+04  0.38124778944E+04  0.36562984959E+04 0.  0.
        4    1    3    3  502    0  0.13147191329E+04  0.46402770791E+03 -0.69300075053E+03  0.15569392298E+04  0.12699999809E+01 0.  1.
       -4    1    3    3    0  502 -0.13147191329E+04 -0.46402770791E+03  0.17730326965E+04  0.22555386646E+04  0.12699999809E+01 0. -1.
</event>
<event>
 5   0  0.6669864E-07  0.3619649E+04  0.7818609E-02  0.8086006E-01
       -2   -1    0    0    0  501  0.00000000000E+00  0.00000000000E+00  0.92449263508E+03  0.92449263509E+03  0.25500000920E-02 0.  1.
        2   -1    0    0  501    0  0.00000000000E+00  0.00000000000E+00 -0.35429854188E+04  0.35429854188E+04  0.25500000920E-02 0. -1.
    10030    2    1    2    0    0  0.00000000000E+00  0.00000000000E+00 -0.26184927837E+04  0.44674780539E+04  0.36196485608E+04 0.  0.
        5    1    3    3  502    0 -0.13915338894E+04  0.11523834102E+04 -0.11792840086E+04  0.21575650517E+04  0.46999998093E+01 0. -1.
       -5    1    3    3    0  502  0.13915338894E+04 -0.11523834102E+04 -0.14392087751E+04  0.23099130022E+04  0.46999998093E+01 0.  1.
</event>
<event>
 5   0  0.2086250E-07  0.3598259E+04  0.7818609E-02  0.8090891E-01
       -1   -1    0    0    0  501  0.00000000000E+00  0.00000000000E+00  0.11687980931E+04  0.11687980931E+04  0.50400001928E-02 0. -1.
        1   -1    0    0  501    0  0.00000000000E+00  0.00000000000E+00 -0.27693974253E+04  0.27693974253E+04  0.50400001928E-02 0.  1.
    10030    2    1    2    0    0  0.00000000000E+00  0.00000000000E+00 -0.16005993322E+04  0.39381955184E+04  0.35982587065E+04 0.  0.
        2    1    3    3  502    0 -0.12763298080E+04  0.37296827641E+03  0.52611049534E+03  0.14300053732E+04  0.25500000920E-02 0. -1.
       -2    1    3    3    0  502  0.12763298080E+04 -0.37296827641E+03 -0.21267098275E+04  0.25081901452E+04  0.25500000920E-02 0.  1.
</event>
<event>
 5   0  0.6669864E-07  0.3606556E+04  0.7818609E-02  0.8088992E-01
       -2   -1    0    0    0  501  0.00000000000E+00  0.00000000000E+00  0.11247989598E+04  0.11247989598E+04  0.25500000920E-02 0.  1.
        2   -1    0    0  501    0  0.00000000000E+00  0.00000000000E+00 -0.28910161668E+04  0.28910161668E+04  0.25500000920E-02 0. -1.
    10030    2    1    2    0    0  0.00000000000E+00  0.00000000000E+00 -0.17662172069E+04  0.40158151266E+04  0.36065562396E+04 0.  0.
        5    1    3    3  502    0 -0.16717302060E+04 -0.65929447134E+03 -0.10499027750E+04  0.20812662032E+04  0.46999998093E+01 0. -1.
       -5    1    3    3    0  502  0.16717302060E+04  0.65929447134E+03 -0.71631443192E+03  0.19345489234E+04  0.46999998093E+01 0.  1.
</event>
<event>
 5   0  0.2086250E-07  0.3581562E+04  0.7818609E-02  0.8094728E-01
        3   -1    0    0  501    0  0.00000000000E+00  0.00000000000E+00  0.17301502631E+04  0.17301502661E+04  0.10100000352E+00 0. -1.
       -3   -1    0    0    0  501  0.00000000000E+00  0.00000000000E+00 -0.18535364926E+04  0.18535364954E+04  0.10100000352E+00 0.  1.
    10030    2    1    2    0    0  0.00000000000E+00  0.00000000000E+00 -0.12338622952E+03  0.35836867614E+04  0.35815620395E+04 0.  0.
        4    1    3    3  502    0  0.17467904207E+04  0.39328319454E+03 -0.92478279107E+02  0.17929033130E+04  0.12699999809E+01 0.  1.
       -4    1    3    3    0  502 -0.17467904207E+04 -0.39328319454E+03 -0.30907950415E+02  0.17907834484E+04  0.12699999809E+01 0. -1.
</event>
<event>
 5   0  0.2086250E-07  0.3619057E+04  0.7818609E-02  0.8086140E-01
       -1   -1    0    0    0  501  0.00000000000E+00  0.00000000000E+00  0.27508069944E+04  0.27508069944E+04  0.50400001928E-02 0.  1.
        1   -1    0    0  501    0  0.00000000000E+00  0.00000000000E+00 -0.11903393512E+04  0.11903393512E+04  0.50400001928E-02 0. -1.
    10030    2    1    2    0    0  0.00000000000E+00  0.00000000000E+00  0.15604676432E+04  0.39411463456E+04  0.36190572325E+04 0.  0.
        2    1    3    3  502    0 -0.38540318307E+03 -0.15931212751E+04  0.16151643195E+04  0.23011577063E+04  0.25500000920E-02 0.  1.
       -2    1    3    3    0  502  0.38540318307E+03  0.15931212751E+04 -0.54696676295E+02  0.16399886393E+04  0.25500000920E-02 0. -1.
</event>
<event>
 5   0  0.6848661E-07  0.3563599E+04  0.7818609E-02  0.8098881E-01
       -2   -1    0    0    0  501  0.00000000000E+00  0.00000000000E+00  0.14066988252E+04  0.14066988252E+04  0.25500000920E-02 0.  1.
        2   -1    0    0  501    0  0.00000000000E+00  0.00000000000E+00 -0.22569216423E+04  0.22569216423E+04  0.25500000920E-02 0. -1.
    10030    2    1    2    0    0  0.00000000000E+00  0.00000000000E+00 -0.85022281709E+03  0.36636204674E+04  0.35635987556E+04 0.  0.
        1    1    3    3  502    0 -0.44108217731E+03  0.16939329314E+04 -0.82830103848E+02  0.17523764120E+04  0.50400001928E-02 0. -1.
       -1    1    3    3    0  502  0.44108217731E+03 -0.16939329314E+04 -0.76739271324E+03  0.19112440555E+04  0.50400001928E-02 0.  1.
</event>
<event>
 5   0  0.2086250E-07  0.3451525E+04  0.7818609E-02  0.8125375E-01
       -1   -1    0    0    0  501  0.00000000000E+00  0.00000000000E+00  0.31371093724E+04  0.31371093724E+04  0.50400001928E-02 0. -1.
        1   -1    0    0  501    0  0.00000000000E+00  0.00000000000E+00 -0.94936330983E+03  0.94936330985E+03  0.50400001928E-02 0.  1.
    10030    2    1    2    0    0  0.00000000000E+00  0.00000000000E+00  0.21877460626E+04  0.40864726823E+04  0.34515251916E+04 0.  0.
        4    1    3    3  502    0  0.31513693333E+03  0.39941750545E+03 -0.85855413230E+03  0.99797917884E+03  0.12699999809E+01 0.  1.
       -4    1    3    3    0  502 -0.31513693333E+03 -0.39941750545E+03  0.30463001949E+04  0.30884935034E+04  0.12699999809E+01 0. -1.
</event>
<event>
 5   0  0.6729577E-07  0.3659611E+04  0.7818609E-02  0.8076972E-01
       -2   -1    0    0    0  501  0.00000000000E+00  0.00000000000E+00  0.16535475369E+04  0.16535475369E+04  0.25500000920E-02 0.  1.
        2   -1    0    0  501    0  0.00000000000E+00  0.00000000000E+00 -0.20248519912E+04  0.20248519912E+04  0.25500000920E-02 0. -1.
    10030    2    1    2    0    0  0.00000000000E+00  0.00000000000E+00 -0.37130445435E+03  0.36783995281E+04  0.36596114672E+04 0.  0.
        3    1    3    3  502    0 -0.13524243808E+04 -0.11863422452E+04  0.15032328158E+03  0.18052857746E+04  0.10100000352E+00 0.  1.
       -3    1    3    3    0  502  0.13524243808E+04  0.11863422452E+04 -0.52162773593E+03  0.18731137536E+04  0.10100000352E+00 0. -1.
</event>
<event>
 5   0  0.2108068E-07  0.3641580E+04  0.7818609E-02  0.8081033E-01
        1   -1    0    0  501    0  0.00000000000E+00  0.00000000000E+00  0.22073515640E+04  0.22073515641E+04  0.50400001928E-02 0. -1.
       -1   -1    0    0    0  501  0.00000000000E+00  0.00000000000E+00 -0.15019246673E+04  0.15019246673E+04  0.50400001928E-02 0.  1.
    10030    2    1    2    0    0  0.00000000000E+00  0.00000000000E+00  0.70542689673E+03  0.37092762314E+04  0.36415797470E+04 0.  0.
        5    1    3    3  502    0 -0.87036247851E+03 -0.17890163309E+03  0.19715078669E+04  0.21624990168E+04  0.46999998093E+01 0. -1.
       -5    1    3    3    0  502  0.87036247851E+03  0.17890163309E+03 -0.12660809702E+04  0.15467772146E+04  0.46999998093E+01 0.  1.
</event>
<event>
 5   0  0.2086250E-07  0.3615370E+04  0.7818609E-02  0.8086980E-01
        1   -1    0    0  501    0  0.00000000000E+00  0.00000000000E+00  0.16738271483E+04  0.16738271483E+04  0.50400001928E-02 0.  1.
       -1   -1    0    0    0  501  0.00000000000E+00  0.00000000000E+00 -0.19522471337E+04  0.19522471337E+04  0.50400001928E-02 0. -1.
    10030    2    1    2    0    0  0.00000000000E+00  0.00000000000E+00 -0.27841998544E+03  0.36260742820E+04  0.36153695538E+04 0.  0.
        3    1    3    3  502    0  0.11550722645E+04  0.12829124654E+04  0.39872489443E+03  0.17717330166E+04  0.10100000352E+00 0.  1.
       -3    1    3    3    0  502 -0.11550722645E+04 -0.12829124654E+04 -0.67714487986E+03  0.18543412655E+04  0.10100000352E+00 0. -1.
</event>
<event>
 5   0  0.6324216E-07  0.3580119E+04  0.7818609E-02  0.8095061E-01
       -2   -1    0    0    0  501  0.00000000000E+00  0.00000000000E+00  0.12216141526E+04  0.12216141526E+04  0.25500000920E-02 0. -1.
        2   -1    0    0  501    0  0.00000000000E+00  0.00000000000E+00 -0.26230155211E+04  0.26230155211E+04  0.25500000920E-02 0.  1.
    10030    2    1    2    0    0  0.00000000000E+00  0.00000000000E+00 -0.14014013684E+04  0.38446296737E+04  0.35801189272E+04 0.  0.
        2    1    3    3  502    0 -0.14591140814E+04  0.20631516322E+03 -0.17920181215E+04  0.23201096519E+04  0.25500000920E-02 0.  1.
       -2    1    3    3    0  502  0.14591140814E+04 -0.20631516322E+03  0.39061675302E+03  0.15245200218E+04  0.25500000920E-02 0. -1.
</event>
<event>
 5   0  0.6669864E-07  0.3615098E+04  0.7818609E-02  0.8087042E-01
        2   -1    0    0  501    0  0.00000000000E+00  0.00000000000E+00  0.24059170662E+04  0.24059170662E+04  0.25500000920E-02 0. -1.
       -2   -1    0    0    0  501  0.00000000000E+00  0.00000000000E+00 -0.13579991012E+04  0.13579991012E+04  0.25500000920E-02 0.  1.
    10030    2    1    2    0    0  0.00000000000E+00  0.00000000000E+00  0.10479179650E+04  0.37639161673E+04  0.36150979037E+04 0.  0.
        5    1    3    3  502    0 -0.12266888771E+04  0.80404478292E+02 -0.85572537565E+03  0.14978379384E+04  0.46999998093E+01 0.  1.
       -5    1    3    3    0  502  0.12266888771E+04 -0.80404478292E+02  0.19036433406E+04  0.22660782289E+04  0.46999998093E+01 0. -1.
</event>
<event>
 5   0  0.2086250E-07  0.3668531E+04  0.7818609E-02  0.8074972E-01
       -1   -1    0    0    0  501  0.00000000000E+00  0.00000000000E+00  0.13173585227E+04  0.13173585227E+04  0.50400001928E-02 0. -1.
        1   -1    0    0  501    0  0.00000000000E+00  0.00000000000E+00 -0.25539977163E+04  0.25539977163E+04  0.50400001928E-02 0.  1.
    10030    2    1    2    0    0  0.00000000000E+00  0.00000000000E+00 -0.12366391936E+04  0.38713562390E+04  0.36685314002E+04 0.  0.
        4    1    3    3  502    0  0.14975236985E+04  0.96497976011E+03 -0.15740416730E+03  0.17884464906E+04  0.12699999809E+01 0. -1.
       -4    1    3    3    0  502 -0.14975236985E+04 -0.96497976011E+03 -0.10792350263E+04  0.20829097484E+04  0.12699999809E+01 0.  1.
</event>
<event>
 5   0  0.6541476E-07  0.3634281E+04  0.7818609E-02  0.8082684E-01
       -2   -1    0    0    0  501  0.00000000000E+00  0.00000000000E+00  0.21353268870E+04  0.21353268870E+04  0.25500000920E-02 0. -1.
        2   -1    0    0  501    0  0.00000000000E+00  0.00000000000E+00 -0.15463676266E+04  0.15463676266E+04  0.25500000920E-02 0.  1.
    10030    2    1    2    0    0  0.00000000000E+00  0.00000000000E+00  0.58895926033E+03  0.36816945136E+04  0.36342814257E+04 0.  0.
        4    1    3    3  502    0  0.12777702616E+04 -0.90946989839E+03  0.12241482162E+04  0.19895659842E+04  0.12699999809E+01 0. -1.
       -4    1    3    3    0  502 -0.12777702616E+04  0.90946989839E+03 -0.63518895585E+03  0.16921285294E+04  0.12699999809E+01 0.  1.
</event>
<event>
 5   0  0.2108068E-07  0.3636549E+04  0.7818609E-02  0.8082171E-01
       -1   -1    0    0    0  501  0.00000000000E+00  0.00000000000E+00  0.16652641868E+04  0.16652641868E+04  0.50400001928E-02 0.  1.
        1   -1    0    0  501    0  0.00000000000E+00  0.00000000000E+00 -0.19853437126E+04  0.19853437127E+04  0.50400001928E-02 0. -1.
    10030    2    1    2    0    0  0.00000000000E+00  0.00000000000E+00 -0.32007952583E+03  0.36506078995E+04  0.36365487942E+04 0.  0.
        5    1    3    3  502    0  0.16644371768E+04  0.68361733084E+03  0.10253583588E+03  0.18022817366E+04  0.46999998093E+01 0.  1.
       -5    1    3    3    0  502 -0.16644371768E+04 -0.68361733084E+03 -0.42261536172E+03  0.18483261629E+04  0.46999998093E+01 0. -1.
</event>
<event>
 5   0  0.6324216E-07  0.3595366E+04  0.7818609E-02  0.8091554E-01
        2   -1    0    0  501    0  0.00000000000E+00  0.00000000000E+00  0.10438686704E+04  0.10438686704E+04  0.25500000920E-02 0.  1.
       -2   -1    0    0    0  501  0.00000000000E+00  0.00000000000E+00 -0.30958525963E+04  0.30958525963E+04  0.25500000920E-02 0. -1.
    10030    2    1    2    0    0  0.00000000000E+00  0.00000000000E+00 -0.20519839259E+04  0.41397212667E+04  0.35953656467E+04 0.  0.
        2    1    3    3  502    0 -0.82242645678E+03 -0.44944887406E+03  0.74030727321E+03  0.11943384889E+04  0.25500000920E-02 0.  1.
       -2    1    3    3    0  502  0.82242645678E+03  0.44944887406E+03 -0.27922911991E+04  0.29453827778E+04  0.25500000920E-02 0. -1.
</event>
<event>
 5   0  0.6729577E-07  0.3608426E+04  0.7818609E-02  0.8088564E-01
       -2   -1    0    0    0  501  0.00000000000E+00  0.00000000000E+00  0.27397763840E+04  0.27397763840E+04  0.25500000920E-02 0.  1.
        2   -1    0    0  501    0  0.00000000000E+00  0.00000000000E+00 -0.11881204973E+04  0.11881204973E+04  0.25500000920E-02 0. -1.
    10030    2    1    2    0    0  0.00000000000E+00  0.00000000000E+00  0.15516558868E+04  0.39278968813E+04  0.36084259615E+04 0.  0.
        3    1    3    3  502    0  0.53621140262E+03  0.86464194906E+03 -0.84607272829E+03  0.13232412630E+04  0.10100000352E+00 0. -1.
       -3    1    3    3    0  502 -0.53621140262E+03 -0.86464194906E+03  0.23977286151E+04  0.26046556183E+04  0.10100000352E+00 0.  1.
</event>
<event>
 5   0  0.2086250E-07  0.3586001E+04  0.7818609E-02  0.8093706E-01
       -1   -1    0    0    0  501  0.00000000000E+00  0.00000000000E+00  0.21744783251E+04  0.21744783251E+04  0.50400001928E-02 0. -1.
        1   -1    0    0  501    0  0.00000000000E+00  0.00000000000E+00 -0.14784468375E+04  0.14784468375E+04  0.50400001928E-02 0.  1.
    10030    2    1    2    0    0  0.00000000000E+00  0.00000000000E+00  0.69603148760E+03  0.36529251625E+04  0.35860008939E+04 0.  0.
        2    1    3    3  502    0 -0.35698017465E+03  0.16216805834E+04 -0.34104598468E+03  0.16951681696E+04  0.25500000920E-02 0.  1.
       -2    1    3    3    0  502  0.35698017465E+03 -0.16216805834E+04  0.10370774723E+04  0.19577569929E+04  0.25500000920E-02 0. -1.
</event>
<event>
 5   0  0.2108068E-07  0.3590645E+04  0.7818609E-02  0.8092638E-01
       -1   -1    0    0    0  501  0.00000000000E+00  0.00000000000E+00  0.32085990086E+04  0.32085990086E+04  0.50400001928E-02 0. -1.
        1   -1    0    0  501    0  0.00000000000E+00  0.00000000000E+00 -0.10045451181E+04  0.10045451182E+04  0.50400001928E-02 0.  1.
    10030    2    1    2    0    0  0.00000000000E+00  0.00000000000E+00  0.22040538905E+04  0.42131441268E+04  0.35906447723E+04 0.  0.
        5    1    3    3  502    0 -0.31318925663E+03  0.93434887763E+03  0.28628849627E+04  0.30277430101E+04  0.46999998093E+01 0. -1.
       -5    1    3    3    0  502  0.31318925663E+03 -0.93434887763E+03 -0.65883107226E+03  0.11854011167E+04  0.46999998093E+01 0.  1.
</event>
<event>
 5   0  0.6729577E-07  0.3662822E+04  0.7818609E-02  0.8076251E-01
        2   -1    0    0  501    0  0.00000000000E+00  0.00000000000E+00  0.24773085474E+04  0.24773085474E+04  0.25500000920E-02 0. -1.
       -2   -1    0    0    0  501  0.00000000000E+00  0.00000000000E+00 -0.13539155673E+04  0.13539155673E+04  0.25500000920E-02 0.  1.
    10030    2    1    2    0    0  0.00000000000E+00  0.00000000000E+00  0.11233929802E+04  0.38312241147E+04  0.36628221946E+04 0.  0.
        3    1    3    3  502    0 -0.65153692577E+03 -0.16916377023E+04  0.83430945328E+03  0.19955477332E+04  0.10100000352E+00 0. -1.
       -3    1    3    3    0  502  0.65153692577E+03  0.16916377023E+04  0.28908352687E+03  0.18356763814E+04  0.10100000352E+00 0.  1.
</event>
<event>
 5   0  0.6729577E-07  0.3602635E+04  0.7818609E-02  0.8089888E-01
        2   -1    0    0  501    0  0.00000000000E+00  0.00000000000E+00  0.21162627273E+04  0.21162627273E+04  0.25500000920E-02 0.  1.
       -2   -1    0    0    0  501  0.00000000000E+00  0.00000000000E+00 -0.15332430167E+04  0.15332430167E+04  0.25500000920E-02 0. -1.
    10030    2    1    2    0    0  0.00000000000E+00  0.00000000000E+00  0.58301971055E+03  0.36495057440E+04  0.36026351734E+04 0.  0.
        3    1    3    3  502    0 -0.14597050699E+03 -0.17822704971E+04  0.72012462936E+02  0.17896874919E+04  0.10100000352E+00 0. -1.
       -3    1    3    3    0  502  0.14597050699E+03  0.17822704971E+04  0.51100724761E+03  0.18598182521E+04  0.10100000352E+00 0.  1.
</event>
<event>
 5   0  0.6324216E-07  0.3609980E+04  0.7818609E-02  0.8088209E-01
        2   -1    0    0  501    0  0.00000000000E+00  0.00000000000E+00  0.20661877928E+04  0.20661877928E+04  0.25500000920E-02 0. -1.
       -2   -1    0    0    0  501  0.00000000000E+00  0.00000000000E+00 -0.15768119221E+04  0.15768119221E+04  0.25500000920E-02 0.  1.
    10030    2    1    2    0    0  0.00000000000E+00  0.00000000000E+00  0.48937587075E+03  0.36429997149E+04  0.36099803572E+04 0.  0.
        2    1    3    3  502    0  0.39697013826E+03  0.16967934378E+04 -0.23003625096E+03  0.17577286304E+04  0.25500000920E-02 0.  1.
       -2    1    3    3    0  502 -0.39697013826E+03 -0.16967934378E+04  0.71941212171E+03  0.18852710845E+04  0.25500000920E-02 0. -1.
</event>
<event>
 5   0  0.2193129E-07  0.3679307E+04  0.7818609E-02  0.8072563E-01
        1   -1    0    0  501    0  0.00000000000E+00  0.00000000000E+00  0.19492973215E+04  0.19492973215E+04  0.50400001928E-02 0. -1.
       -1   -1    0    0    0  501  0.00000000000E+00  0.00000000000E+00 -0.17361772168E+04  0.17361772168E+04  0.50400001928E-02 0.  1.
    10030    2    1    2    0    0  0.00000000000E+00  0.00000000000E+00  0.21312010470E+03  0.36854745384E+04  0.36793073253E+04 0.  0.
        1    1    3    3  502    0 -0.25704743912E+03 -0.74659304616E+03 -0.15578059552E+04  0.17464918999E+04  0.50400001928E-02 0.  1.
       -1    1    3    3    0  502  0.25704743912E+03  0.74659304616E+03  0.17709260599E+04  0.19389826384E+04  0.50400001928E-02 0. -1.
</event>
<event>
 5   0  0.6541476E-07  0.3735103E+04  0.7818609E-02  0.8060227E-01
       -2   -1    0    0    0  501  0.00000000000E+00  0.00000000000E+00  0.10946860028E+04  0.10946860028E+04  0.25500000920E-02 0. -1.
        2   -1    0    0  501    0  0.00000000000E+00  0.00000000000E+00 -0.31860721763E+04  0.31860721763E+04  0.25500000920E-02 0.  1.
    10030    2    1    2    0    0  0.00000000000E+00  0.00000000000E+00 -0.20913861735E+04  0.42807581791E+04  0.37351030055E+04 0.  0.
        4    1    3    3  502    0  0.70212059265E+03  0.16558128418E+04 -0.46915536697E+03  0.18587086552E+04  0.12699999809E+01 0. -1.
       -4    1    3    3    0  502 -0.70212059265E+03 -0.16558128418E+04 -0.16222308065E+04  0.24220495239E+04  0.12699999809E+01 0.  1.
</event>
<event>
 5   0  0.6729577E-07  0.3589215E+04  0.7818609E-02  0.8092967E-01
       -2   -1    0    0    0  501  0.00000000000E+00  0.00000000000E+00  0.99363141590E+03  0.99363141590E+03  0.25500000920E-02 0. -1.
        2   -1    0    0  501    0  0.00000000000E+00  0.00000000000E+00 -0.32412590386E+04  0.32412590386E+04  0.25500000920E-02 0.  1.
    10030    2    1    2    0    0  0.00000000000E+00  0.00000000000E+00 -0.22476276227E+04  0.42348904545E+04  0.35892154061E+04 0.  0.
        3    1    3    3  502    0 -0.40948113611E+03  0.15993254255E+04 -0.29360144181E+03  0.16768179490E+04  0.10100000352E+00 0.  1.
       -3    1    3    3    0  502  0.40948113611E+03 -0.15993254255E+04 -0.19540261809E+04  0.25580725055E+04  0.10100000352E+00 0. -1.
</event>
<event>
 5   0  0.2086250E-07  0.3606477E+04  0.7818609E-02  0.8089010E-01
        1   -1    0    0  501    0  0.00000000000E+00  0.00000000000E+00  0.22527993355E+04  0.22527993355E+04  0.50400001928E-02 0.  1.
       -1   -1    0    0    0  501  0.00000000000E+00  0.00000000000E+00 -0.14433906295E+04  0.14433906295E+04  0.50400001928E-02 0. -1.
    10030    2    1    2    0    0  0.00000000000E+00  0.00000000000E+00  0.80940870605E+03  0.36961899650E+04  0.36064772013E+04 0.  0.
        2    1    3    3  502    0 -0.25934829889E+03  0.16593948379E+04 -0.26798932876E+03  0.17007854211E+04  0.25500000920E-02 0.  1.
       -2    1    3    3    0  502  0.25934829889E+03 -0.16593948379E+04  0.10773980348E+04  0.19954045439E+04  0.25500000920E-02 0. -1.
</event>
<event>
 5   0  0.2193129E-07  0.3602354E+04  0.7818609E-02  0.8089953E-01
       -1   -1    0    0    0  501  0.00000000000E+00  0.00000000000E+00  0.16395234710E+04  0.16395234710E+04  0.50400001928E-02 0.  1.
        1   -1    0    0  501    0  0.00000000000E+00  0.00000000000E+00 -0.19787692240E+04  0.19787692240E+04  0.50400001928E-02 0. -1.
    10030    2    1    2    0    0  0.00000000000E+00  0.00000000000E+00 -0.33924575305E+03  0.36182926950E+04  0.36023540006E+04 0.  0.
        1    1    3    3  502    0  0.51554499910E+03  0.10739849327E+04  0.11872830194E+04  0.16819248645E+04  0.50400001928E-02 0.  1.
       -1    1    3    3    0  502 -0.51554499910E+03 -0.10739849327E+04 -0.15265287724E+04  0.19363678305E+04  0.50400001928E-02 0. -1.
</event>
<event>
 5   0  0.6848661E-07  0.3598798E+04  0.7818609E-02  0.8090767E-01
       -2   -1    0    0    0  501  0.00000000000E+00  0.00000000000E+00  0.19895703281E+04  0.19895703281E+04  0.25500000920E-02 0.  1.
        2   -1    0    0  501    0  0.00000000000E+00  0.00000000000E+00 -0.16274046344E+04  0.16274046344E+04  0.25500000920E-02 0. -1.
    10030    2    1    2    0    0  0.00000000000E+00  0.00000000000E+00  0.36216569371E+03  0.36169749625E+04  0.35987975617E+04 0.  0.
        1    1    3    3  502    0 -0.15390550454E+04  0.85602409477E+03 -0.19006314968E+03  0.17713248388E+04  0.50400001928E-02 0. -1.
       -1    1    3    3    0  502  0.15390550454E+04 -0.85602409477E+03  0.55222884339E+03  0.18456501237E+04  0.50400001928E-02 0.  1.
</event>
<event>
 5   0  0.2108068E-07  0.3568611E+04  0.7818609E-02  0.8097720E-01
        1   -1    0    0  501    0  0.00000000000E+00  0.00000000000E+00  0.14611873124E+04  0.14611873124E+04  0.50400001928E-02 0. -1.
       -1   -1    0    0    0  501  0.00000000000E+00  0.00000000000E+00 -0.21788763466E+04  0.21788763466E+04  0.50400001928E-02 0.  1.
    10030    2    1    2    0    0  0.00000000000E+00  0.00000000000E+00 -0.71768903420E+03  0.36400636591E+04  0.35686111994E+04 0.  0.
        5    1    3    3  502    0  0.81405958228E+02  0.30547612675E+03 -0.21500753839E+04  0.21731978374E+04  0.46999998093E+01 0.  1.
       -5    1    3    3    0  502 -0.81405958228E+02 -0.30547612675E+03  0.14323863497E+04  0.14668658217E+04  0.46999998093E+01 0. -1.
</event>
<event>
 5   0  0.2193129E-07  0.3664001E+04  0.7818609E-02  0.8075987E-01
       -1   -1    0    0    0  501  0.00000000000E+00  0.00000000000E+00  0.22086094347E+04  0.22086094348E+04  0.50400001928E-02 0. -1.
        1   -1    0    0  501    0  0.00000000000E+00  0.00000000000E+00 -0.15196105419E+04  0.15196105419E+04  0.50400001928E-02 0.  1.
    10030    2    1    2    0    0  0.00000000000E+00  0.00000000000E+00  0.68899889287E+03  0.37282199766E+04  0.36640011899E+04 0.  0.
        1    1    3    3  502    0 -0.63872924468E+03  0.91808381710E+03 -0.11319224317E+04  0.15912577838E+04  0.50400001928E-02 0.  1.
       -1    1    3    3    0  502  0.63872924468E+03 -0.91808381710E+03  0.18209213246E+04  0.21369621928E+04  0.50400001928E-02 0. -1.
</event>
<event>
 5   0  0.6729577E-07  0.3625594E+04  0.7818609E-02  0.8084654E-01
        2   -1    0    0  501    0  0.00000000000E+00  0.00000000000E+00  0.16392338064E+04  0.16392338064E+04  0.25500000920E-02 0.  1.
       -2   -1    0    0    0  501  0.00000000000E+00  0.00000000000E+00 -0.20047373793E+04  0.20047373793E+04  0.25500000920E-02 0. -1.
    10030    2    1    2    0    0  0.00000000000E+00  0.00000000000E+00 -0.36550357290E+03  0.36439711856E+04  0.36255941775E+04 0.  0.
        3    1    3    3  502    0  0.12282429128E+04 -0.13097131761E+04  0.68121126203E+02  0.17968221266E+04  0.10100000352E+00 0. -1.
       -3    1    3    3    0  502 -0.12282429128E+04  0.13097131761E+04 -0.43362469910E+03  0.18471490591E+04  0.10100000352E+00 0.  1.
</event>
<event>
 5   0  0.2193129E-07  0.3615086E+04  0.7818609E-02  0.8087045E-01
        1   -1    0    0  501    0  0.00000000000E+00  0.00000000000E+00  0.27450937881E+04  0.27450937881E+04  0.50400001928E-02 0. -1.
       -1   -1    0    0    0  501  0.00000000000E+00  0.00000000000E+00 -0.11902001969E+04  0.11902001969E+04  0.50400001928E-02 0.  1.
    10030    2    1    2    0    0  0.00000000000E+00  0.00000000000E+00  0.15548935912E+04  0.39352939850E+04  0.36150857070E+04 0.  0.
        1    1    3    3  502    0  0.60566835339E+03 -0.14237146056E+04  0.17947925856E+04  0.23696155506E+04  0.50400001928E-02 0. -1.
       -1    1    3    3    0  502 -0.60566835339E+03  0.14237146056E+04 -0.23989899438E+03  0.15656784344E+04  0.50400001928E-02 0.  1.
</event>
<event>
 5   0  0.2193129E-07  0.3611337E+04  0.7818609E-02  0.8087900E-01
       -1   -1    0    0    0  501  0.00000000000E+00  0.00000000000E+00  0.18623494282E+04  0.18623494282E+04  0.50400001928E-02 0.  1.
        1   -1    0    0  501    0  0.00000000000E+00  0.00000000000E+00 -0.17507127618E+04  0.17507127618E+04  0.50400001928E-02 0. -1.
    10030    2    1    2    0    0  0.00000000000E+00  0.00000000000E+00  0.11163666635E+03  0.36130621900E+04  0.36113370991E+04 0.  0.
        1    1    3    3  502    0 -0.98489889714E+03  0.14176157408E+04  0.58595699212E+03  0.18229113590E+04  0.50400001928E-02 0.  1.
       -1    1    3    3    0  502  0.98489889714E+03 -0.14176157408E+04 -0.47432032577E+03  0.17901508310E+04  0.50400001928E-02 0. -1.
</event>
<event>
 5   0  0.2086250E-07  0.3378473E+04  0.7818609E-02  0.8143210E-01
       -1   -1    0    0    0  501  0.00000000000E+00  0.00000000000E+00  0.15632292469E+04  0.15632292469E+04  0.50400001928E-02 0.  1.
        1   -1    0    0  501    0  0.00000000000E+00  0.00000000000E+00 -0.18254003439E+04  0.18254003439E+04  0.50400001928E-02 0. -1.
    10030    2    1    2    0    0  0.00000000000E+00  0.00000000000E+00 -0.26217109698E+03  0.33886295909E+04  0.33784725572E+04 0.  0.
        2    1    3    3  502    0  0.61166740992E+03  0.38197393805E+03 -0.16632506554E+04  0.18128551658E+04  0.25500000920E-02 0. -1.
       -2    1    3    3    0  502 -0.61166740992E+03 -0.38197393805E+03  0.14010795584E+04  0.15757744250E+04  0.25500000920E-02 0.  1.
</event>
<event>
 5   0  0.6848661E-07  0.3439846E+04  0.7818609E-02  0.8128195E-01
        2   -1    0    0  501    0  0.00000000000E+00  0.00000000000E+00  0.12638902029E+04  0.12638902029E+04  0.25500000920E-02 0.  1.
       -2   -1    0    0    0  501  0.00000000000E+00  0.00000000000E+00 -0.23405003604E+04  0.23405003604E+04  0.25500000920E-02 0. -1.
    10030    2    1    2    0    0  0.00000000000E+00  0.00000000000E+00 -0.10766101575E+04  0.36043905633E+04  0.34398462032E+04 0.  0.
        1    1    3    3  502    0  0.96875683205E+03 -0.14032627224E+04 -0.30283487417E+03  0.17318617233E+04  0.50400001928E-02 0.  1.
       -1    1    3    3    0  502 -0.96875683205E+03  0.14032627224E+04 -0.77377528332E+03  0.18725288400E+04  0.50400001928E-02 0. -1.
</event>
<event>
 5   0  0.6729577E-07  0.3610363E+04  0.7818609E-02  0.8088122E-01
        2   -1    0    0  501    0  0.00000000000E+00  0.00000000000E+00  0.25992492903E+04  0.25992492903E+04  0.25500000920E-02 0. -1.
       -2   -1    0    0    0  501  0.00000000000E+00  0.00000000000E+00 -0.12537006288E+04  0.12537006288E+04  0.25500000920E-02 0.  1.
    10030    2    1    2    0    0  0.00000000000E+00  0.00000000000E+00  0.13455486615E+04  0.38529499191E+04  0.36103631228E+04 0.  0.
        3    1    3    3  502    0  0.16406506732E+04  0.32229402290E+03  0.13989921879E+04  0.21800888103E+04  0.10100000352E+00 0. -1.
       -3    1    3    3    0  502 -0.16406506732E+04 -0.32229402290E+03 -0.53443526345E+02  0.16728611088E+04  0.10100000352E+00 0.  1.
</event>
<event>
 5   0  0.6324216E-07  0.3555983E+04  0.7818609E-02  0.8100649E-01
        2   -1    0    0  501    0  0.00000000000E+00  0.00000000000E+00  0.23084272319E+04  0.23084272319E+04  0.25500000920E-02 0.  1.
       -2   -1    0    0    0  501  0.00000000000E+00  0.00000000000E+00 -0.13694404497E+04  0.13694404497E+04  0.25500000920E-02 0. -1.
    10030    2    1    2    0    0  0.00000000000E+00  0.00000000000E+00  0.93898678221E+03  0.36778676816E+04  0.35559829170E+04 0.  0.
        2    1    3    3  502    0 -0.98753347839E+02  0.14037836166E+04  0.15934297004E+04  0.21258830815E+04  0.25500000920E-02 0.  1.
       -2    1    3    3    0  502  0.98753347839E+02 -0.14037836166E+04 -0.65444291823E+03  0.15519846001E+04  0.25500000920E-02 0. -1.
</event>
<event>
 5   0  0.6541476E-07  0.3664508E+04  0.7818609E-02  0.8075873E-01
       -2   -1    0    0    0  501  0.00000000000E+00  0.00000000000E+00  0.21775703809E+04  0.21775703809E+04  0.25500000920E-02 0.  1.
        2   -1    0    0  501    0  0.00000000000E+00  0.00000000000E+00 -0.15416972972E+04  0.15416972972E+04  0.25500000920E-02 0. -1.
    10030    2    1    2    0    0  0.00000000000E+00  0.00000000000E+00  0.63587308369E+03  0.37192676781E+04  0.36645078090E+04 0.  0.
        4    1    3    3  502    0 -0.80922544560E+03  0.74431920331E+03  0.18055456548E+04  0.21139663248E+04  0.12699999809E+01 0.  1.
       -4    1    3    3    0  502  0.80922544560E+03 -0.74431920331E+03 -0.11696725711E+04  0.16053013532E+04  0.12699999809E+01 0. -1.
</event>
<event>
 5   0  0.6729577E-07  0.3440033E+04  0.7818609E-02  0.8128150E-01
        2   -1    0    0  501    0  0.00000000000E+00  0.00000000000E+00  0.17283744566E+04  0.17283744566E+04  0.25500000920E-02 0. -1.
       -2   -1    0    0    0  501  0.00000000000E+00  0.00000000000E+00 -0.17116993722E+04  0.17116993722E+04  0.25500000920E-02 0.  1.
    10030    2    1    2    0    0  0.00000000000E+00  0.00000000000E+00  0.16675084449E+02  0.34400738288E+04  0.34400334140E+04 0.  0.
        3    1    3    3  502    0 -0.98176903098E+03 -0.48255371470E+03  0.13356545125E+04  0.17264708236E+04  0.10100000352E+00 0. -1.
       -3    1    3    3    0  502  0.98176903098E+03  0.48255371470E+03 -0.13189794281E+04  0.17136030052E+04  0.10100000352E+00 0.  1.
</event>
<event>
 5   0  0.2086250E-07  0.3583530E+04  0.7818609E-02  0.8094275E-01
       -1   -1    0    0    0  501  0.00000000000E+00  0.00000000000E+00  0.12202819571E+04  0.12202819571E+04  0.50400001928E-02 0. -1.
        1   -1    0    0  501    0  0.00000000000E+00  0.00000000000E+00 -0.26308851057E+04  0.26308851057E+04  0.50400001928E-02 0.  1.
    10030    2    1    2    0    0  0.00000000000E+00  0.00000000000E+00 -0.14106031486E+04  0.38511670628E+04  0.35835298942E+04 0.  0.
        3    1    3    3  502    0 -0.17876023025E+04 -0.33254673975E+02 -0.83151992746E+03  0.19718147137E+04  0.10100000352E+00 0. -1.
       -3    1    3    3    0  502  0.17876023025E+04  0.33254673975E+02 -0.57908322114E+03  0.18793523492E+04  0.10100000352E+00 0.  1.
</event>
<event>
 5   0  0.2086250E-07  0.3369544E+04  0.7818609E-02  0.8145422E-01
       -3   -1    0    0    0  501  0.00000000000E+00  0.00000000000E+00  0.14215580147E+04  0.14215580183E+04  0.10100000352E+00 0.  1.
        3   -1    0    0  501    0  0.00000000000E+00  0.00000000000E+00 -0.19967226175E+04  0.19967226201E+04  0.10100000352E+00 0. -1.
    10030    2    1    2    0    0  0.00000000000E+00  0.00000000000E+00 -0.57516460280E+03  0.34182806384E+04  0.33695442129E+04 0.  0.
        5    1    3    3  502    0  0.15633895615E+04 -0.59506707888E+03 -0.49083794448E+03  0.17433403933E+04  0.46999998093E+01 0. -1.
       -5    1    3    3    0  502 -0.15633895615E+04  0.59506707888E+03 -0.84326658319E+02  0.16749402451E+04  0.46999998093E+01 0.  1.
</event>
<event>
 5   0  0.6541476E-07  0.3603553E+04  0.7818609E-02  0.8089678E-01
        2   -1    0    0  501    0  0.00000000000E+00  0.00000000000E+00  0.22570955137E+04  0.22570955137E+04  0.25500000920E-02 0.  1.
       -2   -1    0    0    0  501  0.00000000000E+00  0.00000000000E+00 -0.14383078275E+04  0.14383078275E+04  0.25500000920E-02 0. -1.
    10030    2    1    2    0    0  0.00000000000E+00  0.00000000000E+00  0.81878768619E+03  0.36954033412E+04  0.36035527718E+04 0.  0.
        4    1    3    3  502    0 -0.14501248549E+04  0.52053623129E+03  0.13673214935E+04  0.20599489660E+04  0.12699999809E+01 0. -1.
       -4    1    3    3    0  502  0.14501248549E+04 -0.52053623129E+03 -0.54853380735E+03  0.16354543753E+04  0.12699999809E+01 0.  1.
</event>
<event>
 5   0  0.6324216E-07  0.3596794E+04  0.7818609E-02  0.8091226E-01
       -2   -1    0    0    0  501  0.00000000000E+00  0.00000000000E+00  0.19589432035E+04  0.19589432035E+04  0.25500000920E-02 0. -1.
        2   -1    0    0  501    0  0.00000000000E+00  0.00000000000E+00 -0.16510082919E+04  0.16510082919E+04  0.25500000920E-02 0.  1.
    10030    2    1    2    0    0  0.00000000000E+00  0.00000000000E+00  0.30793491155E+03  0.36099514954E+04  0.35967938347E+04 0.  0.
        2    1    3    3  502    0  0.14691315453E+04 -0.78972983335E+03  0.82889362874E+03  0.18625480812E+04  0.25500000920E-02 0.  1.
       -2    1    3    3    0  502 -0.14691315453E+04  0.78972983335E+03 -0.52095871719E+03  0.17474034142E+04  0.25500000920E-02 0. -1.
</event>
<event>
 5   0  0.2086250E-07  0.3569685E+04  0.7818609E-02  0.8097471E-01
        1   -1    0    0  501    0  0.00000000000E+00  0.00000000000E+00  0.21084051293E+04  0.21084051293E+04  0.50400001928E-02 0.  1.
       -1   -1    0    0    0  501  0.00000000000E+00  0.00000000000E+00 -0.15109350412E+04  0.15109350412E+04  0.50400001928E-02 0. -1.
    10030    2    1    2    0    0  0.00000000000E+00  0.00000000000E+00  0.59747008803E+03  0.36193401705E+04  0.35696852471E+04 0.  0.
        2    1    3    3  502    0 -0.72076421101E+03 -0.49010396635E+00 -0.13568166189E+04  0.15363764596E+04  0.25500000920E-02 0. -1.
       -2    1    3    3    0  502  0.72076421101E+03  0.49010396635E+00  0.19542867070E+04  0.20829637109E+04  0.25500000920E-02 0.  1.
</event>
<event>
 5   0  0.2086250E-07  0.3590684E+04  0.7818609E-02  0.8092629E-01
       -1   -1    0    0    0  501  0.00000000000E+00  0.00000000000E+00  0.10011340549E+04  0.10011340549E+04  0.50400001928E-02 0. -1.
        1   -1    0    0  501    0  0.00000000000E+00  0.00000000000E+00 -0.32196012843E+04  0.32196012843E+04  0.50400001928E-02 0.  1.
    10030    2    1    2    0    0  0.00000000000E+00  0.00000000000E+00 -0.22184672293E+04  0.42207353392E+04  0.35906837727E+04 0.  0.
        2    1    3    3  502    0  0.16467607600E+04  0.62272224404E+03 -0.15225716576E+04  0.23276229176E+04  0.25500000920E-02 0. -1.
       -2    1    3    3    0  502 -0.16467607600E+04 -0.62272224404E+03 -0.69589557175E+03  0.18931124216E+04  0.25500000920E-02 0.  1.
</event>
<event>
 5   0  0.6848661E-07  0.3629213E+04  0.7818609E-02  0.8083833E-01
       -2   -1    0    0    0  501  0.00000000000E+00  0.00000000000E+00  0.16310701834E+04  0.16310701834E+04  0.25500000920E-02 0.  1.
        2   -1    0    0  501    0  0.00000000000E+00  0.00000000000E+00 -0.20187950138E+04  0.20187950138E+04  0.25500000920E-02 0. -1.
    10030    2    1    2    0    0  0.00000000000E+00  0.00000000000E+00 -0.38772483038E+03  0.36498651971E+04  0.36292127815E+04 0.  0.
        1    1    3    3  502    0 -0.94341049542E+03 -0.61915176570E+03 -0.16230135497E+04  0.19767511867E+04  0.50400001928E-02 0. -1.
       -1    1    3    3    0  502  0.94341049542E+03  0.61915176570E+03  0.12352887193E+04  0.16731140104E+04  0.50400001928E-02 0.  1.
</event>
<event>
 5   0  0.2193129E-07  0.3580621E+04  0.7818609E-02  0.8094945E-01
       -1   -1    0    0    0  501  0.00000000000E+00  0.00000000000E+00  0.11318238609E+04  0.11318238609E+04  0.50400001928E-02 0.  1.
        1   -1    0    0  501    0  0.00000000000E+00  0.00000000000E+00 -0.28319003776E+04  0.28319003776E+04  0.50400001928E-02 0. -1.
    10030    2    1    2    0    0  0.00000000000E+00  0.00000000000E+00 -0.17000765167E+04  0.39637242385E+04  0.35806214092E+04 0.  0.
        1    1    3    3  502    0 -0.15996365335E+04 -0.60713886677E+03 -0.14334539981E+04  0.22320943097E+04  0.50400001928E-02 0. -1.
       -1    1    3    3    0  502  0.15996365335E+04  0.60713886677E+03 -0.26662251857E+03  0.17316299288E+04  0.50400001928E-02 0.  1.
</event>
<event>
 5   0  0.2108068E-07  0.3618520E+04  0.7818609E-02  0.8086263E-01
        1   -1    0    0  501    0  0.00000000000E+00  0.00000000000E+00  0.23964178446E+04  0.23964178446E+04  0.50400001928E-02 0.  1.
       -1   -1    0    0    0  501  0.00000000000E+00  0.00000000000E+00 -0.13659644537E+04  0.13659644537E+04  0.50400001928E-02 0. -1.
    10030    2    1    2    0    0  0.00000000000E+00  0.00000000000E+00  0.10304533910E+04  0.37623822983E+04  0.36185199140E+04 0.  0.
        5    1    3    3  502    0  0.41509923059E+03  0.10492320547E+04 -0.95528717618E+03  0.14784420702E+04  0.46999998093E+01 0. -1.
       -5    1    3    3    0  502 -0.41509923059E+03 -0.10492320547E+04  0.19857405671E+04  0.22839402282E+04  0.46999998093E+01 0.  1.
</event>
<event>
 5   0  0.2193129E-07  0.3582970E+04  0.7818609E-02  0.8094404E-01
        1   -1    0    0  501    0  0.00000000000E+00  0.00000000000E+00  0.19401220098E+04  0.19401220098E+04  0.50400001928E-02 0.  1.
       -1   -1    0    0    0  501  0.00000000000E+00  0.00000000000E+00 -0.16542353992E+04  0.16542353992E+04  0.50400001928E-02 0. -1.
    10030    2    1    2    0    0  0.00000000000E+00  0.00000000000E+00  0.28588661060E+03  0.35943574090E+04  0.35829700012E+04 0.  0.
        1    1    3    3  502    0  0.17792433737E+04  0.85711085428E+02 -0.48359211954E+02  0.17819629588E+04  0.50400001928E-02 0. -1.
       -1    1    3    3    0  502 -0.17792433737E+04 -0.85711085428E+02  0.33424582255E+03  0.18123944502E+04  0.50400001928E-02 0.  1.
</event>
<event>
 5   0  0.2086250E-07  0.3602459E+04  0.7818609E-02  0.8089929E-01
        1   -1    0    0  501    0  0.00000000000E+00  0.00000000000E+00  0.26079583139E+04  0.26079583139E+04  0.50400001928E-02 0. -1.
       -1   -1    0    0    0  501  0.00000000000E+00  0.00000000000E+00 -0.12440490780E+04  0.12440490780E+04  0.50400001928E-02 0.  1.
    10030    2    1    2    0    0  0.00000000000E+00  0.00000000000E+00  0.13639092359E+04  0.38520073919E+04  0.36024592355E+04 0.  0.
        3    1    3    3  502    0  0.18223203925E+03 -0.15624487596E+04  0.16202204929E+04  0.22582225529E+04  0.10100000352E+00 0. -1.
       -3    1    3    3    0  502 -0.18223203925E+03  0.15624487596E+04 -0.25631125697E+03  0.15937848391E+04  0.10100000352E+00 0.  1.
</event>
<event>
 5   0  0.6729577E-07  0.3628146E+04  0.7818609E-02  0.8084075E-01
       -2   -1    0    0    0  501  0.00000000000E+00  0.00000000000E+00  0.13299045453E+04  0.13299045453E+04  0.25500000920E-02 0.  1.
        2   -1    0    0  501    0  0.00000000000E+00  0.00000000000E+00 -0.24745092692E+04  0.24745092692E+04  0.25500000920E-02 0. -1.
    10030    2    1    2    0    0  0.00000000000E+00  0.00000000000E+00 -0.11446047239E+04  0.38044138145E+04  0.36281461517E+04 0.  0.
        3    1    3    3  502    0 -0.77248573290E+03  0.33983114301E+02 -0.22930568068E+04  0.24199170624E+04  0.10100000352E+00 0. -1.
       -3    1    3    3    0  502  0.77248573290E+03 -0.33983114301E+02  0.11484520829E+04  0.13844967521E+04  0.10100000352E+00 0.  1.
</event>
<event>
 5   0  0.6848661E-07  0.3587967E+04  0.7818609E-02  0.8093254E-01
       -2   -1    0    0    0  501  0.00000000000E+00  0.00000000000E+00  0.15007655898E+04  0.15007655898E+04  0.25500000920E-02 0. -1.
        2   -1    0    0  501    0  0.00000000000E+00  0.00000000000E+00 -0.21444900802E+04  0.21444900802E+04  0.25500000920E-02 0.  1.
    10030    2    1    2    0    0  0.00000000000E+00  0.00000000000E+00 -0.64372449047E+03  0.36452556700E+04  0.35879670678E+04 0.  0.
        1    1    3    3  502    0  0.11624333160E+04 -0.65160179060E+03 -0.15420975901E+04  0.20381121375E+04  0.50400001928E-02 0.  1.
       -1    1    3    3    0  502 -0.11624333160E+04  0.65160179060E+03  0.89837309963E+03  0.16071435325E+04  0.50400001928E-02 0. -1.
</event>
<event>
 5   0  0.6541476E-07  0.3590790E+04  0.7818609E-02  0.8092605E-01
       -2   -1    0    0    0  501  0.00000000000E+00  0.00000000000E+00  0.14176624510E+04  0.14176624510E+04  0.25500000920E-02 0. -1.
        2   -1    0    0  501    0  0.00000000000E+00  0.00000000000E+00 -0.22737732182E+04  0.22737732182E+04  0.25500000920E-02 0.  1.
    10030    2    1    2    0    0  0.00000000000E+00  0.00000000000E+00 -0.85611076724E+03  0.36914356692E+04  0.35907898371E+04 0.  0.
        4    1    3    3  502    0 -0.12049046886E+04 -0.12883509975E+04 -0.77178879657E+03  0.19254358365E+04  0.12699999809E+01 0. -1.
       -4    1    3    3    0  502  0.12049046886E+04  0.12883509975E+04 -0.84321970673E+02  0.17659998326E+04  0.12699999809E+01 0.  1.
</event>
<event>
 5   0  0.2086250E-07  0.3612558E+04  0.7818609E-02  0.8087621E-01
       -1   -1    0    0    0  501  0.00000000000E+00  0.00000000000E+00  0.19585175037E+04  0.19585175037E+04  0.50400001928E-02 0. -1.
        1   -1    0    0  501    0  0.00000000000E+00  0.00000000000E+00 -0.16658744950E+04  0.16658744950E+04  0.50400001928E-02 0.  1.
    10030    2    1    2    0    0  0.00000000000E+00  0.00000000000E+00  0.29264300865E+03  0.36243919987E+04  0.36125582943E+04 0.  0.
        2    1    3    3  502    0  0.12931528826E+04  0.84697576246E+03 -0.79110103122E+03  0.17365060212E+04  0.25500000920E-02 0.  1.
       -2    1    3    3    0  502 -0.12931528826E+04 -0.84697576246E+03  0.10837440399E+04  0.18878859775E+04  0.25500000920E-02 0. -1.
</event>
<event>
 5   0  0.6669864E-07  0.3586729E+04  0.7818609E-02  0.8093538E-01
       -2   -1    0    0    0  501  0.00000000000E+00  0.00000000000E+00  0.12501876743E+04  0.12501876743E+04  0.25500000920E-02 0. -1.
        2   -1    0    0  501    0  0.00000000000E+00  0.00000000000E+00 -0.25725389379E+04  0.25725389379E+04  0.25500000920E-02 0.  1.
    10030    2    1    2    0    0  0.00000000000E+00  0.00000000000E+00 -0.13223512636E+04  0.38227266122E+04  0.35867291349E+04 0.  0.
        5    1    3    3  502    0 -0.98680581058E+03 -0.32345983927E+03 -0.22194729168E+04  0.24504069242E+04  0.46999998093E+01 0.  1.
       -5    1    3    3    0  502  0.98680581058E+03  0.32345983927E+03  0.89712165325E+03  0.13723196880E+04  0.46999998093E+01 0. -1.
</event>
<event>
 5   0  0.6669864E-07  0.3721684E+04  0.7818609E-02  0.8063173E-01
       -2   -1    0    0    0  501  0.00000000000E+00  0.00000000000E+00  0.15923559974E+04  0.15923559974E+04  0.25500000920E-02 0. -1.
        2   -1    0    0  501    0  0.00000000000E+00  0.00000000000E+00 -0.21745971936E+04  0.21745971936E+04  0.25500000920E-02 0.  1.
    10030    2    1    2    0    0  0.00000000000E+00  0.00000000000E+00 -0.58224119619E+03  0.37669531909E+04  0.37216839646E+04 0.  0.
        5    1    3    3  502    0  0.53124228909E+02  0.12373779389E+04  0.11145791918E+04  0.16662038327E+04  0.46999998093E+01 0. -1.
       -5    1    3    3    0  502 -0.53124228909E+02 -0.12373779389E+04 -0.16968203880E+04  0.21007493583E+04  0.46999998093E+01 0.  1.
</event>
<event>
 5   0  0.6729577E-07  0.4000963E+04  0.7818609E-02  0.8004352E-01
        2   -1    0    0  501    0  0.00000000000E+00  0.00000000000E+00  0.19869268369E+04  0.19869268369E+04  0.25500000920E-02 0.  1.
       -2   -1    0    0    0  501  0.00000000000E+00  0.00000000000E+00 -0.20141285273E+04  0.20141285273E+04  0.25500000920E-02 0. -1.
    10030    2    1    2    0    0  0.00000000000E+00  0.00000000000E+00 -0.27201690399E+02  0.40010553643E+04  0.40009628961E+04 0.  0.
        3    1    3    3  502    0 -0.47500034560E+03 -0.12403081413E+04 -0.15096088149E+04  0.20106984851E+04  0.10100000352E+00 0. -1.
       -3    1    3    3    0  502  0.47500034560E+03  0.12403081413E+04  0.14824071245E+04  0.19903568792E+04  0.10100000352E+00 0.  1.
</event>
<event>
 5   0  0.6669864E-07  0.3607998E+04  0.7818609E-02  0.8088662E-01
       -2   -1    0    0    0  501  0.00000000000E+00  0.00000000000E+00  0.16348057822E+04  0.16348057822E+04  0.25500000920E-02 0. -1.
        2   -1    0    0  501    0  0.00000000000E+00  0.00000000000E+00 -0.19907027366E+04  0.19907027366E+04  0.25500000920E-02 0.  1.
    10030    2    1    2    0    0  0.00000000000E+00  0.00000000000E+00 -0.35589695438E+03  0.36255085188E+04  0.36079979736E+04 0.  0.
        5    1    3    3  502    0 -0.14971072879E+04 -0.59031053738E+03  0.64123406268E+03  0.17323394515E+04  0.46999998093E+01 0. -1.
       -5    1    3    3    0  502  0.14971072879E+04  0.59031053738E+03 -0.99713101706E+03  0.18931690673E+04  0.46999998093E+01 0.  1.
</event>
<event>
 5   0  0.6324216E-07  0.3602381E+04  0.7818609E-02  0.8089946E-01
        2   -1    0    0  501    0  0.00000000000E+00  0.00000000000E+00  0.12018064408E+04  0.12018064408E+04  0.25500000920E-02 0.  1.
       -2   -1    0    0    0  501  0.00000000000E+00  0.00000000000E+00 -0.26995094718E+04  0.26995094718E+04  0.25500000920E-02 0. -1.
    10030    2    1    2    0    0  0.00000000000E+00  0.00000000000E+00 -0.14977030310E+04  0.39013159126E+04  0.36023813625E+04 0.  0.
        2    1    3    3  502    0 -0.20397097605E+03  0.96638331970E+03 -0.23800931356E+04  0.25768865349E+04  0.25500000920E-02 0. -1.
       -2    1    3    3    0  502  0.20397097605E+03 -0.96638331970E+03  0.88239010463E+03  0.13244293777E+04  0.25500000920E-02 0.  1.
</event>
<event>
 5   0  0.6669864E-07  0.3648075E+04  0.7818609E-02  0.8079567E-01
       -2   -1    0    0    0  501  0.00000000000E+00  0.00000000000E+00  0.19949425979E+04  0.19949425979E+04  0.25500000920E-02 0.  1.
        2   -1    0    0  501    0  0.00000000000E+00  0.00000000000E+00 -0.16677737327E+04  0.16677737327E+04  0.25500000920E-02 0. -1.
    10030    2    1    2    0    0  0.00000000000E+00  0.00000000000E+00  0.32716886514E+03  0.36627163306E+04  0.36480750338E+04 0.  0.
        5    1    3    3  502    0  0.11521667726E+04  0.85743946134E+03  0.12925528123E+04  0.19322022576E+04  0.46999998093E+01 0.  1.
       -5    1    3    3    0  502 -0.11521667726E+04 -0.85743946134E+03 -0.96538394711E+03  0.17305140730E+04  0.46999998093E+01 0. -1.
</event>
<event>
 5   0  0.6324216E-07  0.3581852E+04  0.7818609E-02  0.8094661E-01
       -2   -1    0    0    0  501  0.00000000000E+00  0.00000000000E+00  0.14559139943E+04  0.14559139943E+04  0.25500000920E-02 0. -1.
        2   -1    0    0  501    0  0.00000000000E+00  0.00000000000E+00 -0.22030256615E+04  0.22030256615E+04  0.25500000920E-02 0.  1.
    10030    2    1    2    0    0  0.00000000000E+00  0.00000000000E+00 -0.74711166721E+03  0.36589396557E+04  0.35818519736E+04 0.  0.
        2    1    3    3  502    0 -0.57324910508E+03 -0.76053233833E+03 -0.19229022413E+04  0.21458278131E+04  0.25500000920E-02 0.  1.
       -2    1    3    3    0  502  0.57324910508E+03  0.76053233833E+03  0.11757905741E+04  0.15131118426E+04  0.25500000920E-02 0. -1.
</event>
<event>
 5   0  0.6541476E-07  0.3790126E+04  0.7818609E-02  0.8048277E-01
       -2   -1    0    0    0  501  0.00000000000E+00  0.00000000000E+00  0.15950298583E+04  0.15950298583E+04  0.25500000920E-02 0. -1.
        2   -1    0    0  501    0  0.00000000000E+00  0.00000000000E+00 -0.22515333197E+04  0.22515333197E+04  0.25500000920E-02 0.  1.
    10030    2    1    2    0    0  0.00000000000E+00  0.00000000000E+00 -0.65650346140E+03  0.38465631779E+04  0.37901255239E+04 0.  0.
        4    1    3    3  502    0 -0.25081648288E+03  0.11507504851E+04  0.11784852686E+04  0.16661226630E+04  0.12699999809E+01 0. -1.
       -4    1    3    3    0  502  0.25081648288E+03 -0.11507504851E+04 -0.18349887300E+04  0.21804405149E+04  0.12699999809E+01 0.  1.
</event>
<event>
 5   0  0.6848661E-07  0.3303056E+04  0.7818609E-02  0.8162118E-01
        2   -1    0    0  501    0  0.00000000000E+00  0.00000000000E+00  0.11438164865E+04  0.11438164865E+04  0.25500000920E-02 0. -1.
       -2   -1    0    0    0  501  0.00000000000E+00  0.00000000000E+00 -0.23846005384E+04  0.23846005384E+04  0.25500000920E-02 0.  1.
    10030    2    1    2    0    0  0.00000000000E+00  0.00000000000E+00 -0.12407840519E+04  0.35284170249E+04  0.33030564086E+04 0.  0.
        1    1    3    3  502    0 -0.14008226138E+04  0.85901962329E+03 -0.44380551657E+03  0.17021110554E+04  0.50400001928E-02 0.  1.
       -1    1    3    3    0  502  0.14008226138E+04 -0.85901962329E+03 -0.79697853532E+03  0.18263059695E+04  0.50400001928E-02 0. -1.
</event>
<event>
 5   0  0.2193129E-07  0.3603865E+04  0.7818609E-02  0.8089607E-01
        1   -1    0    0  501    0  0.00000000000E+00  0.00000000000E+00  0.29183530329E+04  0.29183530329E+04  0.50400001928E-02 0.  1.
       -1   -1    0    0    0  501  0.00000000000E+00  0.00000000000E+00 -0.11126005477E+04  0.11126005477E+04  0.50400001928E-02 0. -1.
    10030    2    1    2    0    0  0.00000000000E+00  0.00000000000E+00  0.18057524852E+04  0.40309535806E+04  0.36038652487E+04 0.  0.
        1    1    3    3  502    0  0.45002380498E+03 -0.17378239467E+04  0.10776203638E+04  0.20937571835E+04  0.50400001928E-02 0.  1.
       -1    1    3    3    0  502 -0.45002380498E+03  0.17378239467E+04  0.72813212142E+03  0.19371963971E+04  0.50400001928E-02 0. -1.
</event>
<event>
 5   0  0.2108068E-07  0.3597538E+04  0.7818609E-02  0.8091056E-01
        1   -1    0    0  501    0  0.00000000000E+00  0.00000000000E+00  0.25734288761E+04  0.25734288761E+04  0.50400001928E-02 0.  1.
       -1   -1    0    0    0  501  0.00000000000E+00  0.00000000000E+00 -0.12572992464E+04  0.12572992464E+04  0.50400001928E-02 0. -1.
    10030    2    1    2    0    0  0.00000000000E+00  0.00000000000E+00  0.13161296297E+04  0.38307281225E+04  0.35975381508E+04 0.  0.
        5    1    3    3  502    0 -0.14971192366E+04 -0.65155504978E+03 -0.14561500274E+03  0.16392424502E+04  0.46999998093E+01 0.  1.
       -5    1    3    3    0  502  0.14971192366E+04  0.65155504978E+03  0.14617446325E+04  0.21914856723E+04  0.46999998093E+01 0. -1.
</event>
<event>
 5   0  0.2086250E-07  0.3534839E+04  0.7818609E-02  0.8105583E-01
        1   -1    0    0  501    0  0.00000000000E+00  0.00000000000E+00  0.15455315472E+04  0.15455315472E+04  0.50400001928E-02 0.  1.
       -1   -1    0    0    0  501  0.00000000000E+00  0.00000000000E+00 -0.20211628342E+04  0.20211628342E+04  0.50400001928E-02 0. -1.
    10030    2    1    2    0    0  0.00000000000E+00  0.00000000000E+00 -0.47563128698E+03  0.35666943814E+04  0.35348385662E+04 0.  0.
        2    1    3    3  502    0 -0.94722663752E+03 -0.10168573129E+04  0.86405767282E+03  0.16364084941E+04  0.25500000920E-02 0.  1.
       -2    1    3    3    0  502  0.94722663752E+03  0.10168573129E+04 -0.13396889598E+04  0.19302858873E+04  0.25500000920E-02 0. -1.
</event>
<event>
 5   0  0.2108068E-07  0.3593741E+04  0.7818609E-02  0.8091927E-01
        1   -1    0    0  501    0  0.00000000000E+00  0.00000000000E+00  0.20368696530E+04  0.20368696530E+04  0.50400001928E-02 0. -1.
       -1   -1    0    0    0  501  0.00000000000E+00  0.00000000000E+00 -0.15851494595E+04  0.15851494595E+04  0.50400001928E-02 0.  1.
    10030    2    1    2    0    0  0.00000000000E+00  0.00000000000E+00  0.45172019352E+03  0.36220191126E+04  0.35937405747E+04 0.  0.
        5    1    3    3  502    0  0.10352693835E+04 -0.34329683768E+03 -0.12133417716E+04  0.16315194635E+04  0.46999998093E+01 0.  1.
       -5    1    3    3    0  502 -0.10352693835E+04  0.34329683768E+03  0.16650619651E+04  0.19904996490E+04  0.46999998093E+01 0. -1.
</event>
<event>
 5   0  0.6848661E-07  0.3599300E+04  0.7818609E-02  0.8090652E-01
       -2   -1    0    0    0  501  0.00000000000E+00  0.00000000000E+00  0.11078004206E+04  0.11078004206E+04  0.25500000920E-02 0. -1.
        2   -1    0    0  501    0  0.00000000000E+00  0.00000000000E+00 -0.29235769336E+04  0.29235769336E+04  0.25500000920E-02 0.  1.
    10030    2    1    2    0    0  0.00000000000E+00  0.00000000000E+00 -0.18157765131E+04  0.40313773542E+04  0.35992997967E+04 0.  0.
        1    1    3    3  502    0  0.17742829461E+04 -0.29560987230E+03 -0.84379479897E+03  0.19868202818E+04  0.50400001928E-02 0. -1.
       -1    1    3    3    0  502 -0.17742829461E+04  0.29560987230E+03 -0.97198171412E+03  0.20445570724E+04  0.50400001928E-02 0.  1.
</event>
<event>
 5   0  0.6541476E-07  0.3607839E+04  0.7818609E-02  0.8088698E-01
        2   -1    0    0  501    0  0.00000000000E+00  0.00000000000E+00  0.16136846289E+04  0.16136846289E+04  0.25500000920E-02 0. -1.
       -2   -1    0    0    0  501  0.00000000000E+00  0.00000000000E+00 -0.20165812133E+04  0.20165812133E+04  0.25500000920E-02 0.  1.
    10030    2    1    2    0    0  0.00000000000E+00  0.00000000000E+00 -0.40289658439E+03  0.36302658423E+04  0.36078393018E+04 0.  0.
        4    1    3    3  502    0  0.24055646215E+03  0.60879476244E+03 -0.18928570878E+04  0.20028499799E+04  0.12699999809E+01 0.  1.
       -4    1    3    3    0  502 -0.24055646215E+03 -0.60879476244E+03  0.14899605034E+04  0.16274158623E+04  0.12699999809E+01 0. -1.
</event>
<event>
 5   0  0.2086250E-07  0.3572768E+04  0.7818609E-02  0.8096758E-01
       -1   -1    0    0    0  501  0.00000000000E+00  0.00000000000E+00  0.19164945683E+04  0.19164945683E+04  0.50400001928E-02 0.  1.
        1   -1    0    0  501    0  0.00000000000E+00  0.00000000000E+00 -0.16651066843E+04  0.16651066843E+04  0.50400001928E-02 0. -1.
    10030    2    1    2    0    0  0.00000000000E+00  0.00000000000E+00  0.25138788404E+03  0.35816012526E+04  0.35727680675E+04 0.  0.
        4    1    3    3  502    0  0.14077424032E+04 -0.47441486628E+03  0.11202951513E+04  0.18606103778E+04  0.12699999809E+01 0.  1.
       -4    1    3    3    0  502 -0.14077424032E+04  0.47441486628E+03 -0.86890726724E+03  0.17209908748E+04  0.12699999809E+01 0. -1.
</event>
<event>
 5   0  0.2086250E-07  0.3549652E+04  0.7818609E-02  0.8102123E-01
       -1   -1    0    0    0  501  0.00000000000E+00  0.00000000000E+00  0.15433497356E+04  0.15433497356E+04  0.50400001928E-02 0. -1.
        1   -1    0    0  501    0  0.00000000000E+00  0.00000000000E+00 -0.20410196632E+04  0.20410196633E+04  0.50400001928E-02 0.  1.
    10030    2    1    2    0    0  0.00000000000E+00  0.00000000000E+00 -0.49766992762E+03  0.35843693989E+04  0.35496519028E+04 0.  0.
        2    1    3    3  502    0 -0.12828148948E+03 -0.14718760963E+04 -0.12418820030E+04  0.19300638054E+04  0.25500000920E-02 0.  1.
       -2    1    3    3    0  502  0.12828148948E+03  0.14718760963E+04  0.74421207543E+03  0.16543055935E+04  0.25500000920E-02 0. -1.
</event>
<event>
 5   0  0.2086250E-07  0.3631829E+04  0.7818609E-02  0.8083239E-01
        1   -1    0    0  501    0  0.00000000000E+00  0.00000000000E+00  0.25858793857E+04  0.25858793857E+04  0.50400001928E-02 0. -1.
       -1   -1    0    0    0  501  0.00000000000E+00  0.00000000000E+00 -0.12752127105E+04  0.12752127106E+04  0.50400001928E-02 0.  1.
    10030    2    1    2    0    0  0.00000000000E+00  0.00000000000E+00  0.13106666751E+04  0.38610920962E+04  0.36318294346E+04 0.  0.
        2    1    3    3  502    0 -0.51844141096E+02  0.17275231783E+04  0.12477550726E+04  0.21316465156E+04  0.25500000920E-02 0. -1.
       -2    1    3    3    0  502  0.51844141096E+02 -0.17275231783E+04  0.62911602548E+02  0.17294455806E+04  0.25500000920E-02 0.  1.
</event>
<event>
 5   0  0.6324216E-07  0.3615039E+04  0.7818609E-02  0.8087055E-01
        2   -1    0    0  501    0  0.00000000000E+00  0.00000000000E+00  0.25903876208E+04  0.25903876208E+04  0.25500000920E-02 0. -1.
       -2   -1    0    0    0  501  0.00000000000E+00  0.00000000000E+00 -0.12612501270E+04  0.12612501270E+04  0.25500000920E-02 0.  1.
    10030    2    1    2    0    0  0.00000000000E+00  0.00000000000E+00  0.13291374938E+04  0.38516377479E+04  0.36150389850E+04 0.  0.
        2    1    3    3  502    0  0.38070628725E+03 -0.15664543629E+04  0.15356405848E+04  0.22264115868E+04  0.25500000920E-02 0. -1.
       -2    1    3    3    0  502 -0.38070628725E+03  0.15664543629E+04 -0.20650309097E+03  0.16252261611E+04  0.25500000920E-02 0.  1.
</event>
<event>
 5   0  0.2193129E-07  0.3616001E+04  0.7818609E-02  0.8086836E-01
        1   -1    0    0  501    0  0.00000000000E+00  0.00000000000E+00  0.18811189509E+04  0.18811189509E+04  0.50400001928E-02 0.  1.
       -1   -1    0    0    0  501  0.00000000000E+00  0.00000000000E+00 -0.17377242027E+04  0.17377242027E+04  0.50400001928E-02 0. -1.
    10030    2    1    2    0    0  0.00000000000E+00  0.00000000000E+00  0.14339474822E+03  0.36188431535E+04  0.36160010669E+04 0.  0.
        1    1    3    3  502    0  0.16098808621E+04 -0.23376281957E+03 -0.71791228495E+03  0.17781337112E+04  0.50400001928E-02 0.  1.
       -1    1    3    3    0  502 -0.16098808621E+04  0.23376281957E+03  0.86130703317E+03  0.18407094424E+04  0.50400001928E-02 0. -1.
</event>
<event>
 5   0  0.2086250E-07  0.3590773E+04  0.7818609E-02  0.8092608E-01
        1   -1    0    0  501    0  0.00000000000E+00  0.00000000000E+00  0.17377852836E+04  0.17377852836E+04  0.50400001928E-02 0.  1.
       -1   -1    0    0    0  501  0.00000000000E+00  0.00000000000E+00 -0.18548973043E+04  0.18548973043E+04  0.50400001928E-02 0. -1.
    10030    2    1    2    0    0  0.00000000000E+00  0.00000000000E+00 -0.11711202065E+03  0.35926825879E+04  0.35907733084E+04 0.  0.
        4    1    3    3  502    0 -0.36911231766E+03  0.17010335417E+04 -0.49884978054E+03  0.18106937150E+04  0.12699999809E+01 0. -1.
       -4    1    3    3    0  502  0.36911231766E+03 -0.17010335417E+04  0.38173775990E+03  0.17819888729E+04  0.12699999809E+01 0.  1.
</event>
<event>
 5   0  0.2086250E-07  0.3584461E+04  0.7818609E-02  0.8094060E-01
        1   -1    0    0  501    0  0.00000000000E+00  0.00000000000E+00  0.19759195238E+04  0.19759195238E+04  0.50400001928E-02 0. -1.
       -1   -1    0    0    0  501  0.00000000000E+00  0.00000000000E+00 -0.16256179477E+04  0.16256179477E+04  0.50400001928E-02 0.  1.
    10030    2    1    2    0    0  0.00000000000E+00  0.00000000000E+00  0.35030157614E+03  0.36015374715E+04  0.35844610424E+04 0.  0.
        3    1    3    3  502    0  0.16537134104E+03  0.46623144319E+03 -0.15556615477E+04  0.16324222187E+04  0.10100000352E+00 0.  1.
       -3    1    3    3    0  502 -0.16537134104E+03 -0.46623144319E+03  0.19059631238E+04  0.19691152528E+04  0.10100000352E+00 0. -1.
</event>
<event>
 5   0  0.2086250E-07  0.3600679E+04  0.7818609E-02  0.8090336E-01
        1   -1    0    0  501    0  0.00000000000E+00  0.00000000000E+00  0.16774452350E+04  0.16774452350E+04  0.50400001928E-02 0. -1.
       -1   -1    0    0    0  501  0.00000000000E+00  0.00000000000E+00 -0.19322377008E+04  0.19322377008E+04  0.50400001928E-02 0.  1.
    10030    2    1    2    0    0  0.00000000000E+00  0.00000000000E+00 -0.25479246580E+03  0.36096829358E+04  0.36006793382E+04 0.  0.
        4    1    3    3  502    0  0.53431285018E+02  0.24310204903E+03  0.16601124732E+04  0.16786686824E+04  0.12699999809E+01 0. -1.
       -4    1    3    3    0  502 -0.53431285018E+02 -0.24310204903E+03 -0.19149049390E+04  0.19310142534E+04  0.12699999809E+01 0.  1.
</event>
<event>
 5   0  0.6541476E-07  0.3613905E+04  0.7818609E-02  0.8087314E-01
        2   -1    0    0  501    0  0.00000000000E+00  0.00000000000E+00  0.24059232272E+04  0.24059232272E+04  0.25500000920E-02 0. -1.
       -2   -1    0    0    0  501  0.00000000000E+00  0.00000000000E+00 -0.13570993146E+04  0.13570993147E+04  0.25500000920E-02 0.  1.
    10030    2    1    2    0    0  0.00000000000E+00  0.00000000000E+00  0.10488239126E+04  0.37630225419E+04  0.36139046821E+04 0.  0.
        4    1    3    3  502    0  0.82753938829E+03  0.83294183626E+03 -0.90574634663E+03  0.14828997266E+04  0.12699999809E+01 0.  1.
       -4    1    3    3    0  502 -0.82753938829E+03 -0.83294183626E+03  0.19545702592E+04  0.22801228153E+04  0.12699999809E+01 0. -1.
</event>
<event>
 5   0  0.6324216E-07  0.3777011E+04  0.7818609E-02  0.8051106E-01
        2   -1    0    0  501    0  0.00000000000E+00  0.00000000000E+00  0.20914726133E+04  0.20914726133E+04  0.25500000920E-02 0. -1.
       -2   -1    0    0    0  501  0.00000000000E+00  0.00000000000E+00 -0.17052353449E+04  0.17052353449E+04  0.25500000920E-02 0.  1.
    10030    2    1    2    0    0  0.00000000000E+00  0.00000000000E+00  0.38623726832E+03  0.37967079582E+04  0.37770109998E+04 0.  0.
        2    1    3    3  502    0 -0.12087991478E+02 -0.18392871346E+04  0.62352174785E+03  0.19421386801E+04  0.25500000920E-02 0. -1.
       -2    1    3    3    0  502  0.12087991478E+02  0.18392871346E+04 -0.23728447953E+03  0.18545692781E+04  0.25500000920E-02 0.  1.
</event>
<event>
 5   0  0.6669864E-07  0.3617790E+04  0.7818609E-02  0.8086429E-01
       -2   -1    0    0    0  501  0.00000000000E+00  0.00000000000E+00  0.17529533555E+04  0.17529533555E+04  0.25500000920E-02 0. -1.
        2   -1    0    0  501    0  0.00000000000E+00  0.00000000000E+00 -0.18666217324E+04  0.18666217324E+04  0.25500000920E-02 0.  1.
    10030    2    1    2    0    0  0.00000000000E+00  0.00000000000E+00 -0.11366837697E+03  0.36195750879E+04  0.36177898387E+04 0.  0.
        5    1    3    3  502    0  0.15660054315E+04 -0.62233660188E+03  0.60106378048E+03  0.17891270541E+04  0.46999998093E+01 0. -1.
       -5    1    3    3    0  502 -0.15660054315E+04  0.62233660188E+03 -0.71473215745E+03  0.18304480338E+04  0.46999998093E+01 0.  1.
</event>
<event>
 5   0  0.6729577E-07  0.3547041E+04  0.7818609E-02  0.8102731E-01
        2   -1    0    0  501    0  0.00000000000E+00  0.00000000000E+00  0.28625230710E+04  0.28625230710E+04  0.25500000920E-02 0.  1.
       -2   -1    0    0    0  501  0.00000000000E+00  0.00000000000E+00 -0.10988120141E+04  0.10988120141E+04  0.25500000920E-02 0. -1.
    10030    2    1    2    0    0  0.00000000000E+00  0.00000000000E+00  0.17637110569E+04  0.39613350850E+04  0.35470408743E+04 0.  0.
        3    1    3    3  502    0  0.13842399953E+03 -0.11663292630E+04 -0.60222394735E+03  0.13199086507E+04  0.10100000352E+00 0. -1.
       -3    1    3    3    0  502 -0.13842399953E+03  0.11663292630E+04  0.23659350043E+04  0.26414264343E+04  0.10100000352E+00 0.  1.
</event>
<event>
 5   0  0.6848661E-07  0.3603771E+04  0.7818609E-02  0.8089628E-01
        2   -1    0    0  501    0  0.00000000000E+00  0.00000000000E+00  0.27392336595E+04  0.27392336595E+04  0.25500000920E-02 0. -1.
       -2   -1    0    0    0  501  0.00000000000E+00  0.00000000000E+00 -0.11852919774E+04  0.11852919774E+04  0.25500000920E-02 0.  1.
    10030    2    1    2    0    0  0.00000000000E+00  0.00000000000E+00  0.15539416821E+04  0.39245256369E+04  0.36037711808E+04 0.  0.
        1    1    3    3  502    0 -0.15449307116E+01 -0.17042058937E+04  0.14142683520E+04  0.22146049504E+04  0.50400001928E-02 0. -1.
       -1    1    3    3    0  502  0.15449307116E+01  0.17042058937E+04  0.13967333008E+03  0.17099206865E+04  0.50400001928E-02 0.  1.
</event>
<event>
 5   0  0.2086250E-07  0.3597716E+04  0.7818609E-02  0.8091015E-01
       -1   -1    0    0    0  501  0.00000000000E+00  0.00000000000E+00  0.12335682922E+04  0.12335682922E+04  0.50400001928E-02 0.  1.
        1   -1    0    0  501    0  0.00000000000E+00  0.00000000000E+00 -0.26231955916E+04  0.26231955916E+04  0.50400001928E-02 0. -1.
    10030    2    1    2    0    0  0.00000000000E+00  0.00000000000E+00 -0.13896272994E+04  0.38567638838E+04  0.35977164458E+04 0.  0.
        3    1    3    3  502    0 -0.17581480449E+04 -0.32756101319E+03 -0.48719306478E+03  0.18535743464E+04  0.10100000352E+00 0. -1.
       -3    1    3    3    0  502  0.17581480449E+04  0.32756101319E+03 -0.90243423463E+03  0.20031895375E+04  0.10100000352E+00 0.  1.
</event>
<event>
 5   0  0.2086250E-07  0.3600710E+04  0.7818609E-02  0.8090329E-01
        1   -1    0    0  501    0  0.00000000000E+00  0.00000000000E+00  0.16153252834E+04  0.16153252834E+04  0.50400001928E-02 0.  1.
       -1   -1    0    0    0  501  0.00000000000E+00  0.00000000000E+00 -0.20065791834E+04  0.20065791834E+04  0.50400001928E-02 0. -1.
    10030    2    1    2    0    0  0.00000000000E+00  0.00000000000E+00 -0.39125390008E+03  0.36219044668E+04  0.36007099789E+04 0.  0.
        3    1    3    3  502    0  0.70215262886E+02 -0.20880712064E+03 -0.19929706517E+04  0.20051091306E+04  0.10100000352E+00 0. -1.
       -3    1    3    3    0  502 -0.70215262886E+02  0.20880712064E+03  0.16017167516E+04  0.16167953363E+04  0.10100000352E+00 0.  1.
</event>
<event>
 5   0  0.6669864E-07  0.3587300E+04  0.7818609E-02  0.8093407E-01
        2   -1    0    0  501    0  0.00000000000E+00  0.00000000000E+00  0.18490679339E+04  0.18490679339E+04  0.25500000920E-02 0. -1.
       -2   -1    0    0    0  501  0.00000000000E+00  0.00000000000E+00 -0.17398929419E+04  0.17398929419E+04  0.25500000920E-02 0.  1.
    10030    2    1    2    0    0  0.00000000000E+00  0.00000000000E+00  0.10917499201E+03  0.35889608759E+04  0.35872999582E+04 0.  0.
        5    1    3    3  502    0  0.15781733572E+04 -0.68915430382E+03 -0.44723556725E+03  0.17792151478E+04  0.46999998093E+01 0.  1.
       -5    1    3    3    0  502 -0.15781733572E+04  0.68915430382E+03  0.55641055925E+03  0.18097457280E+04  0.46999998093E+01 0. -1.
</event>
<event>
 5   0  0.2086250E-07  0.3542316E+04  0.7818609E-02  0.8103834E-01
       -1   -1    0    0    0  501  0.00000000000E+00  0.00000000000E+00  0.21443818353E+04  0.21443818353E+04  0.50400001928E-02 0. -1.
        1   -1    0    0  501    0  0.00000000000E+00  0.00000000000E+00 -0.14628924099E+04  0.14628924099E+04  0.50400001928E-02 0.  1.
    10030    2    1    2    0    0  0.00000000000E+00  0.00000000000E+00  0.68148942544E+03  0.36072742452E+04  0.35423155765E+04 0.  0.
        4    1    3    3  502    0 -0.13672183490E+03 -0.17139227399E+04 -0.92227706159E+02  0.17218395921E+04  0.12699999809E+01 0.  1.
       -4    1    3    3    0  502  0.13672183490E+03  0.17139227399E+04  0.77371713160E+03  0.18854346531E+04  0.12699999809E+01 0. -1.
</event>
<event>
 5   0  0.6848661E-07  0.3585384E+04  0.7818609E-02  0.8093848E-01
       -2   -1    0    0    0  501  0.00000000000E+00  0.00000000000E+00  0.15699221478E+04  0.15699221478E+04  0.25500000920E-02 0. -1.
        2   -1    0    0  501    0  0.00000000000E+00  0.00000000000E+00 -0.20470730334E+04  0.20470730334E+04  0.25500000920E-02 0.  1.
    10030    2    1    2    0    0  0.00000000000E+00  0.00000000000E+00 -0.47715088558E+03  0.36169951813E+04  0.35853843830E+04 0.  0.
        1    1    3    3  502    0 -0.14980458780E+04 -0.51405270991E+03 -0.10858334216E+04  0.19202671327E+04  0.50400001928E-02 0.  1.
       -1    1    3    3    0  502  0.14980458780E+04  0.51405270991E+03  0.60868253605E+03  0.16967280486E+04  0.50400001928E-02 0. -1.
</event>
<event>
 5   0  0.6729577E-07  0.3586026E+04  0.7818609E-02  0.8093700E-01
        2   -1    0    0  501    0  0.00000000000E+00  0.00000000000E+00  0.15835426608E+04  0.15835426608E+04  0.25500000920E-02 0.  1.
       -2   -1    0    0    0  501  0.00000000000E+00  0.00000000000E+00 -0.20301919455E+04  0.20301919455E+04  0.25500000920E-02 0. -1.
    10030    2    1    2    0    0  0.00000000000E+00  0.00000000000E+00 -0.44664928464E+03  0.36137346063E+04  0.35860259649E+04 0.  0.
        3    1    3    3  502    0  0.85869052309E+03 -0.14853938930E+04 -0.74806989812E+03  0.18717246097E+04  0.10100000352E+00 0. -1.
       -3    1    3    3    0  502 -0.85869052309E+03  0.14853938930E+04  0.30142061348E+03  0.17420099966E+04  0.10100000352E+00 0.  1.
</event>
<event>
 5   0  0.2086250E-07  0.3592160E+04  0.7818609E-02  0.8092290E-01
       -1   -1    0    0    0  501  0.00000000000E+00  0.00000000000E+00  0.16320037971E+04  0.16320037971E+04  0.50400001928E-02 0.  1.
        1   -1    0    0  501    0  0.00000000000E+00  0.00000000000E+00 -0.19766518133E+04  0.19766518133E+04  0.50400001928E-02 0. -1.
    10030    2    1    2    0    0  0.00000000000E+00  0.00000000000E+00 -0.34464801622E+03  0.36086556103E+04  0.35921599434E+04 0.  0.
        3    1    3    3  502    0 -0.17149050292E+03  0.21176811725E+03  0.16111166412E+04  0.16339986443E+04  0.10100000352E+00 0.  1.
       -3    1    3    3    0  502  0.17149050292E+03 -0.21176811725E+03 -0.19557646574E+04  0.19746569660E+04  0.10100000352E+00 0. -1.
</event>
<event>
 5   0  0.6729577E-07  0.3513845E+04  0.7818609E-02  0.8110517E-01
       -2   -1    0    0    0  501  0.00000000000E+00  0.00000000000E+00  0.16287673847E+04  0.16287673847E+04  0.25500000920E-02 0. -1.
        2   -1    0    0  501    0  0.00000000000E+00  0.00000000000E+00 -0.18951606699E+04  0.18951606699E+04  0.25500000920E-02 0.  1.
    10030    2    1    2    0    0  0.00000000000E+00  0.00000000000E+00 -0.26639328523E+03  0.35239280545E+04  0.35138445542E+04 0.  0.
        3    1    3    3  502    0  0.29567801270E+03 -0.23734566144E+03 -0.18536420839E+04  0.18920220495E+04  0.10100000352E+00 0.  1.
       -3    1    3    3    0  502 -0.29567801270E+03  0.23734566144E+03  0.15872487987E+04  0.16319060051E+04  0.10100000352E+00 0. -1.
</event>
<event>
 5   0  0.6848661E-07  0.3424723E+04  0.7818609E-02  0.8131865E-01
       -2   -1    0    0    0  501  0.00000000000E+00  0.00000000000E+00  0.26544355158E+04  0.26544355158E+04  0.25500000920E-02 0.  1.
        2   -1    0    0  501    0  0.00000000000E+00  0.00000000000E+00 -0.11046347238E+04  0.11046347238E+04  0.25500000920E-02 0. -1.
    10030    2    1    2    0    0  0.00000000000E+00  0.00000000000E+00  0.15498007920E+04  0.37590702395E+04  0.34247228459E+04 0.  0.
        1    1    3    3  502    0 -0.81826542577E+03  0.11136742605E+04  0.18847277964E+04  0.23370981006E+04  0.50400001928E-02 0.  1.
       -1    1    3    3    0  502  0.81826542577E+03 -0.11136742605E+04 -0.33492700442E+03  0.14219721389E+04  0.50400001928E-02 0. -1.
</event>
<event>
 5   0  0.2086250E-07  0.3553562E+04  0.7818609E-02  0.8101212E-01
       -1   -1    0    0    0  501  0.00000000000E+00  0.00000000000E+00  0.14808545175E+04  0.14808545175E+04  0.50400001928E-02 0.  1.
        1   -1    0    0  501    0  0.00000000000E+00  0.00000000000E+00 -0.21318440929E+04  0.21318440929E+04  0.50400001928E-02 0. -1.
    10030    2    1    2    0    0  0.00000000000E+00  0.00000000000E+00 -0.65098957540E+03  0.36126986104E+04  0.35535621315E+04 0.  0.
        4    1    3    3  502    0 -0.95016867000E+03  0.14206931222E+03  0.11940169944E+04  0.15325411533E+04  0.12699999809E+01 0.  1.
       -4    1    3    3    0  502  0.95016867000E+03 -0.14206931222E+03 -0.18450065698E+04  0.20801574571E+04  0.12699999809E+01 0. -1.
</event>
<event>
 5   0  0.6541476E-07  0.3566980E+04  0.7818609E-02  0.8098097E-01
        2   -1    0    0  501    0  0.00000000000E+00  0.00000000000E+00  0.16284878157E+04  0.16284878157E+04  0.25500000920E-02 0.  1.
       -2   -1    0    0    0  501  0.00000000000E+00  0.00000000000E+00 -0.19532456315E+04  0.19532456315E+04  0.25500000920E-02 0. -1.
    10030    2    1    2    0    0  0.00000000000E+00  0.00000000000E+00 -0.32475781580E+03  0.35817334472E+04  0.35669800739E+04 0.  0.
        4    1    3    3  502    0  0.13742202490E+04  0.87050691833E+03 -0.89654696426E+03  0.18574341603E+04  0.12699999809E+01 0. -1.
       -4    1    3    3    0  502 -0.13742202490E+04 -0.87050691833E+03  0.57178914846E+03  0.17242992869E+04  0.12699999809E+01 0.  1.
</event>
<event>
 5   0  0.6324216E-07  0.3573295E+04  0.7818609E-02  0.8096636E-01
       -2   -1    0    0    0  501  0.00000000000E+00  0.00000000000E+00  0.11290819150E+04  0.11290819150E+04  0.25500000920E-02 0.  1.
        2   -1    0    0  501    0  0.00000000000E+00  0.00000000000E+00 -0.28271727256E+04  0.28271727256E+04  0.25500000920E-02 0. -1.
    10030    2    1    2    0    0  0.00000000000E+00  0.00000000000E+00 -0.16980908106E+04  0.39562546406E+04  0.35732951711E+04 0.  0.
        2    1    3    3  502    0 -0.16164783365E+04  0.15335602722E+03 -0.23782574248E+02  0.16239106793E+04  0.25500000920E-02 0.  1.
       -2    1    3    3    0  502  0.16164783365E+04 -0.15335602722E+03 -0.16743082364E+04  0.23323439613E+04  0.25500000920E-02 0. -1.
</event>
<event>
 5   0  0.2086250E-07  0.3598597E+04  0.7818609E-02  0.8090813E-01
        1   -1    0    0  501    0  0.00000000000E+00  0.00000000000E+00  0.23190026001E+04  0.23190026001E+04  0.50400001928E-02 0.  1.
       -1   -1    0    0    0  501  0.00000000000E+00  0.00000000000E+00 -0.13960635657E+04  0.13960635657E+04  0.50400001928E-02 0. -1.
    10030    2    1    2    0    0  0.00000000000E+00  0.00000000000E+00  0.92293903434E+03  0.37150661658E+04  0.35985969704E+04 0.  0.
        3    1    3    3  502    0 -0.72168407940E+03  0.36584477066E+02 -0.12396818092E+04  0.14349137022E+04  0.10100000352E+00 0. -1.
       -3    1    3    3    0  502  0.72168407940E+03 -0.36584477066E+02  0.21626208435E+04  0.22801524636E+04  0.10100000352E+00 0.  1.
</event>
<event>
 5   0  0.2086250E-07  0.3594159E+04  0.7818609E-02  0.8091831E-01
        1   -1    0    0  501    0  0.00000000000E+00  0.00000000000E+00  0.12893468248E+04  0.12893468248E+04  0.50400001928E-02 0.  1.
       -1   -1    0    0    0  501  0.00000000000E+00  0.00000000000E+00 -0.25047525914E+04  0.25047525914E+04  0.50400001928E-02 0. -1.
    10030    2    1    2    0    0  0.00000000000E+00  0.00000000000E+00 -0.12154057666E+04  0.37940994162E+04  0.35941590397E+04 0.  0.
        4    1    3    3  502    0  0.16321223880E+04  0.12186209242E+03 -0.13911613923E+04  0.21480236245E+04  0.12699999809E+01 0. -1.
       -4    1    3    3    0  502 -0.16321223880E+04 -0.12186209242E+03  0.17575562571E+03  0.16460757917E+04  0.12699999809E+01 0.  1.
</event>
<event>
 5   0  0.2108068E-07  0.3598390E+04  0.7818609E-02  0.8090861E-01
        1   -1    0    0  501    0  0.00000000000E+00  0.00000000000E+00  0.16814187474E+04  0.16814187474E+04  0.50400001928E-02 0.  1.
       -1   -1    0    0    0  501  0.00000000000E+00  0.00000000000E+00 -0.19252206729E+04  0.19252206729E+04  0.50400001928E-02 0. -1.
    10030    2    1    2    0    0  0.00000000000E+00  0.00000000000E+00 -0.24380192553E+03  0.36066394204E+04  0.35983897134E+04 0.  0.
        5    1    3    3  502    0  0.16597439054E+04 -0.68189393728E+03  0.10123724533E+02  0.17943950939E+04  0.46999998093E+01 0. -1.
       -5    1    3    3    0  502 -0.16597439054E+04  0.68189393728E+03 -0.25392565006E+03  0.18122443265E+04  0.46999998093E+01 0.  1.
</event>
<event>
 5   0  0.2086250E-07  0.3655307E+04  0.7818609E-02  0.8077939E-01
       -1   -1    0    0    0  501  0.00000000000E+00  0.00000000000E+00  0.16208992139E+04  0.16208992139E+04  0.50400001928E-02 0. -1.
        1   -1    0    0  501    0  0.00000000000E+00  0.00000000000E+00 -0.20607805574E+04  0.20607805574E+04  0.50400001928E-02 0.  1.
    10030    2    1    2    0    0  0.00000000000E+00  0.00000000000E+00 -0.43988134350E+03  0.36816797712E+04  0.36553071474E+04 0.  0.
        4    1    3    3  502    0 -0.12745569490E+04 -0.32751930751E+03 -0.14973781165E+04  0.19934661145E+04  0.12699999809E+01 0.  1.
       -4    1    3    3    0  502  0.12745569490E+04  0.32751930751E+03  0.10574967730E+04  0.16882136567E+04  0.12699999809E+01 0. -1.
</event>
<event>
 5   0  0.2193129E-07  0.3177942E+04  0.7818609E-02  0.8194667E-01
       -1   -1    0    0    0  501  0.00000000000E+00  0.00000000000E+00  0.25350223735E+04  0.25350223735E+04  0.50400001928E-02 0.  1.
        1   -1    0    0  501    0  0.00000000000E+00  0.00000000000E+00 -0.99597916185E+03  0.99597916186E+03  0.50400001928E-02 0. -1.
    10030    2    1    2    0    0  0.00000000000E+00  0.00000000000E+00  0.15390432116E+04  0.35310015353E+04  0.31779423902E+04 0.  0.
        1    1    3    3  502    0  0.11556622018E+04 -0.12380313573E+03  0.19733820734E+04  0.22902225107E+04  0.50400001928E-02 0.  1.
       -1    1    3    3    0  502 -0.11556622018E+04  0.12380313573E+03 -0.43433886175E+03  0.12407790246E+04  0.50400001928E-02 0. -1.
</event>
<event>
 5   0  0.6669864E-07  0.3628080E+04  0.7818609E-02  0.8084090E-01
        2   -1    0    0  501    0  0.00000000000E+00  0.00000000000E+00  0.21400450418E+04  0.21400450418E+04  0.25500000920E-02 0. -1.
       -2   -1    0    0    0  501  0.00000000000E+00  0.00000000000E+00 -0.15376968208E+04  0.15376968208E+04  0.25500000920E-02 0.  1.
    10030    2    1    2    0    0  0.00000000000E+00  0.00000000000E+00  0.60234822103E+03  0.36777418626E+04  0.36280796337E+04 0.  0.
        5    1    3    3  502    0  0.17458046784E+04 -0.37577023896E+03  0.62441373407E+03  0.18918117900E+04  0.46999998093E+01 0. -1.
       -5    1    3    3    0  502 -0.17458046784E+04  0.37577023896E+03 -0.22065513035E+02  0.17859300726E+04  0.46999998093E+01 0.  1.
</event>
<event>
 5   0  0.2086250E-07  0.3480854E+04  0.7818609E-02  0.8118342E-01
       -1   -1    0    0    0  501  0.00000000000E+00  0.00000000000E+00  0.24627058993E+04  0.24627058993E+04  0.50400001928E-02 0.  1.
        1   -1    0    0  501    0  0.00000000000E+00  0.00000000000E+00 -0.12299827541E+04  0.12299827541E+04  0.50400001928E-02 0. -1.
    10030    2    1    2    0    0  0.00000000000E+00  0.00000000000E+00  0.12327231452E+04  0.36926886534E+04  0.34808537945E+04 0.  0.
        4    1    3    3  502    0  0.87589272600E+03  0.83266407526E+03  0.19450048586E+04  0.22898827574E+04  0.12699999809E+01 0.  1.
       -4    1    3    3    0  502 -0.87589272600E+03 -0.83266407526E+03 -0.71228171344E+03  0.14028058960E+04  0.12699999809E+01 0. -1.
</event>
<event>
 5   0  0.2086250E-07  0.3632195E+04  0.7818609E-02  0.8083157E-01
       -1   -1    0    0    0  501  0.00000000000E+00  0.00000000000E+00  0.19909057385E+04  0.19909057386E+04  0.50400001928E-02 0. -1.
        1   -1    0    0  501    0  0.00000000000E+00  0.00000000000E+00 -0.16566377634E+04  0.16566377634E+04  0.50400001928E-02 0.  1.
    10030    2    1    2    0    0  0.00000000000E+00  0.00000000000E+00  0.33426797515E+03  0.36475435020E+04  0.36321947249E+04 0.  0.
        2    1    3    3  502    0  0.56061595109E+03 -0.82486620264E+03  0.16912811141E+04  0.19634475557E+04  0.25500000920E-02 0. -1.
       -2    1    3    3    0  502 -0.56061595109E+03  0.82486620264E+03 -0.13570131390E+04  0.16840959463E+04  0.25500000920E-02 0.  1.
</event>
<event>
 5   0  0.6729577E-07  0.3504080E+04  0.7818609E-02  0.8112824E-01
       -2   -1    0    0    0  501  0.00000000000E+00  0.00000000000E+00  0.15922719637E+04  0.15922719637E+04  0.25500000920E-02 0. -1.
        2   -1    0    0  501    0  0.00000000000E+00  0.00000000000E+00 -0.19278389330E+04  0.19278389330E+04  0.25500000920E-02 0.  1.
    10030    2    1    2    0    0  0.00000000000E+00  0.00000000000E+00 -0.33556696924E+03  0.35201108967E+04  0.35040798413E+04 0.  0.
        3    1    3    3  502    0  0.15595161843E+04  0.17706548406E+02 -0.96970845780E+03  0.18365017708E+04  0.10100000352E+00 0.  1.
       -3    1    3    3    0  502 -0.15595161843E+04 -0.17706548406E+02  0.63414148856E+03  0.16836091259E+04  0.10100000352E+00 0. -1.
</event>
<event>
 5   0  0.6729577E-07  0.3606889E+04  0.7818609E-02  0.8088916E-01
        2   -1    0    0  501    0  0.00000000000E+00  0.00000000000E+00  0.27872777936E+04  0.27872777936E+04  0.25500000920E-02 0. -1.
       -2   -1    0    0    0  501  0.00000000000E+00  0.00000000000E+00 -0.11668773811E+04  0.11668773811E+04  0.25500000920E-02 0.  1.
    10030    2    1    2    0    0  0.00000000000E+00  0.00000000000E+00  0.16204004125E+04  0.39541551747E+04  0.36068886382E+04 0.  0.
        3    1    3    3  502    0  0.51326503108E+03  0.16801113217E+04  0.12571221966E+04  0.21602248199E+04  0.10100000352E+00 0. -1.
       -3    1    3    3    0  502 -0.51326503108E+03 -0.16801113217E+04  0.36327821596E+03  0.17939303547E+04  0.10100000352E+00 0.  1.
</event>
<event>
 5   0  0.2108068E-07  0.3620213E+04  0.7818609E-02  0.8085877E-01
       -1   -1    0    0    0  501  0.00000000000E+00  0.00000000000E+00  0.27000056726E+04  0.27000056726E+04  0.50400001928E-02 0.  1.
        1   -1    0    0  501    0  0.00000000000E+00  0.00000000000E+00 -0.12135105218E+04  0.12135105218E+04  0.50400001928E-02 0. -1.
    10030    2    1    2    0    0  0.00000000000E+00  0.00000000000E+00  0.14864951508E+04  0.39135161944E+04  0.36202128626E+04 0.  0.
        5    1    3    3  502    0  0.81079948754E+03 -0.14951864860E+04  0.73814623410E+02  0.17024832233E+04  0.46999998093E+01 0.  1.
       -5    1    3    3    0  502 -0.81079948754E+03  0.14951864860E+04  0.14126805274E+04  0.22110329711E+04  0.46999998093E+01 0. -1.
</event>
<event>
 5   0  0.6669864E-07  0.3641932E+04  0.7818609E-02  0.8080954E-01
       -2   -1    0    0    0  501  0.00000000000E+00  0.00000000000E+00  0.26700101563E+04  0.26700101563E+04  0.25500000920E-02 0.  1.
        2   -1    0    0  501    0  0.00000000000E+00  0.00000000000E+00 -0.12419120234E+04  0.12419120234E+04  0.25500000920E-02 0. -1.
    10030    2    1    2    0    0  0.00000000000E+00  0.00000000000E+00  0.14280981329E+04  0.39119221797E+04  0.36419322980E+04 0.  0.
        5    1    3    3  502    0  0.52728177285E+02  0.37109235938E+03  0.26281196867E+04  0.26547174949E+04  0.46999998093E+01 0.  1.
       -5    1    3    3    0  502 -0.52728177285E+02 -0.37109235938E+03 -0.12000215539E+04  0.12572046848E+04  0.46999998093E+01 0. -1.
</event>
<event>
 5   0  0.6729577E-07  0.3616845E+04  0.7818609E-02  0.8086644E-01
        2   -1    0    0  501    0  0.00000000000E+00  0.00000000000E+00  0.11495049223E+04  0.11495049223E+04  0.25500000920E-02 0.  1.
       -2   -1    0    0    0  501  0.00000000000E+00  0.00000000000E+00 -0.28450439793E+04  0.28450439793E+04  0.25500000920E-02 0. -1.
    10030    2    1    2    0    0  0.00000000000E+00  0.00000000000E+00 -0.16955390570E+04  0.39945489015E+04  0.36168450662E+04 0.  0.
        3    1    3    3  502    0  0.33566351349E+03 -0.17769115396E+04 -0.86713436815E+03  0.20054941128E+04  0.10100000352E+00 0. -1.
       -3    1    3    3    0  502 -0.33566351349E+03  0.17769115396E+04 -0.82840468884E+03  0.19890547887E+04  0.10100000352E+00 0.  1.
</event>
<event>
 5   0  0.2086250E-07  0.3590271E+04  0.7818609E-02  0.8092724E-01
       -1   -1    0    0    0  501  0.00000000000E+00  0.00000000000E+00  0.16028371146E+04  0.16028371146E+04  0.50400001928E-02 0.  1.
        1   -1    0    0  501    0  0.00000000000E+00  0.00000000000E+00 -0.20105047727E+04  0.20105047727E+04  0.50400001928E-02 0. -1.
    10030    2    1    2    0    0  0.00000000000E+00  0.00000000000E+00 -0.40766765807E+03  0.36133418873E+04  0.35902711145E+04 0.  0.
        3    1    3    3  502    0 -0.16180621026E+04  0.31951790054E+03  0.50944812909E+03  0.17261964150E+04  0.10100000352E+00 0. -1.
       -3    1    3    3    0  502  0.16180621026E+04 -0.31951790054E+03 -0.91711578716E+03  0.18871454724E+04  0.10100000352E+00 0.  1.
</event>
<event>
 5   0  0.2086250E-07  0.3573589E+04  0.7818609E-02  0.8096568E-01
       -1   -1    0    0    0  501  0.00000000000E+00  0.00000000000E+00  0.19519581429E+04  0.19519581429E+04  0.50400001928E-02 0. -1.
        1   -1    0    0  501    0  0.00000000000E+00  0.00000000000E+00 -0.16356059373E+04  0.16356059373E+04  0.50400001928E-02 0.  1.
    10030    2    1    2    0    0  0.00000000000E+00  0.00000000000E+00  0.31635220559E+03  0.35875640802E+04  0.35735888560E+04 0.  0.
        3    1    3    3  502    0 -0.11286134749E+04 -0.85073475108E+03  0.12556650909E+04  0.18905588653E+04  0.10100000352E+00 0. -1.
       -3    1    3    3    0  502  0.11286134749E+04  0.85073475108E+03 -0.93931288536E+03  0.16970052149E+04  0.10100000352E+00 0.  1.
</event>
<event>
 5   0  0.2086250E-07  0.3587640E+04  0.7818609E-02  0.8093329E-01
       -1   -1    0    0    0  501  0.00000000000E+00  0.00000000000E+00  0.13971613474E+04  0.13971613474E+04  0.50400001928E-02 0.  1.
        1   -1    0    0  501    0  0.00000000000E+00  0.00000000000E+00 -0.23030916530E+04  0.23030916530E+04  0.50400001928E-02 0. -1.
    10030    2    1    2    0    0  0.00000000000E+00  0.00000000000E+00 -0.90593030559E+03  0.37002530004E+04  0.35876402479E+04 0.  0.
        4    1    3    3  502    0 -0.90281387208E+03  0.19818120367E+03  0.11326392920E+04  0.14619240937E+04  0.12699999809E+01 0.  1.
       -4    1    3    3    0  502  0.90281387208E+03 -0.19818120367E+03 -0.20385695976E+04  0.22383289066E+04  0.12699999809E+01 0. -1.
</event>
<event>
 5   0  0.6848661E-07  0.3641066E+04  0.7818609E-02  0.8081149E-01
        2   -1    0    0  501    0  0.00000000000E+00  0.00000000000E+00  0.21044754510E+04  0.21044754510E+04  0.25500000920E-02 0.  1.
       -2   -1    0    0    0  501  0.00000000000E+00  0.00000000000E+00 -0.15749009866E+04  0.15749009866E+04  0.25500000920E-02 0. -1.
    10030    2    1    2    0    0  0.00000000000E+00  0.00000000000E+00  0.52957446442E+03  0.36793764375E+04  0.36410660329E+04 0.  0.
        1    1    3    3  502    0 -0.72724438890E+03 -0.83586383887E+03 -0.11949840054E+04  0.16295826249E+04  0.50400001928E-02 0. -1.
       -1    1    3    3    0  502  0.72724438890E+03  0.83586383887E+03  0.17245584698E+04  0.20497938126E+04  0.50400001928E-02 0.  1.
</event>
<event>
 5   0  0.2086250E-07  0.3589725E+04  0.7818609E-02  0.8092849E-01
       -1   -1    0    0    0  501  0.00000000000E+00  0.00000000000E+00  0.21697400081E+04  0.21697400081E+04  0.50400001928E-02 0. -1.
        1   -1    0    0  501    0  0.00000000000E+00  0.00000000000E+00 -0.14847544708E+04  0.14847544708E+04  0.50400001928E-02 0.  1.
    10030    2    1    2    0    0  0.00000000000E+00  0.00000000000E+00  0.68498553729E+03  0.36544944789E+04  0.35897248794E+04 0.  0.
        2    1    3    3  502    0 -0.15911064072E+03 -0.71340647810E+03 -0.13263733134E+04  0.15144408755E+04  0.25500000920E-02 0.  1.
       -2    1    3    3    0  502  0.15911064072E+03  0.71340647810E+03  0.20113588507E+04  0.21400536033E+04  0.25500000920E-02 0. -1.
</event>
<event>
 5   0  0.6324216E-07  0.3615874E+04  0.7818609E-02  0.8086865E-01
       -2   -1    0    0    0  501  0.00000000000E+00  0.00000000000E+00  0.27056763671E+04  0.27056763671E+04  0.25500000920E-02 0. -1.
        2   -1    0    0  501    0  0.00000000000E+00  0.00000000000E+00 -0.12080663924E+04  0.12080663924E+04  0.25500000920E-02 0.  1.
    10030    2    1    2    0    0  0.00000000000E+00  0.00000000000E+00  0.14976099747E+04  0.39137427596E+04  0.36158742721E+04 0.  0.
        2    1    3    3  502    0 -0.12065999281E+04  0.82993705134E+01 -0.70846512280E+03  0.13992409000E+04  0.25500000920E-02 0.  1.
       -2    1    3    3    0  502  0.12065999281E+04 -0.82993705134E+01  0.22060750975E+04  0.25145018596E+04  0.25500000920E-02 0. -1.
</event>
<event>
 5   0  0.6729577E-07  0.3766892E+04  0.7818609E-02  0.8053297E-01
       -2   -1    0    0    0  501  0.00000000000E+00  0.00000000000E+00  0.17940148645E+04  0.17940148645E+04  0.25500000920E-02 0. -1.
        2   -1    0    0  501    0  0.00000000000E+00  0.00000000000E+00 -0.19773347394E+04  0.19773347394E+04  0.25500000920E-02 0.  1.
    10030    2    1    2    0    0  0.00000000000E+00  0.00000000000E+00 -0.18331987498E+03  0.37713496039E+04  0.37668915114E+04 0.  0.
        3    1    3    3  502    0  0.10353930142E+04  0.10432307355E+03 -0.16633732292E+04  0.19620735224E+04  0.10100000352E+00 0.  1.
       -3    1    3    3    0  502 -0.10353930142E+04 -0.10432307355E+03  0.14800533542E+04  0.18092760815E+04  0.10100000352E+00 0. -1.
</event>
<event>
 5   0  0.2086250E-07  0.3559832E+04  0.7818609E-02  0.8099755E-01
       -1   -1    0    0    0  501  0.00000000000E+00  0.00000000000E+00  0.15724961514E+04  0.15724961514E+04  0.50400001928E-02 0.  1.
        1   -1    0    0  501    0  0.00000000000E+00  0.00000000000E+00 -0.20146959449E+04  0.20146959450E+04  0.50400001928E-02 0. -1.
    10030    2    1    2    0    0  0.00000000000E+00  0.00000000000E+00 -0.44219979354E+03  0.35871920964E+04  0.35598323667E+04 0.  0.
        4    1    3    3  502    0 -0.12734924868E+04 -0.93381247067E+03  0.60637582638E+03  0.16915915878E+04  0.12699999809E+01 0.  1.
       -4    1    3    3    0  502  0.12734924868E+04  0.93381247067E+03 -0.10485756199E+04  0.18956005085E+04  0.12699999809E+01 0. -1.
</event>
<event>
 5   0  0.2193129E-07  0.3657842E+04  0.7818609E-02  0.8077369E-01
        1   -1    0    0  501    0  0.00000000000E+00  0.00000000000E+00  0.11883446013E+04  0.11883446013E+04  0.50400001928E-02 0.  1.
       -1   -1    0    0    0  501  0.00000000000E+00  0.00000000000E+00 -0.28148001710E+04  0.28148001710E+04  0.50400001928E-02 0. -1.
    10030    2    1    2    0    0  0.00000000000E+00  0.00000000000E+00 -0.16264555697E+04  0.40031447723E+04  0.36578423077E+04 0.  0.
        1    1    3    3  502    0  0.83712837463E+01  0.83816936954E+03  0.96575550401E+03  0.12787813198E+04  0.50400001928E-02 0.  1.
       -1    1    3    3    0  502 -0.83712837463E+01 -0.83816936954E+03 -0.25922110738E+04  0.27243634525E+04  0.50400001928E-02 0. -1.
</event>
<event>
 5   0  0.6729577E-07  0.3593318E+04  0.7818609E-02  0.8092024E-01
       -2   -1    0    0    0  501  0.00000000000E+00  0.00000000000E+00  0.15422096704E+04  0.15422096704E+04  0.25500000920E-02 0.  1.
        2   -1    0    0  501    0  0.00000000000E+00  0.00000000000E+00 -0.20930900839E+04  0.20930900839E+04  0.25500000920E-02 0. -1.
    10030    2    1    2    0    0  0.00000000000E+00  0.00000000000E+00 -0.55088041356E+03  0.36352997543E+04  0.35933181147E+04 0.  0.
        3    1    3    3  502    0 -0.78694129642E+03 -0.14111972527E+04 -0.10702585591E+04  0.19380938274E+04  0.10100000352E+00 0. -1.
       -3    1    3    3    0  502  0.78694129642E+03  0.14111972527E+04  0.51937814554E+03  0.16972059269E+04  0.10100000352E+00 0.  1.
</event>
<event>
 5   0  0.6669864E-07  0.3573837E+04  0.7818609E-02  0.8096511E-01
       -2   -1    0    0    0  501  0.00000000000E+00  0.00000000000E+00  0.15406747602E+04  0.15406747602E+04  0.25500000920E-02 0. -1.
        2   -1    0    0  501    0  0.00000000000E+00  0.00000000000E+00 -0.20725186985E+04  0.20725186985E+04  0.25500000920E-02 0.  1.
    10030    2    1    2    0    0  0.00000000000E+00  0.00000000000E+00 -0.53184393829E+03  0.36131934587E+04  0.35738367331E+04 0.  0.
        5    1    3    3  502    0  0.10362032634E+04 -0.14485999544E+04 -0.11977513445E+03  0.17850846489E+04  0.46999998093E+01 0.  1.
       -5    1    3    3    0  502 -0.10362032634E+04  0.14485999544E+04 -0.41206880384E+03  0.18281088097E+04  0.46999998093E+01 0. -1.
</event>
<event>
 5   0  0.2086250E-07  0.3572310E+04  0.7818609E-02  0.8096864E-01
       -1   -1    0    0    0  501  0.00000000000E+00  0.00000000000E+00  0.16223398406E+04  0.16223398406E+04  0.50400001928E-02 0.  1.
        1   -1    0    0  501    0  0.00000000000E+00  0.00000000000E+00 -0.19665118455E+04  0.19665118455E+04  0.50400001928E-02 0. -1.
    10030    2    1    2    0    0  0.00000000000E+00  0.00000000000E+00 -0.34417200489E+03  0.35888516861E+04  0.35723104647E+04 0.  0.
        3    1    3    3  502    0  0.70260284807E+03 -0.58600246530E+03 -0.17132364657E+04  0.19422226570E+04  0.10100000352E+00 0. -1.
       -3    1    3    3    0  502 -0.70260284807E+03  0.58600246530E+03  0.13690644609E+04  0.16466290291E+04  0.10100000352E+00 0.  1.
</event>
<event>
 5   0  0.2086250E-07  0.3590734E+04  0.7818609E-02  0.8092617E-01
       -1   -1    0    0    0  501  0.00000000000E+00  0.00000000000E+00  0.16437438406E+04  0.16437438406E+04  0.50400001928E-02 0.  1.
        1   -1    0    0  501    0  0.00000000000E+00  0.00000000000E+00 -0.19609766493E+04  0.19609766493E+04  0.50400001928E-02 0. -1.
    10030    2    1    2    0    0  0.00000000000E+00  0.00000000000E+00 -0.31723280869E+03  0.36047204900E+04  0.35907343477E+04 0.  0.
        4    1    3    3  502    0  0.24529801449E+03  0.10396387930E+04  0.12900294764E+04  0.16748724126E+04  0.12699999809E+01 0.  1.
       -4    1    3    3    0  502 -0.24529801449E+03 -0.10396387930E+04 -0.16072622851E+04  0.19298480773E+04  0.12699999809E+01 0. -1.
</event>
<event>
 5   0  0.2086250E-07  0.3602721E+04  0.7818609E-02  0.8089869E-01
       -1   -1    0    0    0  501  0.00000000000E+00  0.00000000000E+00  0.12662044855E+04  0.12662044855E+04  0.50400001928E-02 0. -1.
        1   -1    0    0  501    0  0.00000000000E+00  0.00000000000E+00 -0.25626976298E+04  0.25626976298E+04  0.50400001928E-02 0.  1.
    10030    2    1    2    0    0  0.00000000000E+00  0.00000000000E+00 -0.12964931442E+04  0.38289021153E+04  0.36027207684E+04 0.  0.
        2    1    3    3  502    0  0.18924845628E+03 -0.96901934457E+03  0.95302426242E+03  0.13722495083E+04  0.25500000920E-02 0. -1.
       -2    1    3    3    0  502 -0.18924845628E+03  0.96901934457E+03 -0.22495174067E+04  0.24566526070E+04  0.25500000920E-02 0.  1.
</event>
<event>
 5   0  0.6541476E-07  0.3598526E+04  0.7818609E-02  0.8090829E-01
        2   -1    0    0  501    0  0.00000000000E+00  0.00000000000E+00  0.19770974572E+04  0.19770974572E+04  0.25500000920E-02 0.  1.
       -2   -1    0    0    0  501  0.00000000000E+00  0.00000000000E+00 -0.16374246033E+04  0.16374246033E+04  0.25500000920E-02 0. -1.
    10030    2    1    2    0    0  0.00000000000E+00  0.00000000000E+00  0.33967285398E+03  0.36145220605E+04  0.35985263759E+04 0.  0.
        4    1    3    3  502    0 -0.26991108715E+03 -0.12459548735E+04 -0.11054887926E+04  0.16874129978E+04  0.12699999809E+01 0. -1.
       -4    1    3    3    0  502  0.26991108715E+03  0.12459548735E+04  0.14451616466E+04  0.19271090627E+04  0.12699999809E+01 0.  1.
</event>
<event>
 5   0  0.2108068E-07  0.3595799E+04  0.7818609E-02  0.8091455E-01
       -1   -1    0    0    0  501  0.00000000000E+00  0.00000000000E+00  0.15565340019E+04  0.15565340019E+04  0.50400001928E-02 0.  1.
        1   -1    0    0  501    0  0.00000000000E+00  0.00000000000E+00 -0.20766925753E+04  0.20766925753E+04  0.50400001928E-02 0. -1.
    10030    2    1    2    0    0  0.00000000000E+00  0.00000000000E+00 -0.52015857340E+03  0.36332265773E+04  0.35957989961E+04 0.  0.
        5    1    3    3  502    0 -0.17045120061E+04  0.54815874197E+03 -0.42481411508E+03  0.18401978990E+04  0.46999998093E+01 0.  1.
       -5    1    3    3    0  502  0.17045120061E+04 -0.54815874197E+03 -0.95344458315E+02  0.17930286782E+04  0.46999998093E+01 0. -1.
</event>
<event>
 5   0  0.6669864E-07  0.3603182E+04  0.7818609E-02  0.8089763E-01
       -2   -1    0    0    0  501  0.00000000000E+00  0.00000000000E+00  0.12044888601E+04  0.12044888601E+04  0.25500000920E-02 0.  1.
        2   -1    0    0  501    0  0.00000000000E+00  0.00000000000E+00 -0.26946956906E+04  0.26946956906E+04  0.25500000920E-02 0. -1.
    10030    2    1    2    0    0  0.00000000000E+00  0.00000000000E+00 -0.14902068305E+04  0.38991845508E+04  0.36031824493E+04 0.  0.
        5    1    3    3  502    0 -0.29776801481E+03 -0.12198428726E+04 -0.21431419563E+04  0.24839005535E+04  0.46999998093E+01 0. -1.
       -5    1    3    3    0  502  0.29776801481E+03  0.12198428726E+04  0.65293512580E+03  0.14152839973E+04  0.46999998093E+01 0.  1.
</event>
<event>
 5   0  0.2086250E-07  0.3627059E+04  0.7818609E-02  0.8084321E-01
        1   -1    0    0  501    0  0.00000000000E+00  0.00000000000E+00  0.34770210392E+04  0.34770210392E+04  0.50400001928E-02 0.  1.
       -1   -1    0    0    0  501  0.00000000000E+00  0.00000000000E+00 -0.94589306033E+03  0.94589306035E+03  0.50400001928E-02 0. -1.
    10030    2    1    2    0    0  0.00000000000E+00  0.00000000000E+00  0.25311279788E+04  0.44229140995E+04  0.36270594545E+04 0.  0.
        2    1    3    3  502    0  0.23679269978E+03  0.12888803392E+04 -0.26314836104E+03  0.13366115260E+04  0.25500000920E-02 0. -1.
       -2    1    3    3    0  502 -0.23679269978E+03 -0.12888803392E+04  0.27942763399E+04  0.30863025735E+04  0.25500000920E-02 0.  1.
</event>
<event>
 5   0  0.6848661E-07  0.3588577E+04  0.7818609E-02  0.8093113E-01
        2   -1    0    0  501    0  0.00000000000E+00  0.00000000000E+00  0.27046536482E+04  0.27046536482E+04  0.25500000920E-02 0. -1.
       -2   -1    0    0    0  501  0.00000000000E+00  0.00000000000E+00 -0.11903448426E+04  0.11903448426E+04  0.25500000920E-02 0.  1.
    10030    2    1    2    0    0  0.00000000000E+00  0.00000000000E+00  0.15143088056E+04  0.38949984907E+04  0.35885766098E+04 0.  0.
        1    1    3    3  502    0  0.25044075293E+02  0.35489513018E+03 -0.11516766996E+04  0.12053783553E+04  0.50400001928E-02 0.  1.
       -1    1    3    3    0  502 -0.25044075293E+02 -0.35489513018E+03  0.26659855052E+04  0.26896201354E+04  0.50400001928E-02 0. -1.
</event>
<event>
 5   0  0.2108068E-07  0.3352499E+04  0.7818609E-02  0.8149664E-01
       -1   -1    0    0    0  501  0.00000000000E+00  0.00000000000E+00  0.16957974587E+04  0.16957974587E+04  0.50400001928E-02 0. -1.
        1   -1    0    0  501    0  0.00000000000E+00  0.00000000000E+00 -0.16569265479E+04  0.16569265479E+04  0.50400001928E-02 0.  1.
    10030    2    1    2    0    0  0.00000000000E+00  0.00000000000E+00  0.38870910817E+02  0.33527240066E+04  0.33524986677E+04 0.  0.
        5    1    3    3  502    0  0.74622877988E+03 -0.14893993421E+04 -0.16664678853E+03  0.16742045975E+04  0.46999998093E+01 0. -1.
       -5    1    3    3    0  502 -0.74622877988E+03  0.14893993421E+04  0.20551769935E+03  0.16785194091E+04  0.46999998093E+01 0.  1.
</event>
<event>
 5   0  0.2086250E-07  0.3615719E+04  0.7818609E-02  0.8086901E-01
        1   -1    0    0  501    0  0.00000000000E+00  0.00000000000E+00  0.19325445155E+04  0.19325445155E+04  0.50400001928E-02 0. -1.
       -1   -1    0    0    0  501  0.00000000000E+00  0.00000000000E+00 -0.16912189541E+04  0.16912189541E+04  0.50400001928E-02 0.  1.
    10030    2    1    2    0    0  0.00000000000E+00  0.00000000000E+00  0.24132556140E+03  0.36237634697E+04  0.36157189683E+04 0.  0.
        2    1    3    3  502    0  0.37824822207E+03 -0.14537054053E+04  0.11288954157E+04  0.18790252746E+04  0.25500000920E-02 0. -1.
       -2    1    3    3    0  502 -0.37824822207E+03  0.14537054053E+04 -0.88756985427E+03  0.17447381951E+04  0.25500000920E-02 0.  1.
</event>
<event>
 5   0  0.6324216E-07  0.3309766E+04  0.7818609E-02  0.8160415E-01
        2   -1    0    0  501    0  0.00000000000E+00  0.00000000000E+00  0.18843403802E+04  0.18843403802E+04  0.25500000920E-02 0.  1.
       -2   -1    0    0    0  501  0.00000000000E+00  0.00000000000E+00 -0.14533667300E+04  0.14533667300E+04  0.25500000920E-02 0. -1.
    10030    2    1    2    0    0  0.00000000000E+00  0.00000000000E+00  0.43097365019E+03  0.33377071102E+04  0.33097659232E+04 0.  0.
        2    1    3    3  502    0  0.85568302746E+03  0.91610101362E+02  0.16409444493E+04  0.18529124480E+04  0.25500000920E-02 0.  1.
       -2    1    3    3    0  502 -0.85568302746E+03 -0.91610101362E+02 -0.12099707992E+04  0.14847946622E+04  0.25500000920E-02 0. -1.
</event>
<event>
 5   0  0.6324216E-07  0.3587886E+04  0.7818609E-02  0.8093272E-01
        2   -1    0    0  501    0  0.00000000000E+00  0.00000000000E+00  0.18957533679E+04  0.18957533679E+04  0.25500000920E-02 0.  1.
       -2   -1    0    0    0  501  0.00000000000E+00  0.00000000000E+00 -0.16976005198E+04  0.16976005198E+04  0.25500000920E-02 0. -1.
    10030    2    1    2    0    0  0.00000000000E+00  0.00000000000E+00  0.19815284806E+03  0.35933538877E+04  0.35878862316E+04 0.  0.
        2    1    3    3  502    0 -0.14732604378E+04 -0.93703433677E+03  0.51165351587E+03  0.18194282031E+04  0.25500000920E-02 0. -1.
       -2    1    3    3    0  502  0.14732604378E+04  0.93703433677E+03 -0.31350066780E+03  0.17739256846E+04  0.25500000920E-02 0.  1.
</event>
<event>
 5   0  0.6541476E-07  0.3614812E+04  0.7818609E-02  0.8087107E-01
        2   -1    0    0  501    0  0.00000000000E+00  0.00000000000E+00  0.17785974897E+04  0.17785974897E+04  0.25500000920E-02 0. -1.
       -2   -1    0    0    0  501  0.00000000000E+00  0.00000000000E+00 -0.18366812783E+04  0.18366812783E+04  0.25500000920E-02 0.  1.
    10030    2    1    2    0    0  0.00000000000E+00  0.00000000000E+00 -0.58083788540E+02  0.36152787680E+04  0.36148121450E+04 0.  0.
        4    1    3    3  502    0  0.46417541342E+03 -0.49185124396E+03 -0.17053664389E+04  0.18345715479E+04  0.12699999809E+01 0.  1.
       -4    1    3    3    0  502 -0.46417541342E+03  0.49185124396E+03  0.16472826504E+04  0.17807072201E+04  0.12699999809E+01 0. -1.
</event>
<event>
 5   0  0.6324216E-07  0.3624189E+04  0.7818609E-02  0.8084973E-01
       -2   -1    0    0    0  501  0.00000000000E+00  0.00000000000E+00  0.18097301078E+04  0.18097301078E+04  0.25500000920E-02 0.  1.
        2   -1    0    0  501    0  0.00000000000E+00  0.00000000000E+00 -0.18144619885E+04  0.18144619885E+04  0.25500000920E-02 0. -1.
    10030    2    1    2    0    0  0.00000000000E+00  0.00000000000E+00 -0.47318807766E+01  0.36241920963E+04  0.36241890072E+04 0.  0.
        2    1    3    3  502    0  0.62671423547E+03 -0.16260830618E+04  0.49439361289E+03  0.18114474603E+04  0.25500000920E-02 0.  1.
       -2    1    3    3    0  502 -0.62671423547E+03  0.16260830618E+04 -0.49912549367E+03  0.18127446360E+04  0.25500000920E-02 0. -1.
</event>
<event>
 5   0  0.6324216E-07  0.3603482E+04  0.7818609E-02  0.8089694E-01
       -2   -1    0    0    0  501  0.00000000000E+00  0.00000000000E+00  0.13451901439E+04  0.13451901440E+04  0.25500000920E-02 0.  1.
        2   -1    0    0  501    0  0.00000000000E+00  0.00000000000E+00 -0.24132433783E+04  0.24132433783E+04  0.25500000920E-02 0. -1.
    10030    2    1    2    0    0  0.00000000000E+00  0.00000000000E+00 -0.10680532343E+04  0.37584335222E+04  0.36034823199E+04 0.  0.
        2    1    3    3  502    0  0.65894522703E+03 -0.86293731523E+03 -0.20337007476E+04  0.23053868120E+04  0.25500000920E-02 0. -1.
       -2    1    3    3    0  502 -0.65894522703E+03  0.86293731523E+03  0.96564751325E+03  0.14530467102E+04  0.25500000920E-02 0.  1.
</event>
<event>
 5   0  0.6729577E-07  0.3640940E+04  0.7818609E-02  0.8081178E-01
        2   -1    0    0  501    0  0.00000000000E+00  0.00000000000E+00  0.17357928447E+04  0.17357928447E+04  0.25500000920E-02 0. -1.
       -2   -1    0    0    0  501  0.00000000000E+00  0.00000000000E+00 -0.19092777223E+04  0.19092777223E+04  0.25500000920E-02 0.  1.
    10030    2    1    2    0    0  0.00000000000E+00  0.00000000000E+00 -0.17348487765E+03  0.36450705670E+04  0.36409397737E+04 0.  0.
        3    1    3    3  502    0  0.17800573343E+04 -0.34287087870E+03  0.80617931684E+02  0.18145698702E+04  0.10100000352E+00 0. -1.
       -3    1    3    3    0  502 -0.17800573343E+04  0.34287087870E+03 -0.25410280934E+03  0.18305006967E+04  0.10100000352E+00 0.  1.
</event>
<event>
 5   0  0.2086250E-07  0.3607789E+04  0.7818609E-02  0.8088710E-01
        1   -1    0    0  501    0  0.00000000000E+00  0.00000000000E+00  0.15990134581E+04  0.15990134581E+04  0.50400001928E-02 0. -1.
       -1   -1    0    0    0  501  0.00000000000E+00  0.00000000000E+00 -0.20350269788E+04  0.20350269788E+04  0.50400001928E-02 0.  1.
    10030    2    1    2    0    0  0.00000000000E+00  0.00000000000E+00 -0.43601352077E+03  0.36340404369E+04  0.36077890884E+04 0.  0.
        4    1    3    3  502    0  0.17133212492E+04 -0.56321523805E+03 -0.18095861754E+03  0.18125751685E+04  0.12699999809E+01 0. -1.
       -4    1    3    3    0  502 -0.17133212492E+04  0.56321523805E+03 -0.25505490324E+03  0.18214652684E+04  0.12699999809E+01 0.  1.
</event>
<event>
 5   0  0.2193129E-07  0.3618258E+04  0.7818609E-02  0.8086322E-01
        1   -1    0    0  501    0  0.00000000000E+00  0.00000000000E+00  0.11672896663E+04  0.11672896663E+04  0.50400001928E-02 0.  1.
       -1   -1    0    0    0  501  0.00000000000E+00  0.00000000000E+00 -0.28038863173E+04  0.28038863174E+04  0.50400001928E-02 0. -1.
    10030    2    1    2    0    0  0.00000000000E+00  0.00000000000E+00 -0.16365966510E+04  0.39711759837E+04  0.36182578813E+04 0.  0.
        1    1    3    3  502    0 -0.89420897417E+02 -0.14393065597E+04  0.38065749736E+03  0.14914756452E+04  0.50400001928E-02 0.  1.
       -1    1    3    3    0  502  0.89420897417E+02  0.14393065597E+04 -0.20172541484E+04  0.24797003385E+04  0.50400001928E-02 0. -1.
</event>
<event>
 5   0  0.2086250E-07  0.3540250E+04  0.7818609E-02  0.8104317E-01
       -1   -1    0    0    0  501  0.00000000000E+00  0.00000000000E+00  0.15438031376E+04  0.15438031376E+04  0.50400001928E-02 0.  1.
        1   -1    0    0  501    0  0.00000000000E+00  0.00000000000E+00 -0.20296255503E+04  0.20296255503E+04  0.50400001928E-02 0. -1.
    10030    2    1    2    0    0  0.00000000000E+00  0.00000000000E+00 -0.48582241266E+03  0.35734286879E+04  0.35402498741E+04 0.  0.
        3    1    3    3  502    0 -0.66404773913E+03  0.16816958005E+02 -0.18990502793E+04  0.20118733020E+04  0.10100000352E+00 0. -1.
       -3    1    3    3    0  502  0.66404773913E+03 -0.16816958005E+02  0.14132278666E+04  0.15615553859E+04  0.10100000352E+00 0.  1.
</event>
<event>
 5   0  0.2086250E-07  0.3580440E+04  0.7818609E-02  0.8094987E-01
        1   -1    0    0  501    0  0.00000000000E+00  0.00000000000E+00  0.20035072444E+04  0.20035072444E+04  0.50400001928E-02 0.  1.
       -1   -1    0    0    0  501  0.00000000000E+00  0.00000000000E+00 -0.15996384404E+04  0.15996384404E+04  0.50400001928E-02 0. -1.
    10030    2    1    2    0    0  0.00000000000E+00  0.00000000000E+00  0.40386880408E+03  0.36031456848E+04  0.35804397516E+04 0.  0.
        2    1    3    3  502    0 -0.12184876710E+03  0.16885009110E+04  0.78786792632E+03  0.18672488634E+04  0.25500000920E-02 0.  1.
       -2    1    3    3    0  502  0.12184876710E+03 -0.16885009110E+04 -0.38399912224E+03  0.17358968214E+04  0.25500000920E-02 0. -1.
</event>
<event>
 5   0  0.2086250E-07  0.3485087E+04  0.7818609E-02  0.8117333E-01
       -1   -1    0    0    0  501  0.00000000000E+00  0.00000000000E+00  0.25757191626E+04  0.25757191626E+04  0.50400001928E-02 0. -1.
        1   -1    0    0  501    0  0.00000000000E+00  0.00000000000E+00 -0.11788775817E+04  0.11788775817E+04  0.50400001928E-02 0.  1.
    10030    2    1    2    0    0  0.00000000000E+00  0.00000000000E+00  0.13968415809E+04  0.37545967443E+04  0.34850868440E+04 0.  0.
        3    1    3    3  502    0  0.75298986826E+02 -0.56777948856E+03 -0.10745730474E+04  0.12176825241E+04  0.10100000352E+00 0.  1.
       -3    1    3    3    0  502 -0.75298986826E+02  0.56777948856E+03  0.24714146283E+04  0.25369142201E+04  0.10100000352E+00 0. -1.
</event>
<event>
 5   0  0.6541476E-07  0.3602254E+04  0.7818609E-02  0.8089976E-01
       -2   -1    0    0    0  501  0.00000000000E+00  0.00000000000E+00  0.20208348986E+04  0.20208348986E+04  0.25500000920E-02 0. -1.
        2   -1    0    0  501    0  0.00000000000E+00  0.00000000000E+00 -0.16053063426E+04  0.16053063426E+04  0.25500000920E-02 0.  1.
    10030    2    1    2    0    0  0.00000000000E+00  0.00000000000E+00  0.41552855603E+03  0.36261412413E+04  0.36022543387E+04 0.  0.
        4    1    3    3  502    0 -0.14787532268E+04  0.43448991381E+02  0.12419318928E+04  0.19315784633E+04  0.12699999809E+01 0. -1.
       -4    1    3    3    0  502  0.14787532268E+04 -0.43448991381E+02 -0.82640333677E+03  0.16945627780E+04  0.12699999809E+01 0.  1.
</event>
<event>
 5   0  0.6541476E-07  0.3601895E+04  0.7818609E-02  0.8090058E-01
        2   -1    0    0  501    0  0.00000000000E+00  0.00000000000E+00  0.22243737195E+04  0.22243737195E+04  0.25500000920E-02 0.  1.
       -2   -1    0    0    0  501  0.00000000000E+00  0.00000000000E+00 -0.14581235460E+04  0.14581235461E+04  0.25500000920E-02 0. -1.
    10030    2    1    2    0    0  0.00000000000E+00  0.00000000000E+00  0.76625017348E+03  0.36824972656E+04  0.36018948878E+04 0.  0.
        4    1    3    3  502    0  0.25802947118E+03  0.12991930076E+04  0.16306473524E+04  0.21008317590E+04  0.12699999809E+01 0.  1.
       -4    1    3    3    0  502 -0.25802947118E+03 -0.12991930076E+04 -0.86439717888E+03  0.15816655066E+04  0.12699999809E+01 0. -1.
</event>
<event>
 5   0  0.6324216E-07  0.3582261E+04  0.7818609E-02  0.8094567E-01
        2   -1    0    0  501    0  0.00000000000E+00  0.00000000000E+00  0.24922522763E+04  0.24922522763E+04  0.25500000920E-02 0.  1.
       -2   -1    0    0    0  501  0.00000000000E+00  0.00000000000E+00 -0.12872489268E+04  0.12872489268E+04  0.25500000920E-02 0. -1.
    10030    2    1    2    0    0  0.00000000000E+00  0.00000000000E+00  0.12050033495E+04  0.37795012032E+04  0.35822613350E+04 0.  0.
        2    1    3    3  502    0 -0.20016845261E+03  0.59041145467E+03  0.23740906203E+04  0.24545792651E+04  0.25500000920E-02 0.  1.
       -2    1    3    3    0  502  0.20016845261E+03 -0.59041145467E+03 -0.11690872708E+04  0.13249219381E+04  0.25500000920E-02 0. -1.
</event>
<event>
 5   0  0.2086250E-07  0.3514538E+04  0.7818609E-02  0.8110353E-01
       -3   -1    0    0    0  501  0.00000000000E+00  0.00000000000E+00  0.12963040150E+04  0.12963040189E+04  0.10100000352E+00 0.  1.
        3   -1    0    0  501    0  0.00000000000E+00  0.00000000000E+00 -0.23821524732E+04  0.23821524754E+04  0.10100000352E+00 0. -1.
    10030    2    1    2    0    0  0.00000000000E+00  0.00000000000E+00 -0.10858484582E+04  0.36784564943E+04  0.35145377087E+04 0.  0.
        5    1    3    3  502    0 -0.78203644136E+03  0.10114028723E+04 -0.18047465551E+04  0.22117072555E+04  0.46999998093E+01 0. -1.
       -5    1    3    3    0  502  0.78203644136E+03 -0.10114028723E+04  0.71889809688E+03  0.14667492388E+04  0.46999998093E+01 0.  1.
</event>
<event>
 5   0  0.2086250E-07  0.3551831E+04  0.7818609E-02  0.8101615E-01
       -1   -1    0    0    0  501  0.00000000000E+00  0.00000000000E+00  0.11729280051E+04  0.11729280051E+04  0.50400001928E-02 0.  1.
        1   -1    0    0  501    0  0.00000000000E+00  0.00000000000E+00 -0.26888910866E+04  0.26888910866E+04  0.50400001928E-02 0. -1.
    10030    2    1    2    0    0  0.00000000000E+00  0.00000000000E+00 -0.15159630815E+04  0.38618190917E+04  0.35518308846E+04 0.  0.
        4    1    3    3  502    0  0.88619772428E+02  0.12914900503E+04 -0.20798484758E+04  0.24498104639E+04  0.12699999809E+01 0. -1.
       -4    1    3    3    0  502 -0.88619772428E+02 -0.12914900503E+04  0.56388539430E+03  0.14120086278E+04  0.12699999809E+01 0.  1.
</event>
<event>
 5   0  0.2086250E-07  0.3611842E+04  0.7818609E-02  0.8087785E-01
       -1   -1    0    0    0  501  0.00000000000E+00  0.00000000000E+00  0.96942846085E+03  0.96942846087E+03  0.50400001928E-02 0.  1.
        1   -1    0    0  501    0  0.00000000000E+00  0.00000000000E+00 -0.33641994048E+04  0.33641994048E+04  0.50400001928E-02 0. -1.
    10030    2    1    2    0    0  0.00000000000E+00  0.00000000000E+00 -0.23947709439E+04  0.43336278656E+04  0.36118419960E+04 0.  0.
        3    1    3    3  502    0  0.30646569376E+03 -0.16002305725E+04 -0.21319447194E+04  0.26832531381E+04  0.10100000352E+00 0.  1.
       -3    1    3    3    0  502 -0.30646569376E+03  0.16002305725E+04 -0.26282622455E+03  0.16503747275E+04  0.10100000352E+00 0. -1.
</event>
<event>
 5   0  0.2086250E-07  0.3272913E+04  0.7818609E-02  0.8169822E-01
       -1   -1    0    0    0  501  0.00000000000E+00  0.00000000000E+00  0.18075721682E+04  0.18075721682E+04  0.50400001928E-02 0. -1.
        1   -1    0    0  501    0  0.00000000000E+00  0.00000000000E+00 -0.14815401204E+04  0.14815401204E+04  0.50400001928E-02 0.  1.
    10030    2    1    2    0    0  0.00000000000E+00  0.00000000000E+00  0.32603204783E+03  0.32891122886E+04  0.32729134958E+04 0.  0.
        4    1    3    3  502    0 -0.18410614087E+03  0.12572508185E+04  0.11993397433E+04  0.17472813524E+04  0.12699999809E+01 0. -1.
       -4    1    3    3    0  502  0.18410614087E+03 -0.12572508185E+04 -0.87330769552E+03  0.15418309362E+04  0.12699999809E+01 0.  1.
</event>
<event>
 5   0  0.2086250E-07  0.3493073E+04  0.7818609E-02  0.8115433E-01
       -1   -1    0    0    0  501  0.00000000000E+00  0.00000000000E+00  0.13257720869E+04  0.13257720869E+04  0.50400001928E-02 0.  1.
        1   -1    0    0  501    0  0.00000000000E+00  0.00000000000E+00 -0.23008404670E+04  0.23008404670E+04  0.50400001928E-02 0. -1.
    10030    2    1    2    0    0  0.00000000000E+00  0.00000000000E+00 -0.97506838013E+03  0.36266125539E+04  0.34930731842E+04 0.  0.
        4    1    3    3  502    0  0.33782118434E+03 -0.13476398924E+04  0.61128967293E+03  0.15178712427E+04  0.12699999809E+01 0.  1.
       -4    1    3    3    0  502 -0.33782118434E+03  0.13476398924E+04 -0.15863580531E+04  0.21087413112E+04  0.12699999809E+01 0. -1.
</event>
<event>
 5   0  0.6848661E-07  0.3614050E+04  0.7818609E-02  0.8087281E-01
       -2   -1    0    0    0  501  0.00000000000E+00  0.00000000000E+00  0.15023622865E+04  0.15023622865E+04  0.25500000920E-02 0. -1.
        2   -1    0    0  501    0  0.00000000000E+00  0.00000000000E+00 -0.21734702949E+04  0.21734702949E+04  0.25500000920E-02 0.  1.
    10030    2    1    2    0    0  0.00000000000E+00  0.00000000000E+00 -0.67110800841E+03  0.36758325815E+04  0.36140502498E+04 0.  0.
        1    1    3    3  502    0  0.23158302850E+03  0.17874075878E+04 -0.46771069308E+03  0.18620445420E+04  0.50400001928E-02 0.  1.
       -1    1    3    3    0  502 -0.23158302850E+03 -0.17874075878E+04 -0.20339731533E+03  0.18137880394E+04  0.50400001928E-02 0. -1.
</event>
<event>
 5   0  0.6324216E-07  0.3567728E+04  0.7818609E-02  0.8097924E-01
        2   -1    0    0  501    0  0.00000000000E+00  0.00000000000E+00  0.24239041105E+04  0.24239041105E+04  0.25500000920E-02 0.  1.
       -2   -1    0    0    0  501  0.00000000000E+00  0.00000000000E+00 -0.13128283609E+04  0.13128283609E+04  0.25500000920E-02 0. -1.
    10030    2    1    2    0    0  0.00000000000E+00  0.00000000000E+00  0.11110757496E+04  0.37367324713E+04  0.35677276018E+04 0.  0.
        2    1    3    3  502    0  0.46297806636E+03  0.11260522595E+04 -0.80999690519E+03  0.14623396895E+04  0.25500000920E-02 0. -1.
       -2    1    3    3    0  502 -0.46297806636E+03 -0.11260522595E+04  0.19210726548E+04  0.22743927819E+04  0.25500000920E-02 0.  1.
</event>
<event>
 5   0  0.6729577E-07  0.3578396E+04  0.7818609E-02  0.8095458E-01
        2   -1    0    0  501    0  0.00000000000E+00  0.00000000000E+00  0.17942334176E+04  0.17942334176E+04  0.25500000920E-02 0. -1.
       -2   -1    0    0    0  501  0.00000000000E+00  0.00000000000E+00 -0.17841762664E+04  0.17841762664E+04  0.25500000920E-02 0.  1.
    10030    2    1    2    0    0  0.00000000000E+00  0.00000000000E+00  0.10057151130E+02  0.35784096840E+04  0.35783955511E+04 0.  0.
        3    1    3    3  502    0  0.14420930466E+04  0.24569805650E+03 -0.10251350825E+04  0.17863095582E+04  0.10100000352E+00 0.  1.
       -3    1    3    3    0  502 -0.14420930466E+04 -0.24569805650E+03  0.10351922336E+04  0.17921001258E+04  0.10100000352E+00 0. -1.
</event>
<event>
 5   0  0.6669864E-07  0.3441441E+04  0.7818609E-02  0.8127810E-01
       -2   -1    0    0    0  501  0.00000000000E+00  0.00000000000E+00  0.17406155875E+04  0.17406155875E+04  0.25500000920E-02 0. -1.
        2   -1    0    0  501    0  0.00000000000E+00  0.00000000000E+00 -0.17010527140E+04  0.17010527140E+04  0.25500000920E-02 0.  1.
    10030    2    1    2    0    0  0.00000000000E+00  0.00000000000E+00  0.39562873524E+02  0.34416683015E+04  0.34414409013E+04 0.  0.
        5    1    3    3  502    0  0.10328575758E+04 -0.12482128543E+04  0.59949782126E+03  0.17274981416E+04  0.46999998093E+01 0. -1.
       -5    1    3    3    0  502 -0.10328575758E+04  0.12482128543E+04 -0.55993494774E+03  0.17141701599E+04  0.46999998093E+01 0.  1.
</event>
<event>
 5   0  0.2108068E-07  0.3586740E+04  0.7818609E-02  0.8093536E-01
       -1   -1    0    0    0  501  0.00000000000E+00  0.00000000000E+00  0.17145735121E+04  0.17145735121E+04  0.50400001928E-02 0. -1.
        1   -1    0    0  501    0  0.00000000000E+00  0.00000000000E+00 -0.18757880790E+04  0.18757880790E+04  0.50400001928E-02 0.  1.
    10030    2    1    2    0    0  0.00000000000E+00  0.00000000000E+00 -0.16121456691E+03  0.35903615911E+04  0.35867403333E+04 0.  0.
        5    1    3    3  502    0 -0.17356556235E+04  0.44372593608E+03  0.17029506798E+01  0.17914848980E+04  0.46999998093E+01 0. -1.
       -5    1    3    3    0  502  0.17356556235E+04 -0.44372593608E+03 -0.16291751759E+03  0.17988766932E+04  0.46999998093E+01 0.  1.
</event>
<event>
 5   0  0.2086250E-07  0.3669781E+04  0.7818609E-02  0.8074692E-01
       -1   -1    0    0    0  501  0.00000000000E+00  0.00000000000E+00  0.19424151641E+04  0.19424151641E+04  0.50400001928E-02 0. -1.
        1   -1    0    0  501    0  0.00000000000E+00  0.00000000000E+00 -0.17333179145E+04  0.17333179145E+04  0.50400001928E-02 0.  1.
    10030    2    1    2    0    0  0.00000000000E+00  0.00000000000E+00  0.20909724960E+03  0.36757330786E+04  0.36697809206E+04 0.  0.
        2    1    3    3  502    0 -0.16345342541E+04  0.60559641109E+03 -0.46941986564E+03  0.18052158462E+04  0.25500000920E-02 0. -1.
       -2    1    3    3    0  502  0.16345342541E+04 -0.60559641109E+03  0.67851711523E+03  0.18705172324E+04  0.25500000920E-02 0.  1.
</event>
<event>
 5   0  0.2108068E-07  0.3605163E+04  0.7818609E-02  0.8089310E-01
        1   -1    0    0  501    0  0.00000000000E+00  0.00000000000E+00  0.12691667253E+04  0.12691667253E+04  0.50400001928E-02 0. -1.
       -1   -1    0    0    0  501  0.00000000000E+00  0.00000000000E+00 -0.25601839910E+04  0.25601839910E+04  0.50400001928E-02 0.  1.
    10030    2    1    2    0    0  0.00000000000E+00  0.00000000000E+00 -0.12910172657E+04  0.38293507163E+04  0.36051631487E+04 0.  0.
        5    1    3    3  502    0 -0.65891469308E+03 -0.10052088385E+04  0.78140767525E+03  0.14336085333E+04  0.46999998093E+01 0. -1.
       -5    1    3    3    0  502  0.65891469308E+03  0.10052088385E+04 -0.20724249409E+04  0.23957421830E+04  0.46999998093E+01 0.  1.
</event>
<event>
 5   0  0.6324216E-07  0.3585817E+04  0.7818609E-02  0.8093748E-01
        2   -1    0    0  501    0  0.00000000000E+00  0.00000000000E+00  0.12514445154E+04  0.12514445154E+04  0.25500000920E-02 0.  1.
       -2   -1    0    0    0  501  0.00000000000E+00  0.00000000000E+00 -0.25686477871E+04  0.25686477871E+04  0.25500000920E-02 0. -1.
    10030    2    1    2    0    0  0.00000000000E+00  0.00000000000E+00 -0.13172032717E+04  0.38200923026E+04  0.35858166073E+04 0.  0.
        2    1    3    3  502    0 -0.47573121908E+02  0.20623625497E+03 -0.25552921771E+04  0.25640426489E+04  0.25500000920E-02 0. -1.
       -2    1    3    3    0  502  0.47573121908E+02 -0.20623625497E+03  0.12380889054E+04  0.12560496537E+04  0.25500000920E-02 0.  1.
</event>
<event>
 5   0  0.6848661E-07  0.3641253E+04  0.7818609E-02  0.8081107E-01
       -2   -1    0    0    0  501  0.00000000000E+00  0.00000000000E+00  0.26474270912E+04  0.26474270912E+04  0.25500000920E-02 0. -1.
        2   -1    0    0  501    0  0.00000000000E+00  0.00000000000E+00 -0.12520387615E+04  0.12520387615E+04  0.25500000920E-02 0.  1.
    10030    2    1    2    0    0  0.00000000000E+00  0.00000000000E+00  0.13953883297E+04  0.38994658527E+04  0.36412532658E+04 0.  0.
        1    1    3    3  502    0 -0.12224710690E+04 -0.12785766497E+04  0.11589178947E+04  0.21147776362E+04  0.50400001928E-02 0. -1.
       -1    1    3    3    0  502  0.12224710690E+04  0.12785766497E+04  0.23647043500E+03  0.17846882166E+04  0.50400001928E-02 0.  1.
</event>
<event>
 5   0  0.6848661E-07  0.3605019E+04  0.7818609E-02  0.8089343E-01
        2   -1    0    0  501    0  0.00000000000E+00  0.00000000000E+00  0.21097980704E+04  0.21097980704E+04  0.25500000920E-02 0. -1.
       -2   -1    0    0    0  501  0.00000000000E+00  0.00000000000E+00 -0.15399772852E+04  0.15399772852E+04  0.25500000920E-02 0.  1.
    10030    2    1    2    0    0  0.00000000000E+00  0.00000000000E+00  0.56982078525E+03  0.36497753556E+04  0.36050193368E+04 0.  0.
        1    1    3    3  502    0  0.84813341743E+03 -0.10699670200E+04 -0.90650943946E+03  0.16388773845E+04  0.50400001928E-02 0.  1.
       -1    1    3    3    0  502 -0.84813341743E+03  0.10699670200E+04  0.14763302247E+04  0.20108979711E+04  0.50400001928E-02 0. -1.
</event>
<event>
 5   0  0.6729577E-07  0.3742685E+04  0.7818609E-02  0.8058568E-01
        2   -1    0    0  501    0  0.00000000000E+00  0.00000000000E+00  0.29022086366E+04  0.29022086366E+04  0.25500000920E-02 0.  1.
       -2   -1    0    0    0  501  0.00000000000E+00  0.00000000000E+00 -0.12066408680E+04  0.12066408680E+04  0.25500000920E-02 0. -1.
    10030    2    1    2    0    0  0.00000000000E+00  0.00000000000E+00  0.16955677686E+04  0.41088495046E+04  0.37426854254E+04 0.  0.
        3    1    3    3  502    0  0.17003343241E+04  0.41443106946E+03  0.15752048172E+04  0.23546040328E+04  0.10100000352E+00 0. -1.
       -3    1    3    3    0  502 -0.17003343241E+04 -0.41443106946E+03  0.12036295138E+03  0.17542454718E+04  0.10100000352E+00 0.  1.
</event>
<event>
 5   0  0.2086250E-07  0.3481283E+04  0.7818609E-02  0.8118240E-01
       -1   -1    0    0    0  501  0.00000000000E+00  0.00000000000E+00  0.19812401262E+04  0.19812401262E+04  0.50400001928E-02 0. -1.
        1   -1    0    0  501    0  0.00000000000E+00  0.00000000000E+00 -0.15292604712E+04  0.15292604712E+04  0.50400001928E-02 0.  1.
    10030    2    1    2    0    0  0.00000000000E+00  0.00000000000E+00  0.45197965502E+03  0.35105005974E+04  0.34812826423E+04 0.  0.
        4    1    3    3  502    0 -0.10757623157E+04  0.98748645531E+03  0.11812719272E+04  0.18782436046E+04  0.12699999809E+01 0. -1.
       -4    1    3    3    0  502  0.10757623157E+04 -0.98748645531E+03 -0.72929227223E+03  0.16322569928E+04  0.12699999809E+01 0.  1.
</event>
<event>
 5   0  0.6729577E-07  0.3982416E+04  0.7818609E-02  0.8008103E-01
        2   -1    0    0  501    0  0.00000000000E+00  0.00000000000E+00  0.18343196782E+04  0.18343196782E+04  0.25500000920E-02 0. -1.
       -2   -1    0    0    0  501  0.00000000000E+00  0.00000000000E+00 -0.21615148205E+04  0.21615148205E+04  0.25500000920E-02 0.  1.
    10030    2    1    2    0    0  0.00000000000E+00  0.00000000000E+00 -0.32719514232E+03  0.39958344987E+04  0.39824159350E+04 0.  0.
        3    1    3    3  502    0 -0.46789253014E+03 -0.18804941372E+04  0.29590569880E+03  0.19602912571E+04  0.10100000352E+00 0.  1.
       -3    1    3    3    0  502  0.46789253014E+03  0.18804941372E+04 -0.62310084112E+03  0.20355432416E+04  0.10100000352E+00 0. -1.
</event>
<event>
 5   0  0.2086250E-07  0.3477883E+04  0.7818609E-02  0.8119051E-01
       -1   -1    0    0    0  501  0.00000000000E+00  0.00000000000E+00  0.18743617682E+04  0.18743617682E+04  0.50400001928E-02 0. -1.
        1   -1    0    0  501    0  0.00000000000E+00  0.00000000000E+00 -0.16133050697E+04  0.16133050697E+04  0.50400001928E-02 0.  1.
    10030    2    1    2    0    0  0.00000000000E+00  0.00000000000E+00  0.26105669844E+03  0.34876668379E+04  0.34778828865E+04 0.  0.
        2    1    3    3  502    0  0.13621372311E+04 -0.56455545359E+03 -0.79389825193E+03  0.16746388062E+04  0.25500000920E-02 0.  1.
       -2    1    3    3    0  502 -0.13621372311E+04  0.56455545359E+03  0.10549549504E+04  0.18130280318E+04  0.25500000920E-02 0. -1.
</event>
<event>
 5   0  0.2086250E-07  0.3608901E+04  0.7818609E-02  0.8088456E-01
       -4   -1    0    0    0  501  0.00000000000E+00  0.00000000000E+00  0.20096924721E+04  0.20096928734E+04  0.12699999809E+01 0. -1.
        4   -1    0    0  501    0  0.00000000000E+00  0.00000000000E+00 -0.16201678982E+04  0.16201683959E+04  0.12699999809E+01 0.  1.
    10030    2    1    2    0    0  0.00000000000E+00  0.00000000000E+00  0.38952457399E+03  0.36298612693E+04  0.36089005862E+04 0.  0.
        2    1    3    3  502    0  0.89528319394E+02 -0.17653879890E+04  0.55940174725E+03  0.18540605132E+04  0.25500000920E-02 0. -1.
       -2    1    3    3    0  502 -0.89528319394E+02  0.17653879890E+04 -0.16987717325E+03  0.17758007562E+04  0.25500000920E-02 0.  1.
</event>
<event>
 5   0  0.6729577E-07  0.3634941E+04  0.7818609E-02  0.8082535E-01
       -2   -1    0    0    0  501  0.00000000000E+00  0.00000000000E+00  0.15004725530E+04  0.15004725530E+04  0.25500000920E-02 0. -1.
        2   -1    0    0  501    0  0.00000000000E+00  0.00000000000E+00 -0.22014397066E+04  0.22014397066E+04  0.25500000920E-02 0.  1.
    10030    2    1    2    0    0  0.00000000000E+00  0.00000000000E+00 -0.70096715359E+03  0.37019122597E+04  0.36349414614E+04 0.  0.
        3    1    3    3  502    0 -0.17051308520E+03 -0.92634828266E+03 -0.19334712168E+04  0.21506991444E+04  0.10100000352E+00 0. -1.
       -3    1    3    3    0  502  0.17051308520E+03  0.92634828266E+03  0.12325040632E+04  0.15512131153E+04  0.10100000352E+00 0.  1.
</event>
<event>
 5   0  0.2086250E-07  0.3671101E+04  0.7818609E-02  0.8074396E-01
       -1   -1    0    0    0  501  0.00000000000E+00  0.00000000000E+00  0.14451304171E+04  0.14451304171E+04  0.50400001928E-02 0. -1.
        1   -1    0    0  501    0  0.00000000000E+00  0.00000000000E+00 -0.23314480299E+04  0.23314480299E+04  0.50400001928E-02 0.  1.
    10030    2    1    2    0    0  0.00000000000E+00  0.00000000000E+00 -0.88631761278E+03  0.37765784470E+04  0.36711014499E+04 0.  0.
        2    1    3    3  502    0  0.31780994020E+03  0.15645393268E+04 -0.13749762379E+04  0.21069755855E+04  0.25500000920E-02 0.  1.
       -2    1    3    3    0  502 -0.31780994020E+03 -0.15645393268E+04  0.48865862509E+03  0.16696028615E+04  0.25500000920E-02 0. -1.
</event>
<event>
 5   0  0.2086250E-07  0.3617843E+04  0.7818609E-02  0.8086417E-01
       -1   -1    0    0    0  501  0.00000000000E+00  0.00000000000E+00  0.12317631766E+04  0.12317631766E+04  0.50400001928E-02 0.  1.
        1   -1    0    0  501    0  0.00000000000E+00  0.00000000000E+00 -0.26565149750E+04  0.26565149750E+04  0.50400001928E-02 0. -1.
    10030    2    1    2    0    0  0.00000000000E+00  0.00000000000E+00 -0.14247517984E+04  0.38882781516E+04  0.36178431831E+04 0.  0.
        2    1    3    3  502    0  0.92044234476E+02  0.49404195362E+03 -0.25799839077E+04  0.26284722858E+04  0.25500000920E-02 0. -1.
       -2    1    3    3    0  502 -0.92044234476E+02 -0.49404195362E+03  0.11552321093E+04  0.12598058658E+04  0.25500000920E-02 0.  1.
</event>
<event>
 5   0  0.2086250E-07  0.3610578E+04  0.7818609E-02  0.8088073E-01
       -3   -1    0    0    0  501  0.00000000000E+00  0.00000000000E+00  0.17770248014E+04  0.17770248042E+04  0.10100000352E+00 0.  1.
        3   -1    0    0  501    0  0.00000000000E+00  0.00000000000E+00 -0.18340029827E+04  0.18340029854E+04  0.10100000352E+00 0. -1.
    10030    2    1    2    0    0  0.00000000000E+00  0.00000000000E+00 -0.56978181298E+02  0.36110277897E+04  0.36105782341E+04 0.  0.
        4    1    3    3  502    0  0.10682010072E+04 -0.25432453279E+02 -0.14837877831E+04  0.18284769617E+04  0.12699999809E+01 0. -1.
       -4    1    3    3    0  502 -0.10682010072E+04  0.25432453279E+02  0.14268096018E+04  0.17825508279E+04  0.12699999809E+01 0.  1.
</event>
<event>
 5   0  0.6324216E-07  0.3629366E+04  0.7818609E-02  0.8083798E-01
       -2   -1    0    0    0  501  0.00000000000E+00  0.00000000000E+00  0.14114684437E+04  0.14114684437E+04  0.25500000920E-02 0. -1.
        2   -1    0    0  501    0  0.00000000000E+00  0.00000000000E+00 -0.23330843753E+04  0.23330843753E+04  0.25500000920E-02 0.  1.
    10030    2    1    2    0    0  0.00000000000E+00  0.00000000000E+00 -0.92161593160E+03  0.37445528189E+04  0.36293663205E+04 0.  0.
        2    1    3    3  502    0 -0.17559299871E+04  0.35018548172E+03 -0.15621823135E+03  0.17973102478E+04  0.25500000920E-02 0. -1.
       -2    1    3    3    0  502  0.17559299871E+04 -0.35018548172E+03 -0.76539770025E+03  0.19472425711E+04  0.25500000920E-02 0.  1.
</event>
<event>
 5   0  0.6324216E-07  0.3694251E+04  0.7818609E-02  0.8069237E-01
        2   -1    0    0  501    0  0.00000000000E+00  0.00000000000E+00  0.19421373716E+04  0.19421373716E+04  0.25500000920E-02 0. -1.
       -2   -1    0    0    0  501  0.00000000000E+00  0.00000000000E+00 -0.17567615453E+04  0.17567615454E+04  0.25500000920E-02 0.  1.
    10030    2    1    2    0    0  0.00000000000E+00  0.00000000000E+00  0.18537582622E+03  0.36988989169E+04  0.36942508037E+04 0.  0.
        2    1    3    3  502    0 -0.56549650095E+03 -0.17556611845E+04 -0.61264957947E+01  0.18444972272E+04  0.25500000920E-02 0.  1.
       -2    1    3    3    0  502  0.56549650095E+03  0.17556611845E+04  0.19150232202E+03  0.18544016897E+04  0.25500000920E-02 0. -1.
</event>
<event>
 5   0  0.2086250E-07  0.3557532E+04  0.7818609E-02  0.8100289E-01
        1   -1    0    0  501    0  0.00000000000E+00  0.00000000000E+00  0.25597038410E+04  0.25597038410E+04  0.50400001928E-02 0.  1.
       -1   -1    0    0    0  501  0.00000000000E+00  0.00000000000E+00 -0.12360840839E+04  0.12360840839E+04  0.50400001928E-02 0. -1.
    10030    2    1    2    0    0  0.00000000000E+00  0.00000000000E+00  0.13236197571E+04  0.37957879249E+04  0.35575323905E+04 0.  0.
        3    1    3    3  502    0 -0.83658175051E+03 -0.15564693578E+04  0.87928193887E+03  0.19737281032E+04  0.10100000352E+00 0.  1.
       -3    1    3    3    0  502  0.83658175051E+03  0.15564693578E+04  0.44433781819E+03  0.18220598217E+04  0.10100000352E+00 0. -1.
</event>
<event>
 5   0  0.6541476E-07  0.3602317E+04  0.7818609E-02  0.8089961E-01
        2   -1    0    0  501    0  0.00000000000E+00  0.00000000000E+00  0.26771378462E+04  0.26771378462E+04  0.25500000920E-02 0. -1.
       -2   -1    0    0    0  501  0.00000000000E+00  0.00000000000E+00 -0.12118058318E+04  0.12118058318E+04  0.25500000920E-02 0.  1.
    10030    2    1    2    0    0  0.00000000000E+00  0.00000000000E+00  0.14653320143E+04  0.38889436780E+04  0.36023166183E+04 0.  0.
        4    1    3    3  502    0  0.37926035750E+03 -0.15221082691E+04  0.16882616507E+04  0.23045348806E+04  0.12699999809E+01 0. -1.
       -4    1    3    3    0  502 -0.37926035750E+03  0.15221082691E+04 -0.22292963633E+03  0.15844087974E+04  0.12699999809E+01 0.  1.
</event>
<event>
 5   0  0.2193129E-07  0.3671567E+04  0.7818609E-02  0.8074292E-01
        1   -1    0    0  501    0  0.00000000000E+00  0.00000000000E+00  0.19003381424E+04  0.19003381424E+04  0.50400001928E-02 0.  1.
       -1   -1    0    0    0  501  0.00000000000E+00  0.00000000000E+00 -0.17734213865E+04  0.17734213865E+04  0.50400001928E-02 0. -1.
    10030    2    1    2    0    0  0.00000000000E+00  0.00000000000E+00  0.12691675584E+03  0.36737595289E+04  0.36715665884E+04 0.  0.
        1    1    3    3  502    0  0.11324257942E+04 -0.10677978585E+02 -0.13822568762E+04  0.17869348814E+04  0.50400001928E-02 0. -1.
       -1    1    3    3    0  502 -0.11324257942E+04  0.10677978585E+02  0.15091736320E+04  0.18868246475E+04  0.50400001928E-02 0.  1.
</event>
<event>
 5   0  0.6324216E-07  0.3595688E+04  0.7818609E-02  0.8091480E-01
       -2   -1    0    0    0  501  0.00000000000E+00  0.00000000000E+00  0.13542258614E+04  0.13542258614E+04  0.25500000920E-02 0. -1.
        2   -1    0    0  501    0  0.00000000000E+00  0.00000000000E+00 -0.23867824177E+04  0.23867824178E+04  0.25500000920E-02 0.  1.
    10030    2    1    2    0    0  0.00000000000E+00  0.00000000000E+00 -0.10325565563E+04  0.37410082792E+04  0.35956876815E+04 0.  0.
        2    1    3    3  502    0  0.16336355291E+04 -0.17631028242E+03  0.24286284079E+03  0.16609734246E+04  0.25500000920E-02 0. -1.
       -2    1    3    3    0  502 -0.16336355291E+04  0.17631028242E+03 -0.12754193971E+04  0.20800348546E+04  0.25500000920E-02 0.  1.
</event>
<event>
 5   0  0.2108068E-07  0.3574309E+04  0.7818609E-02  0.8096402E-01
       -1   -1    0    0    0  501  0.00000000000E+00  0.00000000000E+00  0.27418942669E+04  0.27418942669E+04  0.50400001928E-02 0.  1.
        1   -1    0    0  501    0  0.00000000000E+00  0.00000000000E+00 -0.11648595198E+04  0.11648595198E+04  0.50400001928E-02 0. -1.
    10030    2    1    2    0    0  0.00000000000E+00  0.00000000000E+00  0.15770347471E+04  0.39067537867E+04  0.35743092418E+04 0.  0.
        5    1    3    3  502    0 -0.11280378634E+04  0.13634194274E+04  0.51522655545E+03  0.18430579073E+04  0.46999998093E+01 0. -1.
       -5    1    3    3    0  502  0.11280378634E+04 -0.13634194274E+04  0.10618081917E+04  0.20636958793E+04  0.46999998093E+01 0.  1.
</event>
<event>
 5   0  0.6848661E-07  0.3125397E+04  0.7818609E-02  0.8208802E-01
        2   -1    0    0  501    0  0.00000000000E+00  0.00000000000E+00  0.29201353141E+04  0.29201353141E+04  0.25500000920E-02 0. -1.
       -2   -1    0    0    0  501  0.00000000000E+00  0.00000000000E+00 -0.83627161480E+03  0.83627161480E+03  0.25500000920E-02 0.  1.
    10030    2    1    2    0    0  0.00000000000E+00  0.00000000000E+00  0.20838636993E+04  0.37564069289E+04  0.31253967905E+04 0.  0.
        1    1    3    3  502    0 -0.13188768049E+03  0.93722305831E+03  0.25364686204E+04  0.27072965268E+04  0.50400001928E-02 0. -1.
       -1    1    3    3    0  502  0.13188768049E+03 -0.93722305831E+03 -0.45260492111E+03  0.10491104022E+04  0.50400001928E-02 0.  1.
</event>
<event>
 5   0  0.2086250E-07  0.3800696E+04  0.7818609E-02  0.8046006E-01
       -4   -1    0    0    0  501  0.00000000000E+00  0.00000000000E+00  0.20018973801E+04  0.20018977829E+04  0.12699999809E+01 0. -1.
        4   -1    0    0  501    0  0.00000000000E+00  0.00000000000E+00 -0.18039486900E+04  0.18039491371E+04  0.12699999809E+01 0.  1.
    10030    2    1    2    0    0  0.00000000000E+00  0.00000000000E+00  0.19794869004E+03  0.38058469200E+04  0.38006956066E+04 0.  0.
        1    1    3    3  502    0 -0.15871715427E+04  0.10349489733E+04  0.24439131455E+03  0.19104868484E+04  0.50400001928E-02 0. -1.
       -1    1    3    3    0  502  0.15871715427E+04 -0.10349489733E+04 -0.46442624511E+02  0.18953600715E+04  0.50400001928E-02 0.  1.
</event>
<event>
 5   0  0.2086250E-07  0.3587342E+04  0.7818609E-02  0.8093397E-01
        1   -1    0    0  501    0  0.00000000000E+00  0.00000000000E+00  0.17383722590E+04  0.17383722590E+04  0.50400001928E-02 0.  1.
       -1   -1    0    0    0  501  0.00000000000E+00  0.00000000000E+00 -0.18507290282E+04  0.18507290282E+04  0.50400001928E-02 0. -1.
    10030    2    1    2    0    0  0.00000000000E+00  0.00000000000E+00 -0.11235676924E+03  0.35891012872E+04  0.35873421926E+04 0.  0.
        3    1    3    3  502    0  0.49202383240E+03 -0.17397959809E+03  0.16607340996E+04  0.17408027206E+04  0.10100000352E+00 0.  1.
       -3    1    3    3    0  502 -0.49202383240E+03  0.17397959809E+03 -0.17730908688E+04  0.18482985667E+04  0.10100000352E+00 0. -1.
</event>
<event>
 5   0  0.2086250E-07  0.3554672E+04  0.7818609E-02  0.8100954E-01
        1   -1    0    0  501    0  0.00000000000E+00  0.00000000000E+00  0.21630941238E+04  0.21630941238E+04  0.50400001928E-02 0. -1.
       -1   -1    0    0    0  501  0.00000000000E+00  0.00000000000E+00 -0.14603727307E+04  0.14603727307E+04  0.50400001928E-02 0.  1.
    10030    2    1    2    0    0  0.00000000000E+00  0.00000000000E+00  0.70272139313E+03  0.36234668545E+04  0.35546722337E+04 0.  0.
        4    1    3    3  502    0 -0.69933900226E+03 -0.50479477330E+03  0.19354728622E+04  0.21189501213E+04  0.12699999809E+01 0. -1.
       -4    1    3    3    0  502  0.69933900226E+03  0.50479477330E+03 -0.12327514691E+04  0.15045167332E+04  0.12699999809E+01 0.  1.
</event>
<event>
 5   0  0.2086250E-07  0.3612815E+04  0.7818609E-02  0.8087562E-01
        1   -1    0    0  501    0  0.00000000000E+00  0.00000000000E+00  0.12087083305E+04  0.12087083305E+04  0.50400001928E-02 0.  1.
       -1   -1    0    0    0  501  0.00000000000E+00  0.00000000000E+00 -0.26996658276E+04  0.26996658276E+04  0.50400001928E-02 0. -1.
    10030    2    1    2    0    0  0.00000000000E+00  0.00000000000E+00 -0.14909574971E+04  0.39083741581E+04  0.36128152875E+04 0.  0.
        4    1    3    3  502    0 -0.46315710979E+03  0.10704094736E+04 -0.22377534413E+04  0.25234565632E+04  0.12699999809E+01 0.  1.
       -4    1    3    3    0  502  0.46315710979E+03 -0.10704094736E+04  0.74679594417E+03  0.13849175949E+04  0.12699999809E+01 0. -1.
</event>
<event>
 5   0  0.6324216E-07  0.3590876E+04  0.7818609E-02  0.8092585E-01
       -2   -1    0    0    0  501  0.00000000000E+00  0.00000000000E+00  0.18079581913E+04  0.18079581913E+04  0.25500000920E-02 0.  1.
        2   -1    0    0  501    0  0.00000000000E+00  0.00000000000E+00 -0.17830043104E+04  0.17830043104E+04  0.25500000920E-02 0. -1.
    10030    2    1    2    0    0  0.00000000000E+00  0.00000000000E+00  0.24953880911E+02  0.35909625016E+04  0.35908757974E+04 0.  0.
        2    1    3    3  502    0  0.15152011506E+04  0.47454093527E+03  0.85069382812E+03  0.18013060859E+04  0.25500000920E-02 0.  1.
       -2    1    3    3    0  502 -0.15152011506E+04 -0.47454093527E+03 -0.82573994721E+03  0.17896564157E+04  0.25500000920E-02 0. -1.
</event>
<event>
 5   0  0.6324216E-07  0.3606071E+04  0.7818609E-02  0.8089102E-01
       -2   -1    0    0    0  501  0.00000000000E+00  0.00000000000E+00  0.22542187301E+04  0.22542187301E+04  0.25500000920E-02 0. -1.
        2   -1    0    0  501    0  0.00000000000E+00  0.00000000000E+00 -0.14421572192E+04  0.14421572192E+04  0.25500000920E-02 0.  1.
    10030    2    1    2    0    0  0.00000000000E+00  0.00000000000E+00  0.81206151088E+03  0.36963759493E+04  0.36060714443E+04 0.  0.
        2    1    3    3  502    0  0.39983334583E+03  0.16759240607E+04  0.95070324278E+03  0.19678477628E+04  0.25500000920E-02 0. -1.
       -2    1    3    3    0  502 -0.39983334583E+03 -0.16759240607E+04 -0.13864173190E+03  0.17285281865E+04  0.25500000920E-02 0.  1.
</event>
<event>
 5   0  0.6541476E-07  0.3599499E+04  0.7818609E-02  0.8090606E-01
        2   -1    0    0  501    0  0.00000000000E+00  0.00000000000E+00  0.11369759407E+04  0.11369759407E+04  0.25500000920E-02 0.  1.
       -2   -1    0    0    0  501  0.00000000000E+00  0.00000000000E+00 -0.28488713321E+04  0.28488713321E+04  0.25500000920E-02 0. -1.
    10030    2    1    2    0    0  0.00000000000E+00  0.00000000000E+00 -0.17118953914E+04  0.39858472728E+04  0.35994989445E+04 0.  0.
        4    1    3    3  502    0 -0.85121750641E+03  0.24101385712E+03 -0.25914750923E+04  0.27383213269E+04  0.12699999809E+01 0. -1.
       -4    1    3    3    0  502  0.85121750641E+03 -0.24101385712E+03  0.87957970092E+03  0.12475259459E+04  0.12699999809E+01 0.  1.
</event>
<event>
 5   0  0.6669864E-07  0.3725086E+04  0.7818609E-02  0.8062425E-01
       -2   -1    0    0    0  501  0.00000000000E+00  0.00000000000E+00  0.29002004368E+04  0.29002004368E+04  0.25500000920E-02 0.  1.
        2   -1    0    0  501    0  0.00000000000E+00  0.00000000000E+00 -0.11961468597E+04  0.11961468597E+04  0.25500000920E-02 0. -1.
    10030    2    1    2    0    0  0.00000000000E+00  0.00000000000E+00  0.17040535771E+04  0.40963472965E+04  0.37250855802E+04 0.  0.
        5    1    3    3  502    0 -0.58521301785E+03  0.15579396065E+04 -0.67620509025E+02  0.16656064112E+04  0.46999998093E+01 0. -1.
       -5    1    3    3    0  502  0.58521301785E+03 -0.15579396065E+04  0.17716740862E+04  0.24307408853E+04  0.46999998093E+01 0.  1.
</event>
<event>
 5   0  0.6324216E-07  0.3612930E+04  0.7818609E-02  0.8087536E-01
        2   -1    0    0  501    0  0.00000000000E+00  0.00000000000E+00  0.18842559913E+04  0.18842559913E+04  0.25500000920E-02 0.  1.
       -2   -1    0    0    0  501  0.00000000000E+00  0.00000000000E+00 -0.17318852583E+04  0.17318852583E+04  0.25500000920E-02 0. -1.
    10030    2    1    2    0    0  0.00000000000E+00  0.00000000000E+00  0.15237073297E+03  0.36161412496E+04  0.36129296557E+04 0.  0.
        2    1    3    3  502    0 -0.14440606948E+04  0.35659648270E+03  0.11022028550E+04  0.18513031829E+04  0.25500000920E-02 0.  1.
       -2    1    3    3    0  502  0.14440606948E+04 -0.35659648270E+03 -0.94983212199E+03  0.17648380667E+04  0.25500000920E-02 0. -1.
</event>
<event>
 5   0  0.6848661E-07  0.3540203E+04  0.7818609E-02  0.8104328E-01
       -2   -1    0    0    0  501  0.00000000000E+00  0.00000000000E+00  0.13534801024E+04  0.13534801024E+04  0.25500000920E-02 0.  1.
        2   -1    0    0  501    0  0.00000000000E+00  0.00000000000E+00 -0.23149648053E+04  0.23149648053E+04  0.25500000920E-02 0. -1.
    10030    2    1    2    0    0  0.00000000000E+00  0.00000000000E+00 -0.96148470293E+03  0.36684449077E+04  0.35402027070E+04 0.  0.
        1    1    3    3  502    0  0.22192464203E+03  0.17549516722E+04 -0.54751963302E+03  0.18517245116E+04  0.50400001928E-02 0.  1.
       -1    1    3    3    0  502 -0.22192464203E+03 -0.17549516722E+04 -0.41396506990E+03  0.18167203961E+04  0.50400001928E-02 0. -1.
</event>
<event>
 5   0  0.6541476E-07  0.3535462E+04  0.7818609E-02  0.8105437E-01
       -2   -1    0    0    0  501  0.00000000000E+00  0.00000000000E+00  0.13027461637E+04  0.13027461637E+04  0.25500000920E-02 0.  1.
        2   -1    0    0  501    0  0.00000000000E+00  0.00000000000E+00 -0.23986817948E+04  0.23986817948E+04  0.25500000920E-02 0. -1.
    10030    2    1    2    0    0  0.00000000000E+00  0.00000000000E+00 -0.10959356311E+04  0.37014279586E+04  0.35354623495E+04 0.  0.
        4    1    3    3  502    0 -0.85384804529E+03  0.15076095067E+04 -0.91503894744E+03  0.19593980701E+04  0.12699999809E+01 0. -1.
       -4    1    3    3    0  502  0.85384804529E+03 -0.15076095067E+04 -0.18089668366E+03  0.17420298884E+04  0.12699999809E+01 0.  1.
</event>
<event>
 5   0  0.6541476E-07  0.3532641E+04  0.7818609E-02  0.8106098E-01
        2   -1    0    0  501    0  0.00000000000E+00  0.00000000000E+00  0.26133569473E+04  0.26133569473E+04  0.25500000920E-02 0. -1.
       -2   -1    0    0    0  501  0.00000000000E+00  0.00000000000E+00 -0.11938240253E+04  0.11938240253E+04  0.25500000920E-02 0.  1.
    10030    2    1    2    0    0  0.00000000000E+00  0.00000000000E+00  0.14195329220E+04  0.38071809727E+04  0.35326411142E+04 0.  0.
        4    1    3    3  502    0 -0.12051006377E+04  0.12380114439E+04  0.31386662436E+03  0.17559765809E+04  0.12699999809E+01 0.  1.
       -4    1    3    3    0  502  0.12051006377E+04 -0.12380114439E+04  0.11056662976E+04  0.20512043917E+04  0.12699999809E+01 0. -1.
</event>
<event>
 5   0  0.6669864E-07  0.3611812E+04  0.7818609E-02  0.8087791E-01
        2   -1    0    0  501    0  0.00000000000E+00  0.00000000000E+00  0.10770455950E+04  0.10770455950E+04  0.25500000920E-02 0.  1.
       -2   -1    0    0    0  501  0.00000000000E+00  0.00000000000E+00 -0.30280030749E+04  0.30280030749E+04  0.25500000920E-02 0. -1.
    10030    2    1    2    0    0  0.00000000000E+00  0.00000000000E+00 -0.19509574799E+04  0.41050486699E+04  0.36118124943E+04 0.  0.
        5    1    3    3  502    0  0.77867592284E+03  0.72045716777E+03 -0.26365244963E+04  0.28419497239E+04  0.46999998093E+01 0. -1.
       -5    1    3    3    0  502 -0.77867592284E+03 -0.72045716777E+03  0.68556701647E+03  0.12630989460E+04  0.46999998093E+01 0.  1.
</event>
<event>
 5   0  0.2086250E-07  0.3563817E+04  0.7818609E-02  0.8098831E-01
       -1   -1    0    0    0  501  0.00000000000E+00  0.00000000000E+00  0.13096291327E+04  0.13096291327E+04  0.50400001928E-02 0. -1.
        1   -1    0    0  501    0  0.00000000000E+00  0.00000000000E+00 -0.24245013570E+04  0.24245013570E+04  0.50400001928E-02 0.  1.
    10030    2    1    2    0    0  0.00000000000E+00  0.00000000000E+00 -0.11148722243E+04  0.37341304897E+04  0.35638168356E+04 0.  0.
        4    1    3    3  502    0  0.13874892669E+04 -0.73174839627E+03  0.32831115128E+03  0.16026141164E+04  0.12699999809E+01 0. -1.
       -4    1    3    3    0  502 -0.13874892669E+04  0.73174839627E+03 -0.14431833755E+04  0.21315163733E+04  0.12699999809E+01 0.  1.
</event>
<event>
 5   0  0.6669864E-07  0.3585839E+04  0.7818609E-02  0.8093743E-01
       -2   -1    0    0    0  501  0.00000000000E+00  0.00000000000E+00  0.18254772368E+04  0.18254772368E+04  0.25500000920E-02 0.  1.
        2   -1    0    0  501    0  0.00000000000E+00  0.00000000000E+00 -0.17609424378E+04  0.17609424378E+04  0.25500000920E-02 0. -1.
    10030    2    1    2    0    0  0.00000000000E+00  0.00000000000E+00  0.64534798992E+02  0.35864196747E+04  0.35858390012E+04 0.  0.
        5    1    3    3  502    0  0.49672263405E+03 -0.26541877745E+02 -0.16905388673E+04  0.17622092947E+04  0.46999998093E+01 0. -1.
       -5    1    3    3    0  502 -0.49672263405E+03  0.26541877745E+02  0.17550736663E+04  0.18242103800E+04  0.46999998093E+01 0.  1.
</event>
<event>
 5   0  0.6729577E-07  0.3665422E+04  0.7818609E-02  0.8075668E-01
        2   -1    0    0  501    0  0.00000000000E+00  0.00000000000E+00  0.20726465176E+04  0.20726465176E+04  0.25500000920E-02 0. -1.
       -2   -1    0    0    0  501  0.00000000000E+00  0.00000000000E+00 -0.16205514178E+04  0.16205514178E+04  0.25500000920E-02 0.  1.
    10030    2    1    2    0    0  0.00000000000E+00  0.00000000000E+00  0.45209509985E+03  0.36931979354E+04  0.36654223509E+04 0.  0.
        3    1    3    3  502    0  0.71229052626E+03  0.38629004028E+03  0.18823571546E+04  0.20493526433E+04  0.10100000352E+00 0. -1.
       -3    1    3    3    0  502 -0.71229052626E+03 -0.38629004028E+03 -0.14302620547E+04  0.16438452921E+04  0.10100000352E+00 0.  1.
</event>
<event>
 5   0  0.2086250E-07  0.3616293E+04  0.7818609E-02  0.8086770E-01
       -1   -1    0    0    0  501  0.00000000000E+00  0.00000000000E+00  0.14222379551E+04  0.14222379552E+04  0.50400001928E-02 0. -1.
        1   -1    0    0  501    0  0.00000000000E+00  0.00000000000E+00 -0.22987672272E+04  0.22987672272E+04  0.50400001928E-02 0.  1.
    10030    2    1    2    0    0  0.00000000000E+00  0.00000000000E+00 -0.87652927208E+03  0.37210051824E+04  0.36162931301E+04 0.  0.
        2    1    3    3  502    0  0.11061314892E+04  0.13950507039E+04 -0.76316161361E+03  0.19370361345E+04  0.25500000920E-02 0. -1.
       -2    1    3    3    0  502 -0.11061314892E+04 -0.13950507039E+04 -0.11336765847E+03  0.17839690479E+04  0.25500000920E-02 0.  1.
</event>
<event>
 5   0  0.2193129E-07  0.3522449E+04  0.7818609E-02  0.8108490E-01
        1   -1    0    0  501    0  0.00000000000E+00  0.00000000000E+00  0.10862964245E+04  0.10862964245E+04  0.50400001928E-02 0. -1.
       -1   -1    0    0    0  501  0.00000000000E+00  0.00000000000E+00 -0.28554932635E+04  0.28554932635E+04  0.50400001928E-02 0.  1.
    10030    2    1    2    0    0  0.00000000000E+00  0.00000000000E+00 -0.17691968390E+04  0.39417896880E+04  0.35224492174E+04 0.  0.
        1    1    3    3  502    0  0.47029242153E+02  0.67388158074E+03 -0.27047580800E+04  0.27878386621E+04  0.50400001928E-02 0.  1.
       -1    1    3    3    0  502 -0.47029242153E+02 -0.67388158074E+03  0.93556124103E+03  0.11539510259E+04  0.50400001928E-02 0. -1.
</event>
<event>
 5   0  0.2108068E-07  0.3525752E+04  0.7818609E-02  0.8107714E-01
        1   -1    0    0  501    0  0.00000000000E+00  0.00000000000E+00  0.15802484647E+04  0.15802484647E+04  0.50400001928E-02 0. -1.
       -1   -1    0    0    0  501  0.00000000000E+00  0.00000000000E+00 -0.19666091822E+04  0.19666091822E+04  0.50400001928E-02 0.  1.
    10030    2    1    2    0    0  0.00000000000E+00  0.00000000000E+00 -0.38636071757E+03  0.35468576469E+04  0.35257516310E+04 0.  0.
        5    1    3    3  502    0 -0.47100569270E+03 -0.15709426553E+04 -0.84358128500E+03  0.18442772740E+04  0.46999998093E+01 0.  1.
       -5    1    3    3    0  502  0.47100569270E+03  0.15709426553E+04  0.45722056743E+03  0.17025803729E+04  0.46999998093E+01 0. -1.
</event>
<event>
 5   0  0.2108068E-07  0.3553183E+04  0.7818609E-02  0.8101301E-01
        1   -1    0    0  501    0  0.00000000000E+00  0.00000000000E+00  0.14057785336E+04  0.14057785336E+04  0.50400001928E-02 0.  1.
       -1   -1    0    0    0  501  0.00000000000E+00  0.00000000000E+00 -0.22452164195E+04  0.22452164196E+04  0.50400001928E-02 0. -1.
    10030    2    1    2    0    0  0.00000000000E+00  0.00000000000E+00 -0.83943788596E+03  0.36509949531E+04  0.35531828244E+04 0.  0.
        5    1    3    3  502    0 -0.17514274952E+04  0.25235257295E+03 -0.25700942096E+03  0.17880872531E+04  0.46999998093E+01 0.  1.
       -5    1    3    3    0  502  0.17514274952E+04 -0.25235257295E+03 -0.58242846500E+03  0.18629077001E+04  0.46999998093E+01 0. -1.
</event>
<event>
 5   0  0.6848661E-07  0.3586538E+04  0.7818609E-02  0.8093582E-01
        2   -1    0    0  501    0  0.00000000000E+00  0.00000000000E+00  0.26129549602E+04  0.26129549602E+04  0.25500000920E-02 0. -1.
       -2   -1    0    0    0  501  0.00000000000E+00  0.00000000000E+00 -0.12307193103E+04  0.12307193103E+04  0.25500000920E-02 0.  1.
    10030    2    1    2    0    0  0.00000000000E+00  0.00000000000E+00  0.13822356498E+04  0.38436742705E+04  0.35865382343E+04 0.  0.
        1    1    3    3  502    0 -0.13505327659E+04 -0.71375505600E+03  0.16978432130E+04  0.22838687808E+04  0.50400001928E-02 0. -1.
       -1    1    3    3    0  502  0.13505327659E+04  0.71375505600E+03 -0.31560756317E+03  0.15598054897E+04  0.50400001928E-02 0.  1.
</event>
<event>
 5   0  0.6848661E-07  0.3561609E+04  0.7818609E-02  0.8099343E-01
        2   -1    0    0  501    0  0.00000000000E+00  0.00000000000E+00  0.26025874493E+04  0.26025874493E+04  0.25500000920E-02 0.  1.
       -2   -1    0    0    0  501  0.00000000000E+00  0.00000000000E+00 -0.12185043407E+04  0.12185043407E+04  0.25500000920E-02 0. -1.
    10030    2    1    2    0    0  0.00000000000E+00  0.00000000000E+00  0.13840831086E+04  0.38210917900E+04  0.35616086838E+04 0.  0.
        1    1    3    3  502    0  0.52073504527E+03  0.91029715490E+03  0.22361555400E+04  0.24698577888E+04  0.50400001928E-02 0.  1.
       -1    1    3    3    0  502 -0.52073504527E+03 -0.91029715490E+03 -0.85207243148E+03  0.13512340012E+04  0.50400001928E-02 0. -1.
</event>
<event>
 5   0  0.2193129E-07  0.3581688E+04  0.7818609E-02  0.8094699E-01
        1   -1    0    0  501    0  0.00000000000E+00  0.00000000000E+00  0.21844021895E+04  0.21844021895E+04  0.50400001928E-02 0. -1.
       -1   -1    0    0    0  501  0.00000000000E+00  0.00000000000E+00 -0.14681924405E+04  0.14681924405E+04  0.50400001928E-02 0.  1.
    10030    2    1    2    0    0  0.00000000000E+00  0.00000000000E+00  0.71620974900E+03  0.36525946299E+04  0.35816883067E+04 0.  0.
        1    1    3    3  502    0 -0.11871045339E+04  0.27412595531E+02 -0.10090142324E+04  0.15582292342E+04  0.50400001928E-02 0.  1.
       -1    1    3    3    0  502  0.11871045339E+04 -0.27412595531E+02  0.17252239814E+04  0.20943653958E+04  0.50400001928E-02 0. -1.
</event>
<event>
 5   0  0.6324216E-07  0.3631920E+04  0.7818609E-02  0.8083219E-01
       -2   -1    0    0    0  501  0.00000000000E+00  0.00000000000E+00  0.27951487672E+04  0.27951487672E+04  0.25500000920E-02 0.  1.
        2   -1    0    0  501    0  0.00000000000E+00  0.00000000000E+00 -0.11797980002E+04  0.11797980002E+04  0.25500000920E-02 0. -1.
    10030    2    1    2    0    0  0.00000000000E+00  0.00000000000E+00  0.16153507669E+04  0.39749467674E+04  0.36319201125E+04 0.  0.
        2    1    3    3  502    0  0.51746274693E+03 -0.17246192743E+04  0.54953510939E+03  0.18825695664E+04  0.25500000920E-02 0. -1.
       -2    1    3    3    0  502 -0.51746274693E+03  0.17246192743E+04  0.10658156575E+04  0.20923772011E+04  0.25500000920E-02 0.  1.
</event>
<event>
 5   0  0.6669864E-07  0.3618411E+04  0.7818609E-02  0.8086287E-01
        2   -1    0    0  501    0  0.00000000000E+00  0.00000000000E+00  0.26885207435E+04  0.26885207435E+04  0.25500000920E-02 0. -1.
       -2   -1    0    0    0  501  0.00000000000E+00  0.00000000000E+00 -0.12174817819E+04  0.12174817819E+04  0.25500000920E-02 0.  1.
    10030    2    1    2    0    0  0.00000000000E+00  0.00000000000E+00  0.14710389616E+04  0.39060025254E+04  0.36184112676E+04 0.  0.
        5    1    3    3  502    0 -0.13807713790E+04 -0.57601071316E+03  0.18336668795E+04  0.23665743719E+04  0.46999998093E+01 0. -1.
       -5    1    3    3    0  502  0.13807713790E+04  0.57601071316E+03 -0.36262791791E+03  0.15394281535E+04  0.46999998093E+01 0.  1.
</event>
<event>
 5   0  0.6669864E-07  0.3625055E+04  0.7818609E-02  0.8084776E-01
        2   -1    0    0  501    0  0.00000000000E+00  0.00000000000E+00  0.21010077099E+04  0.21010077099E+04  0.25500000920E-02 0. -1.
       -2   -1    0    0    0  501  0.00000000000E+00  0.00000000000E+00 -0.15636574749E+04  0.15636574749E+04  0.25500000920E-02 0.  1.
    10030    2    1    2    0    0  0.00000000000E+00  0.00000000000E+00  0.53735023500E+03  0.36646651849E+04  0.36250552605E+04 0.  0.
        5    1    3    3  502    0  0.95806178569E+03  0.19942995662E+03 -0.12736358419E+04  0.16061833770E+04  0.46999998093E+01 0.  1.
       -5    1    3    3    0  502 -0.95806178569E+03 -0.19942995662E+03  0.18109860769E+04  0.20584818079E+04  0.46999998093E+01 0. -1.
</event>
<event>
 5   0  0.2193129E-07  0.3563889E+04  0.7818609E-02  0.8098814E-01
        1   -1    0    0  501    0  0.00000000000E+00  0.00000000000E+00  0.10031143836E+04  0.10031143836E+04  0.50400001928E-02 0. -1.
       -1   -1    0    0    0  501  0.00000000000E+00  0.00000000000E+00 -0.31654680911E+04  0.31654680911E+04  0.50400001928E-02 0.  1.
    10030    2    1    2    0    0  0.00000000000E+00  0.00000000000E+00 -0.21623537075E+04  0.41685824746E+04  0.35638892087E+04 0.  0.
        1    1    3    3  502    0 -0.10731530750E+04  0.10528772727E+03  0.57818523099E+03  0.12235363457E+04  0.50400001928E-02 0. -1.
       -1    1    3    3    0  502  0.10731530750E+04 -0.10528772727E+03 -0.27405389385E+04  0.29450461289E+04  0.50400001928E-02 0.  1.
</event>
<event>
 5   0  0.2086250E-07  0.3585808E+04  0.7818609E-02  0.8093750E-01
        1   -1    0    0  501    0  0.00000000000E+00  0.00000000000E+00  0.22269048045E+04  0.22269048045E+04  0.50400001928E-02 0. -1.
       -1   -1    0    0    0  501  0.00000000000E+00  0.00000000000E+00 -0.14434854975E+04  0.14434854975E+04  0.50400001928E-02 0.  1.
    10030    2    1    2    0    0  0.00000000000E+00  0.00000000000E+00  0.78341930693E+03  0.36703903020E+04  0.35858080203E+04 0.  0.
        4    1    3    3  502    0 -0.26204966705E+03  0.94820543346E+03 -0.11425596106E+04  0.15077160372E+04  0.12699999809E+01 0.  1.
       -4    1    3    3    0  502  0.26204966705E+03 -0.94820543346E+03  0.19259789175E+04  0.21626742648E+04  0.12699999809E+01 0. -1.
</event>
<event>
 5   0  0.6729577E-07  0.3568122E+04  0.7818609E-02  0.8097833E-01
        2   -1    0    0  501    0  0.00000000000E+00  0.00000000000E+00  0.23390466971E+04  0.23390466971E+04  0.25500000920E-02 0. -1.
       -2   -1    0    0    0  501  0.00000000000E+00  0.00000000000E+00 -0.13607566972E+04  0.13607566972E+04  0.25500000920E-02 0.  1.
    10030    2    1    2    0    0  0.00000000000E+00  0.00000000000E+00  0.97828999993E+03  0.36998033943E+04  0.35681218915E+04 0.  0.
        3    1    3    3  502    0 -0.12113086972E+04 -0.89370559567E+03 -0.50373957980E+03  0.15873663806E+04  0.10100000352E+00 0. -1.
       -3    1    3    3    0  502  0.12113086972E+04  0.89370559567E+03  0.14820295797E+04  0.21124370138E+04  0.10100000352E+00 0.  1.
</event>
<event>
 5   0  0.6848661E-07  0.3560234E+04  0.7818609E-02  0.8099662E-01
        2   -1    0    0  501    0  0.00000000000E+00  0.00000000000E+00  0.16758449931E+04  0.16758449931E+04  0.25500000920E-02 0.  1.
       -2   -1    0    0    0  501  0.00000000000E+00  0.00000000000E+00 -0.18908765591E+04  0.18908765591E+04  0.25500000920E-02 0. -1.
    10030    2    1    2    0    0  0.00000000000E+00  0.00000000000E+00 -0.21503156598E+03  0.35667215522E+04  0.35602337081E+04 0.  0.
        1    1    3    3  502    0 -0.20127367431E+03 -0.16797935766E+04  0.44720659280E+03  0.17499175091E+04  0.50400001928E-02 0.  1.
       -1    1    3    3    0  502  0.20127367431E+03  0.16797935766E+04 -0.66223815878E+03  0.18168040431E+04  0.50400001928E-02 0. -1.
</event>
<event>
 5   0  0.6669864E-07  0.3592257E+04  0.7818609E-02  0.8092268E-01
        2   -1    0    0  501    0  0.00000000000E+00  0.00000000000E+00  0.12879845073E+04  0.12879845073E+04  0.25500000920E-02 0.  1.
       -2   -1    0    0    0  501  0.00000000000E+00  0.00000000000E+00 -0.25047488735E+04  0.25047488735E+04  0.25500000920E-02 0. -1.
    10030    2    1    2    0    0  0.00000000000E+00  0.00000000000E+00 -0.12167643661E+04  0.37927333808E+04  0.35922570865E+04 0.  0.
        5    1    3    3  502    0 -0.79247366409E+03  0.44250222249E+03  0.10280290865E+04  0.13713820102E+04  0.46999998093E+01 0.  1.
       -5    1    3    3    0  502  0.79247366409E+03 -0.44250222249E+03 -0.22447934526E+04  0.24213513706E+04  0.46999998093E+01 0. -1.
</event>
<event>
 5   0  0.2086250E-07  0.3590845E+04  0.7818609E-02  0.8092592E-01
        1   -1    0    0  501    0  0.00000000000E+00  0.00000000000E+00  0.12225957566E+04  0.12225957567E+04  0.50400001928E-02 0. -1.
       -1   -1    0    0    0  501  0.00000000000E+00  0.00000000000E+00 -0.26366379251E+04  0.26366379251E+04  0.50400001928E-02 0.  1.
    10030    2    1    2    0    0  0.00000000000E+00  0.00000000000E+00 -0.14140421684E+04  0.38592336817E+04  0.35908452147E+04 0.  0.
        2    1    3    3  502    0 -0.11396718607E+04 -0.62061861651E+03 -0.20405347515E+04  0.24182227956E+04  0.25500000920E-02 0.  1.
       -2    1    3    3    0  502  0.11396718607E+04  0.62061861651E+03  0.62649258305E+03  0.14410108861E+04  0.25500000920E-02 0. -1.
</event>
<event>
 5   0  0.6729577E-07  0.3598756E+04  0.7818609E-02  0.8090777E-01
       -2   -1    0    0    0  501  0.00000000000E+00  0.00000000000E+00  0.13796149550E+04  0.13796149550E+04  0.25500000920E-02 0. -1.
        2   -1    0    0  501    0  0.00000000000E+00  0.00000000000E+00 -0.23468584493E+04  0.23468584493E+04  0.25500000920E-02 0.  1.
    10030    2    1    2    0    0  0.00000000000E+00  0.00000000000E+00 -0.96724349427E+03  0.37264734044E+04  0.35987559040E+04 0.  0.
        3    1    3    3  502    0 -0.14310688706E+04  0.36803711917E+03 -0.15468790157E+04  0.21392157752E+04  0.10100000352E+00 0.  1.
       -3    1    3    3    0  502  0.14310688706E+04 -0.36803711917E+03  0.57963552147E+03  0.15872576292E+04  0.10100000352E+00 0. -1.
</event>
<event>
 5   0  0.6541476E-07  0.3599071E+04  0.7818609E-02  0.8090705E-01
        2   -1    0    0  501    0  0.00000000000E+00  0.00000000000E+00  0.13604031397E+04  0.13604031397E+04  0.25500000920E-02 0.  1.
       -2   -1    0    0    0  501  0.00000000000E+00  0.00000000000E+00 -0.23804178386E+04  0.23804178386E+04  0.25500000920E-02 0. -1.
    10030    2    1    2    0    0  0.00000000000E+00  0.00000000000E+00 -0.10200146988E+04  0.37408209783E+04  0.35990709364E+04 0.  0.
        4    1    3    3  502    0  0.57670851756E+03  0.14927110287E+04  0.34554452458E+03  0.16371260063E+04  0.12699999809E+01 0.  1.
       -4    1    3    3    0  502 -0.57670851756E+03 -0.14927110287E+04 -0.13655592234E+04  0.21036949719E+04  0.12699999809E+01 0. -1.
</event>
<event>
 5   0  0.2086250E-07  0.3331244E+04  0.7818609E-02  0.8154991E-01
       -3   -1    0    0    0  501  0.00000000000E+00  0.00000000000E+00  0.18821328442E+04  0.18821328469E+04  0.10100000352E+00 0. -1.
        3   -1    0    0  501    0  0.00000000000E+00  0.00000000000E+00 -0.14740170278E+04  0.14740170313E+04  0.10100000352E+00 0.  1.
    10030    2    1    2    0    0  0.00000000000E+00  0.00000000000E+00  0.40811581634E+03  0.33561498782E+04  0.33312435344E+04 0.  0.
        5    1    3    3  502    0 -0.14993537920E+04  0.63117103805E+03  0.56427145010E+03  0.17218777635E+04  0.46999998093E+01 0.  1.
       -5    1    3    3    0  502  0.14993537920E+04 -0.63117103805E+03 -0.15615563376E+03  0.16342721147E+04  0.46999998093E+01 0. -1.
</event>
<event>
 5   0  0.6729577E-07  0.3562663E+04  0.7818609E-02  0.8099098E-01
       -2   -1    0    0    0  501  0.00000000000E+00  0.00000000000E+00  0.29960424343E+04  0.29960424343E+04  0.25500000920E-02 0. -1.
        2   -1    0    0  501    0  0.00000000000E+00  0.00000000000E+00 -0.10591114072E+04  0.10591114072E+04  0.25500000920E-02 0.  1.
    10030    2    1    2    0    0  0.00000000000E+00  0.00000000000E+00  0.19369310271E+04  0.40551538416E+04  0.35626634524E+04 0.  0.
        3    1    3    3  502    0  0.33357051768E+03  0.26998895941E+02 -0.10230076118E+04  0.10763562675E+04  0.10100000352E+00 0.  1.
       -3    1    3    3    0  502 -0.33357051768E+03 -0.26998895941E+02  0.29599386389E+04  0.29787975740E+04  0.10100000352E+00 0. -1.
</event>
<event>
 5   0  0.6541476E-07  0.3612632E+04  0.7818609E-02  0.8087604E-01
       -2   -1    0    0    0  501  0.00000000000E+00  0.00000000000E+00  0.13704708320E+04  0.13704708320E+04  0.25500000920E-02 0.  1.
        2   -1    0    0  501    0  0.00000000000E+00  0.00000000000E+00 -0.23807713294E+04  0.23807713294E+04  0.25500000920E-02 0. -1.
    10030    2    1    2    0    0  0.00000000000E+00  0.00000000000E+00 -0.10103004974E+04  0.37512421614E+04  0.36126320956E+04 0.  0.
        4    1    3    3  502    0  0.33543150974E+03 -0.10539085860E+04  0.97776835349E+03  0.14762351341E+04  0.12699999809E+01 0.  1.
       -4    1    3    3    0  502 -0.33543150974E+03  0.10539085860E+04 -0.19880688509E+04  0.22750070272E+04  0.12699999809E+01 0. -1.
</event>
<event>
 5   0  0.6848661E-07  0.3274842E+04  0.7818609E-02  0.8169326E-01
        2   -1    0    0  501    0  0.00000000000E+00  0.00000000000E+00  0.15626683737E+04  0.15626683738E+04  0.25500000920E-02 0.  1.
       -2   -1    0    0    0  501  0.00000000000E+00  0.00000000000E+00 -0.17157499291E+04  0.17157499291E+04  0.25500000920E-02 0. -1.
    10030    2    1    2    0    0  0.00000000000E+00  0.00000000000E+00 -0.15308155537E+03  0.32784183029E+04  0.32748423788E+04 0.  0.
        1    1    3    3  502    0 -0.13458699641E+03 -0.13781561254E+04  0.79832433554E+03  0.15983584424E+04  0.50400001928E-02 0.  1.
       -1    1    3    3    0  502  0.13458699641E+03  0.13781561254E+04 -0.95140589090E+03  0.16800598605E+04  0.50400001928E-02 0. -1.
</event>
<event>
 5   0  0.2086250E-07  0.3566294E+04  0.7818609E-02  0.8098256E-01
       -1   -1    0    0    0  501  0.00000000000E+00  0.00000000000E+00  0.14335598274E+04  0.14335598275E+04  0.50400001928E-02 0. -1.
        1   -1    0    0  501    0  0.00000000000E+00  0.00000000000E+00 -0.22179840693E+04  0.22179840693E+04  0.50400001928E-02 0.  1.
    10030    2    1    2    0    0  0.00000000000E+00  0.00000000000E+00 -0.78442424186E+03  0.36515438968E+04  0.35662937959E+04 0.  0.
        4    1    3    3  502    0  0.89133883440E+03  0.15223184116E+03  0.11813899656E+04  0.14877309283E+04  0.12699999809E+01 0. -1.
       -4    1    3    3    0  502 -0.89133883440E+03 -0.15223184116E+03 -0.19658142075E+04  0.21638129685E+04  0.12699999809E+01 0.  1.
</event>
<event>
 5   0  0.6729577E-07  0.3607471E+04  0.7818609E-02  0.8088782E-01
       -2   -1    0    0    0  501  0.00000000000E+00  0.00000000000E+00  0.25484826492E+04  0.25484826492E+04  0.25500000920E-02 0.  1.
        2   -1    0    0  501    0  0.00000000000E+00  0.00000000000E+00 -0.12766272545E+04  0.12766272545E+04  0.25500000920E-02 0. -1.
    10030    2    1    2    0    0  0.00000000000E+00  0.00000000000E+00  0.12718553947E+04  0.38251099037E+04  0.36074713624E+04 0.  0.
        3    1    3    3  502    0  0.10563004357E+03  0.17965927349E+04  0.50798652573E+03  0.18700142998E+04  0.10100000352E+00 0. -1.
       -3    1    3    3    0  502 -0.10563004357E+03 -0.17965927349E+04  0.76386886901E+03  0.19550956039E+04  0.10100000352E+00 0.  1.
</event>
<event>
 5   0  0.6669864E-07  0.3718208E+04  0.7818609E-02  0.8063939E-01
       -2   -1    0    0    0  501  0.00000000000E+00  0.00000000000E+00  0.12902265435E+04  0.12902265435E+04  0.25500000920E-02 0.  1.
        2   -1    0    0  501    0  0.00000000000E+00  0.00000000000E+00 -0.26788073758E+04  0.26788073758E+04  0.25500000920E-02 0. -1.
    10030    2    1    2    0    0  0.00000000000E+00  0.00000000000E+00 -0.13885808324E+04  0.39690339193E+04  0.37182083756E+04 0.  0.
        5    1    3    3  502    0 -0.64737882787E+03  0.18040375304E+03  0.11560196878E+04  0.13371792960E+04  0.46999998093E+01 0.  1.
       -5    1    3    3    0  502  0.64737882787E+03 -0.18040375304E+03 -0.25446005202E+04  0.26318546233E+04  0.46999998093E+01 0. -1.
</event>
<event>
 5   0  0.2086250E-07  0.3304676E+04  0.7818609E-02  0.8161707E-01
       -1   -1    0    0    0  501  0.00000000000E+00  0.00000000000E+00  0.11953162344E+04  0.11953162345E+04  0.50400001928E-02 0. -1.
        1   -1    0    0  501    0  0.00000000000E+00  0.00000000000E+00 -0.22840985620E+04  0.22840985620E+04  0.50400001928E-02 0.  1.
    10030    2    1    2    0    0  0.00000000000E+00  0.00000000000E+00 -0.10887823275E+04  0.34794147964E+04  0.33046755316E+04 0.  0.
        3    1    3    3  502    0 -0.11570359020E+04  0.29952221035E+03  0.65689161905E+03  0.13638006608E+04  0.10100000352E+00 0. -1.
       -3    1    3    3    0  502  0.11570359020E+04 -0.29952221035E+03 -0.17456739466E+04  0.21156141357E+04  0.10100000352E+00 0.  1.
</event>
<event>
 5   0  0.2086250E-07  0.3607350E+04  0.7818609E-02  0.8088810E-01
       -1   -1    0    0    0  501  0.00000000000E+00  0.00000000000E+00  0.12965016243E+04  0.12965016243E+04  0.50400001928E-02 0. -1.
        1   -1    0    0  501    0  0.00000000000E+00  0.00000000000E+00 -0.25092480190E+04  0.25092480190E+04  0.50400001928E-02 0.  1.
    10030    2    1    2    0    0  0.00000000000E+00  0.00000000000E+00 -0.12127463947E+04  0.38057496434E+04  0.36073503476E+04 0.  0.
        4    1    3    3  502    0  0.11932677221E+04 -0.33876551364E+02 -0.20328495642E+04  0.23574381096E+04  0.12699999809E+01 0.  1.
       -4    1    3    3    0  502 -0.11932677221E+04  0.33876551364E+02  0.82010316951E+03  0.14483115337E+04  0.12699999809E+01 0. -1.
</event>
<event>
 5   0  0.6541476E-07  0.3552761E+04  0.7818609E-02  0.8101399E-01
       -2   -1    0    0    0  501  0.00000000000E+00  0.00000000000E+00  0.16061073060E+04  0.16061073060E+04  0.25500000920E-02 0. -1.
        2   -1    0    0  501    0  0.00000000000E+00  0.00000000000E+00 -0.19647058514E+04  0.19647058514E+04  0.25500000920E-02 0.  1.
    10030    2    1    2    0    0  0.00000000000E+00  0.00000000000E+00 -0.35859854538E+03  0.35708131573E+04  0.35527614172E+04 0.  0.
        4    1    3    3  502    0 -0.70055225671E+03  0.56040518077E+03 -0.17202885926E+04  0.19401602732E+04  0.12699999809E+01 0.  1.
       -4    1    3    3    0  502  0.70055225671E+03 -0.56040518077E+03  0.13616900472E+04  0.16306528841E+04  0.12699999809E+01 0. -1.
</event>
<event>
 5   0  0.2086250E-07  0.3627944E+04  0.7818609E-02  0.8084121E-01
       -1   -1    0    0    0  501  0.00000000000E+00  0.00000000000E+00  0.17066789834E+04  0.17066789834E+04  0.50400001928E-02 0. -1.
        1   -1    0    0  501    0  0.00000000000E+00  0.00000000000E+00 -0.19280102799E+04  0.19280102799E+04  0.50400001928E-02 0.  1.
    10030    2    1    2    0    0  0.00000000000E+00  0.00000000000E+00 -0.22133129652E+03  0.36346892634E+04  0.36279441146E+04 0.  0.
        3    1    3    3  502    0  0.12019914241E+04 -0.72391035050E+03 -0.12624399915E+04  0.18874809460E+04  0.10100000352E+00 0.  1.
       -3    1    3    3    0  502 -0.12019914241E+04  0.72391035050E+03  0.10411086950E+04  0.17472083174E+04  0.10100000352E+00 0. -1.
</event>
<event>
 5   0  0.6669864E-07  0.3598587E+04  0.7818609E-02  0.8090816E-01
       -2   -1    0    0    0  501  0.00000000000E+00  0.00000000000E+00  0.13410275423E+04  0.13410275423E+04  0.25500000920E-02 0.  1.
        2   -1    0    0  501    0  0.00000000000E+00  0.00000000000E+00 -0.24141610754E+04  0.24141610754E+04  0.25500000920E-02 0. -1.
    10030    2    1    2    0    0  0.00000000000E+00  0.00000000000E+00 -0.10731335331E+04  0.37551886177E+04  0.35985866635E+04 0.  0.
        5    1    3    3  502    0 -0.92405490779E+03 -0.23459465374E+03 -0.21289221064E+04  0.23326473263E+04  0.46999998093E+01 0. -1.
       -5    1    3    3    0  502  0.92405490779E+03  0.23459465374E+03  0.10557885733E+04  0.14225412913E+04  0.46999998093E+01 0.  1.
</event>
<event>
 5   0  0.6324216E-07  0.3584077E+04  0.7818609E-02  0.8094149E-01
       -2   -1    0    0    0  501  0.00000000000E+00  0.00000000000E+00  0.26993226707E+04  0.26993226707E+04  0.25500000920E-02 0.  1.
        2   -1    0    0  501    0  0.00000000000E+00  0.00000000000E+00 -0.11897066618E+04  0.11897066618E+04  0.25500000920E-02 0. -1.
    10030    2    1    2    0    0  0.00000000000E+00  0.00000000000E+00  0.15096160089E+04  0.38890293324E+04  0.35840770993E+04 0.  0.
        2    1    3    3  502    0  0.14172153871E+04  0.68596622037E+03  0.16833982643E+04  0.23049682915E+04  0.25500000920E-02 0.  1.
       -2    1    3    3    0  502 -0.14172153871E+04 -0.68596622037E+03 -0.17378225535E+03  0.15840610409E+04  0.25500000920E-02 0. -1.
</event>
<event>
 5   0  0.6669864E-07  0.3597637E+04  0.7818609E-02  0.8091033E-01
       -2   -1    0    0    0  501  0.00000000000E+00  0.00000000000E+00  0.23971793450E+04  0.23971793450E+04  0.25500000920E-02 0. -1.
        2   -1    0    0  501    0  0.00000000000E+00  0.00000000000E+00 -0.13498144590E+04  0.13498144590E+04  0.25500000920E-02 0.  1.
    10030    2    1    2    0    0  0.00000000000E+00  0.00000000000E+00  0.10473648861E+04  0.37469938040E+04  0.35976366357E+04 0.  0.
        5    1    3    3  502    0 -0.17050338935E+04 -0.50967637831E+03  0.25046641826E+03  0.17971271812E+04  0.46999998093E+01 0.  1.
       -5    1    3    3    0  502  0.17050338935E+04  0.50967637831E+03  0.79689846781E+03  0.19498666228E+04  0.46999998093E+01 0. -1.
</event>
<event>
 5   0  0.2108068E-07  0.3639145E+04  0.7818609E-02  0.8081583E-01
       -1   -1    0    0    0  501  0.00000000000E+00  0.00000000000E+00  0.10923613261E+04  0.10923613261E+04  0.50400001928E-02 0. -1.
        1   -1    0    0  501    0  0.00000000000E+00  0.00000000000E+00 -0.30309064083E+04  0.30309064083E+04  0.50400001928E-02 0.  1.
    10030    2    1    2    0    0  0.00000000000E+00  0.00000000000E+00 -0.19385450822E+04  0.41232677344E+04  0.36391454730E+04 0.  0.
        5    1    3    3  502    0 -0.50411770411E+03 -0.25000940885E+02  0.10114483436E+04  0.11304023834E+04  0.46999998093E+01 0. -1.
       -5    1    3    3    0  502  0.50411770411E+03  0.25000940885E+02 -0.29499934258E+04  0.29928653510E+04  0.46999998093E+01 0.  1.
</event>
<event>
 5   0  0.2086250E-07  0.3766780E+04  0.7818609E-02  0.8053322E-01
        1   -1    0    0  501    0  0.00000000000E+00  0.00000000000E+00  0.11918478050E+04  0.11918478050E+04  0.50400001928E-02 0.  1.
       -1   -1    0    0    0  501  0.00000000000E+00  0.00000000000E+00 -0.29761828842E+04  0.29761828842E+04  0.50400001928E-02 0. -1.
    10030    2    1    2    0    0  0.00000000000E+00  0.00000000000E+00 -0.17843350791E+04  0.41680306892E+04  0.37667795464E+04 0.  0.
        4    1    3    3  502    0 -0.42779964653E+03  0.16213837714E+04  0.56645078898E+02  0.16778284029E+04  0.12699999809E+01 0.  1.
       -4    1    3    3    0  502  0.42779964653E+03 -0.16213837714E+04 -0.18409801580E+04  0.24902022863E+04  0.12699999809E+01 0. -1.
</event>
<event>
 5   0  0.6729577E-07  0.3603315E+04  0.7818609E-02  0.8089733E-01
       -2   -1    0    0    0  501  0.00000000000E+00  0.00000000000E+00  0.18932886272E+04  0.18932886272E+04  0.25500000920E-02 0.  1.
        2   -1    0    0  501    0  0.00000000000E+00  0.00000000000E+00 -0.17144611538E+04  0.17144611538E+04  0.25500000920E-02 0. -1.
    10030    2    1    2    0    0  0.00000000000E+00  0.00000000000E+00  0.17882747340E+03  0.36077497810E+04  0.36033150317E+04 0.  0.
        3    1    3    3  502    0 -0.13546228702E+04 -0.11855199910E+04  0.15099583879E+02  0.18001913168E+04  0.10100000352E+00 0. -1.
       -3    1    3    3    0  502  0.13546228702E+04  0.11855199910E+04  0.16372788952E+03  0.18075584642E+04  0.10100000352E+00 0.  1.
</event>
<event>
 5   0  0.2086250E-07  0.3597245E+04  0.7818609E-02  0.8091123E-01
       -1   -1    0    0    0  501  0.00000000000E+00  0.00000000000E+00  0.15541427457E+04  0.15541427457E+04  0.50400001928E-02 0. -1.
        1   -1    0    0  501    0  0.00000000000E+00  0.00000000000E+00 -0.20815613016E+04  0.20815613016E+04  0.50400001928E-02 0.  1.
    10030    2    1    2    0    0  0.00000000000E+00  0.00000000000E+00 -0.52741855592E+03  0.36357040473E+04  0.35972452775E+04 0.  0.
        2    1    3    3  502    0  0.95420763798E+03 -0.26685158366E+03 -0.17808645982E+04  0.20379403085E+04  0.25500000920E-02 0.  1.
       -2    1    3    3    0  502 -0.95420763798E+03  0.26685158366E+03  0.12534460422E+04  0.15977637388E+04  0.25500000920E-02 0. -1.
</event>
<event>
 5   0  0.6541476E-07  0.3583805E+04  0.7818609E-02  0.8094211E-01
        2   -1    0    0  501    0  0.00000000000E+00  0.00000000000E+00  0.17416304089E+04  0.17416304089E+04  0.25500000920E-02 0.  1.
       -2   -1    0    0    0  501  0.00000000000E+00  0.00000000000E+00 -0.18436256841E+04  0.18436256841E+04  0.25500000920E-02 0. -1.
    10030    2    1    2    0    0  0.00000000000E+00  0.00000000000E+00 -0.10199527519E+03  0.35852560930E+04  0.35838049914E+04 0.  0.
        4    1    3    3  502    0 -0.85909484475E+03 -0.11927645573E+04 -0.10761963111E+04  0.18217934445E+04  0.12699999809E+01 0. -1.
       -4    1    3    3    0  502  0.85909484475E+03  0.11927645573E+04  0.97420103591E+03  0.17634626485E+04  0.12699999809E+01 0.  1.
</event>
<event>
 5   0  0.2086250E-07  0.3555022E+04  0.7818609E-02  0.8100873E-01
        1   -1    0    0  501    0  0.00000000000E+00  0.00000000000E+00  0.16165870119E+04  0.16165870119E+04  0.50400001928E-02 0.  1.
       -1   -1    0    0    0  501  0.00000000000E+00  0.00000000000E+00 -0.19544539110E+04  0.19544539110E+04  0.50400001928E-02 0. -1.
    10030    2    1    2    0    0  0.00000000000E+00  0.00000000000E+00 -0.33786689911E+03  0.35710409229E+04  0.35550216921E+04 0.  0.
        4    1    3    3  502    0  0.52768184421E+03 -0.16324238078E+04  0.29822946654E+03  0.17413207759E+04  0.12699999809E+01 0.  1.
       -4    1    3    3    0  502 -0.52768184421E+03  0.16324238078E+04 -0.63609636565E+03  0.18297201470E+04  0.12699999809E+01 0. -1.
</event>
<event>
 5   0  0.2193129E-07  0.3627093E+04  0.7818609E-02  0.8084314E-01
        1   -1    0    0  501    0  0.00000000000E+00  0.00000000000E+00  0.21753329473E+04  0.21753329473E+04  0.50400001928E-02 0.  1.
       -1   -1    0    0    0  501  0.00000000000E+00  0.00000000000E+00 -0.15119298650E+04  0.15119298650E+04  0.50400001928E-02 0. -1.
    10030    2    1    2    0    0  0.00000000000E+00  0.00000000000E+00  0.66340308223E+03  0.36872628123E+04  0.36270929678E+04 0.  0.
        1    1    3    3  502    0  0.12491816891E+04  0.12403539043E+04  0.77484357610E+03  0.19233604102E+04  0.50400001928E-02 0.  1.
       -1    1    3    3    0  502 -0.12491816891E+04 -0.12403539043E+04 -0.11144049387E+03  0.17639024020E+04  0.50400001928E-02 0. -1.
</event>
<event>
 5   0  0.2108068E-07  0.3600085E+04  0.7818609E-02  0.8090472E-01
       -1   -1    0    0    0  501  0.00000000000E+00  0.00000000000E+00  0.10672714902E+04  0.10672714902E+04  0.50400001928E-02 0. -1.
        1   -1    0    0  501    0  0.00000000000E+00  0.00000000000E+00 -0.30359217474E+04  0.30359217474E+04  0.50400001928E-02 0.  1.
    10030    2    1    2    0    0  0.00000000000E+00  0.00000000000E+00 -0.19686502572E+04  0.41031932376E+04  0.36000848477E+04 0.  0.
        5    1    3    3  502    0 -0.92085096998E+03 -0.32253733577E+03 -0.27083754654E+04  0.28787699793E+04  0.46999998093E+01 0.  1.
       -5    1    3    3    0  502  0.92085096998E+03  0.32253733577E+03  0.73972520826E+03  0.12244232584E+04  0.46999998093E+01 0. -1.
</event>
<event>
 5   0  0.2086250E-07  0.3613211E+04  0.7818609E-02  0.8087472E-01
        1   -1    0    0  501    0  0.00000000000E+00  0.00000000000E+00  0.19162195462E+04  0.19162195462E+04  0.50400001928E-02 0.  1.
       -1   -1    0    0    0  501  0.00000000000E+00  0.00000000000E+00 -0.17032622048E+04  0.17032622048E+04  0.50400001928E-02 0. -1.
    10030    2    1    2    0    0  0.00000000000E+00  0.00000000000E+00  0.21295734136E+03  0.36194817510E+04  0.36132114963E+04 0.  0.
        3    1    3    3  502    0  0.45067079958E+03  0.39947546398E+03  0.18127076513E+04  0.19101292771E+04  0.10100000352E+00 0.  1.
       -3    1    3    3    0  502 -0.45067079958E+03 -0.39947546398E+03 -0.15997503099E+04  0.17093524740E+04  0.10100000352E+00 0. -1.
</event>
<event>
 5   0  0.6324216E-07  0.3608416E+04  0.7818609E-02  0.8088567E-01
       -2   -1    0    0    0  501  0.00000000000E+00  0.00000000000E+00  0.19537846051E+04  0.19537846051E+04  0.25500000920E-02 0.  1.
        2   -1    0    0  501    0  0.00000000000E+00  0.00000000000E+00 -0.16660830106E+04  0.16660830106E+04  0.25500000920E-02 0. -1.
    10030    2    1    2    0    0  0.00000000000E+00  0.00000000000E+00  0.28770159448E+03  0.36198676157E+04  0.36084164599E+04 0.  0.
        2    1    3    3  502    0 -0.81297901825E+03  0.14598848111E+04 -0.53872658089E+03  0.17556835919E+04  0.25500000920E-02 0. -1.
       -2    1    3    3    0  502  0.81297901825E+03 -0.14598848111E+04  0.82642817537E+03  0.18641840239E+04  0.25500000920E-02 0.  1.
</event>
<event>
 5   0  0.2086250E-07  0.3575347E+04  0.7818609E-02  0.8096162E-01
       -1   -1    0    0    0  501  0.00000000000E+00  0.00000000000E+00  0.15873362882E+04  0.15873362882E+04  0.50400001928E-02 0.  1.
        1   -1    0    0  501    0  0.00000000000E+00  0.00000000000E+00 -0.20132947158E+04  0.20132947159E+04  0.50400001928E-02 0. -1.
    10030    2    1    2    0    0  0.00000000000E+00  0.00000000000E+00 -0.42595842764E+03  0.36006310041E+04  0.35753465630E+04 0.  0.
        4    1    3    3  502    0 -0.90345340177E+03 -0.64067000000E+03  0.12001863312E+04  0.16331365346E+04  0.12699999809E+01 0.  1.
       -4    1    3    3    0  502  0.90345340177E+03  0.64067000000E+03 -0.16261447588E+04  0.19674944695E+04  0.12699999809E+01 0. -1.
</event>
<event>
 5   0  0.6669864E-07  0.3581918E+04  0.7818609E-02  0.8094646E-01
       -2   -1    0    0    0  501  0.00000000000E+00  0.00000000000E+00  0.23358624042E+04  0.23358624042E+04  0.25500000920E-02 0.  1.
        2   -1    0    0  501    0  0.00000000000E+00  0.00000000000E+00 -0.13731693942E+04  0.13731693942E+04  0.25500000920E-02 0. -1.
    10030    2    1    2    0    0  0.00000000000E+00  0.00000000000E+00  0.96269300999E+03  0.37090317984E+04  0.35819183478E+04 0.  0.
        5    1    3    3  502    0  0.81654977909E+03 -0.12302519671E+04  0.15308422279E+04  0.21269164208E+04  0.46999998093E+01 0.  1.
       -5    1    3    3    0  502 -0.81654977909E+03  0.12302519671E+04 -0.56814921789E+03  0.15821153776E+04  0.46999998093E+01 0. -1.
</event>
<event>
 5   0  0.6541476E-07  0.3594114E+04  0.7818609E-02  0.8091841E-01
        2   -1    0    0  501    0  0.00000000000E+00  0.00000000000E+00  0.26579731502E+04  0.26579731502E+04  0.25500000920E-02 0.  1.
       -2   -1    0    0    0  501  0.00000000000E+00  0.00000000000E+00 -0.12149913638E+04  0.12149913638E+04  0.25500000920E-02 0. -1.
    10030    2    1    2    0    0  0.00000000000E+00  0.00000000000E+00  0.14429817864E+04  0.38729645140E+04  0.35941143124E+04 0.  0.
        4    1    3    3  502    0 -0.66752374562E+03 -0.15613212366E+04  0.13554379179E+04  0.21726770393E+04  0.12699999809E+01 0.  1.
       -4    1    3    3    0  502  0.66752374562E+03  0.15613212366E+04  0.87543868435E+02  0.17002874747E+04  0.12699999809E+01 0. -1.
</event>
<event>
 5   0  0.2086250E-07  0.3602496E+04  0.7818609E-02  0.8089920E-01
        1   -1    0    0  501    0  0.00000000000E+00  0.00000000000E+00  0.19562409430E+04  0.19562409430E+04  0.50400001928E-02 0. -1.
       -1   -1    0    0    0  501  0.00000000000E+00  0.00000000000E+00 -0.16585355752E+04  0.16585355753E+04  0.50400001928E-02 0.  1.
    10030    2    1    2    0    0  0.00000000000E+00  0.00000000000E+00  0.29770536771E+03  0.36147765182E+04  0.36024964664E+04 0.  0.
        3    1    3    3  502    0  0.11876068402E+04 -0.13235138845E+04 -0.13917313683E+03  0.17836670602E+04  0.10100000352E+00 0.  1.
       -3    1    3    3    0  502 -0.11876068402E+04  0.13235138845E+04  0.43687850454E+03  0.18311094580E+04  0.10100000352E+00 0. -1.
</event>
<event>
 5   0  0.6669864E-07  0.2956999E+04  0.7818609E-02  0.8256118E-01
       -2   -1    0    0    0  501  0.00000000000E+00  0.00000000000E+00  0.16594156306E+04  0.16594156306E+04  0.25500000920E-02 0.  1.
        2   -1    0    0  501    0  0.00000000000E+00  0.00000000000E+00 -0.13173073523E+04  0.13173073523E+04  0.25500000920E-02 0. -1.
    10030    2    1    2    0    0  0.00000000000E+00  0.00000000000E+00  0.34210827833E+03  0.29767229829E+04  0.29569987560E+04 0.  0.
        5    1    3    3  502    0  0.12249388975E+04  0.50457068907E+03  0.83184059369E+03  0.15643042371E+04  0.46999998093E+01 0.  1.
       -5    1    3    3    0  502 -0.12249388975E+04 -0.50457068907E+03 -0.48973231535E+03  0.14124187458E+04  0.46999998093E+01 0. -1.
</event>
<event>
 5   0  0.6848661E-07  0.3590302E+04  0.7818609E-02  0.8092717E-01
       -2   -1    0    0    0  501  0.00000000000E+00  0.00000000000E+00  0.24133799664E+04  0.24133799664E+04  0.25500000920E-02 0. -1.
        2   -1    0    0  501    0  0.00000000000E+00  0.00000000000E+00 -0.13352917179E+04  0.13352917179E+04  0.25500000920E-02 0.  1.
    10030    2    1    2    0    0  0.00000000000E+00  0.00000000000E+00  0.10780882485E+04  0.37486716844E+04  0.35903015369E+04 0.  0.
        1    1    3    3  502    0  0.10802294184E+03 -0.56660719252E+03 -0.12358988433E+04  0.13638763205E+04  0.50400001928E-02 0.  1.
       -1    1    3    3    0  502 -0.10802294184E+03  0.56660719252E+03  0.23139870918E+04  0.23847953639E+04  0.50400001928E-02 0. -1.
</event>
<event>
 5   0  0.6729577E-07  0.3602432E+04  0.7818609E-02  0.8089935E-01
       -2   -1    0    0    0  501  0.00000000000E+00  0.00000000000E+00  0.14994840621E+04  0.14994840621E+04  0.25500000920E-02 0. -1.
        2   -1    0    0  501    0  0.00000000000E+00  0.00000000000E+00 -0.21636635735E+04  0.21636635735E+04  0.25500000920E-02 0.  1.
    10030    2    1    2    0    0  0.00000000000E+00  0.00000000000E+00 -0.66417951140E+03  0.36631476357E+04  0.36024319809E+04 0.  0.
        3    1    3    3  502    0 -0.57521761261E+03  0.14963415252E+04  0.50301044944E+03  0.16801585593E+04  0.10100000352E+00 0. -1.
       -3    1    3    3    0  502  0.57521761261E+03 -0.14963415252E+04 -0.11671899608E+04  0.19829890763E+04  0.10100000352E+00 0.  1.
</event>
<event>
 5   0  0.2193129E-07  0.2910600E+04  0.7818609E-02  0.8269731E-01
        1   -1    0    0  501    0  0.00000000000E+00  0.00000000000E+00  0.14737150771E+04  0.14737150771E+04  0.50400001928E-02 0. -1.
       -1   -1    0    0    0  501  0.00000000000E+00  0.00000000000E+00 -0.14371151597E+04  0.14371151597E+04  0.50400001928E-02 0.  1.
    10030    2    1    2    0    0  0.00000000000E+00  0.00000000000E+00  0.36599917365E+02  0.29108302368E+04  0.29106001295E+04 0.  0.
        1    1    3    3  502    0  0.89756644875E+03  0.56943768419E+03 -0.97576729257E+03  0.14429160112E+04  0.50400001928E-02 0.  1.
       -1    1    3    3    0  502 -0.89756644875E+03 -0.56943768419E+03  0.10123672099E+04  0.14679142256E+04  0.50400001928E-02 0. -1.
</event>
<event>
 5   0  0.2086250E-07  0.3611900E+04  0.7818609E-02  0.8087771E-01
       -1   -1    0    0    0  501  0.00000000000E+00  0.00000000000E+00  0.11073735876E+04  0.11073735876E+04  0.50400001928E-02 0.  1.
        1   -1    0    0  501    0  0.00000000000E+00  0.00000000000E+00 -0.29452172027E+04  0.29452172027E+04  0.50400001928E-02 0. -1.
    10030    2    1    2    0    0  0.00000000000E+00  0.00000000000E+00 -0.18378436151E+04  0.40525907904E+04  0.36119001870E+04 0.  0.
        2    1    3    3  502    0  0.15889788802E+04  0.77310327519E+03 -0.50073652338E+03  0.18366490198E+04  0.25500000920E-02 0. -1.
       -2    1    3    3    0  502 -0.15889788802E+04 -0.77310327519E+03 -0.13371070917E+04  0.22159417706E+04  0.25500000920E-02 0.  1.
</event>
<event>
 5   0  0.6848661E-07  0.3615618E+04  0.7818609E-02  0.8086924E-01
       -2   -1    0    0    0  501  0.00000000000E+00  0.00000000000E+00  0.14910925099E+04  0.14910925099E+04  0.25500000920E-02 0.  1.
        2   -1    0    0  501    0  0.00000000000E+00  0.00000000000E+00 -0.21917974168E+04  0.21917974168E+04  0.25500000920E-02 0. -1.
    10030    2    1    2    0    0  0.00000000000E+00  0.00000000000E+00 -0.70070490691E+03  0.36828899267E+04  0.36156176299E+04 0.  0.
        1    1    3    3  502    0 -0.44121606853E+03  0.15439930898E+04  0.49551165459E+03  0.16805112556E+04  0.50400001928E-02 0.  1.
       -1    1    3    3    0  502  0.44121606853E+03 -0.15439930898E+04 -0.11962165615E+04  0.20023786711E+04  0.50400001928E-02 0. -1.
</event>
<event>
 5   0  0.6729577E-07  0.3598136E+04  0.7818609E-02  0.8090919E-01
        2   -1    0    0  501    0  0.00000000000E+00  0.00000000000E+00  0.19809801893E+04  0.19809801893E+04  0.25500000920E-02 0.  1.
       -2   -1    0    0    0  501  0.00000000000E+00  0.00000000000E+00 -0.16338603355E+04  0.16338603355E+04  0.25500000920E-02 0. -1.
    10030    2    1    2    0    0  0.00000000000E+00  0.00000000000E+00  0.34711985378E+03  0.36148405248E+04  0.35981356043E+04 0.  0.
        3    1    3    3  502    0 -0.12999268254E+04  0.12403202326E+04  0.26586092386E+03  0.18162835880E+04  0.10100000352E+00 0. -1.
       -3    1    3    3    0  502  0.12999268254E+04 -0.12403202326E+04  0.81258929912E+02  0.17985569368E+04  0.10100000352E+00 0.  1.
</event>
<event>
 5   0  0.2108068E-07  0.3595268E+04  0.7818609E-02  0.8091577E-01
       -1   -1    0    0    0  501  0.00000000000E+00  0.00000000000E+00  0.20768276153E+04  0.20768276153E+04  0.50400001928E-02 0.  1.
        1   -1    0    0  501    0  0.00000000000E+00  0.00000000000E+00 -0.15559729392E+04  0.15559729392E+04  0.50400001928E-02 0. -1.
    10030    2    1    2    0    0  0.00000000000E+00  0.00000000000E+00  0.52085467617E+03  0.36328005545E+04  0.35952677613E+04 0.  0.
        5    1    3    3  502    0  0.94308667754E+03 -0.10115289497E+04 -0.89997881294E+03  0.16500264395E+04  0.46999998093E+01 0. -1.
       -5    1    3    3    0  502 -0.94308667754E+03  0.10115289497E+04  0.14208334891E+04  0.19827741150E+04  0.46999998093E+01 0.  1.
</event>
<event>
 5   0  0.6729577E-07  0.3545600E+04  0.7818609E-02  0.8103068E-01
        2   -1    0    0  501    0  0.00000000000E+00  0.00000000000E+00  0.21589613227E+04  0.21589613227E+04  0.25500000920E-02 0. -1.
       -2   -1    0    0    0  501  0.00000000000E+00  0.00000000000E+00 -0.14557093768E+04  0.14557093768E+04  0.25500000920E-02 0.  1.
    10030    2    1    2    0    0  0.00000000000E+00  0.00000000000E+00  0.70325194589E+03  0.36146706996E+04  0.35456002266E+04 0.  0.
        3    1    3    3  502    0  0.12795684026E+04  0.47787597817E+03 -0.80050416869E+03  0.15831827696E+04  0.10100000352E+00 0.  1.
       -3    1    3    3    0  502 -0.12795684026E+04 -0.47787597817E+03  0.15037561146E+04  0.20314879300E+04  0.10100000352E+00 0. -1.
</event>
<event>
 5   0  0.2086250E-07  0.3596932E+04  0.7818609E-02  0.8091195E-01
        1   -1    0    0  501    0  0.00000000000E+00  0.00000000000E+00  0.11612619996E+04  0.11612619996E+04  0.50400001928E-02 0.  1.
       -1   -1    0    0    0  501  0.00000000000E+00  0.00000000000E+00 -0.27853143848E+04  0.27853143848E+04  0.50400001928E-02 0. -1.
    10030    2    1    2    0    0  0.00000000000E+00  0.00000000000E+00 -0.16240523852E+04  0.39465763845E+04  0.35969318882E+04 0.  0.
        4    1    3    3  502    0 -0.57236137474E+03  0.70140126008E+03 -0.25170851135E+04  0.26749355792E+04  0.12699999809E+01 0. -1.
       -4    1    3    3    0  502  0.57236137474E+03 -0.70140126008E+03  0.89303272831E+03  0.12716408053E+04  0.12699999809E+01 0.  1.
</event>
<event>
 5   0  0.2086250E-07  0.3596578E+04  0.7818609E-02  0.8091276E-01
        1   -1    0    0  501    0  0.00000000000E+00  0.00000000000E+00  0.27425906373E+04  0.27425906373E+04  0.50400001928E-02 0.  1.
       -1   -1    0    0    0  501  0.00000000000E+00  0.00000000000E+00 -0.11791199335E+04  0.11791199335E+04  0.50400001928E-02 0. -1.
    10030    2    1    2    0    0  0.00000000000E+00  0.00000000000E+00  0.15634707038E+04  0.39217105708E+04  0.35965779791E+04 0.  0.
        4    1    3    3  502    0  0.82041776247E+03  0.40984044216E+02 -0.96259086246E+03  0.12654437081E+04  0.12699999809E+01 0. -1.
       -4    1    3    3    0  502 -0.82041776247E+03 -0.40984044216E+02  0.25260615663E+04  0.26562668628E+04  0.12699999809E+01 0.  1.
</event>
<event>
 5   0  0.6729577E-07  0.3535561E+04  0.7818609E-02  0.8105414E-01
       -2   -1    0    0    0  501  0.00000000000E+00  0.00000000000E+00  0.16918199819E+04  0.16918199819E+04  0.25500000920E-02 0. -1.
        2   -1    0    0  501    0  0.00000000000E+00  0.00000000000E+00 -0.18471514303E+04  0.18471514303E+04  0.25500000920E-02 0.  1.
    10030    2    1    2    0    0  0.00000000000E+00  0.00000000000E+00 -0.15533144840E+03  0.35389714122E+04  0.35355608887E+04 0.  0.
        3    1    3    3  502    0 -0.85837243530E+03  0.40564490328E+03  0.14149791906E+04  0.17039709931E+04  0.10100000352E+00 0. -1.
       -3    1    3    3    0  502  0.85837243530E+03 -0.40564490328E+03 -0.15703106390E+04  0.18350004192E+04  0.10100000352E+00 0.  1.
</event>
<event>
 5   0  0.2108068E-07  0.3730357E+04  0.7818609E-02  0.8061267E-01
        1   -1    0    0  501    0  0.00000000000E+00  0.00000000000E+00  0.25248853933E+04  0.25248853933E+04  0.50400001928E-02 0. -1.
       -1   -1    0    0    0  501  0.00000000000E+00  0.00000000000E+00 -0.13778411521E+04  0.13778411521E+04  0.50400001928E-02 0.  1.
    10030    2    1    2    0    0  0.00000000000E+00  0.00000000000E+00  0.11470442412E+04  0.39027265454E+04  0.37303570871E+04 0.  0.
        5    1    3    3  502    0 -0.13116810006E+04 -0.13254153548E+04  0.61583857327E+03  0.19638004350E+04  0.46999998093E+01 0. -1.
       -5    1    3    3    0  502  0.13116810006E+04  0.13254153548E+04  0.53120566795E+03  0.19389261105E+04  0.46999998093E+01 0.  1.
</event>
<event>
 5   0  0.2193129E-07  0.3585052E+04  0.7818609E-02  0.8093924E-01
       -1   -1    0    0    0  501  0.00000000000E+00  0.00000000000E+00  0.15936614736E+04  0.15936614737E+04  0.50400001928E-02 0.  1.
        1   -1    0    0  501    0  0.00000000000E+00  0.00000000000E+00 -0.20162057039E+04  0.20162057039E+04  0.50400001928E-02 0. -1.
    10030    2    1    2    0    0  0.00000000000E+00  0.00000000000E+00 -0.42254423025E+03  0.36098671776E+04  0.35850519401E+04 0.  0.
        1    1    3    3  502    0 -0.17166963867E+03  0.12020517363E+04  0.11164720635E+04  0.16495177205E+04  0.50400001928E-02 0.  1.
       -1    1    3    3    0  502  0.17166963867E+03 -0.12020517363E+04 -0.15390162937E+04  0.19603494571E+04  0.50400001928E-02 0. -1.
</event>
<event>
 5   0  0.2086250E-07  0.3570903E+04  0.7818609E-02  0.8097189E-01
        1   -1    0    0  501    0  0.00000000000E+00  0.00000000000E+00  0.10567305581E+04  0.10567305581E+04  0.50400001928E-02 0.  1.
       -1   -1    0    0    0  501  0.00000000000E+00  0.00000000000E+00 -0.30166983118E+04  0.30166983118E+04  0.50400001928E-02 0. -1.
    10030    2    1    2    0    0  0.00000000000E+00  0.00000000000E+00 -0.19599677537E+04  0.40734288699E+04  0.35709031298E+04 0.  0.
        4    1    3    3  502    0 -0.74079961699E+03 -0.14299989391E+04 -0.10069452401E+03  0.16136362783E+04  0.12699999809E+01 0.  1.
       -4    1    3    3    0  502  0.74079961699E+03  0.14299989391E+04 -0.18592732297E+04  0.24597925917E+04  0.12699999809E+01 0. -1.
</event>
<event>
 5   0  0.6324216E-07  0.3613747E+04  0.7818609E-02  0.8087350E-01
        2   -1    0    0  501    0  0.00000000000E+00  0.00000000000E+00  0.17611154293E+04  0.17611154293E+04  0.25500000920E-02 0. -1.
       -2   -1    0    0    0  501  0.00000000000E+00  0.00000000000E+00 -0.18538200691E+04  0.18538200691E+04  0.25500000920E-02 0.  1.
    10030    2    1    2    0    0  0.00000000000E+00  0.00000000000E+00 -0.92704639797E+02  0.36149354983E+04  0.36137466025E+04 0.  0.
        2    1    3    3  502    0 -0.15468118238E+04  0.63483899268E+03 -0.73151835981E+03  0.18250387600E+04  0.25500000920E-02 0.  1.
       -2    1    3    3    0  502  0.15468118238E+04 -0.63483899268E+03  0.63881372001E+03  0.17898967383E+04  0.25500000920E-02 0. -1.
</event>
<event>
 5   0  0.6324216E-07  0.3295150E+04  0.7818609E-02  0.8164131E-01
        2   -1    0    0  501    0  0.00000000000E+00  0.00000000000E+00  0.21241622550E+04  0.21241622550E+04  0.25500000920E-02 0. -1.
       -2   -1    0    0    0  501  0.00000000000E+00  0.00000000000E+00 -0.12779173047E+04  0.12779173047E+04  0.25500000920E-02 0.  1.
    10030    2    1    2    0    0  0.00000000000E+00  0.00000000000E+00  0.84624495024E+03  0.34020795597E+04  0.32951501961E+04 0.  0.
        2    1    3    3  502    0 -0.12397208416E+04 -0.94777766773E+03 -0.12252878259E+03  0.15653126126E+04  0.25500000920E-02 0. -1.
       -2    1    3    3    0  502  0.12397208416E+04  0.94777766773E+03  0.96877373283E+03  0.18367669471E+04  0.25500000920E-02 0.  1.
</event>
<event>
 5   0  0.6324216E-07  0.3567231E+04  0.7818609E-02  0.8098039E-01
       -2   -1    0    0    0  501  0.00000000000E+00  0.00000000000E+00  0.11848080745E+04  0.11848080745E+04  0.25500000920E-02 0.  1.
        2   -1    0    0  501    0  0.00000000000E+00  0.00000000000E+00 -0.26850636329E+04  0.26850636329E+04  0.25500000920E-02 0. -1.
    10030    2    1    2    0    0  0.00000000000E+00  0.00000000000E+00 -0.15002555584E+04  0.38698717073E+04  0.35672314602E+04 0.  0.
        2    1    3    3  502    0  0.11831164448E+04  0.10610471800E+04  0.12832350504E+03  0.15943815610E+04  0.25500000920E-02 0.  1.
       -2    1    3    3    0  502 -0.11831164448E+04 -0.10610471800E+04 -0.16285790634E+04  0.22754901463E+04  0.25500000920E-02 0. -1.
</event>
<event>
 5   0  0.2086250E-07  0.3575663E+04  0.7818609E-02  0.8096089E-01
       -1   -1    0    0    0  501  0.00000000000E+00  0.00000000000E+00  0.15804592022E+04  0.15804592022E+04  0.50400001928E-02 0. -1.
        1   -1    0    0  501    0  0.00000000000E+00  0.00000000000E+00 -0.20224128368E+04  0.20224128368E+04  0.50400001928E-02 0.  1.
    10030    2    1    2    0    0  0.00000000000E+00  0.00000000000E+00 -0.44195363458E+03  0.36028720390E+04  0.35756627238E+04 0.  0.
        2    1    3    3  502    0  0.48103648621E+02  0.77957097335E+03 -0.18414110693E+04  0.20002098864E+04  0.25500000920E-02 0.  1.
       -2    1    3    3    0  502 -0.48103648621E+02 -0.77957097335E+03  0.13994574348E+04  0.16026621526E+04  0.25500000920E-02 0. -1.
</event>
<event>
 5   0  0.2086250E-07  0.3597506E+04  0.7818609E-02  0.8091063E-01
        1   -1    0    0  501    0  0.00000000000E+00  0.00000000000E+00  0.17042928653E+04  0.17042928653E+04  0.50400001928E-02 0.  1.
       -1   -1    0    0    0  501  0.00000000000E+00  0.00000000000E+00 -0.18984490001E+04  0.18984490001E+04  0.50400001928E-02 0. -1.
    10030    2    1    2    0    0  0.00000000000E+00  0.00000000000E+00 -0.19415613483E+03  0.36027418655E+04  0.35975064065E+04 0.  0.
        4    1    3    3  502    0  0.14728633822E+04  0.12012015263E+03  0.92996601782E+03  0.17460222796E+04  0.12699999809E+01 0.  1.
       -4    1    3    3    0  502 -0.14728633822E+04 -0.12012015263E+03 -0.11241221527E+04  0.18567195859E+04  0.12699999809E+01 0. -1.
</event>
<event>
 5   0  0.2086250E-07  0.3589921E+04  0.7818609E-02  0.8092804E-01
       -1   -1    0    0    0  501  0.00000000000E+00  0.00000000000E+00  0.26391334788E+04  0.26391334788E+04  0.50400001928E-02 0.  1.
        1   -1    0    0  501    0  0.00000000000E+00  0.00000000000E+00 -0.12208111055E+04  0.12208111055E+04  0.50400001928E-02 0. -1.
    10030    2    1    2    0    0  0.00000000000E+00  0.00000000000E+00  0.14183223734E+04  0.38599445843E+04  0.35899211467E+04 0.  0.
        3    1    3    3  502    0 -0.17900793130E+04 -0.15198119798E+02  0.56786718760E+03  0.18780543343E+04  0.10100000352E+00 0.  1.
       -3    1    3    3    0  502  0.17900793130E+04  0.15198119798E+02  0.85045518575E+03  0.19818902500E+04  0.10100000352E+00 0. -1.
</event>
<event>
 5   0  0.6669864E-07  0.3584999E+04  0.7818609E-02  0.8093936E-01
        2   -1    0    0  501    0  0.00000000000E+00  0.00000000000E+00  0.22066495813E+04  0.22066495813E+04  0.25500000920E-02 0. -1.
       -2   -1    0    0    0  501  0.00000000000E+00  0.00000000000E+00 -0.14560784241E+04  0.14560784241E+04  0.25500000920E-02 0.  1.
    10030    2    1    2    0    0  0.00000000000E+00  0.00000000000E+00  0.75057115719E+03  0.36627280054E+04  0.35849992161E+04 0.  0.
        5    1    3    3  502    0  0.47016524850E+03  0.13281696837E+04 -0.75686619763E+03  0.15993619355E+04  0.46999998093E+01 0.  1.
       -5    1    3    3    0  502 -0.47016524850E+03 -0.13281696837E+04  0.15074373548E+04  0.20633660699E+04  0.46999998093E+01 0. -1.
</event>
<event>
 5   0  0.2086250E-07  0.3403411E+04  0.7818609E-02  0.8137070E-01
       -1   -1    0    0    0  501  0.00000000000E+00  0.00000000000E+00  0.19326000834E+04  0.19326000834E+04  0.50400001928E-02 0.  1.
        1   -1    0    0  501    0  0.00000000000E+00  0.00000000000E+00 -0.14983971330E+04  0.14983971330E+04  0.50400001928E-02 0. -1.
    10030    2    1    2    0    0  0.00000000000E+00  0.00000000000E+00  0.43420295048E+03  0.34309972164E+04  0.34034114792E+04 0.  0.
        4    1    3    3  502    0 -0.81321141158E+02 -0.57779108407E+03  0.18286028871E+04  0.19194389275E+04  0.12699999809E+01 0.  1.
       -4    1    3    3    0  502  0.81321141158E+02  0.57779108407E+03 -0.13943999366E+04  0.15115582889E+04  0.12699999809E+01 0. -1.
</event>
<event>
 5   0  0.6669864E-07  0.3407813E+04  0.7818609E-02  0.8135992E-01
        2   -1    0    0  501    0  0.00000000000E+00  0.00000000000E+00  0.26499541155E+04  0.26499541155E+04  0.25500000920E-02 0.  1.
       -2   -1    0    0    0  501  0.00000000000E+00  0.00000000000E+00 -0.10956026335E+04  0.10956026335E+04  0.25500000920E-02 0. -1.
    10030    2    1    2    0    0  0.00000000000E+00  0.00000000000E+00  0.15543514820E+04  0.37455567489E+04  0.34078126166E+04 0.  0.
        5    1    3    3  502    0  0.14625524682E+04 -0.22786588365E+03 -0.15044343682E+03  0.14878299301E+04  0.46999998093E+01 0. -1.
       -5    1    3    3    0  502 -0.14625524682E+04  0.22786588365E+03  0.17047949189E+04  0.22577268189E+04  0.46999998093E+01 0.  1.
</event>
<event>
 5   0  0.2086250E-07  0.3301398E+04  0.7818609E-02  0.8162540E-01
       -1   -1    0    0    0  501  0.00000000000E+00  0.00000000000E+00  0.14222540572E+04  0.14222540572E+04  0.50400001928E-02 0. -1.
        1   -1    0    0  501    0  0.00000000000E+00  0.00000000000E+00 -0.19158375991E+04  0.19158375991E+04  0.50400001928E-02 0.  1.
    10030    2    1    2    0    0  0.00000000000E+00  0.00000000000E+00 -0.49358354193E+03  0.33380916563E+04  0.33013983693E+04 0.  0.
        4    1    3    3  502    0  0.23241978328E+03  0.12629483303E+04  0.80191904892E+03  0.15139792649E+04  0.12699999809E+01 0. -1.
       -4    1    3    3    0  502 -0.23241978328E+03 -0.12629483303E+04 -0.12955025908E+04  0.18241123914E+04  0.12699999809E+01 0.  1.
</event>
<event>
 5   0  0.2086250E-07  0.3629686E+04  0.7818609E-02  0.8083725E-01
       -3   -1    0    0    0  501  0.00000000000E+00  0.00000000000E+00  0.11234296044E+04  0.11234296089E+04  0.10100000352E+00 0.  1.
        3   -1    0    0  501    0  0.00000000000E+00  0.00000000000E+00 -0.29317863879E+04  0.29317863896E+04  0.10100000352E+00 0. -1.
    10030    2    1    2    0    0  0.00000000000E+00  0.00000000000E+00 -0.18083567835E+04  0.40552159986E+04  0.36296862865E+04 0.  0.
        4    1    3    3  502    0  0.47827427570E+03  0.85260562582E+02  0.10494320200E+04  0.11564276129E+04  0.12699999809E+01 0.  1.
       -4    1    3    3    0  502 -0.47827427570E+03 -0.85260562582E+02 -0.28577888035E+04  0.28987883857E+04  0.12699999809E+01 0. -1.
</event>
<event>
 5   0  0.2086250E-07  0.3565847E+04  0.7818609E-02  0.8098360E-01
        1   -1    0    0  501    0  0.00000000000E+00  0.00000000000E+00  0.22285894597E+04  0.22285894597E+04  0.50400001928E-02 0. -1.
       -1   -1    0    0    0  501  0.00000000000E+00  0.00000000000E+00 -0.14263802731E+04  0.14263802731E+04  0.50400001928E-02 0.  1.
    10030    2    1    2    0    0  0.00000000000E+00  0.00000000000E+00  0.80220918654E+03  0.36549697328E+04  0.35658469076E+04 0.  0.
        3    1    3    3  502    0 -0.16768156835E+04 -0.13475462027E+03  0.10065854890E+04  0.19603785351E+04  0.10100000352E+00 0.  1.
       -3    1    3    3    0  502  0.16768156835E+04  0.13475462027E+03 -0.20437630245E+03  0.16945911977E+04  0.10100000352E+00 0. -1.
</event>
<event>
 5   0  0.2086250E-07  0.3724100E+04  0.7818609E-02  0.8062642E-01
        1   -1    0    0  501    0  0.00000000000E+00  0.00000000000E+00  0.17832078006E+04  0.17832078006E+04  0.50400001928E-02 0.  1.
       -1   -1    0    0    0  501  0.00000000000E+00  0.00000000000E+00 -0.19443784399E+04  0.19443784399E+04  0.50400001928E-02 0. -1.
    10030    2    1    2    0    0  0.00000000000E+00  0.00000000000E+00 -0.16117063931E+03  0.37275862405E+04  0.37241003216E+04 0.  0.
        3    1    3    3  502    0 -0.79509838602E+03 -0.27074071889E+03 -0.17439919035E+04  0.19357142738E+04  0.10100000352E+00 0. -1.
       -3    1    3    3    0  502  0.79509838602E+03  0.27074071889E+03  0.15828212642E+04  0.17918719666E+04  0.10100000352E+00 0.  1.
</event>
<event>
 5   0  0.6541476E-07  0.3628888E+04  0.7818609E-02  0.8083907E-01
       -2   -1    0    0    0  501  0.00000000000E+00  0.00000000000E+00  0.13877931729E+04  0.13877931729E+04  0.25500000920E-02 0. -1.
        2   -1    0    0  501    0  0.00000000000E+00  0.00000000000E+00 -0.23722600723E+04  0.23722600723E+04  0.25500000920E-02 0.  1.
    10030    2    1    2    0    0  0.00000000000E+00  0.00000000000E+00 -0.98446689932E+03  0.37600532452E+04  0.36288876162E+04 0.  0.
        4    1    3    3  502    0 -0.18471581923E+03  0.24152062098E+03 -0.23456740617E+04  0.23652992540E+04  0.12699999809E+01 0.  1.
       -4    1    3    3    0  502  0.18471581923E+03 -0.24152062098E+03  0.13612071624E+04  0.13947539912E+04  0.12699999809E+01 0. -1.
</event>
<event>
 5   0  0.6324216E-07  0.3610187E+04  0.7818609E-02  0.8088162E-01
       -2   -1    0    0    0  501  0.00000000000E+00  0.00000000000E+00  0.13019367518E+04  0.13019367518E+04  0.25500000920E-02 0.  1.
        2   -1    0    0  501    0  0.00000000000E+00  0.00000000000E+00 -0.25027046065E+04  0.25027046065E+04  0.25500000920E-02 0. -1.
    10030    2    1    2    0    0  0.00000000000E+00  0.00000000000E+00 -0.12007678547E+04  0.38046413583E+04  0.36101873116E+04 0.  0.
        2    1    3    3  502    0 -0.82664939913E+02  0.14688457449E+04  0.50190888465E+03  0.15544303919E+04  0.25500000920E-02 0.  1.
       -2    1    3    3    0  502  0.82664939913E+02 -0.14688457449E+04 -0.17026767394E+04  0.22502109664E+04  0.25500000920E-02 0. -1.
</event>
<event>
 5   0  0.2086250E-07  0.3566683E+04  0.7818609E-02  0.8098166E-01
        1   -1    0    0  501    0  0.00000000000E+00  0.00000000000E+00  0.24529564726E+04  0.24529564726E+04  0.50400001928E-02 0. -1.
       -1   -1    0    0    0  501  0.00000000000E+00  0.00000000000E+00 -0.12965201220E+04  0.12965201221E+04  0.50400001928E-02 0.  1.
    10030    2    1    2    0    0  0.00000000000E+00  0.00000000000E+00  0.11564363505E+04  0.37494765946E+04  0.35666832914E+04 0.  0.
        3    1    3    3  502    0  0.49178253116E+03  0.73167258014E+03  0.22078637411E+04  0.23773634833E+04  0.10100000352E+00 0. -1.
       -3    1    3    3    0  502 -0.49178253116E+03 -0.73167258014E+03 -0.10514273905E+04  0.13721131113E+04  0.10100000352E+00 0.  1.
</event>
<event>
 5   0  0.6729577E-07  0.3598222E+04  0.7818609E-02  0.8090899E-01
       -2   -1    0    0    0  501  0.00000000000E+00  0.00000000000E+00  0.11997906721E+04  0.11997906721E+04  0.25500000920E-02 0. -1.
        2   -1    0    0  501    0  0.00000000000E+00  0.00000000000E+00 -0.26978048001E+04  0.26978048001E+04  0.25500000920E-02 0.  1.
    10030    2    1    2    0    0  0.00000000000E+00  0.00000000000E+00 -0.14980141281E+04  0.38975954722E+04  0.35982223579E+04 0.  0.
        3    1    3    3  502    0 -0.77844212350E+03 -0.12844045620E+04  0.32392663079E+03  0.15364230182E+04  0.10100000352E+00 0. -1.
       -3    1    3    3    0  502  0.77844212350E+03  0.12844045620E+04 -0.18219407589E+04  0.23611724540E+04  0.10100000352E+00 0.  1.
</event>
<event>
 5   0  0.2193129E-07  0.3627859E+04  0.7818609E-02  0.8084140E-01
       -1   -1    0    0    0  501  0.00000000000E+00  0.00000000000E+00  0.17577250524E+04  0.17577250524E+04  0.50400001928E-02 0.  1.
        1   -1    0    0  501    0  0.00000000000E+00  0.00000000000E+00 -0.18719314364E+04  0.18719314364E+04  0.50400001928E-02 0. -1.
    10030    2    1    2    0    0  0.00000000000E+00  0.00000000000E+00 -0.11420638395E+03  0.36296564888E+04  0.36278593038E+04 0.  0.
        1    1    3    3  502    0  0.93424126170E+02  0.62873177475E+02 -0.18684308503E+04  0.18718212911E+04  0.50400001928E-02 0. -1.
       -1    1    3    3    0  502 -0.93424126170E+02 -0.62873177475E+02  0.17542244663E+04  0.17578351976E+04  0.50400001928E-02 0.  1.
</event>
<event>
 5   0  0.2086250E-07  0.3672508E+04  0.7818609E-02  0.8074082E-01
       -1   -1    0    0    0  501  0.00000000000E+00  0.00000000000E+00  0.16993228098E+04  0.16993228098E+04  0.50400001928E-02 0. -1.
        1   -1    0    0  501    0  0.00000000000E+00  0.00000000000E+00 -0.19842190327E+04  0.19842190327E+04  0.50400001928E-02 0.  1.
    10030    2    1    2    0    0  0.00000000000E+00  0.00000000000E+00 -0.28489622291E+03  0.36835418425E+04  0.36725079507E+04 0.  0.
        4    1    3    3  502    0  0.13769359203E+04  0.41300956741E+03 -0.12883769142E+04  0.19304005070E+04  0.12699999809E+01 0. -1.
       -4    1    3    3    0  502 -0.13769359203E+04 -0.41300956741E+03  0.10034806913E+04  0.17531413355E+04  0.12699999809E+01 0.  1.
</event>
<event>
 5   0  0.2108068E-07  0.3578062E+04  0.7818609E-02  0.8095535E-01
       -1   -1    0    0    0  501  0.00000000000E+00  0.00000000000E+00  0.15265493165E+04  0.15265493166E+04  0.50400001928E-02 0.  1.
        1   -1    0    0  501    0  0.00000000000E+00  0.00000000000E+00 -0.20966450729E+04  0.20966450729E+04  0.50400001928E-02 0. -1.
    10030    2    1    2    0    0  0.00000000000E+00  0.00000000000E+00 -0.57009575639E+03  0.36231943895E+04  0.35780621030E+04 0.  0.
        5    1    3    3  502    0  0.73888718886E+03 -0.87619721018E+03  0.11059361304E+04  0.15927311900E+04  0.46999998093E+01 0.  1.
       -5    1    3    3    0  502 -0.73888718886E+03  0.87619721018E+03 -0.16760318868E+04  0.20304631995E+04  0.46999998093E+01 0. -1.
</event>
<event>
 5   0  0.6729577E-07  0.3649674E+04  0.7818609E-02  0.8079207E-01
        2   -1    0    0  501    0  0.00000000000E+00  0.00000000000E+00  0.18425423876E+04  0.18425423876E+04  0.25500000920E-02 0. -1.
       -2   -1    0    0    0  501  0.00000000000E+00  0.00000000000E+00 -0.18073014442E+04  0.18073014442E+04  0.25500000920E-02 0.  1.
    10030    2    1    2    0    0  0.00000000000E+00  0.00000000000E+00  0.35240943454E+02  0.36498438318E+04  0.36496736940E+04 0.  0.
        3    1    3    3  502    0  0.22107204406E+03 -0.17326899657E+04  0.54579482717E+03  0.18300216855E+04  0.10100000352E+00 0.  1.
       -3    1    3    3    0  502 -0.22107204406E+03  0.17326899657E+04 -0.51055388372E+03  0.18198221463E+04  0.10100000352E+00 0. -1.
</event>
<event>
 5   0  0.2193129E-07  0.3599400E+04  0.7818609E-02  0.8090629E-01
        1   -1    0    0  501    0  0.00000000000E+00  0.00000000000E+00  0.17496696985E+04  0.17496696985E+04  0.50400001928E-02 0. -1.
       -1   -1    0    0    0  501  0.00000000000E+00  0.00000000000E+00 -0.18511607929E+04  0.18511607929E+04  0.50400001928E-02 0.  1.
    10030    2    1    2    0    0  0.00000000000E+00  0.00000000000E+00 -0.10149109442E+03  0.36008304915E+04  0.35993999203E+04 0.  0.
        1    1    3    3  502    0  0.24115322516E+03 -0.80634045208E+03 -0.16421575263E+04  0.18452699380E+04  0.50400001928E-02 0.  1.
       -1    1    3    3    0  502 -0.24115322516E+03  0.80634045208E+03  0.15406664319E+04  0.17555605535E+04  0.50400001928E-02 0. -1.
</event>
<event>
 5   0  0.6848661E-07  0.3618574E+04  0.7818609E-02  0.8086250E-01
        2   -1    0    0  501    0  0.00000000000E+00  0.00000000000E+00  0.20582230693E+04  0.20582230693E+04  0.25500000920E-02 0. -1.
       -2   -1    0    0    0  501  0.00000000000E+00  0.00000000000E+00 -0.15904591407E+04  0.15904591407E+04  0.25500000920E-02 0.  1.
    10030    2    1    2    0    0  0.00000000000E+00  0.00000000000E+00  0.46776392864E+03  0.36486822100E+04  0.36185741359E+04 0.  0.
        1    1    3    3  502    0 -0.31120421824E+03 -0.10824635138E+04  0.16616239400E+04  0.20073787491E+04  0.50400001928E-02 0. -1.
       -1    1    3    3    0  502  0.31120421824E+03  0.10824635138E+04 -0.11938600114E+04  0.16413034610E+04  0.50400001928E-02 0.  1.
</event>
<event>
 5   0  0.2086250E-07  0.3701134E+04  0.7818609E-02  0.8067710E-01
       -1   -1    0    0    0  501  0.00000000000E+00  0.00000000000E+00  0.20936847380E+04  0.20936847380E+04  0.50400001928E-02 0.  1.
        1   -1    0    0  501    0  0.00000000000E+00  0.00000000000E+00 -0.16356802912E+04  0.16356802912E+04  0.50400001928E-02 0. -1.
    10030    2    1    2    0    0  0.00000000000E+00  0.00000000000E+00  0.45800444682E+03  0.37293650292E+04  0.37011343461E+04 0.  0.
        4    1    3    3  502    0 -0.18430334925E+04  0.62509491702E+02  0.38483422385E+03  0.18838202897E+04  0.12699999809E+01 0. -1.
       -4    1    3    3    0  502  0.18430334925E+04 -0.62509491702E+02  0.73170222970E+02  0.18455447395E+04  0.12699999809E+01 0.  1.
</event>
<event>
 5   0  0.2108068E-07  0.3574680E+04  0.7818609E-02  0.8096316E-01
       -1   -1    0    0    0  501  0.00000000000E+00  0.00000000000E+00  0.15300357110E+04  0.15300357110E+04  0.50400001928E-02 0. -1.
        1   -1    0    0  501    0  0.00000000000E+00  0.00000000000E+00 -0.20879152827E+04  0.20879152827E+04  0.50400001928E-02 0.  1.
    10030    2    1    2    0    0  0.00000000000E+00  0.00000000000E+00 -0.55787957170E+03  0.36179509937E+04  0.35746803740E+04 0.  0.
        5    1    3    3  502    0 -0.41903175366E+03 -0.38883303053E+03 -0.19928919298E+04  0.20732629042E+04  0.46999998093E+01 0.  1.
       -5    1    3    3    0  502  0.41903175366E+03  0.38883303053E+03  0.14350123581E+04  0.15446880895E+04  0.46999998093E+01 0. -1.
</event>
<event>
 5   0  0.2086250E-07  0.3613849E+04  0.7818609E-02  0.8087327E-01
       -1   -1    0    0    0  501  0.00000000000E+00  0.00000000000E+00  0.14353613947E+04  0.14353613947E+04  0.50400001928E-02 0.  1.
        1   -1    0    0  501    0  0.00000000000E+00  0.00000000000E+00 -0.22746721308E+04  0.22746721308E+04  0.50400001928E-02 0. -1.
    10030    2    1    2    0    0  0.00000000000E+00  0.00000000000E+00 -0.83931073605E+03  0.37100335255E+04  0.36138492289E+04 0.  0.
        2    1    3    3  502    0 -0.98793785636E+03  0.14612089689E+04 -0.82229770305E+03  0.19461054368E+04  0.25500000920E-02 0.  1.
       -2    1    3    3    0  502  0.98793785636E+03 -0.14612089689E+04 -0.17013033010E+02  0.17639280887E+04  0.25500000920E-02 0. -1.
</event>
<event>
 5   0  0.2086250E-07  0.3627463E+04  0.7818609E-02  0.8084230E-01
       -1   -1    0    0    0  501  0.00000000000E+00  0.00000000000E+00  0.25961407727E+04  0.25961407727E+04  0.50400001928E-02 0.  1.
        1   -1    0    0  501    0  0.00000000000E+00  0.00000000000E+00 -0.12671199281E+04  0.12671199281E+04  0.50400001928E-02 0. -1.
    10030    2    1    2    0    0  0.00000000000E+00  0.00000000000E+00  0.13290208446E+04  0.38632607008E+04  0.36274628650E+04 0.  0.
        4    1    3    3  502    0  0.62292999197E+03  0.22668919516E+03  0.24625033213E+04  0.25501674429E+04  0.12699999809E+01 0.  1.
       -4    1    3    3    0  502 -0.62292999197E+03 -0.22668919516E+03 -0.11334824768E+04  0.13130932580E+04  0.12699999809E+01 0. -1.
</event>
<event>
 5   0  0.2108068E-07  0.3620135E+04  0.7818609E-02  0.8085895E-01
       -1   -1    0    0    0  501  0.00000000000E+00  0.00000000000E+00  0.26018479769E+04  0.26018479769E+04  0.50400001928E-02 0. -1.
        1   -1    0    0  501    0  0.00000000000E+00  0.00000000000E+00 -0.12592375691E+04  0.12592375691E+04  0.50400001928E-02 0.  1.
    10030    2    1    2    0    0  0.00000000000E+00  0.00000000000E+00  0.13426104079E+04  0.38610855460E+04  0.36201352028E+04 0.  0.
        5    1    3    3  502    0  0.64177535008E+03  0.18829531983E+03  0.24652145216E+04  0.25543365978E+04  0.46999998093E+01 0. -1.
       -5    1    3    3    0  502 -0.64177535008E+03 -0.18829531983E+03 -0.11226041138E+04  0.13067489482E+04  0.46999998093E+01 0.  1.
</event>
<event>
 5   0  0.6324216E-07  0.3610688E+04  0.7818609E-02  0.8088048E-01
        2   -1    0    0  501    0  0.00000000000E+00  0.00000000000E+00  0.15351828123E+04  0.15351828123E+04  0.25500000920E-02 0. -1.
       -2   -1    0    0    0  501  0.00000000000E+00  0.00000000000E+00 -0.21230484950E+04  0.21230484950E+04  0.25500000920E-02 0.  1.
    10030    2    1    2    0    0  0.00000000000E+00  0.00000000000E+00 -0.58786568273E+03  0.36582313073E+04  0.36106883328E+04 0.  0.
        2    1    3    3  502    0  0.17565245485E+03  0.15011926334E+04  0.70640476100E+03  0.16683647065E+04  0.25500000920E-02 0. -1.
       -2    1    3    3    0  502 -0.17565245485E+03 -0.15011926334E+04 -0.12942704437E+04  0.19898666008E+04  0.25500000920E-02 0.  1.
</event>
<event>
 5   0  0.2193129E-07  0.3631560E+04  0.7818609E-02  0.8083301E-01
        1   -1    0    0  501    0  0.00000000000E+00  0.00000000000E+00  0.25791747596E+04  0.25791747596E+04  0.50400001928E-02 0. -1.
       -1   -1    0    0    0  501  0.00000000000E+00  0.00000000000E+00 -0.12783376176E+04  0.12783376176E+04  0.50400001928E-02 0.  1.
    10030    2    1    2    0    0  0.00000000000E+00  0.00000000000E+00  0.13008371420E+04  0.38575123772E+04  0.36315595094E+04 0.  0.
        1    1    3    3  502    0 -0.34032633919E+03  0.32928830520E+03 -0.12115894358E+04  0.13008465575E+04  0.50400001928E-02 0.  1.
       -1    1    3    3    0  502  0.34032633919E+03 -0.32928830520E+03  0.25124265778E+04  0.25566658198E+04  0.50400001928E-02 0. -1.
</event>
<event>
 5   0  0.2193129E-07  0.3413911E+04  0.7818609E-02  0.8134500E-01
       -1   -1    0    0    0  501  0.00000000000E+00  0.00000000000E+00  0.29765538936E+04  0.29765538936E+04  0.50400001928E-02 0. -1.
        1   -1    0    0  501    0  0.00000000000E+00  0.00000000000E+00 -0.97888276911E+03  0.97888276912E+03  0.50400001928E-02 0.  1.
    10030    2    1    2    0    0  0.00000000000E+00  0.00000000000E+00  0.19976711244E+04  0.39554366627E+04  0.34139111399E+04 0.  0.
        1    1    3    3  502    0  0.55908654081E+03 -0.31611775827E+03  0.28312153280E+04  0.29031514654E+04  0.50400001928E-02 0. -1.
       -1    1    3    3    0  502 -0.55908654081E+03  0.31611775827E+03 -0.83354420356E+03  0.10522851973E+04  0.50400001928E-02 0.  1.
</event>
<event>
 5   0  0.2193129E-07  0.3572809E+04  0.7818609E-02  0.8096749E-01
        1   -1    0    0  501    0  0.00000000000E+00  0.00000000000E+00  0.23718960177E+04  0.23718960177E+04  0.50400001928E-02 0. -1.
       -1   -1    0    0    0  501  0.00000000000E+00  0.00000000000E+00 -0.13454384840E+04  0.13454384840E+04  0.50400001928E-02 0.  1.
    10030    2    1    2    0    0  0.00000000000E+00  0.00000000000E+00  0.10264575337E+04  0.37173345017E+04  0.35728085212E+04 0.  0.
        1    1    3    3  502    0  0.25817171516E+03 -0.17192891107E+04  0.94048906809E+03  0.19766454836E+04  0.50400001928E-02 0.  1.
       -1    1    3    3    0  502 -0.25817171516E+03  0.17192891107E+04  0.85968465632E+02  0.17406890181E+04  0.50400001928E-02 0. -1.
</event>
<event>
 5   0  0.6541476E-07  0.3145765E+04  0.7818609E-02  0.8203289E-01
       -2   -1    0    0    0  501  0.00000000000E+00  0.00000000000E+00  0.86838123489E+03  0.86838123489E+03  0.25500000920E-02 0. -1.
        2   -1    0    0  501    0  0.00000000000E+00  0.00000000000E+00 -0.28489324277E+04  0.28489324277E+04  0.25500000920E-02 0.  1.
    10030    2    1    2    0    0  0.00000000000E+00  0.00000000000E+00 -0.19805511928E+04  0.37173136625E+04  0.31457650641E+04 0.  0.
        4    1    3    3  502    0  0.25483768334E+03  0.11688889022E+04 -0.21969374826E+04  0.25015554013E+04  0.12699999809E+01 0.  1.
       -4    1    3    3    0  502 -0.25483768334E+03 -0.11688889022E+04  0.21638628983E+03  0.12157582612E+04  0.12699999809E+01 0. -1.
</event>
<event>
 5   0  0.2086250E-07  0.3548053E+04  0.7818609E-02  0.8102496E-01
       -1   -1    0    0    0  501  0.00000000000E+00  0.00000000000E+00  0.23246147096E+04  0.23246147096E+04  0.50400001928E-02 0. -1.
        1   -1    0    0  501    0  0.00000000000E+00  0.00000000000E+00 -0.13538458286E+04  0.13538458286E+04  0.50400001928E-02 0.  1.
    10030    2    1    2    0    0  0.00000000000E+00  0.00000000000E+00  0.97076888104E+03  0.36784605382E+04  0.35480529465E+04 0.  0.
        3    1    3    3  502    0  0.12659731068E+04  0.95780789592E+03 -0.33560879236E+03  0.16225649892E+04  0.10100000352E+00 0.  1.
       -3    1    3    3    0  502 -0.12659731068E+04 -0.95780789592E+03  0.13063776734E+04  0.20558955490E+04  0.10100000352E+00 0. -1.
</event>
<event>
 5   0  0.6541476E-07  0.3576022E+04  0.7818609E-02  0.8096006E-01
       -2   -1    0    0    0  501  0.00000000000E+00  0.00000000000E+00  0.11068000746E+04  0.11068000746E+04  0.25500000920E-02 0.  1.
        2   -1    0    0  501    0  0.00000000000E+00  0.00000000000E+00 -0.28884929548E+04  0.28884929548E+04  0.25500000920E-02 0. -1.
    10030    2    1    2    0    0  0.00000000000E+00  0.00000000000E+00 -0.17816928802E+04  0.39952930294E+04  0.35760224931E+04 0.  0.
        4    1    3    3  502    0 -0.17745004709E+04 -0.21664490345E+03 -0.85221383919E+03  0.19804183841E+04  0.12699999809E+01 0. -1.
       -4    1    3    3    0  502  0.17745004709E+04  0.21664490345E+03 -0.92947904102E+03  0.20148746453E+04  0.12699999809E+01 0.  1.
</event>
<event>
 5   0  0.6729577E-07  0.3586528E+04  0.7818609E-02  0.8093585E-01
       -2   -1    0    0    0  501  0.00000000000E+00  0.00000000000E+00  0.16076501427E+04  0.16076501427E+04  0.25500000920E-02 0. -1.
        2   -1    0    0  501    0  0.00000000000E+00  0.00000000000E+00 -0.20003083690E+04  0.20003083690E+04  0.25500000920E-02 0.  1.
    10030    2    1    2    0    0  0.00000000000E+00  0.00000000000E+00 -0.39265822629E+03  0.36079585117E+04  0.35865281457E+04 0.  0.
        3    1    3    3  502    0  0.76211460487E+03 -0.15115875251E+04  0.39888230886E+03  0.17392017202E+04  0.10100000352E+00 0. -1.
       -3    1    3    3    0  502 -0.76211460487E+03  0.15115875251E+04 -0.79154053515E+03  0.18687567916E+04  0.10100000352E+00 0.  1.
</event>
<event>
 5   0  0.6848661E-07  0.3795302E+04  0.7818609E-02  0.8047164E-01
       -2   -1    0    0    0  501  0.00000000000E+00  0.00000000000E+00  0.19216185245E+04  0.19216185245E+04  0.25500000920E-02 0.  1.
        2   -1    0    0  501    0  0.00000000000E+00  0.00000000000E+00 -0.18739824761E+04  0.18739824761E+04  0.25500000920E-02 0. -1.
    10030    2    1    2    0    0  0.00000000000E+00  0.00000000000E+00  0.47636048370E+02  0.37956010005E+04  0.37953020647E+04 0.  0.
        1    1    3    3  502    0 -0.14437087315E+03 -0.10895590426E+04  0.15709038596E+04  0.19172169394E+04  0.50400001928E-02 0.  1.
       -1    1    3    3    0  502  0.14437087315E+03  0.10895590426E+04 -0.15232678113E+04  0.18783840612E+04  0.50400001928E-02 0. -1.
</event>
<event>
 5   0  0.6541476E-07  0.3615116E+04  0.7818609E-02  0.8087038E-01
       -2   -1    0    0    0  501  0.00000000000E+00  0.00000000000E+00  0.16063534899E+04  0.16063534899E+04  0.25500000920E-02 0.  1.
        2   -1    0    0  501    0  0.00000000000E+00  0.00000000000E+00 -0.20339639527E+04  0.20339639527E+04  0.25500000920E-02 0. -1.
    10030    2    1    2    0    0  0.00000000000E+00  0.00000000000E+00 -0.42761046281E+03  0.36403174426E+04  0.36151155410E+04 0.  0.
        4    1    3    3  502    0 -0.86188704073E+03 -0.11937652926E+04  0.84199759483E+03  0.16961386757E+04  0.12699999809E+01 0.  1.
       -4    1    3    3    0  502  0.86188704073E+03  0.11937652926E+04 -0.12696080576E+04  0.19441787669E+04  0.12699999809E+01 0. -1.
</event>
<event>
 5   0  0.2086250E-07  0.3429756E+04  0.7818609E-02  0.8130642E-01
       -1   -1    0    0    0  501  0.00000000000E+00  0.00000000000E+00  0.11719610994E+04  0.11719610995E+04  0.50400001928E-02 0.  1.
        1   -1    0    0  501    0  0.00000000000E+00  0.00000000000E+00 -0.25093031680E+04  0.25093031680E+04  0.50400001928E-02 0. -1.
    10030    2    1    2    0    0  0.00000000000E+00  0.00000000000E+00 -0.13373420686E+04  0.36812642675E+04  0.34297555013E+04 0.  0.
        3    1    3    3  502    0  0.24260849162E+03 -0.13257942515E+04 -0.18067143557E+04  0.22540643405E+04  0.10100000352E+00 0. -1.
       -3    1    3    3    0  502 -0.24260849162E+03  0.13257942515E+04  0.46937228711E+03  0.14271999270E+04  0.10100000352E+00 0.  1.
</event>
<event>
 5   0  0.6729577E-07  0.3476047E+04  0.7818609E-02  0.8119490E-01
       -2   -1    0    0    0  501  0.00000000000E+00  0.00000000000E+00  0.14366731269E+04  0.14366731269E+04  0.25500000920E-02 0.  1.
        2   -1    0    0  501    0  0.00000000000E+00  0.00000000000E+00 -0.21025840906E+04  0.21025840906E+04  0.25500000920E-02 0. -1.
    10030    2    1    2    0    0  0.00000000000E+00  0.00000000000E+00 -0.66591096371E+03  0.35392572176E+04  0.34760472149E+04 0.  0.
        3    1    3    3  502    0 -0.86020053756E+03 -0.42951776492E+03 -0.18071429613E+04  0.20469968657E+04  0.10100000352E+00 0. -1.
       -3    1    3    3    0  502  0.86020053756E+03  0.42951776492E+03  0.11412319976E+04  0.14922603519E+04  0.10100000352E+00 0.  1.
</event>
<event>
 5   0  0.2086250E-07  0.3590848E+04  0.7818609E-02  0.8092591E-01
        1   -1    0    0  501    0  0.00000000000E+00  0.00000000000E+00  0.25924616829E+04  0.25924616829E+04  0.50400001928E-02 0.  1.
       -1   -1    0    0    0  501  0.00000000000E+00  0.00000000000E+00 -0.12434307981E+04  0.12434307981E+04  0.50400001928E-02 0. -1.
    10030    2    1    2    0    0  0.00000000000E+00  0.00000000000E+00  0.13490308848E+04  0.38358924809E+04  0.35908476433E+04 0.  0.
        3    1    3    3  502    0  0.12555212862E+04  0.31574317933E+03 -0.65436978766E+03  0.14505954931E+04  0.10100000352E+00 0. -1.
       -3    1    3    3    0  502 -0.12555212862E+04 -0.31574317933E+03  0.20034006725E+04  0.23852969878E+04  0.10100000352E+00 0.  1.
</event>
<event>
 5   0  0.6541476E-07  0.3535832E+04  0.7818609E-02  0.8105350E-01
       -2   -1    0    0    0  501  0.00000000000E+00  0.00000000000E+00  0.14144176436E+04  0.14144176436E+04  0.25500000920E-02 0. -1.
        2   -1    0    0  501    0  0.00000000000E+00  0.00000000000E+00 -0.22097625805E+04  0.22097625805E+04  0.25500000920E-02 0.  1.
    10030    2    1    2    0    0  0.00000000000E+00  0.00000000000E+00 -0.79534493688E+03  0.36241802241E+04  0.35358321125E+04 0.  0.
        4    1    3    3  502    0  0.26078677128E+03  0.13374380978E+04 -0.15522164582E+04  0.20654607117E+04  0.12699999809E+01 0.  1.
       -4    1    3    3    0  502 -0.26078677128E+03 -0.13374380978E+04  0.75687152129E+03  0.15587195124E+04  0.12699999809E+01 0. -1.
</event>
<event>
 5   0  0.6324216E-07  0.3588436E+04  0.7818609E-02  0.8093146E-01
        2   -1    0    0  501    0  0.00000000000E+00  0.00000000000E+00  0.28214926328E+04  0.28214926328E+04  0.25500000920E-02 0.  1.
       -2   -1    0    0    0  501  0.00000000000E+00  0.00000000000E+00 -0.11409629817E+04  0.11409629817E+04  0.25500000920E-02 0. -1.
    10030    2    1    2    0    0  0.00000000000E+00  0.00000000000E+00  0.16805296511E+04  0.39624556145E+04  0.35884362317E+04 0.  0.
        2    1    3    3  502    0 -0.55975472418E+03 -0.10807456221E+04 -0.61542666925E+03  0.13638498584E+04  0.25500000920E-02 0. -1.
       -2    1    3    3    0  502  0.55975472418E+03  0.10807456221E+04  0.22959563204E+04  0.25986057562E+04  0.25500000920E-02 0.  1.
</event>
<event>
 5   0  0.6848661E-07  0.3600492E+04  0.7818609E-02  0.8090379E-01
        2   -1    0    0  501    0  0.00000000000E+00  0.00000000000E+00  0.27331119969E+04  0.27331119969E+04  0.25500000920E-02 0. -1.
       -2   -1    0    0    0  501  0.00000000000E+00  0.00000000000E+00 -0.11857856518E+04  0.11857856518E+04  0.25500000920E-02 0.  1.
    10030    2    1    2    0    0  0.00000000000E+00  0.00000000000E+00  0.15473263451E+04  0.39188976488E+04  0.36004916280E+04 0.  0.
        1    1    3    3  502    0  0.16778700075E+04  0.15486023612E+03  0.83853953597E+02  0.16870865243E+04  0.50400001928E-02 0.  1.
       -1    1    3    3    0  502 -0.16778700075E+04 -0.15486023612E+03  0.14634723915E+04  0.22318111245E+04  0.50400001928E-02 0. -1.
</event>
<event>
 5   0  0.6729577E-07  0.3619670E+04  0.7818609E-02  0.8086001E-01
       -2   -1    0    0    0  501  0.00000000000E+00  0.00000000000E+00  0.15066251012E+04  0.15066251012E+04  0.25500000920E-02 0.  1.
        2   -1    0    0  501    0  0.00000000000E+00  0.00000000000E+00 -0.21740667720E+04  0.21740667720E+04  0.25500000920E-02 0. -1.
    10030    2    1    2    0    0  0.00000000000E+00  0.00000000000E+00 -0.66744167077E+03  0.36806918732E+04  0.36196704659E+04 0.  0.
        3    1    3    3  502    0 -0.12397563760E+04 -0.35894004808E+03  0.95639532885E+03  0.16064015268E+04  0.10100000352E+00 0.  1.
       -3    1    3    3    0  502  0.12397563760E+04  0.35894004808E+03 -0.16238369996E+04  0.20742903465E+04  0.10100000352E+00 0. -1.
</event>
<event>
 5   0  0.6324216E-07  0.3578530E+04  0.7818609E-02  0.8095428E-01
       -2   -1    0    0    0  501  0.00000000000E+00  0.00000000000E+00  0.13101378345E+04  0.13101378345E+04  0.25500000920E-02 0.  1.
        2   -1    0    0  501    0  0.00000000000E+00  0.00000000000E+00 -0.24436119226E+04  0.24436119226E+04  0.25500000920E-02 0. -1.
    10030    2    1    2    0    0  0.00000000000E+00  0.00000000000E+00 -0.11334740881E+04  0.37537497572E+04  0.35785295487E+04 0.  0.
        2    1    3    3  502    0 -0.17100608948E+04 -0.27258679718E+03 -0.10391864288E+04  0.20195346642E+04  0.25500000920E-02 0.  1.
       -2    1    3    3    0  502  0.17100608948E+04  0.27258679718E+03 -0.94287659301E+02  0.17342150930E+04  0.25500000920E-02 0. -1.
</event>
<event>
 5   0  0.2086250E-07  0.3516060E+04  0.7818609E-02  0.8109994E-01
       -1   -1    0    0    0  501  0.00000000000E+00  0.00000000000E+00  0.12604520151E+04  0.12604520152E+04  0.50400001928E-02 0.  1.
        1   -1    0    0  501    0  0.00000000000E+00  0.00000000000E+00 -0.24520328092E+04  0.24520328092E+04  0.50400001928E-02 0. -1.
    10030    2    1    2    0    0  0.00000000000E+00  0.00000000000E+00 -0.11915807940E+04  0.37124848243E+04  0.35160601221E+04 0.  0.
        2    1    3    3  502    0  0.13940593641E+03 -0.13856816775E+04 -0.17286316761E+04  0.22198457600E+04  0.25500000920E-02 0. -1.
       -2    1    3    3    0  502 -0.13940593641E+03  0.13856816775E+04  0.53705088204E+03  0.14926390644E+04  0.25500000920E-02 0.  1.
</event>
<event>
 5   0  0.2086250E-07  0.3523002E+04  0.7818609E-02  0.8108360E-01
       -1   -1    0    0    0  501  0.00000000000E+00  0.00000000000E+00  0.18601112521E+04  0.18601112521E+04  0.50400001928E-02 0.  1.
        1   -1    0    0  501    0  0.00000000000E+00  0.00000000000E+00 -0.16681180147E+04  0.16681180147E+04  0.50400001928E-02 0. -1.
    10030    2    1    2    0    0  0.00000000000E+00  0.00000000000E+00  0.19199323744E+03  0.35282292668E+04  0.35230016117E+04 0.  0.
        2    1    3    3  502    0  0.42546504270E+03 -0.47482491693E+02  0.18072187072E+04  0.18572330347E+04  0.25500000920E-02 0.  1.
       -2    1    3    3    0  502 -0.42546504270E+03  0.47482491693E+02 -0.16152254697E+04  0.16709962321E+04  0.25500000920E-02 0. -1.
</event>
<event>
 5   0  0.2086250E-07  0.3677987E+04  0.7818609E-02  0.8072858E-01
       -1   -1    0    0    0  501  0.00000000000E+00  0.00000000000E+00  0.13311288320E+04  0.13311288320E+04  0.50400001928E-02 0.  1.
        1   -1    0    0  501    0  0.00000000000E+00  0.00000000000E+00 -0.25406236093E+04  0.25406236093E+04  0.50400001928E-02 0. -1.
    10030    2    1    2    0    0  0.00000000000E+00  0.00000000000E+00 -0.12094947774E+04  0.38717524413E+04  0.36779871330E+04 0.  0.
        4    1    3    3  502    0  0.11464579402E+04 -0.98006323272E+03 -0.17123203831E+04  0.22818703855E+04  0.12699999809E+01 0. -1.
       -4    1    3    3    0  502 -0.11464579402E+04  0.98006323272E+03  0.50282560577E+03  0.15898820558E+04  0.12699999809E+01 0.  1.
</event>
<event>
 5   0  0.2108068E-07  0.3619062E+04  0.7818609E-02  0.8086139E-01
       -1   -1    0    0    0  501  0.00000000000E+00  0.00000000000E+00  0.16012704751E+04  0.16012704751E+04  0.50400001928E-02 0. -1.
        1   -1    0    0  501    0  0.00000000000E+00  0.00000000000E+00 -0.20448776615E+04  0.20448776616E+04  0.50400001928E-02 0.  1.
    10030    2    1    2    0    0  0.00000000000E+00  0.00000000000E+00 -0.44360718642E+03  0.36461481367E+04  0.36190618810E+04 0.  0.
        5    1    3    3  502    0  0.11383349856E+04  0.13495838379E+04  0.17764464452E+03  0.17744753548E+04  0.46999998093E+01 0.  1.
       -5    1    3    3    0  502 -0.11383349856E+04 -0.13495838379E+04 -0.62125183094E+03  0.18716727819E+04  0.46999998093E+01 0. -1.
</event>
<event>
 5   0  0.2108068E-07  0.3137473E+04  0.7818609E-02  0.8205528E-01
        1   -1    0    0  501    0  0.00000000000E+00  0.00000000000E+00  0.13664302122E+04  0.13664302122E+04  0.50400001928E-02 0.  1.
       -1   -1    0    0    0  501  0.00000000000E+00  0.00000000000E+00 -0.18009956338E+04  0.18009956339E+04  0.50400001928E-02 0. -1.
    10030    2    1    2    0    0  0.00000000000E+00  0.00000000000E+00 -0.43456542165E+03  0.31674258461E+04  0.31374734078E+04 0.  0.
        5    1    3    3  502    0 -0.33357599168E+03 -0.86292399303E+02  0.13277503694E+04  0.13717370206E+04  0.46999998093E+01 0.  1.
       -5    1    3    3    0  502  0.33357599168E+03  0.86292399303E+02 -0.17623157910E+04  0.17956888254E+04  0.46999998093E+01 0. -1.
</event>
<event>
 5   0  0.6729577E-07  0.3595481E+04  0.7818609E-02  0.8091528E-01
        2   -1    0    0  501    0  0.00000000000E+00  0.00000000000E+00  0.14380268271E+04  0.14380268271E+04  0.25500000920E-02 0.  1.
       -2   -1    0    0    0  501  0.00000000000E+00  0.00000000000E+00 -0.22474340335E+04  0.22474340335E+04  0.25500000920E-02 0. -1.
    10030    2    1    2    0    0  0.00000000000E+00  0.00000000000E+00 -0.80940720639E+03  0.36854608606E+04  0.35954807368E+04 0.  0.
        3    1    3    3  502    0  0.73312656586E+03 -0.44002486199E+03 -0.20256627079E+04  0.21987282363E+04  0.10100000352E+00 0. -1.
       -3    1    3    3    0  502 -0.73312656586E+03  0.44002486199E+03  0.12162555015E+04  0.14867326242E+04  0.10100000352E+00 0.  1.
</event>
<event>
 5   0  0.6729577E-07  0.3328923E+04  0.7818609E-02  0.8155575E-01
        2   -1    0    0  501    0  0.00000000000E+00  0.00000000000E+00  0.17340905317E+04  0.17340905317E+04  0.25500000920E-02 0.  1.
       -2   -1    0    0    0  501  0.00000000000E+00  0.00000000000E+00 -0.15976284907E+04  0.15976284907E+04  0.25500000920E-02 0. -1.
    10030    2    1    2    0    0  0.00000000000E+00  0.00000000000E+00  0.13646204103E+03  0.33317190224E+04  0.33289232127E+04 0.  0.
        3    1    3    3  502    0  0.13584969263E+04  0.35955305071E+03 -0.82450474007E+03  0.16292944398E+04  0.10100000352E+00 0. -1.
       -3    1    3    3    0  502 -0.13584969263E+04 -0.35955305071E+03  0.96096678110E+03  0.17024245826E+04  0.10100000352E+00 0.  1.
</event>
<event>
 5   0  0.2086250E-07  0.3573396E+04  0.7818609E-02  0.8096613E-01
        3   -1    0    0  501    0  0.00000000000E+00  0.00000000000E+00  0.14705730551E+04  0.14705730586E+04  0.10100000352E+00 0. -1.
       -3   -1    0    0    0  501  0.00000000000E+00  0.00000000000E+00 -0.21707795844E+04  0.21707795868E+04  0.10100000352E+00 0.  1.
    10030    2    1    2    0    0  0.00000000000E+00  0.00000000000E+00 -0.70020652931E+03  0.36413526453E+04  0.35733961303E+04 0.  0.
        4    1    3    3  502    0 -0.15707158569E+04 -0.89840316001E+02  0.51279974510E+03  0.16547461367E+04  0.12699999809E+01 0. -1.
       -4    1    3    3    0  502  0.15707158569E+04  0.89840316001E+02 -0.12130062744E+04  0.19866065086E+04  0.12699999809E+01 0.  1.
</event>
<event>
 5   0  0.6848661E-07  0.3563090E+04  0.7818609E-02  0.8098999E-01
       -2   -1    0    0    0  501  0.00000000000E+00  0.00000000000E+00  0.16436512372E+04  0.16436512372E+04  0.25500000920E-02 0. -1.
        2   -1    0    0  501    0  0.00000000000E+00  0.00000000000E+00 -0.19310070541E+04  0.19310070541E+04  0.25500000920E-02 0.  1.
    10030    2    1    2    0    0  0.00000000000E+00  0.00000000000E+00 -0.28735581698E+03  0.35746582913E+04  0.35630897454E+04 0.  0.
        1    1    3    3  502    0 -0.80636803641E+03 -0.30436964007E+03 -0.17079168584E+04  0.19130735175E+04  0.50400001928E-02 0.  1.
       -1    1    3    3    0  502  0.80636803641E+03  0.30436964007E+03  0.14205610415E+04  0.16615847738E+04  0.50400001928E-02 0. -1.
</event>
<event>
 5   0  0.2086250E-07  0.3629191E+04  0.7818609E-02  0.8083838E-01
        1   -1    0    0  501    0  0.00000000000E+00  0.00000000000E+00  0.15903758308E+04  0.15903758308E+04  0.50400001928E-02 0.  1.
       -1   -1    0    0    0  501  0.00000000000E+00  0.00000000000E+00 -0.20704271304E+04  0.20704271304E+04  0.50400001928E-02 0. -1.
    10030    2    1    2    0    0  0.00000000000E+00  0.00000000000E+00 -0.48005129953E+03  0.36608029612E+04  0.36291912419E+04 0.  0.
        2    1    3    3  502    0 -0.83695768153E+03 -0.11272435301E+03  0.13800625956E+04  0.16179547918E+04  0.25500000920E-02 0.  1.
       -2    1    3    3    0  502  0.83695768153E+03  0.11272435301E+03 -0.18601138951E+04  0.20428481694E+04  0.25500000920E-02 0. -1.
</event>
<event>
 5   0  0.6729577E-07  0.3607402E+04  0.7818609E-02  0.8088798E-01
       -2   -1    0    0    0  501  0.00000000000E+00  0.00000000000E+00  0.13540543654E+04  0.13540543654E+04  0.25500000920E-02 0. -1.
        2   -1    0    0  501    0  0.00000000000E+00  0.00000000000E+00 -0.24026630593E+04  0.24026630593E+04  0.25500000920E-02 0.  1.
    10030    2    1    2    0    0  0.00000000000E+00  0.00000000000E+00 -0.10486086939E+04  0.37567174247E+04  0.36074015047E+04 0.  0.
        3    1    3    3  502    0  0.97040229575E+03  0.13100133916E+04 -0.13279460684E+04  0.21026784044E+04  0.10100000352E+00 0.  1.
       -3    1    3    3    0  502 -0.97040229575E+03 -0.13100133916E+04  0.27933737451E+03  0.16540390203E+04  0.10100000352E+00 0. -1.
</event>
<event>
 5   0  0.6541476E-07  0.3607034E+04  0.7818609E-02  0.8088882E-01
        2   -1    0    0  501    0  0.00000000000E+00  0.00000000000E+00  0.10272930560E+04  0.10272930560E+04  0.25500000920E-02 0. -1.
       -2   -1    0    0    0  501  0.00000000000E+00  0.00000000000E+00 -0.31662569446E+04  0.31662569446E+04  0.25500000920E-02 0.  1.
    10030    2    1    2    0    0  0.00000000000E+00  0.00000000000E+00 -0.21389638886E+04  0.41935500006E+04  0.36070341127E+04 0.  0.
        4    1    3    3  502    0 -0.90416562053E+03 -0.12511019363E+04  0.14860356096E+02  0.15436949075E+04  0.12699999809E+01 0. -1.
       -4    1    3    3    0  502  0.90416562053E+03  0.12511019363E+04 -0.21538242447E+04  0.26498550931E+04  0.12699999809E+01 0.  1.
</event>
<event>
 5   0  0.6669864E-07  0.3604645E+04  0.7818609E-02  0.8089428E-01
        2   -1    0    0  501    0  0.00000000000E+00  0.00000000000E+00  0.20924446862E+04  0.20924446862E+04  0.25500000920E-02 0.  1.
       -2   -1    0    0    0  501  0.00000000000E+00  0.00000000000E+00 -0.15524266652E+04  0.15524266652E+04  0.25500000920E-02 0. -1.
    10030    2    1    2    0    0  0.00000000000E+00  0.00000000000E+00  0.54001802105E+03  0.36448713514E+04  0.36046452953E+04 0.  0.
        5    1    3    3  502    0 -0.69051152107E+03  0.11856931382E+04 -0.91165123779E+03  0.16473628769E+04  0.46999998093E+01 0. -1.
       -5    1    3    3    0  502  0.69051152107E+03 -0.11856931382E+04  0.14516692588E+04  0.19975084745E+04  0.46999998093E+01 0.  1.
</event>
<event>
 5   0  0.2193129E-07  0.3603242E+04  0.7818609E-02  0.8089749E-01
       -1   -1    0    0    0  501  0.00000000000E+00  0.00000000000E+00  0.20601803073E+04  0.20601803073E+04  0.50400001928E-02 0. -1.
        1   -1    0    0  501    0  0.00000000000E+00  0.00000000000E+00 -0.15755118740E+04  0.15755118740E+04  0.50400001928E-02 0.  1.
    10030    2    1    2    0    0  0.00000000000E+00  0.00000000000E+00  0.48466843331E+03  0.36356921813E+04  0.36032421716E+04 0.  0.
        1    1    3    3  502    0  0.23283707168E+03 -0.23747682961E+03 -0.15442700660E+04  0.15796766705E+04  0.50400001928E-02 0.  1.
       -1    1    3    3    0  502 -0.23283707168E+03  0.23747682961E+03  0.20289384993E+04  0.20560155108E+04  0.50400001928E-02 0. -1.
</event>
<event>
 5   0  0.2086250E-07  0.3651014E+04  0.7818609E-02  0.8078905E-01
       -1   -1    0    0    0  501  0.00000000000E+00  0.00000000000E+00  0.30570820534E+04  0.30570820534E+04  0.50400001928E-02 0.  1.
        1   -1    0    0  501    0  0.00000000000E+00  0.00000000000E+00 -0.10900839895E+04  0.10900839895E+04  0.50400001928E-02 0. -1.
    10030    2    1    2    0    0  0.00000000000E+00  0.00000000000E+00  0.19669980640E+04  0.41471660429E+04  0.36510142158E+04 0.  0.
        3    1    3    3  502    0 -0.11962007486E+04 -0.10448639695E+04  0.20057024044E+04  0.25584133933E+04  0.10100000352E+00 0.  1.
       -3    1    3    3    0  502  0.11962007486E+04  0.10448639695E+04 -0.38704340447E+02  0.15887526497E+04  0.10100000352E+00 0. -1.
</event>
<event>
 5   0  0.2086250E-07  0.3575412E+04  0.7818609E-02  0.8096147E-01
       -1   -1    0    0    0  501  0.00000000000E+00  0.00000000000E+00  0.13587824342E+04  0.13587824342E+04  0.50400001928E-02 0.  1.
        1   -1    0    0  501    0  0.00000000000E+00  0.00000000000E+00 -0.23520274392E+04  0.23520274392E+04  0.50400001928E-02 0. -1.
    10030    2    1    2    0    0  0.00000000000E+00  0.00000000000E+00 -0.99324500501E+03  0.37108098734E+04  0.35754124624E+04 0.  0.
        4    1    3    3  502    0  0.96208602252E+03 -0.99075915026E+03 -0.16748112946E+04  0.21707620077E+04  0.12699999809E+01 0. -1.
       -4    1    3    3    0  502 -0.96208602252E+03  0.99075915026E+03  0.68156628959E+03  0.15400478657E+04  0.12699999809E+01 0.  1.
</event>
<event>
 5   0  0.2108068E-07  0.3590155E+04  0.7818609E-02  0.8092750E-01
        1   -1    0    0  501    0  0.00000000000E+00  0.00000000000E+00  0.12173751686E+04  0.12173751686E+04  0.50400001928E-02 0. -1.
       -1   -1    0    0    0  501  0.00000000000E+00  0.00000000000E+00 -0.26469273899E+04  0.26469273899E+04  0.50400001928E-02 0.  1.
    10030    2    1    2    0    0  0.00000000000E+00  0.00000000000E+00 -0.14295522213E+04  0.38643025585E+04  0.35901552488E+04 0.  0.
        5    1    3    3  502    0  0.65942652516E+02  0.14061899403E+04 -0.19136328982E+04  0.23756539185E+04  0.46999998093E+01 0.  1.
       -5    1    3    3    0  502 -0.65942652516E+02 -0.14061899403E+04  0.48408067694E+03  0.14886486400E+04  0.46999998093E+01 0. -1.
</event>
<event>
 5   0  0.6729577E-07  0.3580225E+04  0.7818609E-02  0.8095037E-01
       -2   -1    0    0    0  501  0.00000000000E+00  0.00000000000E+00  0.19751246631E+04  0.19751246631E+04  0.25500000920E-02 0. -1.
        2   -1    0    0  501    0  0.00000000000E+00  0.00000000000E+00 -0.16224303030E+04  0.16224303030E+04  0.25500000920E-02 0.  1.
    10030    2    1    2    0    0  0.00000000000E+00  0.00000000000E+00  0.35269436017E+03  0.35975549661E+04  0.35802246329E+04 0.  0.
        3    1    3    3  502    0 -0.37297566344E+02 -0.17896196044E+04  0.19574498574E+03  0.18006791904E+04  0.10100000352E+00 0. -1.
       -3    1    3    3    0  502  0.37297566344E+02  0.17896196044E+04  0.15694937443E+03  0.17968757757E+04  0.10100000352E+00 0.  1.
</event>
<event>
 5   0  0.2086250E-07  0.3578834E+04  0.7818609E-02  0.8095357E-01
        1   -1    0    0  501    0  0.00000000000E+00  0.00000000000E+00  0.12595127881E+04  0.12595127881E+04  0.50400001928E-02 0.  1.
       -1   -1    0    0    0  501  0.00000000000E+00  0.00000000000E+00 -0.25422640196E+04  0.25422640196E+04  0.50400001928E-02 0. -1.
    10030    2    1    2    0    0  0.00000000000E+00  0.00000000000E+00 -0.12827512315E+04  0.38017768077E+04  0.35788344714E+04 0.  0.
        2    1    3    3  502    0  0.20615630607E+03 -0.15364055830E+04  0.30815866955E+03  0.15805076094E+04  0.25500000920E-02 0.  1.
       -2    1    3    3    0  502 -0.20615630607E+03  0.15364055830E+04 -0.15909099010E+04  0.22212691982E+04  0.25500000920E-02 0. -1.
</event>
<event>
 5   0  0.2086250E-07  0.3655618E+04  0.7818609E-02  0.8077869E-01
        1   -1    0    0  501    0  0.00000000000E+00  0.00000000000E+00  0.19086554702E+04  0.19086554702E+04  0.50400001928E-02 0. -1.
       -1   -1    0    0    0  501  0.00000000000E+00  0.00000000000E+00 -0.17503874853E+04  0.17503874853E+04  0.50400001928E-02 0.  1.
    10030    2    1    2    0    0  0.00000000000E+00  0.00000000000E+00  0.15826798490E+03  0.36590429555E+04  0.36556184969E+04 0.  0.
        4    1    3    3  502    0 -0.79259951574E+03 -0.11477960883E+04  0.12614412388E+04  0.18806609117E+04  0.12699999809E+01 0. -1.
       -4    1    3    3    0  502  0.79259951574E+03  0.11477960883E+04 -0.11031732539E+04  0.17783820438E+04  0.12699999809E+01 0.  1.
</event>
<event>
 5   0  0.2086250E-07  0.3634247E+04  0.7818609E-02  0.8082692E-01
       -1   -1    0    0    0  501  0.00000000000E+00  0.00000000000E+00  0.19579141658E+04  0.19579141658E+04  0.50400001928E-02 0.  1.
        1   -1    0    0  501    0  0.00000000000E+00  0.00000000000E+00 -0.16864564939E+04  0.16864564939E+04  0.50400001928E-02 0. -1.
    10030    2    1    2    0    0  0.00000000000E+00  0.00000000000E+00  0.27145767187E+03  0.36443706597E+04  0.36342465846E+04 0.  0.
        3    1    3    3  502    0 -0.72622769419E+03 -0.15861247755E+04 -0.37435169512E+03  0.17841910405E+04  0.10100000352E+00 0. -1.
       -3    1    3    3    0  502  0.72622769419E+03  0.15861247755E+04  0.64580936699E+03  0.18601796192E+04  0.10100000352E+00 0.  1.
</event>
<event>
 5   0  0.2086250E-07  0.3580049E+04  0.7818609E-02  0.8095077E-01
        1   -1    0    0  501    0  0.00000000000E+00  0.00000000000E+00  0.12999681839E+04  0.12999681839E+04  0.50400001928E-02 0. -1.
       -1   -1    0    0    0  501  0.00000000000E+00  0.00000000000E+00 -0.24648204118E+04  0.24648204118E+04  0.50400001928E-02 0.  1.
    10030    2    1    2    0    0  0.00000000000E+00  0.00000000000E+00 -0.11648522279E+04  0.37647885957E+04  0.35800492256E+04 0.  0.
        4    1    3    3  502    0  0.13606900624E+04 -0.10034822517E+04 -0.12007580146E+04  0.20737105627E+04  0.12699999809E+01 0. -1.
       -4    1    3    3    0  502 -0.13606900624E+04  0.10034822517E+04  0.35905786707E+02  0.16910780330E+04  0.12699999809E+01 0.  1.
</event>
<event>
 5   0  0.6324216E-07  0.3587165E+04  0.7818609E-02  0.8093438E-01
        2   -1    0    0  501    0  0.00000000000E+00  0.00000000000E+00  0.24076922674E+04  0.24076922674E+04  0.25500000920E-02 0. -1.
       -2   -1    0    0    0  501  0.00000000000E+00  0.00000000000E+00 -0.13361088431E+04  0.13361088431E+04  0.25500000920E-02 0.  1.
    10030    2    1    2    0    0  0.00000000000E+00  0.00000000000E+00  0.10715834243E+04  0.37438011105E+04  0.35871654157E+04 0.  0.
        2    1    3    3  502    0 -0.24450078015E+03 -0.15613039368E+04  0.14210565966E+04  0.21252887958E+04  0.25500000920E-02 0.  1.
       -2    1    3    3    0  502  0.24450078015E+03  0.15613039368E+04 -0.34947317233E+03  0.16185123147E+04  0.25500000920E-02 0. -1.
</event>
<event>
 5   0  0.6669864E-07  0.3508827E+04  0.7818609E-02  0.8111701E-01
       -2   -1    0    0    0  501  0.00000000000E+00  0.00000000000E+00  0.10902346210E+04  0.10902346210E+04  0.25500000920E-02 0.  1.
        2   -1    0    0  501    0  0.00000000000E+00  0.00000000000E+00 -0.28232152570E+04  0.28232152570E+04  0.25500000920E-02 0. -1.
    10030    2    1    2    0    0  0.00000000000E+00  0.00000000000E+00 -0.17329806360E+04  0.39134498780E+04  0.35088271634E+04 0.  0.
        5    1    3    3  502    0 -0.10073686180E+04 -0.59304943998E+03  0.59259056973E+03  0.13106047627E+04  0.46999998093E+01 0.  1.
       -5    1    3    3    0  502  0.10073686180E+04  0.59304943998E+03 -0.23255712058E+04  0.26028451152E+04  0.46999998093E+01 0. -1.
</event>
<event>
 5   0  0.6729577E-07  0.3611886E+04  0.7818609E-02  0.8087774E-01
       -2   -1    0    0    0  501  0.00000000000E+00  0.00000000000E+00  0.24879377775E+04  0.24879377775E+04  0.25500000920E-02 0. -1.
        2   -1    0    0  501    0  0.00000000000E+00  0.00000000000E+00 -0.13108972880E+04  0.13108972880E+04  0.25500000920E-02 0.  1.
    10030    2    1    2    0    0  0.00000000000E+00  0.00000000000E+00  0.11770404895E+04  0.37988350655E+04  0.36118864242E+04 0.  0.
        3    1    3    3  502    0  0.30186704819E+03  0.61823806692E+03 -0.11676623059E+04  0.13552775705E+04  0.10100000352E+00 0.  1.
       -3    1    3    3    0  502 -0.30186704819E+03 -0.61823806692E+03  0.23447027955E+04  0.24435574950E+04  0.10100000352E+00 0. -1.
</event>
<event>
 5   0  0.6669864E-07  0.3596338E+04  0.7818609E-02  0.8091331E-01
        2   -1    0    0  501    0  0.00000000000E+00  0.00000000000E+00  0.23208436175E+04  0.23208436175E+04  0.25500000920E-02 0. -1.
       -2   -1    0    0    0  501  0.00000000000E+00  0.00000000000E+00 -0.13932054927E+04  0.13932054927E+04  0.25500000920E-02 0.  1.
    10030    2    1    2    0    0  0.00000000000E+00  0.00000000000E+00  0.92763812484E+03  0.37140491102E+04  0.35963381796E+04 0.  0.
        5    1    3    3  502    0 -0.35370600810E+03  0.57382532056E+03 -0.12577795477E+04  0.14270301045E+04  0.46999998093E+01 0.  1.
       -5    1    3    3    0  502  0.35370600810E+03 -0.57382532056E+03  0.21854176725E+04  0.22870190056E+04  0.46999998093E+01 0. -1.
</event>
<event>
 5   0  0.2086250E-07  0.3574428E+04  0.7818609E-02  0.8096374E-01
       -1   -1    0    0    0  501  0.00000000000E+00  0.00000000000E+00  0.15415724429E+04  0.15415724429E+04  0.50400001928E-02 0. -1.
        1   -1    0    0  501    0  0.00000000000E+00  0.00000000000E+00 -0.20719978183E+04  0.20719978183E+04  0.50400001928E-02 0.  1.
    10030    2    1    2    0    0  0.00000000000E+00  0.00000000000E+00 -0.53042537539E+03  0.36135702612E+04  0.35744284794E+04 0.  0.
        4    1    3    3  502    0 -0.97704367760E+03  0.10269590812E+02 -0.17780666937E+04  0.20288525310E+04  0.12699999809E+01 0.  1.
       -4    1    3    3    0  502  0.97704367760E+03 -0.10269590812E+02  0.12476413183E+04  0.15847177302E+04  0.12699999809E+01 0. -1.
</event>
<event>
 5   0  0.2108068E-07  0.3602575E+04  0.7818609E-02  0.8089902E-01
        1   -1    0    0  501    0  0.00000000000E+00  0.00000000000E+00  0.23320347153E+04  0.23320347153E+04  0.50400001928E-02 0. -1.
       -1   -1    0    0    0  501  0.00000000000E+00  0.00000000000E+00 -0.13913329333E+04  0.13913329333E+04  0.50400001928E-02 0.  1.
    10030    2    1    2    0    0  0.00000000000E+00  0.00000000000E+00  0.94070178199E+03  0.37233676486E+04  0.36025750240E+04 0.  0.
        5    1    3    3  502    0 -0.14668471903E+03  0.14181045365E+04 -0.66750725410E+03  0.15742061197E+04  0.46999998093E+01 0.  1.
       -5    1    3    3    0  502  0.14668471903E+03 -0.14181045365E+04  0.16082090361E+04  0.21491615288E+04  0.46999998093E+01 0. -1.
</event>
<event>
 5   0  0.2086250E-07  0.3617969E+04  0.7818609E-02  0.8086388E-01
       -1   -1    0    0    0  501  0.00000000000E+00  0.00000000000E+00  0.13260605337E+04  0.13260605337E+04  0.50400001928E-02 0. -1.
        1   -1    0    0  501    0  0.00000000000E+00  0.00000000000E+00 -0.24677789860E+04  0.24677789860E+04  0.50400001928E-02 0.  1.
    10030    2    1    2    0    0  0.00000000000E+00  0.00000000000E+00 -0.11417184523E+04  0.37938395196E+04  0.36179686672E+04 0.  0.
        3    1    3    3  502    0  0.12973455359E+04  0.14310829466E+03  0.74255987333E+03  0.15016592820E+04  0.10100000352E+00 0. -1.
       -3    1    3    3    0  502 -0.12973455359E+04 -0.14310829466E+03 -0.18842783256E+04  0.22921802377E+04  0.10100000352E+00 0.  1.
</event>
<event>
 5   0  0.2108068E-07  0.3578593E+04  0.7818609E-02  0.8095413E-01
       -1   -1    0    0    0  501  0.00000000000E+00  0.00000000000E+00  0.16202491225E+04  0.16202491225E+04  0.50400001928E-02 0. -1.
        1   -1    0    0  501    0  0.00000000000E+00  0.00000000000E+00 -0.19759811156E+04  0.19759811156E+04  0.50400001928E-02 0.  1.
    10030    2    1    2    0    0  0.00000000000E+00  0.00000000000E+00 -0.35573199304E+03  0.35962302381E+04  0.35785928344E+04 0.  0.
        5    1    3    3  502    0  0.40093311571E+03  0.47259615380E+03 -0.18646694141E+04  0.19649703819E+04  0.46999998093E+01 0.  1.
       -5    1    3    3    0  502 -0.40093311571E+03 -0.47259615380E+03  0.15089374210E+04  0.16312598562E+04  0.46999998093E+01 0. -1.
</event>
<event>
 5   0  0.6324216E-07  0.3588517E+04  0.7818609E-02  0.8093127E-01
       -2   -1    0    0    0  501  0.00000000000E+00  0.00000000000E+00  0.13567974375E+04  0.13567974375E+04  0.25500000920E-02 0. -1.
        2   -1    0    0  501    0  0.00000000000E+00  0.00000000000E+00 -0.23727665491E+04  0.23727665491E+04  0.25500000920E-02 0.  1.
    10030    2    1    2    0    0  0.00000000000E+00  0.00000000000E+00 -0.10159691116E+04  0.37295639865E+04  0.35885170048E+04 0.  0.
        2    1    3    3  502    0 -0.34721695413E+03 -0.10162271120E+04  0.98590088699E+03  0.14578332262E+04  0.25500000920E-02 0. -1.
       -2    1    3    3    0  502  0.34721695413E+03  0.10162271120E+04 -0.20018699986E+04  0.22717307604E+04  0.25500000920E-02 0.  1.
</event>
<event>
 5   0  0.6729577E-07  0.3578685E+04  0.7818609E-02  0.8095392E-01
       -2   -1    0    0    0  501  0.00000000000E+00  0.00000000000E+00  0.11785879199E+04  0.11785879199E+04  0.25500000920E-02 0.  1.
        2   -1    0    0  501    0  0.00000000000E+00  0.00000000000E+00 -0.27165955942E+04  0.27165955942E+04  0.25500000920E-02 0. -1.
    10030    2    1    2    0    0  0.00000000000E+00  0.00000000000E+00 -0.15380076743E+04  0.38951835141E+04  0.35786850941E+04 0.  0.
        3    1    3    3  502    0 -0.45671605319E+03 -0.27711964965E+03  0.10897639867E+04  0.12136599237E+04  0.10100000352E+00 0.  1.
       -3    1    3    3    0  502  0.45671605319E+03  0.27711964965E+03 -0.26277716610E+04  0.26815235905E+04  0.10100000352E+00 0. -1.
</event>
<event>
 5   0  0.6729577E-07  0.3625317E+04  0.7818609E-02  0.8084717E-01
       -2   -1    0    0    0  501  0.00000000000E+00  0.00000000000E+00  0.20763851818E+04  0.20763851818E+04  0.25500000920E-02 0.  1.
        2   -1    0    0  501    0  0.00000000000E+00  0.00000000000E+00 -0.15824282984E+04  0.15824282984E+04  0.25500000920E-02 0. -1.
    10030    2    1    2    0    0  0.00000000000E+00  0.00000000000E+00  0.49395688342E+03  0.36588134801E+04  0.36253169075E+04 0.  0.
        3    1    3    3  502    0  0.58478129718E+03 -0.14455619548E+04 -0.68574252332E+03  0.17034850599E+04  0.10100000352E+00 0. -1.
       -3    1    3    3    0  502 -0.58478129718E+03  0.14455619548E+04  0.11796994067E+04  0.19553284203E+04  0.10100000352E+00 0.  1.
</event>
<event>
 5   0  0.2086250E-07  0.3469496E+04  0.7818609E-02  0.8121057E-01
       -1   -1    0    0    0  501  0.00000000000E+00  0.00000000000E+00  0.21706989392E+04  0.21706989392E+04  0.50400001928E-02 0.  1.
        1   -1    0    0  501    0  0.00000000000E+00  0.00000000000E+00 -0.13863508837E+04  0.13863508837E+04  0.50400001928E-02 0. -1.
    10030    2    1    2    0    0  0.00000000000E+00  0.00000000000E+00  0.78434805551E+03  0.35570498230E+04  0.34694958670E+04 0.  0.
        2    1    3    3  502    0  0.19322972938E+03 -0.81005086361E+03 -0.11680139832E+04  0.14344953101E+04  0.25500000920E-02 0. -1.
       -2    1    3    3    0  502 -0.19322972938E+03  0.81005086361E+03  0.19523620387E+04  0.21225545128E+04  0.25500000920E-02 0.  1.
</event>
<event>
 5   0  0.6541476E-07  0.3565348E+04  0.7818609E-02  0.8098476E-01
       -2   -1    0    0    0  501  0.00000000000E+00  0.00000000000E+00  0.21447563521E+04  0.21447563521E+04  0.25500000920E-02 0. -1.
        2   -1    0    0  501    0  0.00000000000E+00  0.00000000000E+00 -0.14817189087E+04  0.14817189087E+04  0.25500000920E-02 0.  1.
    10030    2    1    2    0    0  0.00000000000E+00  0.00000000000E+00  0.66303744335E+03  0.36264752608E+04  0.35653476922E+04 0.  0.
        4    1    3    3  502    0  0.17147470775E+04  0.16014689967E+03  0.79975888110E+03  0.18988471371E+04  0.12699999809E+01 0.  1.
       -4    1    3    3    0  502 -0.17147470775E+04 -0.16014689967E+03 -0.13672143775E+03  0.17276281237E+04  0.12699999809E+01 0. -1.
</event>
<event>
 5   0  0.6729577E-07  0.3617513E+04  0.7818609E-02  0.8086492E-01
       -2   -1    0    0    0  501  0.00000000000E+00  0.00000000000E+00  0.14554545693E+04  0.14554545693E+04  0.25500000920E-02 0.  1.
        2   -1    0    0  501    0  0.00000000000E+00  0.00000000000E+00 -0.22478199183E+04  0.22478199183E+04  0.25500000920E-02 0. -1.
    10030    2    1    2    0    0  0.00000000000E+00  0.00000000000E+00 -0.79236534900E+03  0.37032744876E+04  0.36175128313E+04 0.  0.
        3    1    3    3  502    0  0.10803331339E+04  0.10580746012E+04  0.61979631621E+03  0.16342548839E+04  0.10100000352E+00 0.  1.
       -3    1    3    3    0  502 -0.10803331339E+04 -0.10580746012E+04 -0.14121616652E+04  0.20690196037E+04  0.10100000352E+00 0. -1.
</event>
<event>
 5   0  0.6729577E-07  0.3626156E+04  0.7818609E-02  0.8084526E-01
       -2   -1    0    0    0  501  0.00000000000E+00  0.00000000000E+00  0.11819149106E+04  0.11819149106E+04  0.25500000920E-02 0. -1.
        2   -1    0    0  501    0  0.00000000000E+00  0.00000000000E+00 -0.27812937987E+04  0.27812937987E+04  0.25500000920E-02 0.  1.
    10030    2    1    2    0    0  0.00000000000E+00  0.00000000000E+00 -0.15993788881E+04  0.39632087093E+04  0.36261564287E+04 0.  0.
        3    1    3    3  502    0 -0.80087794496E+03  0.41467671471E+03 -0.25187478443E+04  0.26753416555E+04  0.10100000352E+00 0.  1.
       -3    1    3    3    0  502  0.80087794496E+03 -0.41467671471E+03  0.91936895615E+03  0.12878670538E+04  0.10100000352E+00 0. -1.
</event>
<event>
 5   0  0.6729577E-07  0.3559526E+04  0.7818609E-02  0.8099826E-01
        2   -1    0    0  501    0  0.00000000000E+00  0.00000000000E+00  0.23042837946E+04  0.23042837946E+04  0.25500000920E-02 0.  1.
       -2   -1    0    0    0  501  0.00000000000E+00  0.00000000000E+00 -0.13746384305E+04  0.13746384305E+04  0.25500000920E-02 0. -1.
    10030    2    1    2    0    0  0.00000000000E+00  0.00000000000E+00  0.92964536410E+03  0.36789222252E+04  0.35595264061E+04 0.  0.
        3    1    3    3  502    0  0.56438530405E+03  0.16054432156E+04  0.10034346105E+04  0.19755656703E+04  0.10100000352E+00 0. -1.
       -3    1    3    3    0  502 -0.56438530405E+03 -0.16054432156E+04 -0.73789246373E+02  0.17033565549E+04  0.10100000352E+00 0.  1.
</event>
<event>
 5   0  0.6669864E-07  0.3605732E+04  0.7818609E-02  0.8089180E-01
       -2   -1    0    0    0  501  0.00000000000E+00  0.00000000000E+00  0.21032690704E+04  0.21032690704E+04  0.25500000920E-02 0.  1.
        2   -1    0    0  501    0  0.00000000000E+00  0.00000000000E+00 -0.15453686094E+04  0.15453686094E+04  0.25500000920E-02 0. -1.
    10030    2    1    2    0    0  0.00000000000E+00  0.00000000000E+00  0.55790046098E+03  0.36486376797E+04  0.36057321023E+04 0.  0.
        5    1    3    3  502    0 -0.49686496122E+03 -0.87867464219E+03  0.17904987884E+04  0.20554444575E+04  0.46999998093E+01 0.  1.
       -5    1    3    3    0  502  0.49686496122E+03  0.87867464219E+03 -0.12325983275E+04  0.15931932222E+04  0.46999998093E+01 0. -1.
</event>
<event>
 5   0  0.2086250E-07  0.3573063E+04  0.7818609E-02  0.8096690E-01
        1   -1    0    0  501    0  0.00000000000E+00  0.00000000000E+00  0.18694559399E+04  0.18694559399E+04  0.50400001928E-02 0.  1.
       -1   -1    0    0    0  501  0.00000000000E+00  0.00000000000E+00 -0.17072851232E+04  0.17072851232E+04  0.50400001928E-02 0. -1.
    10030    2    1    2    0    0  0.00000000000E+00  0.00000000000E+00  0.16217081668E+03  0.35767410631E+04  0.35730627280E+04 0.  0.
        3    1    3    3  502    0  0.35046150501E+03  0.26192165142E+03  0.18149967655E+04  0.18669867399E+04  0.10100000352E+00 0.  1.
       -3    1    3    3    0  502 -0.35046150501E+03 -0.26192165142E+03 -0.16528259489E+04  0.17097543231E+04  0.10100000352E+00 0. -1.
</event>
<event>
 5   0  0.2086250E-07  0.3244531E+04  0.7818609E-02  0.8177155E-01
        1   -1    0    0  501    0  0.00000000000E+00  0.00000000000E+00  0.23427257675E+04  0.23427257675E+04  0.50400001928E-02 0.  1.
       -1   -1    0    0    0  501  0.00000000000E+00  0.00000000000E+00 -0.11233688059E+04  0.11233688059E+04  0.50400001928E-02 0. -1.
    10030    2    1    2    0    0  0.00000000000E+00  0.00000000000E+00  0.12193569616E+04  0.34660945735E+04  0.32445308124E+04 0.  0.
        2    1    3    3  502    0  0.96635540848E+03  0.13014133415E+04  0.67912205015E+03  0.17574772317E+04  0.25500000920E-02 0.  1.
       -2    1    3    3    0  502 -0.96635540848E+03 -0.13014133415E+04  0.54023491142E+03  0.17086173418E+04  0.25500000920E-02 0. -1.
</event>
<event>
 5   0  0.2086250E-07  0.3579042E+04  0.7818609E-02  0.8095309E-01
        1   -1    0    0  501    0  0.00000000000E+00  0.00000000000E+00  0.15928067800E+04  0.15928067800E+04  0.50400001928E-02 0.  1.
       -1   -1    0    0    0  501  0.00000000000E+00  0.00000000000E+00 -0.20105292961E+04  0.20105292961E+04  0.50400001928E-02 0. -1.
    10030    2    1    2    0    0  0.00000000000E+00  0.00000000000E+00 -0.41772251606E+03  0.36033360761E+04  0.35790416003E+04 0.  0.
        4    1    3    3  502    0  0.13464607923E+04 -0.88637597855E+03  0.57343570670E+03  0.17109790072E+04  0.12699999809E+01 0.  1.
       -4    1    3    3    0  502 -0.13464607923E+04  0.88637597855E+03 -0.99115822276E+03  0.18923570688E+04  0.12699999809E+01 0. -1.
</event>
<event>
 5   0  0.6729577E-07  0.3620301E+04  0.7818609E-02  0.8085857E-01
       -2   -1    0    0    0  501  0.00000000000E+00  0.00000000000E+00  0.11070123762E+04  0.11070123762E+04  0.25500000920E-02 0.  1.
        2   -1    0    0  501    0  0.00000000000E+00  0.00000000000E+00 -0.29598998096E+04  0.29598998096E+04  0.25500000920E-02 0. -1.
    10030    2    1    2    0    0  0.00000000000E+00  0.00000000000E+00 -0.18528874334E+04  0.40669121857E+04  0.36203014910E+04 0.  0.
        3    1    3    3  502    0  0.47309101954E+03 -0.16454889126E+04 -0.26642924260E+03  0.17327531347E+04  0.10100000352E+00 0.  1.
       -3    1    3    3    0  502 -0.47309101954E+03  0.16454889126E+04 -0.15864581908E+04  0.23341590510E+04  0.10100000352E+00 0. -1.
</event>
<event>
 5   0  0.6729577E-07  0.3609945E+04  0.7818609E-02  0.8088217E-01
       -2   -1    0    0    0  501  0.00000000000E+00  0.00000000000E+00  0.20124301123E+04  0.20124301123E+04  0.25500000920E-02 0. -1.
        2   -1    0    0  501    0  0.00000000000E+00  0.00000000000E+00 -0.16189017469E+04  0.16189017469E+04  0.25500000920E-02 0.  1.
    10030    2    1    2    0    0  0.00000000000E+00  0.00000000000E+00  0.39352836534E+03  0.36313318592E+04  0.36099454978E+04 0.  0.
        3    1    3    3  502    0 -0.99965904960E+02  0.16684565492E+04  0.88211257101E+03  0.18899373103E+04  0.10100000352E+00 0.  1.
       -3    1    3    3    0  502  0.99965904960E+02 -0.16684565492E+04 -0.48858420568E+03  0.17413945489E+04  0.10100000352E+00 0. -1.
</event>
<event>
 5   0  0.6848661E-07  0.3593413E+04  0.7818609E-02  0.8092002E-01
       -2   -1    0    0    0  501  0.00000000000E+00  0.00000000000E+00  0.14904017751E+04  0.14904017751E+04  0.25500000920E-02 0.  1.
        2   -1    0    0  501    0  0.00000000000E+00  0.00000000000E+00 -0.21659623835E+04  0.21659623835E+04  0.25500000920E-02 0. -1.
    10030    2    1    2    0    0  0.00000000000E+00  0.00000000000E+00 -0.67556060835E+03  0.36563641586E+04  0.35934129633E+04 0.  0.
        1    1    3    3  502    0  0.44904641014E+03  0.45910353040E+02 -0.21073276877E+04  0.21551288645E+04  0.50400001928E-02 0. -1.
       -1    1    3    3    0  502 -0.44904641014E+03 -0.45910353040E+02  0.14317670794E+04  0.15012352942E+04  0.50400001928E-02 0.  1.
</event>
<event>
 5   0  0.2193129E-07  0.3606686E+04  0.7818609E-02  0.8088962E-01
        1   -1    0    0  501    0  0.00000000000E+00  0.00000000000E+00  0.14330157609E+04  0.14330157609E+04  0.50400001928E-02 0. -1.
       -1   -1    0    0    0  501  0.00000000000E+00  0.00000000000E+00 -0.22693722691E+04  0.22693722691E+04  0.50400001928E-02 0.  1.
    10030    2    1    2    0    0  0.00000000000E+00  0.00000000000E+00 -0.83635650821E+03  0.37023880300E+04  0.36066861404E+04 0.  0.
        1    1    3    3  502    0  0.16388445793E+04 -0.38909734637E+03  0.24299124529E+03  0.17018381373E+04  0.50400001928E-02 0. -1.
       -1    1    3    3    0  502 -0.16388445793E+04  0.38909734637E+03 -0.10793477535E+04  0.20005498927E+04  0.50400001928E-02 0.  1.
</event>
<event>
 5   0  0.6324216E-07  0.3502128E+04  0.7818609E-02  0.8113286E-01
        2   -1    0    0  501    0  0.00000000000E+00  0.00000000000E+00  0.20225406904E+04  0.20225406904E+04  0.25500000920E-02 0.  1.
       -2   -1    0    0    0  501  0.00000000000E+00  0.00000000000E+00 -0.15160265423E+04  0.15160265423E+04  0.25500000920E-02 0. -1.
    10030    2    1    2    0    0  0.00000000000E+00  0.00000000000E+00  0.50651414812E+03  0.35385672327E+04  0.35021281356E+04 0.  0.
        2    1    3    3  502    0  0.14516051982E+04  0.78492428305E+03 -0.33846553072E+03  0.16845838350E+04  0.25500000920E-02 0. -1.
       -2    1    3    3    0  502 -0.14516051982E+04 -0.78492428305E+03  0.84497967884E+03  0.18539833978E+04  0.25500000920E-02 0.  1.
</event>
<event>
 5   0  0.6729577E-07  0.3658177E+04  0.7818609E-02  0.8077294E-01
        2   -1    0    0  501    0  0.00000000000E+00  0.00000000000E+00  0.21121377406E+04  0.21121377407E+04  0.25500000920E-02 0.  1.
       -2   -1    0    0    0  501  0.00000000000E+00  0.00000000000E+00 -0.15839706331E+04  0.15839706331E+04  0.25500000920E-02 0. -1.
    10030    2    1    2    0    0  0.00000000000E+00  0.00000000000E+00  0.52816710757E+03  0.36961083737E+04  0.36581766793E+04 0.  0.
        3    1    3    3  502    0 -0.10349604939E+04 -0.69500780415E+03 -0.10882209528E+04  0.16548123531E+04  0.10100000352E+00 0. -1.
       -3    1    3    3    0  502  0.10349604939E+04  0.69500780415E+03  0.16163880604E+04  0.20412960206E+04  0.10100000352E+00 0.  1.
</event>
<event>
 5   0  0.2193129E-07  0.3617038E+04  0.7818609E-02  0.8086600E-01
       -1   -1    0    0    0  501  0.00000000000E+00  0.00000000000E+00  0.15003115528E+04  0.15003115528E+04  0.50400001928E-02 0.  1.
        1   -1    0    0  501    0  0.00000000000E+00  0.00000000000E+00 -0.21800409402E+04  0.21800409402E+04  0.50400001928E-02 0. -1.
    10030    2    1    2    0    0  0.00000000000E+00  0.00000000000E+00 -0.67972938739E+03  0.36803524931E+04  0.36170377981E+04 0.  0.
        1    1    3    3  502    0 -0.17842062080E+04 -0.57750455191E+02 -0.44939803508E+02  0.17857061610E+04  0.50400001928E-02 0.  1.
       -1    1    3    3    0  502  0.17842062080E+04  0.57750455191E+02 -0.63478958388E+03  0.18946463320E+04  0.50400001928E-02 0. -1.
</event>
<event>
 5   0  0.6541476E-07  0.3619475E+04  0.7818609E-02  0.8086045E-01
        2   -1    0    0  501    0  0.00000000000E+00  0.00000000000E+00  0.15979086345E+04  0.15979086345E+04  0.25500000920E-02 0.  1.
       -2   -1    0    0    0  501  0.00000000000E+00  0.00000000000E+00 -0.20496473674E+04  0.20496473674E+04  0.25500000920E-02 0. -1.
    10030    2    1    2    0    0  0.00000000000E+00  0.00000000000E+00 -0.45173873298E+03  0.36475560019E+04  0.36194746724E+04 0.  0.
        4    1    3    3  502    0  0.68413580934E+02 -0.12863739128E+03  0.15919881345E+04  0.15986418704E+04  0.12699999809E+01 0.  1.
       -4    1    3    3    0  502 -0.68413580934E+02  0.12863739128E+03 -0.20437268675E+04  0.20489141315E+04  0.12699999809E+01 0. -1.
</event>
<event>
 5   0  0.2086250E-07  0.3567363E+04  0.7818609E-02  0.8098009E-01
       -3   -1    0    0    0  501  0.00000000000E+00  0.00000000000E+00  0.20856011460E+04  0.20856011484E+04  0.10100000352E+00 0. -1.
        3   -1    0    0  501    0  0.00000000000E+00  0.00000000000E+00 -0.15254687514E+04  0.15254687548E+04  0.10100000352E+00 0.  1.
    10030    2    1    2    0    0  0.00000000000E+00  0.00000000000E+00  0.56013239457E+03  0.36110699032E+04  0.35673628279E+04 0.  0.
        1    1    3    3  502    0 -0.14178293351E+04 -0.37300576951E+02 -0.81479927901E+03  0.16357045032E+04  0.50400001928E-02 0.  1.
       -1    1    3    3    0  502  0.14178293351E+04  0.37300576951E+02  0.13749316736E+04  0.19753654000E+04  0.50400001928E-02 0. -1.
</event>
<event>
 5   0  0.6669864E-07  0.3587186E+04  0.7818609E-02  0.8093433E-01
       -2   -1    0    0    0  501  0.00000000000E+00  0.00000000000E+00  0.22150166386E+04  0.22150166386E+04  0.25500000920E-02 0. -1.
        2   -1    0    0  501    0  0.00000000000E+00  0.00000000000E+00 -0.14523484266E+04  0.14523484266E+04  0.25500000920E-02 0.  1.
    10030    2    1    2    0    0  0.00000000000E+00  0.00000000000E+00  0.76266821198E+03  0.36673650651E+04  0.35871860447E+04 0.  0.
        5    1    3    3  502    0  0.33485504942E+03  0.66458762688E+03 -0.12870574880E+04  0.14867224642E+04  0.46999998093E+01 0.  1.
       -5    1    3    3    0  502 -0.33485504942E+03 -0.66458762688E+03  0.20497257000E+04  0.21806426010E+04  0.46999998093E+01 0. -1.
</event>
<event>
 5   0  0.6541476E-07  0.3619625E+04  0.7818609E-02  0.8086011E-01
       -2   -1    0    0    0  501  0.00000000000E+00  0.00000000000E+00  0.29619575312E+04  0.29619575312E+04  0.25500000920E-02 0. -1.
        2   -1    0    0  501    0  0.00000000000E+00  0.00000000000E+00 -0.11058299667E+04  0.11058299667E+04  0.25500000920E-02 0.  1.
    10030    2    1    2    0    0  0.00000000000E+00  0.00000000000E+00  0.18561275646E+04  0.40677874979E+04  0.36196250624E+04 0.  0.
        4    1    3    3  502    0 -0.12867110299E+04  0.12677033519E+04  0.80130306302E+03  0.19760529534E+04  0.12699999809E+01 0.  1.
       -4    1    3    3    0  502  0.12867110299E+04 -0.12677033519E+04  0.10548245015E+04  0.20917345445E+04  0.12699999809E+01 0. -1.
</event>
<event>
 5   0  0.6729577E-07  0.3620783E+04  0.7818609E-02  0.8085748E-01
        2   -1    0    0  501    0  0.00000000000E+00  0.00000000000E+00  0.19908853835E+04  0.19908853835E+04  0.25500000920E-02 0.  1.
       -2   -1    0    0    0  501  0.00000000000E+00  0.00000000000E+00 -0.16462610758E+04  0.16462610758E+04  0.25500000920E-02 0. -1.
    10030    2    1    2    0    0  0.00000000000E+00  0.00000000000E+00  0.34462430775E+03  0.36371464593E+04  0.36207828509E+04 0.  0.
        3    1    3    3  502    0  0.17449322861E+04  0.45507336974E+03  0.33315025302E+03  0.18338128466E+04  0.10100000352E+00 0. -1.
       -3    1    3    3    0  502 -0.17449322861E+04 -0.45507336974E+03  0.11474054723E+02  0.18033336128E+04  0.10100000352E+00 0.  1.
</event>
<event>
 5   0  0.6729577E-07  0.3624845E+04  0.7818609E-02  0.8084824E-01
        2   -1    0    0  501    0  0.00000000000E+00  0.00000000000E+00  0.23616461138E+04  0.23616461138E+04  0.25500000920E-02 0. -1.
       -2   -1    0    0    0  501  0.00000000000E+00  0.00000000000E+00 -0.13909259307E+04  0.13909259307E+04  0.25500000920E-02 0.  1.
    10030    2    1    2    0    0  0.00000000000E+00  0.00000000000E+00  0.97072018319E+03  0.37525720445E+04  0.36248447243E+04 0.  0.
        3    1    3    3  502    0  0.18001066537E+04 -0.15803476960E+03  0.34073840245E+03  0.18388750969E+04  0.10100000352E+00 0.  1.
       -3    1    3    3    0  502 -0.18001066537E+04  0.15803476960E+03  0.62998178073E+03  0.19136969476E+04  0.10100000352E+00 0. -1.
</event>
<event>
 5   0  0.6324216E-07  0.3603899E+04  0.7818609E-02  0.8089599E-01
       -2   -1    0    0    0  501  0.00000000000E+00  0.00000000000E+00  0.12802928480E+04  0.12802928480E+04  0.25500000920E-02 0. -1.
        2   -1    0    0  501    0  0.00000000000E+00  0.00000000000E+00 -0.25361557505E+04  0.25361557505E+04  0.25500000920E-02 0.  1.
    10030    2    1    2    0    0  0.00000000000E+00  0.00000000000E+00 -0.12558629025E+04  0.38164485986E+04  0.36038990379E+04 0.  0.
        2    1    3    3  502    0 -0.11638382748E+04  0.13303078929E+04 -0.99900219632E+03  0.20303310095E+04  0.25500000920E-02 0.  1.
       -2    1    3    3    0  502  0.11638382748E+04 -0.13303078929E+04 -0.25686070620E+03  0.17861175891E+04  0.25500000920E-02 0. -1.
</event>
<event>
 5   0  0.6729577E-07  0.3593908E+04  0.7818609E-02  0.8091889E-01
        2   -1    0    0  501    0  0.00000000000E+00  0.00000000000E+00  0.19091230492E+04  0.19091230492E+04  0.25500000920E-02 0. -1.
       -2   -1    0    0    0  501  0.00000000000E+00  0.00000000000E+00 -0.16913754852E+04  0.16913754852E+04  0.25500000920E-02 0.  1.
    10030    2    1    2    0    0  0.00000000000E+00  0.00000000000E+00  0.21774756409E+03  0.36004985344E+04  0.35939081366E+04 0.  0.
        3    1    3    3  502    0  0.40974260349E+03 -0.26694660231E+03  0.18411757275E+04  0.19050137950E+04  0.10100000352E+00 0. -1.
       -3    1    3    3    0  502 -0.40974260349E+03  0.26694660231E+03 -0.16234281634E+04  0.16954847394E+04  0.10100000352E+00 0.  1.
</event>
<event>
 5   0  0.2108068E-07  0.3581010E+04  0.7818609E-02  0.8094856E-01
        1   -1    0    0  501    0  0.00000000000E+00  0.00000000000E+00  0.23660779859E+04  0.23660779859E+04  0.50400001928E-02 0. -1.
       -1   -1    0    0    0  501  0.00000000000E+00  0.00000000000E+00 -0.13549458699E+04  0.13549458700E+04  0.50400001928E-02 0.  1.
    10030    2    1    2    0    0  0.00000000000E+00  0.00000000000E+00  0.10111321159E+04  0.37210238558E+04  0.35810096872E+04 0.  0.
        5    1    3    3  502    0  0.11358400176E+04 -0.13500818610E+04  0.18862903893E+03  0.17743890727E+04  0.46999998093E+01 0.  1.
       -5    1    3    3    0  502 -0.11358400176E+04  0.13500818610E+04  0.82250307700E+03  0.19466347831E+04  0.46999998093E+01 0. -1.
</event>
<event>
 5   0  0.6848661E-07  0.3318943E+04  0.7818609E-02  0.8158092E-01
       -2   -1    0    0    0  501  0.00000000000E+00  0.00000000000E+00  0.27853928062E+04  0.27853928062E+04  0.25500000920E-02 0.  1.
        2   -1    0    0  501    0  0.00000000000E+00  0.00000000000E+00 -0.98867431838E+03  0.98867431839E+03  0.25500000920E-02 0. -1.
    10030    2    1    2    0    0  0.00000000000E+00  0.00000000000E+00  0.17967184878E+04  0.37740671246E+04  0.33189434067E+04 0.  0.
        1    1    3    3  502    0 -0.54044950465E+03 -0.35056794541E+03 -0.84069106031E+03  0.10591246434E+04  0.50400001928E-02 0. -1.
       -1    1    3    3    0  502  0.54044950465E+03  0.35056794541E+03  0.26374095482E+04  0.27149424812E+04  0.50400001928E-02 0.  1.
</event>
<event>
 5   0  0.2086250E-07  0.3561343E+04  0.7818609E-02  0.8099404E-01
        1   -1    0    0  501    0  0.00000000000E+00  0.00000000000E+00  0.22611170496E+04  0.22611170496E+04  0.50400001928E-02 0. -1.
       -1   -1    0    0    0  501  0.00000000000E+00  0.00000000000E+00 -0.14023116157E+04  0.14023116157E+04  0.50400001928E-02 0.  1.
    10030    2    1    2    0    0  0.00000000000E+00  0.00000000000E+00  0.85880543390E+03  0.36634286652E+04  0.35613428383E+04 0.  0.
        3    1    3    3  502    0  0.23799507499E+03 -0.13762486504E+04  0.15656416235E+04  0.20980790517E+04  0.10100000352E+00 0. -1.
       -3    1    3    3    0  502 -0.23799507499E+03  0.13762486504E+04 -0.70683618962E+03  0.15653496136E+04  0.10100000352E+00 0.  1.
</event>
<event>
 5   0  0.6541476E-07  0.3594756E+04  0.7818609E-02  0.8091694E-01
       -2   -1    0    0    0  501  0.00000000000E+00  0.00000000000E+00  0.91210000533E+03  0.91210000533E+03  0.25500000920E-02 0.  1.
        2   -1    0    0  501    0  0.00000000000E+00  0.00000000000E+00 -0.35419014814E+04  0.35419014814E+04  0.25500000920E-02 0. -1.
    10030    2    1    2    0    0  0.00000000000E+00  0.00000000000E+00 -0.26298014761E+04  0.44540014867E+04  0.35947563812E+04 0.  0.
        4    1    3    3  502    0 -0.17197610307E+04  0.46679376061E+03 -0.10240792703E+04  0.20552893671E+04  0.12699999809E+01 0.  1.
       -4    1    3    3    0  502  0.17197610307E+04 -0.46679376061E+03 -0.16057222058E+04  0.23987121196E+04  0.12699999809E+01 0. -1.
</event>
<event>
 5   0  0.6541476E-07  0.3595266E+04  0.7818609E-02  0.8091577E-01
        2   -1    0    0  501    0  0.00000000000E+00  0.00000000000E+00  0.22974148637E+04  0.22974148637E+04  0.25500000920E-02 0.  1.
       -2   -1    0    0    0  501  0.00000000000E+00  0.00000000000E+00 -0.14065740221E+04  0.14065740221E+04  0.25500000920E-02 0. -1.
    10030    2    1    2    0    0  0.00000000000E+00  0.00000000000E+00  0.89084084158E+03  0.37039888858E+04  0.35952658123E+04 0.  0.
        4    1    3    3  502    0 -0.33889348099E+02 -0.15182147671E+04  0.14364657862E+04  0.20903492854E+04  0.12699999809E+01 0.  1.
       -4    1    3    3    0  502  0.33889348099E+02  0.15182147671E+04 -0.54562494461E+03  0.16136396004E+04  0.12699999809E+01 0. -1.
</event>
<event>
 5   0  0.6541476E-07  0.3546301E+04  0.7818609E-02  0.8102904E-01
        2   -1    0    0  501    0  0.00000000000E+00  0.00000000000E+00  0.18162967776E+04  0.18162967776E+04  0.25500000920E-02 0.  1.
       -2   -1    0    0    0  501  0.00000000000E+00  0.00000000000E+00 -0.17310294320E+04  0.17310294320E+04  0.25500000920E-02 0. -1.
    10030    2    1    2    0    0  0.00000000000E+00  0.00000000000E+00  0.85267345586E+02  0.35473262097E+04  0.35463012728E+04 0.  0.
        4    1    3    3  502    0  0.58296103520E+03  0.62295466174E+03 -0.15122111096E+04  0.17362891844E+04  0.12699999809E+01 0. -1.
       -4    1    3    3    0  502 -0.58296103520E+03 -0.62295466174E+03  0.15974784552E+04  0.18110370252E+04  0.12699999809E+01 0.  1.
</event>
<event>
 5   0  0.6848661E-07  0.3560766E+04  0.7818609E-02  0.8099538E-01
       -2   -1    0    0    0  501  0.00000000000E+00  0.00000000000E+00  0.13788383120E+04  0.13788383120E+04  0.25500000920E-02 0.  1.
        2   -1    0    0  501    0  0.00000000000E+00  0.00000000000E+00 -0.22988657923E+04  0.22988657923E+04  0.25500000920E-02 0. -1.
    10030    2    1    2    0    0  0.00000000000E+00  0.00000000000E+00 -0.92002748029E+03  0.36777041044E+04  0.35607663381E+04 0.  0.
        1    1    3    3  502    0  0.20005515568E+03 -0.10219480130E+04  0.10314898007E+04  0.14657322455E+04  0.50400001928E-02 0.  1.
       -1    1    3    3    0  502 -0.20005515568E+03  0.10219480130E+04 -0.19515172810E+04  0.22119718589E+04  0.50400001928E-02 0. -1.
</event>
<event>
 5   0  0.2086250E-07  0.3553364E+04  0.7818609E-02  0.8101258E-01
        1   -1    0    0  501    0  0.00000000000E+00  0.00000000000E+00  0.22276626921E+04  0.22276626921E+04  0.50400001928E-02 0.  1.
       -1   -1    0    0    0  501  0.00000000000E+00  0.00000000000E+00 -0.14170007472E+04  0.14170007472E+04  0.50400001928E-02 0. -1.
    10030    2    1    2    0    0  0.00000000000E+00  0.00000000000E+00  0.81066194493E+03  0.36446634392E+04  0.35533644334E+04 0.  0.
        4    1    3    3  502    0 -0.79102059899E+03 -0.15670959833E+04  0.68640599676E+03  0.18848496529E+04  0.12699999809E+01 0.  1.
       -4    1    3    3    0  502  0.79102059899E+03  0.15670959833E+04  0.12425594817E+03  0.17598137863E+04  0.12699999809E+01 0. -1.
</event>
<event>
 5   0  0.2108068E-07  0.3629693E+04  0.7818609E-02  0.8083724E-01
       -1   -1    0    0    0  501  0.00000000000E+00  0.00000000000E+00  0.23843348459E+04  0.23843348459E+04  0.50400001928E-02 0.  1.
        1   -1    0    0  501    0  0.00000000000E+00  0.00000000000E+00 -0.13813780181E+04  0.13813780181E+04  0.50400001928E-02 0. -1.
    10030    2    1    2    0    0  0.00000000000E+00  0.00000000000E+00  0.10029568277E+04  0.37657128640E+04  0.36296929589E+04 0.  0.
        5    1    3    3  502    0  0.74139804521E+03  0.11360945732E+04  0.17521679831E+04  0.22159640502E+04  0.46999998093E+01 0.  1.
       -5    1    3    3    0  502 -0.74139804521E+03 -0.11360945732E+04 -0.74921115534E+03  0.15497488138E+04  0.46999998093E+01 0. -1.
</event>
<event>
 5   0  0.6541476E-07  0.3651840E+04  0.7818609E-02  0.8078719E-01
        2   -1    0    0  501    0  0.00000000000E+00  0.00000000000E+00  0.10301379170E+04  0.10301379170E+04  0.25500000920E-02 0. -1.
       -2   -1    0    0    0  501  0.00000000000E+00  0.00000000000E+00 -0.32364433822E+04  0.32364433822E+04  0.25500000920E-02 0.  1.
    10030    2    1    2    0    0  0.00000000000E+00  0.00000000000E+00 -0.22063054652E+04  0.42665812992E+04  0.36518395607E+04 0.  0.
        4    1    3    3  502    0  0.13297282877E+04 -0.34631022924E+03  0.30170860595E+03  0.14068183216E+04  0.12699999809E+01 0. -1.
       -4    1    3    3    0  502 -0.13297282877E+04  0.34631022924E+03 -0.25080140712E+04  0.28597629776E+04  0.12699999809E+01 0.  1.
</event>
<event>
 5   0  0.6848661E-07  0.3597596E+04  0.7818609E-02  0.8091043E-01
       -2   -1    0    0    0  501  0.00000000000E+00  0.00000000000E+00  0.12843082363E+04  0.12843082363E+04  0.25500000920E-02 0. -1.
        2   -1    0    0  501    0  0.00000000000E+00  0.00000000000E+00 -0.25193910988E+04  0.25193910988E+04  0.25500000920E-02 0.  1.
    10030    2    1    2    0    0  0.00000000000E+00  0.00000000000E+00 -0.12350828624E+04  0.38036993351E+04  0.35975962746E+04 0.  0.
        1    1    3    3  502    0 -0.60003949327E+03  0.13995983080E+04 -0.16298657508E+04  0.22305571463E+04  0.50400001928E-02 0. -1.
       -1    1    3    3    0  502  0.60003949327E+03 -0.13995983080E+04  0.39478288837E+03  0.15731421888E+04  0.50400001928E-02 0.  1.
</event>
<event>
 5   0  0.6324216E-07  0.3660115E+04  0.7818609E-02  0.8076859E-01
        2   -1    0    0  501    0  0.00000000000E+00  0.00000000000E+00  0.29868470413E+04  0.29868470413E+04  0.25500000920E-02 0. -1.
       -2   -1    0    0    0  501  0.00000000000E+00  0.00000000000E+00 -0.11212862324E+04  0.11212862324E+04  0.25500000920E-02 0.  1.
    10030    2    1    2    0    0  0.00000000000E+00  0.00000000000E+00  0.18655608089E+04  0.41081332737E+04  0.36601150068E+04 0.  0.
        2    1    3    3  502    0 -0.28786708798E+03  0.19992194231E+03 -0.10832655694E+04  0.11385519475E+04  0.25500000920E-02 0.  1.
       -2    1    3    3    0  502  0.28786708798E+03 -0.19992194231E+03  0.29488263783E+04  0.29695813261E+04  0.25500000920E-02 0. -1.
</event>
<event>
 5   0  0.6669864E-07  0.3585777E+04  0.7818609E-02  0.8093757E-01
       -2   -1    0    0    0  501  0.00000000000E+00  0.00000000000E+00  0.14851935270E+04  0.14851935270E+04  0.25500000920E-02 0.  1.
        2   -1    0    0  501    0  0.00000000000E+00  0.00000000000E+00 -0.21643302553E+04  0.21643302553E+04  0.25500000920E-02 0. -1.
    10030    2    1    2    0    0  0.00000000000E+00  0.00000000000E+00 -0.67913672830E+03  0.36495237822E+04  0.35857770624E+04 0.  0.
        5    1    3    3  502    0 -0.11149085113E+04 -0.10515242592E+04  0.60740411842E+03  0.16485405998E+04  0.46999998093E+01 0.  1.
       -5    1    3    3    0  502  0.11149085113E+04  0.10515242592E+04 -0.12865408467E+04  0.20009831824E+04  0.46999998093E+01 0. -1.
</event>
<event>
 5   0  0.6324216E-07  0.3605597E+04  0.7818609E-02  0.8089211E-01
        2   -1    0    0  501    0  0.00000000000E+00  0.00000000000E+00  0.24285141091E+04  0.24285141091E+04  0.25500000920E-02 0.  1.
       -2   -1    0    0    0  501  0.00000000000E+00  0.00000000000E+00 -0.13383011059E+04  0.13383011059E+04  0.25500000920E-02 0. -1.
    10030    2    1    2    0    0  0.00000000000E+00  0.00000000000E+00  0.10902130032E+04  0.37668152150E+04  0.36055973807E+04 0.  0.
        2    1    3    3  502    0 -0.17742183832E+04 -0.20840966474E+03  0.29178205551E+03  0.18100890109E+04  0.25500000920E-02 0. -1.
       -2    1    3    3    0  502  0.17742183832E+04  0.20840966474E+03  0.79843094766E+03  0.19567262041E+04  0.25500000920E-02 0.  1.
</event>
<event>
 5   0  0.2086250E-07  0.3603550E+04  0.7818609E-02  0.8089679E-01
       -1   -1    0    0    0  501  0.00000000000E+00  0.00000000000E+00  0.13870270383E+04  0.13870270383E+04  0.50400001928E-02 0.  1.
        1   -1    0    0  501    0  0.00000000000E+00  0.00000000000E+00 -0.23405408194E+04  0.23405408194E+04  0.50400001928E-02 0. -1.
    10030    2    1    2    0    0  0.00000000000E+00  0.00000000000E+00 -0.95351378104E+03  0.37275678577E+04  0.36035501389E+04 0.  0.
        3    1    3    3  502    0  0.88894681332E+03  0.39069691833E+03 -0.20467265282E+04  0.22653829721E+04  0.10100000352E+00 0. -1.
       -3    1    3    3    0  502 -0.88894681332E+03 -0.39069691833E+03  0.10932127472E+04  0.14621848856E+04  0.10100000352E+00 0.  1.
</event>
<event>
 5   0  0.6848661E-07  0.3382663E+04  0.7818609E-02  0.8142175E-01
       -2   -1    0    0    0  501  0.00000000000E+00  0.00000000000E+00  0.94305746103E+03  0.94305746103E+03  0.25500000920E-02 0.  1.
        2   -1    0    0  501    0  0.00000000000E+00  0.00000000000E+00 -0.30333268828E+04  0.30333268828E+04  0.25500000920E-02 0. -1.
    10030    2    1    2    0    0  0.00000000000E+00  0.00000000000E+00 -0.20902694218E+04  0.39763843439E+04  0.33826625895E+04 0.  0.
        1    1    3    3  502    0 -0.12281143318E+04  0.11449783345E+04 -0.80606363927E+03  0.18625194735E+04  0.50400001928E-02 0.  1.
       -1    1    3    3    0  502  0.12281143318E+04 -0.11449783345E+04 -0.12842057825E+04  0.21138648704E+04  0.50400001928E-02 0. -1.
</event>
<event>
 5   0  0.2086250E-07  0.3596625E+04  0.7818609E-02  0.8091265E-01
       -1   -1    0    0    0  501  0.00000000000E+00  0.00000000000E+00  0.18551724701E+04  0.18551724702E+04  0.50400001928E-02 0.  1.
        1   -1    0    0  501    0  0.00000000000E+00  0.00000000000E+00 -0.17431954926E+04  0.17431954926E+04  0.50400001928E-02 0. -1.
    10030    2    1    2    0    0  0.00000000000E+00  0.00000000000E+00  0.11197697756E+03  0.35983679627E+04  0.35966252448E+04 0.  0.
        4    1    3    3  502    0  0.79857646961E+01 -0.79322138337E+03 -0.15586902690E+04  0.17489370781E+04  0.12699999809E+01 0. -1.
       -4    1    3    3    0  502 -0.79857646961E+01  0.79322138337E+03  0.16706672466E+04  0.18494308847E+04  0.12699999809E+01 0.  1.
</event>
<event>
 5   0  0.2086250E-07  0.3617314E+04  0.7818609E-02  0.8086537E-01
        1   -1    0    0  501    0  0.00000000000E+00  0.00000000000E+00  0.17769315794E+04  0.17769315794E+04  0.50400001928E-02 0.  1.
       -1   -1    0    0    0  501  0.00000000000E+00  0.00000000000E+00 -0.18409490178E+04  0.18409490178E+04  0.50400001928E-02 0. -1.
    10030    2    1    2    0    0  0.00000000000E+00  0.00000000000E+00 -0.64017438365E+02  0.36178805972E+04  0.36173141671E+04 0.  0.
        4    1    3    3  502    0  0.12305080998E+04 -0.13705913933E+03  0.12866450949E+04  0.17856070688E+04  0.12699999809E+01 0.  1.
       -4    1    3    3    0  502 -0.12305080998E+04  0.13705913933E+03 -0.13506625332E+04  0.18322735284E+04  0.12699999809E+01 0. -1.
</event>
<event>
 5   0  0.6729577E-07  0.3608514E+04  0.7818609E-02  0.8088544E-01
        2   -1    0    0  501    0  0.00000000000E+00  0.00000000000E+00  0.11497805709E+04  0.11497805709E+04  0.25500000920E-02 0. -1.
       -2   -1    0    0    0  501  0.00000000000E+00  0.00000000000E+00 -0.28312737710E+04  0.28312737710E+04  0.25500000920E-02 0.  1.
    10030    2    1    2    0    0  0.00000000000E+00  0.00000000000E+00 -0.16814932001E+04  0.39810543419E+04  0.36085141389E+04 0.  0.
        3    1    3    3  502    0  0.13391055228E+04 -0.93102017436E+03 -0.16919879962E+04  0.23500692661E+04  0.10100000352E+00 0.  1.
       -3    1    3    3    0  502 -0.13391055228E+04  0.93102017436E+03  0.10494796049E+02  0.16309850757E+04  0.10100000352E+00 0. -1.
</event>
<event>
 5   0  0.6669864E-07  0.3597183E+04  0.7818609E-02  0.8091137E-01
       -2   -1    0    0    0  501  0.00000000000E+00  0.00000000000E+00  0.18470486971E+04  0.18470486971E+04  0.25500000920E-02 0.  1.
        2   -1    0    0  501    0  0.00000000000E+00  0.00000000000E+00 -0.17514053900E+04  0.17514053900E+04  0.25500000920E-02 0. -1.
    10030    2    1    2    0    0  0.00000000000E+00  0.00000000000E+00  0.95643307153E+02  0.35984540871E+04  0.35971828109E+04 0.  0.
        5    1    3    3  502    0 -0.17367910928E+04  0.32055428495E+03 -0.29246117719E+03  0.17901826666E+04  0.46999998093E+01 0. -1.
       -5    1    3    3    0  502  0.17367910928E+04 -0.32055428495E+03  0.38810448434E+03  0.18082714205E+04  0.46999998093E+01 0.  1.
</event>
<event>
 5   0  0.6669864E-07  0.3618674E+04  0.7818609E-02  0.8086228E-01
       -2   -1    0    0    0  501  0.00000000000E+00  0.00000000000E+00  0.11868505581E+04  0.11868505581E+04  0.25500000920E-02 0. -1.
        2   -1    0    0  501    0  0.00000000000E+00  0.00000000000E+00 -0.27583083253E+04  0.27583083253E+04  0.25500000920E-02 0.  1.
    10030    2    1    2    0    0  0.00000000000E+00  0.00000000000E+00 -0.15714577672E+04  0.39451588833E+04  0.36186736659E+04 0.  0.
        5    1    3    3  502    0 -0.70041070765E+03  0.13159466256E+04 -0.19036119579E+04  0.24178608845E+04  0.46999998093E+01 0.  1.
       -5    1    3    3    0  502  0.70041070765E+03 -0.13159466256E+04  0.33215419065E+03  0.15272979988E+04  0.46999998093E+01 0. -1.
</event>
<event>
 5   0  0.6848661E-07  0.3577845E+04  0.7818609E-02  0.8095585E-01
       -2   -1    0    0    0  501  0.00000000000E+00  0.00000000000E+00  0.15815911382E+04  0.15815911382E+04  0.25500000920E-02 0. -1.
        2   -1    0    0  501    0  0.00000000000E+00  0.00000000000E+00 -0.20234331048E+04  0.20234331048E+04  0.25500000920E-02 0.  1.
    10030    2    1    2    0    0  0.00000000000E+00  0.00000000000E+00 -0.44184196652E+03  0.36050242430E+04  0.35778450874E+04 0.  0.
        1    1    3    3  502    0  0.65115602480E+03 -0.13632133414E+04 -0.11862642229E+04  0.19208273190E+04  0.50400001928E-02 0.  1.
       -1    1    3    3    0  502 -0.65115602480E+03  0.13632133414E+04  0.74442225640E+03  0.16841969240E+04  0.50400001928E-02 0. -1.
</event>
<event>
 5   0  0.2086250E-07  0.3607332E+04  0.7818609E-02  0.8088814E-01
       -1   -1    0    0    0  501  0.00000000000E+00  0.00000000000E+00  0.28676184834E+04  0.28676184834E+04  0.50400001928E-02 0.  1.
        1   -1    0    0  501    0  0.00000000000E+00  0.00000000000E+00 -0.11344645308E+04  0.11344645308E+04  0.50400001928E-02 0. -1.
    10030    2    1    2    0    0  0.00000000000E+00  0.00000000000E+00  0.17331539526E+04  0.40020830142E+04  0.36073322317E+04 0.  0.
        4    1    3    3  502    0  0.74149580948E+03 -0.20298721201E+03  0.26767474411E+04  0.27849593031E+04  0.12699999809E+01 0.  1.
       -4    1    3    3    0  502 -0.74149580948E+03  0.20298721201E+03 -0.94359348851E+03  0.12171237111E+04  0.12699999809E+01 0. -1.
</event>
<event>
 5   0  0.2086250E-07  0.3530581E+04  0.7818609E-02  0.8106581E-01
       -3   -1    0    0    0  501  0.00000000000E+00  0.00000000000E+00  0.16716100545E+04  0.16716100575E+04  0.10100000352E+00 0. -1.
        3   -1    0    0  501    0  0.00000000000E+00  0.00000000000E+00 -0.18642213174E+04  0.18642213202E+04  0.10100000352E+00 0.  1.
    10030    2    1    2    0    0  0.00000000000E+00  0.00000000000E+00 -0.19261126294E+03  0.35358313777E+04  0.35305813166E+04 0.  0.
        1    1    3    3  502    0  0.10894364777E+04 -0.51146563682E+03 -0.13896524239E+04  0.18383696026E+04  0.50400001928E-02 0.  1.
       -1    1    3    3    0  502 -0.10894364777E+04  0.51146563682E+03  0.11970411609E+04  0.16974617750E+04  0.50400001928E-02 0. -1.
</event>
<event>
 5   0  0.6669864E-07  0.3608315E+04  0.7818609E-02  0.8088590E-01
        2   -1    0    0  501    0  0.00000000000E+00  0.00000000000E+00  0.25933120593E+04  0.25933120593E+04  0.25500000920E-02 0.  1.
       -2   -1    0    0    0  501  0.00000000000E+00  0.00000000000E+00 -0.12551455941E+04  0.12551455941E+04  0.25500000920E-02 0. -1.
    10030    2    1    2    0    0  0.00000000000E+00  0.00000000000E+00  0.13381664652E+04  0.38484576534E+04  0.36083149560E+04 0.  0.
        5    1    3    3  502    0 -0.72378855062E+03 -0.16089208647E+04  0.26651663446E+03  0.17842503807E+04  0.46999998093E+01 0.  1.
       -5    1    3    3    0  502  0.72378855062E+03  0.16089208647E+04  0.10716498307E+04  0.20642072726E+04  0.46999998093E+01 0. -1.
</event>
<event>
 5   0  0.6324216E-07  0.3402566E+04  0.7818609E-02  0.8137277E-01
        2   -1    0    0  501    0  0.00000000000E+00  0.00000000000E+00  0.16961820939E+04  0.16961820939E+04  0.25500000920E-02 0. -1.
       -2   -1    0    0    0  501  0.00000000000E+00  0.00000000000E+00 -0.17063987902E+04  0.17063987902E+04  0.25500000920E-02 0.  1.
    10030    2    1    2    0    0  0.00000000000E+00  0.00000000000E+00 -0.10216696302E+02  0.34025808841E+04  0.34025655456E+04 0.  0.
        2    1    3    3  502    0  0.15579664466E+04  0.32740575558E+03  0.59481859764E+03  0.16994890825E+04  0.25500000920E-02 0. -1.
       -2    1    3    3    0  502 -0.15579664466E+04 -0.32740575558E+03 -0.60503529394E+03  0.17030918015E+04  0.25500000920E-02 0.  1.
</event>
<event>
 5   0  0.6729577E-07  0.3546744E+04  0.7818609E-02  0.8102801E-01
       -2   -1    0    0    0  501  0.00000000000E+00  0.00000000000E+00  0.31463694612E+04  0.31463694613E+04  0.25500000920E-02 0.  1.
        2   -1    0    0  501    0  0.00000000000E+00  0.00000000000E+00 -0.99951668296E+03  0.99951668296E+03  0.25500000920E-02 0. -1.
    10030    2    1    2    0    0  0.00000000000E+00  0.00000000000E+00  0.21468527783E+04  0.41458861442E+04  0.35467442915E+04 0.  0.
        3    1    3    3  502    0 -0.15475246927E+04 -0.36963020313E+03  0.15793198251E+03  0.15988751305E+04  0.10100000352E+00 0. -1.
       -3    1    3    3    0  502  0.15475246927E+04  0.36963020313E+03  0.19889207958E+04  0.25470110137E+04  0.10100000352E+00 0.  1.
</event>
<event>
 5   0  0.2193129E-07  0.3611132E+04  0.7818609E-02  0.8087946E-01
        1   -1    0    0  501    0  0.00000000000E+00  0.00000000000E+00  0.14051300064E+04  0.14051300065E+04  0.50400001928E-02 0.  1.
       -1   -1    0    0    0  501  0.00000000000E+00  0.00000000000E+00 -0.23201192272E+04  0.23201192272E+04  0.50400001928E-02 0. -1.
    10030    2    1    2    0    0  0.00000000000E+00  0.00000000000E+00 -0.91498922078E+03  0.37252492337E+04  0.36111323126E+04 0.  0.
        1    1    3    3  502    0  0.53302979821E+03 -0.11768229309E+04 -0.17587182928E+04  0.21822289087E+04  0.50400001928E-02 0. -1.
       -1    1    3    3    0  502 -0.53302979821E+03  0.11768229309E+04  0.84372907203E+03  0.15430203250E+04  0.50400001928E-02 0.  1.
</event>
<event>
 5   0  0.6729577E-07  0.3263963E+04  0.7818609E-02  0.8172126E-01
        2   -1    0    0  501    0  0.00000000000E+00  0.00000000000E+00  0.15904608057E+04  0.15904608057E+04  0.25500000920E-02 0. -1.
       -2   -1    0    0    0  501  0.00000000000E+00  0.00000000000E+00 -0.16745860967E+04  0.16745860967E+04  0.25500000920E-02 0.  1.
    10030    2    1    2    0    0  0.00000000000E+00  0.00000000000E+00 -0.84125290945E+02  0.32650469024E+04  0.32639629610E+04 0.  0.
        3    1    3    3  502    0  0.13351820405E+04  0.61441043539E+03 -0.75163048642E+03  0.16508057617E+04  0.10100000352E+00 0.  1.
       -3    1    3    3    0  502 -0.13351820405E+04 -0.61441043539E+03  0.66750519547E+03  0.16142411408E+04  0.10100000352E+00 0. -1.
</event>
<event>
 5   0  0.6669864E-07  0.3572183E+04  0.7818609E-02  0.8096893E-01
        2   -1    0    0  501    0  0.00000000000E+00  0.00000000000E+00  0.20480364271E+04  0.20480364271E+04  0.25500000920E-02 0.  1.
       -2   -1    0    0    0  501  0.00000000000E+00  0.00000000000E+00 -0.15576496467E+04  0.15576496467E+04  0.25500000920E-02 0. -1.
    10030    2    1    2    0    0  0.00000000000E+00  0.00000000000E+00  0.49038678036E+03  0.36056860738E+04  0.35721832076E+04 0.  0.
        5    1    3    3  502    0 -0.11340116447E+04 -0.91257395705E+03 -0.79956366443E+03  0.16607521733E+04  0.46999998093E+01 0. -1.
       -5    1    3    3    0  502  0.11340116447E+04  0.91257395705E+03  0.12899504448E+04  0.19449339006E+04  0.46999998093E+01 0.  1.
</event>
<event>
 5   0  0.2193129E-07  0.3597863E+04  0.7818609E-02  0.8090981E-01
       -1   -1    0    0    0  501  0.00000000000E+00  0.00000000000E+00  0.12198409802E+04  0.12198409802E+04  0.50400001928E-02 0. -1.
        1   -1    0    0  501    0  0.00000000000E+00  0.00000000000E+00 -0.26529321406E+04  0.26529321406E+04  0.50400001928E-02 0.  1.
    10030    2    1    2    0    0  0.00000000000E+00  0.00000000000E+00 -0.14330911605E+04  0.38727731208E+04  0.35978634453E+04 0.  0.
        1    1    3    3  502    0 -0.17264788380E+04 -0.33388674591E+03 -0.30815389934E+03  0.17852642278E+04  0.50400001928E-02 0. -1.
       -1    1    3    3    0  502  0.17264788380E+04  0.33388674591E+03 -0.11249372611E+04  0.20875088931E+04  0.50400001928E-02 0.  1.
</event>
<event>
 5   0  0.2086250E-07  0.3612249E+04  0.7818609E-02  0.8087692E-01
        1   -1    0    0  501    0  0.00000000000E+00  0.00000000000E+00  0.22140990851E+04  0.22140990851E+04  0.50400001928E-02 0.  1.
       -1   -1    0    0    0  501  0.00000000000E+00  0.00000000000E+00 -0.14733243585E+04  0.14733243585E+04  0.50400001928E-02 0. -1.
    10030    2    1    2    0    0  0.00000000000E+00  0.00000000000E+00  0.74077472656E+03  0.36874234436E+04  0.36122492240E+04 0.  0.
        2    1    3    3  502    0 -0.17989778363E+04  0.15890002513E+03  0.34720707301E+03  0.18390549815E+04  0.25500000920E-02 0.  1.
       -2    1    3    3    0  502  0.17989778363E+04 -0.15890002513E+03  0.39356765355E+03  0.18483684620E+04  0.25500000920E-02 0. -1.
</event>
<event>
 5   0  0.6541476E-07  0.3603977E+04  0.7818609E-02  0.8089581E-01
       -2   -1    0    0    0  501  0.00000000000E+00  0.00000000000E+00  0.26404010680E+04  0.26404010680E+04  0.25500000920E-02 0. -1.
        2   -1    0    0  501    0  0.00000000000E+00  0.00000000000E+00 -0.12297988483E+04  0.12297988483E+04  0.25500000920E-02 0.  1.
    10030    2    1    2    0    0  0.00000000000E+00  0.00000000000E+00  0.14106022197E+04  0.38701999163E+04  0.36039767993E+04 0.  0.
        4    1    3    3  502    0  0.16882787817E+03  0.33985050165E+03  0.25970062870E+04  0.26245846307E+04  0.12699999809E+01 0. -1.
       -4    1    3    3    0  502 -0.16882787817E+03 -0.33985050165E+03 -0.11864040673E+04  0.12456152856E+04  0.12699999809E+01 0.  1.
</event>
<event>
 5   0  0.6541476E-07  0.3647067E+04  0.7818609E-02  0.8079795E-01
       -2   -1    0    0    0  501  0.00000000000E+00  0.00000000000E+00  0.24040078461E+04  0.24040078461E+04  0.25500000920E-02 0.  1.
        2   -1    0    0  501    0  0.00000000000E+00  0.00000000000E+00 -0.13832211143E+04  0.13832211143E+04  0.25500000920E-02 0. -1.
    10030    2    1    2    0    0  0.00000000000E+00  0.00000000000E+00  0.10207867317E+04  0.37872289604E+04  0.36470669924E+04 0.  0.
        4    1    3    3  502    0  0.12400078154E+03 -0.13334667052E+03  0.23945427701E+04  0.24014566869E+04  0.12699999809E+01 0.  1.
       -4    1    3    3    0  502 -0.12400078154E+03  0.13334667052E+03 -0.13737560383E+04  0.13857722735E+04  0.12699999809E+01 0. -1.
</event>
<event>
 5   0  0.6324216E-07  0.3570725E+04  0.7818609E-02  0.8097231E-01
       -2   -1    0    0    0  501  0.00000000000E+00  0.00000000000E+00  0.18100390688E+04  0.18100390688E+04  0.25500000920E-02 0. -1.
        2   -1    0    0  501    0  0.00000000000E+00  0.00000000000E+00 -0.17610225437E+04  0.17610225437E+04  0.25500000920E-02 0.  1.
    10030    2    1    2    0    0  0.00000000000E+00  0.00000000000E+00  0.49016525093E+02  0.35710616124E+04  0.35707251953E+04 0.  0.
        2    1    3    3  502    0 -0.78913399365E+03  0.14107757610E+04  0.78253672885E+03  0.17959355333E+04  0.25500000920E-02 0. -1.
       -2    1    3    3    0  502  0.78913399365E+03 -0.14107757610E+04 -0.73352020376E+03  0.17751260792E+04  0.25500000920E-02 0.  1.
</event>
<event>
 5   0  0.6848661E-07  0.3522288E+04  0.7818609E-02  0.8108528E-01
       -2   -1    0    0    0  501  0.00000000000E+00  0.00000000000E+00  0.19499828899E+04  0.19499828899E+04  0.25500000920E-02 0. -1.
        2   -1    0    0  501    0  0.00000000000E+00  0.00000000000E+00 -0.15905929094E+04  0.15905929094E+04  0.25500000920E-02 0.  1.
    10030    2    1    2    0    0  0.00000000000E+00  0.00000000000E+00  0.35938998053E+03  0.35405757994E+04  0.35222884369E+04 0.  0.
        1    1    3    3  502    0 -0.27575021456E+03 -0.22548618138E+03  0.19133951113E+04  0.19462690079E+04  0.50400001928E-02 0. -1.
       -1    1    3    3    0  502  0.27575021456E+03  0.22548618138E+03 -0.15540051308E+04  0.15943067915E+04  0.50400001928E-02 0.  1.
</event>
<event>
 5   0  0.6541476E-07  0.3591380E+04  0.7818609E-02  0.8092469E-01
        2   -1    0    0  501    0  0.00000000000E+00  0.00000000000E+00  0.12127486533E+04  0.12127486533E+04  0.25500000920E-02 0. -1.
       -2   -1    0    0    0  501  0.00000000000E+00  0.00000000000E+00 -0.26588376181E+04  0.26588376181E+04  0.25500000920E-02 0.  1.
    10030    2    1    2    0    0  0.00000000000E+00  0.00000000000E+00 -0.14460889648E+04  0.38715862714E+04  0.35913795348E+04 0.  0.
        4    1    3    3  502    0 -0.27286585782E+03  0.54175346659E+03  0.10989554865E+04  0.12552519146E+04  0.12699999809E+01 0. -1.
       -4    1    3    3    0  502  0.27286585782E+03 -0.54175346659E+03 -0.25450444512E+04  0.26163343568E+04  0.12699999809E+01 0.  1.
</event>
<event>
 5   0  0.6729577E-07  0.3621274E+04  0.7818609E-02  0.8085636E-01
        2   -1    0    0  501    0  0.00000000000E+00  0.00000000000E+00  0.21264549295E+04  0.21264549295E+04  0.25500000920E-02 0.  1.
       -2   -1    0    0    0  501  0.00000000000E+00  0.00000000000E+00 -0.15417239908E+04  0.15417239908E+04  0.25500000920E-02 0. -1.
    10030    2    1    2    0    0  0.00000000000E+00  0.00000000000E+00  0.58473093869E+03  0.36681789203E+04  0.36212741295E+04 0.  0.
        3    1    3    3  502    0  0.35643222853E+03  0.12308712322E+04  0.15881209320E+04  0.20406410828E+04  0.10100000352E+00 0.  1.
       -3    1    3    3    0  502 -0.35643222853E+03 -0.12308712322E+04 -0.10033899933E+04  0.16275378376E+04  0.10100000352E+00 0. -1.
</event>
<event>
 5   0  0.2086250E-07  0.3605645E+04  0.7818609E-02  0.8089200E-01
        1   -1    0    0  501    0  0.00000000000E+00  0.00000000000E+00  0.20695231390E+04  0.20695231390E+04  0.50400001928E-02 0.  1.
       -1   -1    0    0    0  501  0.00000000000E+00  0.00000000000E+00 -0.15704920043E+04  0.15704920043E+04  0.50400001928E-02 0. -1.
    10030    2    1    2    0    0  0.00000000000E+00  0.00000000000E+00  0.49903113465E+03  0.36400151433E+04  0.36056453195E+04 0.  0.
        3    1    3    3  502    0 -0.11790203473E+04  0.12898514225E+04 -0.19783806475E+03  0.17586772250E+04  0.10100000352E+00 0. -1.
       -3    1    3    3    0  502  0.11790203473E+04 -0.12898514225E+04  0.69686919940E+03  0.18813379183E+04  0.10100000352E+00 0.  1.
</event>
<event>
 5   0  0.2086250E-07  0.3498121E+04  0.7818609E-02  0.8114235E-01
       -1   -1    0    0    0  501  0.00000000000E+00  0.00000000000E+00  0.11806983949E+04  0.11806983949E+04  0.50400001928E-02 0. -1.
        1   -1    0    0  501    0  0.00000000000E+00  0.00000000000E+00 -0.25910192655E+04  0.25910192655E+04  0.50400001928E-02 0.  1.
    10030    2    1    2    0    0  0.00000000000E+00  0.00000000000E+00 -0.14103208706E+04  0.37717176604E+04  0.34981208029E+04 0.  0.
        3    1    3    3  502    0  0.46646665094E+03  0.81956750638E+03  0.88312026455E+03  0.12919688254E+04  0.10100000352E+00 0. -1.
       -3    1    3    3    0  502 -0.46646665094E+03 -0.81956750638E+03 -0.22934411352E+04  0.24797488350E+04  0.10100000352E+00 0.  1.
</event>
<event>
 5   0  0.2086250E-07  0.3615545E+04  0.7818609E-02  0.8086940E-01
       -1   -1    0    0    0  501  0.00000000000E+00  0.00000000000E+00  0.27038053668E+04  0.27038053668E+04  0.50400001928E-02 0.  1.
        1   -1    0    0  501    0  0.00000000000E+00  0.00000000000E+00 -0.12086821258E+04  0.12086821258E+04  0.50400001928E-02 0. -1.
    10030    2    1    2    0    0  0.00000000000E+00  0.00000000000E+00  0.14951232410E+04  0.39124874926E+04  0.36155448930E+04 0.  0.
        4    1    3    3  502    0  0.65941773034E+03  0.29377078819E+03 -0.10459374220E+04  0.12708736061E+04  0.12699999809E+01 0. -1.
       -4    1    3    3    0  502 -0.65941773034E+03 -0.29377078819E+03  0.25410606630E+04  0.26416138865E+04  0.12699999809E+01 0.  1.
</event>
<event>
 5   0  0.2193129E-07  0.3172089E+04  0.7818609E-02  0.8196228E-01
       -1   -1    0    0    0  501  0.00000000000E+00  0.00000000000E+00  0.24690368943E+04  0.24690368943E+04  0.50400001928E-02 0. -1.
        1   -1    0    0  501    0  0.00000000000E+00  0.00000000000E+00 -0.10188330399E+04  0.10188330399E+04  0.50400001928E-02 0.  1.
    10030    2    1    2    0    0  0.00000000000E+00  0.00000000000E+00  0.14502038545E+04  0.34878699342E+04  0.31720885011E+04 0.  0.
        1    1    3    3  502    0 -0.74806933709E+03 -0.66878028783E+03 -0.62544879002E+03  0.11823962937E+04  0.50400001928E-02 0.  1.
       -1    1    3    3    0  502  0.74806933709E+03  0.66878028783E+03  0.20756526445E+04  0.23054736405E+04  0.50400001928E-02 0. -1.
</event>
<event>
 5   0  0.6848661E-07  0.3551919E+04  0.7818609E-02  0.8101595E-01
       -2   -1    0    0    0  501  0.00000000000E+00  0.00000000000E+00  0.10223600241E+04  0.10223600241E+04  0.25500000920E-02 0.  1.
        2   -1    0    0  501    0  0.00000000000E+00  0.00000000000E+00 -0.30850510912E+04  0.30850510912E+04  0.25500000920E-02 0. -1.
    10030    2    1    2    0    0  0.00000000000E+00  0.00000000000E+00 -0.20626910671E+04  0.41074111153E+04  0.35519194292E+04 0.  0.
        1    1    3    3  502    0 -0.85459508221E+02  0.65477167679E+03 -0.29378160117E+04  0.30111114551E+04  0.50400001928E-02 0. -1.
       -1    1    3    3    0  502  0.85459508221E+02 -0.65477167679E+03  0.87512494458E+03  0.10962996602E+04  0.50400001928E-02 0.  1.
</event>
<event>
 5   0  0.6541476E-07  0.3269772E+04  0.7818609E-02  0.8170630E-01
       -2   -1    0    0    0  501  0.00000000000E+00  0.00000000000E+00  0.19218702776E+04  0.19218702776E+04  0.25500000920E-02 0. -1.
        2   -1    0    0  501    0  0.00000000000E+00  0.00000000000E+00 -0.13907558411E+04  0.13907558411E+04  0.25500000920E-02 0.  1.
    10030    2    1    2    0    0  0.00000000000E+00  0.00000000000E+00  0.53111443648E+03  0.33126261187E+04  0.32697720498E+04 0.  0.
        4    1    3    3  502    0  0.19111835060E+03 -0.43060549888E+03 -0.13204970397E+04  0.14020204579E+04  0.12699999809E+01 0.  1.
       -4    1    3    3    0  502 -0.19111835060E+03  0.43060549888E+03  0.18516114761E+04  0.19106056608E+04  0.12699999809E+01 0. -1.
</event>
<event>
 5   0  0.6324216E-07  0.3815968E+04  0.7818609E-02  0.8042737E-01
       -2   -1    0    0    0  501  0.00000000000E+00  0.00000000000E+00  0.22530810187E+04  0.22530810187E+04  0.25500000920E-02 0.  1.
        2   -1    0    0  501    0  0.00000000000E+00  0.00000000000E+00 -0.16157443745E+04  0.16157443745E+04  0.25500000920E-02 0. -1.
    10030    2    1    2    0    0  0.00000000000E+00  0.00000000000E+00  0.63733664421E+03  0.38688253932E+04  0.38159680194E+04 0.  0.
        2    1    3    3  502    0 -0.52442463089E+03  0.94057778897E+03 -0.12781705915E+04  0.16713550884E+04  0.25500000920E-02 0. -1.
       -2    1    3    3    0  502  0.52442463089E+03 -0.94057778897E+03  0.19155072357E+04  0.21974703048E+04  0.25500000920E-02 0.  1.
</event>
<event>
 5   0  0.2086250E-07  0.3608477E+04  0.7818609E-02  0.8088553E-01
       -3   -1    0    0    0  501  0.00000000000E+00  0.00000000000E+00  0.14327972373E+04  0.14327972409E+04  0.10100000352E+00 0.  1.
        3   -1    0    0  501    0  0.00000000000E+00  0.00000000000E+00 -0.22719731298E+04  0.22719731321E+04  0.10100000352E+00 0. -1.
    10030    2    1    2    0    0  0.00000000000E+00  0.00000000000E+00 -0.83917589249E+03  0.37047703729E+04  0.36084771494E+04 0.  0.
        2    1    3    3  502    0  0.23927444440E+03  0.13322387808E+04 -0.16443870843E+04  0.21298172015E+04  0.25500000920E-02 0. -1.
       -2    1    3    3    0  502 -0.23927444440E+03 -0.13322387808E+04  0.80521119178E+03  0.15749531715E+04  0.25500000920E-02 0.  1.
</event>
<event>
 5   0  0.2086250E-07  0.3565220E+04  0.7818609E-02  0.8098505E-01
        1   -1    0    0  501    0  0.00000000000E+00  0.00000000000E+00  0.11810743123E+04  0.11810743123E+04  0.50400001928E-02 0. -1.
       -1   -1    0    0    0  501  0.00000000000E+00  0.00000000000E+00 -0.26905155063E+04  0.26905155063E+04  0.50400001928E-02 0.  1.
    10030    2    1    2    0    0  0.00000000000E+00  0.00000000000E+00 -0.15094411940E+04  0.38715898186E+04  0.35652201903E+04 0.  0.
        3    1    3    3  502    0  0.17583376052E+04  0.24283827936E+03 -0.57635904778E+03  0.18662559647E+04  0.10100000352E+00 0.  1.
       -3    1    3    3    0  502 -0.17583376052E+04 -0.24283827936E+03 -0.93308214618E+03  0.20053338538E+04  0.10100000352E+00 0. -1.
</event>
<event>
 5   0  0.6848661E-07  0.3605712E+04  0.7818609E-02  0.8089184E-01
        2   -1    0    0  501    0  0.00000000000E+00  0.00000000000E+00  0.20372586875E+04  0.20372586875E+04  0.25500000920E-02 0.  1.
       -2   -1    0    0    0  501  0.00000000000E+00  0.00000000000E+00 -0.15954234621E+04  0.15954234621E+04  0.25500000920E-02 0. -1.
    10030    2    1    2    0    0  0.00000000000E+00  0.00000000000E+00  0.44183522537E+03  0.36326821496E+04  0.36057123060E+04 0.  0.
        1    1    3    3  502    0  0.12665296539E+04 -0.58491742431E+03  0.13714156244E+04  0.19562736445E+04  0.50400001928E-02 0.  1.
       -1    1    3    3    0  502 -0.12665296539E+04  0.58491742431E+03 -0.92958039904E+03  0.16764085050E+04  0.50400001928E-02 0. -1.
</event>
<event>
 5   0  0.2086250E-07  0.3352595E+04  0.7818609E-02  0.8149640E-01
       -1   -1    0    0    0  501  0.00000000000E+00  0.00000000000E+00  0.23285068583E+04  0.23285068583E+04  0.50400001928E-02 0.  1.
        1   -1    0    0  501    0  0.00000000000E+00  0.00000000000E+00 -0.12067704866E+04  0.12067704866E+04  0.50400001928E-02 0. -1.
    10030    2    1    2    0    0  0.00000000000E+00  0.00000000000E+00  0.11217363717E+04  0.35352773449E+04  0.33525950274E+04 0.  0.
        4    1    3    3  502    0  0.15432947924E+04  0.47094969963E+03  0.81777695668E+02  0.16156242261E+04  0.12699999809E+01 0. -1.
       -4    1    3    3    0  502 -0.15432947924E+04 -0.47094969963E+03  0.10399586760E+04  0.19196531187E+04  0.12699999809E+01 0.  1.
</event>
<event>
 5   0  0.2086250E-07  0.3606335E+04  0.7818609E-02  0.8089042E-01
        1   -1    0    0  501    0  0.00000000000E+00  0.00000000000E+00  0.13427139255E+04  0.13427139255E+04  0.50400001928E-02 0. -1.
       -1   -1    0    0    0  501  0.00000000000E+00  0.00000000000E+00 -0.24215238871E+04  0.24215238871E+04  0.50400001928E-02 0.  1.
    10030    2    1    2    0    0  0.00000000000E+00  0.00000000000E+00 -0.10788099616E+04  0.37642378126E+04  0.36063354498E+04 0.  0.
        3    1    3    3  502    0  0.90475497163E+03 -0.11999946349E+04 -0.15794489298E+04  0.21801898116E+04  0.10100000352E+00 0. -1.
       -3    1    3    3    0  502 -0.90475497163E+03  0.11999946349E+04  0.50063896825E+03  0.15840480009E+04  0.10100000352E+00 0.  1.
</event>
<event>
 5   0  0.2193129E-07  0.2952588E+04  0.7818609E-02  0.8257401E-01
        1   -1    0    0  501    0  0.00000000000E+00  0.00000000000E+00  0.20495484496E+04  0.20495484496E+04  0.50400001928E-02 0. -1.
       -1   -1    0    0    0  501  0.00000000000E+00  0.00000000000E+00 -0.10633775004E+04  0.10633775004E+04  0.50400001928E-02 0.  1.
    10030    2    1    2    0    0  0.00000000000E+00  0.00000000000E+00  0.98617094915E+03  0.31129259500E+04  0.29525878190E+04 0.  0.
        1    1    3    3  502    0 -0.10829239900E+04  0.79526221801E+03 -0.15191901179E+03  0.13521263808E+04  0.50400001928E-02 0. -1.
       -1    1    3    3    0  502  0.10829239900E+04 -0.79526221801E+03  0.11380899609E+04  0.17607995692E+04  0.50400001928E-02 0.  1.
</event>
<event>
 5   0  0.2086250E-07  0.3210601E+04  0.7818609E-02  0.8186023E-01
        3   -1    0    0  501    0  0.00000000000E+00  0.00000000000E+00  0.20406873176E+04  0.20406873201E+04  0.10100000352E+00 0. -1.
       -3   -1    0    0    0  501  0.00000000000E+00  0.00000000000E+00 -0.12628046494E+04  0.12628046534E+04  0.10100000352E+00 0.  1.
    10030    2    1    2    0    0  0.00000000000E+00  0.00000000000E+00  0.77788266822E+03  0.33034919735E+04  0.32106008430E+04 0.  0.
        2    1    3    3  502    0  0.17217421425E+03 -0.15575039345E+04  0.74763465372E+03  0.17362085248E+04  0.25500000920E-02 0. -1.
       -2    1    3    3    0  502 -0.17217421425E+03  0.15575039345E+04  0.30248014495E+02  0.15672834487E+04  0.25500000920E-02 0.  1.
</event>
<event>
 5   0  0.2086250E-07  0.3595555E+04  0.7818609E-02  0.8091511E-01
       -1   -1    0    0    0  501  0.00000000000E+00  0.00000000000E+00  0.17262056352E+04  0.17262056352E+04  0.50400001928E-02 0.  1.
        1   -1    0    0  501    0  0.00000000000E+00  0.00000000000E+00 -0.18723165690E+04  0.18723165690E+04  0.50400001928E-02 0. -1.
    10030    2    1    2    0    0  0.00000000000E+00  0.00000000000E+00 -0.14611093383E+03  0.35985222042E+04  0.35955547068E+04 0.  0.
        3    1    3    3  502    0 -0.76678810083E+03  0.10902523516E+04 -0.12804462682E+04  0.18482848367E+04  0.10100000352E+00 0. -1.
       -3    1    3    3    0  502  0.76678810083E+03 -0.10902523516E+04  0.11343353343E+04  0.17502373675E+04  0.10100000352E+00 0.  1.
</event>
<event>
 5   0  0.6541476E-07  0.3660503E+04  0.7818609E-02  0.8076772E-01
       -2   -1    0    0    0  501  0.00000000000E+00  0.00000000000E+00  0.12487743101E+04  0.12487743101E+04  0.25500000920E-02 0.  1.
        2   -1    0    0  501    0  0.00000000000E+00  0.00000000000E+00 -0.26824874046E+04  0.26824874046E+04  0.25500000920E-02 0. -1.
    10030    2    1    2    0    0  0.00000000000E+00  0.00000000000E+00 -0.14337130944E+04  0.39312617147E+04  0.36605034397E+04 0.  0.
        4    1    3    3  502    0 -0.32721135380E+03  0.10520622617E+04  0.85272314811E+03  0.13932123502E+04  0.12699999809E+01 0.  1.
       -4    1    3    3    0  502  0.32721135380E+03 -0.10520622617E+04 -0.22864362425E+04  0.25380493645E+04  0.12699999809E+01 0. -1.
</event>
<event>
 5   0  0.6848661E-07  0.3398022E+04  0.7818609E-02  0.8138392E-01
       -2   -1    0    0    0  501  0.00000000000E+00  0.00000000000E+00  0.13844501820E+04  0.13844501820E+04  0.25500000920E-02 0. -1.
        2   -1    0    0  501    0  0.00000000000E+00  0.00000000000E+00 -0.20850428641E+04  0.20850428641E+04  0.25500000920E-02 0.  1.
    10030    2    1    2    0    0  0.00000000000E+00  0.00000000000E+00 -0.70059268216E+03  0.34694930461E+04  0.33980217613E+04 0.  0.
        1    1    3    3  502    0  0.30689696141E+02  0.97393849191E+03 -0.17713823448E+04  0.20217055806E+04  0.50400001928E-02 0.  1.
       -1    1    3    3    0  502 -0.30689696141E+02 -0.97393849191E+03  0.10707896626E+04  0.14477874654E+04  0.50400001928E-02 0. -1.
</event>
<event>
 5   0  0.2086250E-07  0.3561338E+04  0.7818609E-02  0.8099406E-01
       -1   -1    0    0    0  501  0.00000000000E+00  0.00000000000E+00  0.13612376240E+04  0.13612376240E+04  0.50400001928E-02 0.  1.
        1   -1    0    0  501    0  0.00000000000E+00  0.00000000000E+00 -0.23293378251E+04  0.23293378251E+04  0.50400001928E-02 0. -1.
    10030    2    1    2    0    0  0.00000000000E+00  0.00000000000E+00 -0.96810020104E+03  0.36905754491E+04  0.35613381118E+04 0.  0.
        4    1    3    3  502    0  0.12876030568E+04  0.20950752721E+03 -0.17400415980E+04  0.21747554832E+04  0.12699999809E+01 0. -1.
       -4    1    3    3    0  502 -0.12876030568E+04 -0.20950752721E+03  0.77194139695E+03  0.15158199659E+04  0.12699999809E+01 0.  1.
</event>
<event>
 5   0  0.6669864E-07  0.3686882E+04  0.7818609E-02  0.8070875E-01
        2   -1    0    0  501    0  0.00000000000E+00  0.00000000000E+00  0.20783763302E+04  0.20783763302E+04  0.25500000920E-02 0. -1.
       -2   -1    0    0    0  501  0.00000000000E+00  0.00000000000E+00 -0.16350622516E+04  0.16350622516E+04  0.25500000920E-02 0.  1.
    10030    2    1    2    0    0  0.00000000000E+00  0.00000000000E+00  0.44331407859E+03  0.37134385817E+04  0.36868819791E+04 0.  0.
        5    1    3    3  502    0  0.14343658295E+04  0.45645892827E+03 -0.85019460404E+03  0.17287605504E+04  0.46999998093E+01 0.  1.
       -5    1    3    3    0  502 -0.14343658295E+04 -0.45645892827E+03  0.12935086826E+04  0.19846780313E+04  0.46999998093E+01 0. -1.
</event>
<event>
 5   0  0.2086250E-07  0.3600231E+04  0.7818609E-02  0.8090439E-01
       -1   -1    0    0    0  501  0.00000000000E+00  0.00000000000E+00  0.22924722365E+04  0.22924722365E+04  0.50400001928E-02 0.  1.
        1   -1    0    0  501    0  0.00000000000E+00  0.00000000000E+00 -0.14135028753E+04  0.14135028753E+04  0.50400001928E-02 0. -1.
    10030    2    1    2    0    0  0.00000000000E+00  0.00000000000E+00  0.87896936118E+03  0.37059751118E+04  0.36002311580E+04 0.  0.
        4    1    3    3  502    0  0.17605851723E+04 -0.51132305035E+01  0.53328789531E+02  0.17614005412E+04  0.12699999809E+01 0. -1.
       -4    1    3    3    0  502 -0.17605851723E+04  0.51132305035E+01  0.82564057165E+03  0.19445745705E+04  0.12699999809E+01 0.  1.
</event>
<event>
 5   0  0.2193129E-07  0.3468603E+04  0.7818609E-02  0.8121271E-01
        1   -1    0    0  501    0  0.00000000000E+00  0.00000000000E+00  0.10156212568E+04  0.10156212568E+04  0.50400001928E-02 0.  1.
       -1   -1    0    0    0  501  0.00000000000E+00  0.00000000000E+00 -0.29615392303E+04  0.29615392303E+04  0.50400001928E-02 0. -1.
    10030    2    1    2    0    0  0.00000000000E+00  0.00000000000E+00 -0.19459179735E+04  0.39771604871E+04  0.34686032896E+04 0.  0.
        1    1    3    3  502    0  0.90372823576E+03  0.96899112848E+03  0.31009174989E+03  0.13608179248E+04  0.50400001928E-02 0.  1.
       -1    1    3    3    0  502 -0.90372823576E+03 -0.96899112848E+03 -0.22560097234E+04  0.26163425623E+04  0.50400001928E-02 0. -1.
</event>
<event>
 5   0  0.2086250E-07  0.3361330E+04  0.7818609E-02  0.8147463E-01
        1   -1    0    0  501    0  0.00000000000E+00  0.00000000000E+00  0.17519541618E+04  0.17519541618E+04  0.50400001928E-02 0. -1.
       -1   -1    0    0    0  501  0.00000000000E+00  0.00000000000E+00 -0.16122770852E+04  0.16122770852E+04  0.50400001928E-02 0.  1.
    10030    2    1    2    0    0  0.00000000000E+00  0.00000000000E+00  0.13967707661E+03  0.33642312471E+04  0.33613304208E+04 0.  0.
        3    1    3    3  502    0  0.45235264822E+03 -0.13053439919E+04  0.10277902782E+04  0.17218881269E+04  0.10100000352E+00 0. -1.
       -3    1    3    3    0  502 -0.45235264822E+03  0.13053439919E+04 -0.88811320156E+03  0.16423431202E+04  0.10100000352E+00 0.  1.
</event>
<event>
 5   0  0.2086250E-07  0.3611346E+04  0.7818609E-02  0.8087898E-01
        1   -1    0    0  501    0  0.00000000000E+00  0.00000000000E+00  0.20969126993E+04  0.20969126993E+04  0.50400001928E-02 0. -1.
       -1   -1    0    0    0  501  0.00000000000E+00  0.00000000000E+00 -0.15548836514E+04  0.15548836514E+04  0.50400001928E-02 0.  1.
    10030    2    1    2    0    0  0.00000000000E+00  0.00000000000E+00  0.54202904789E+03  0.36517963507E+04  0.36113461615E+04 0.  0.
        3    1    3    3  502    0  0.69139706896E+03 -0.94281678472E+03  0.16624805067E+04  0.20324307717E+04  0.10100000352E+00 0. -1.
       -3    1    3    3    0  502 -0.69139706896E+03  0.94281678472E+03 -0.11204514588E+04  0.16193655789E+04  0.10100000352E+00 0.  1.
</event>
<event>
 5   0  0.6669864E-07  0.3607443E+04  0.7818609E-02  0.8088789E-01
       -2   -1    0    0    0  501  0.00000000000E+00  0.00000000000E+00  0.14090606895E+04  0.14090606895E+04  0.25500000920E-02 0. -1.
        2   -1    0    0  501    0  0.00000000000E+00  0.00000000000E+00 -0.23089223536E+04  0.23089223536E+04  0.25500000920E-02 0.  1.
    10030    2    1    2    0    0  0.00000000000E+00  0.00000000000E+00 -0.89986166410E+03  0.37179830431E+04  0.36074432628E+04 0.  0.
        5    1    3    3  502    0 -0.12313935666E+04  0.11999339571E+04  0.11195160983E+03  0.17229993819E+04  0.46999998093E+01 0. -1.
       -5    1    3    3    0  502  0.12313935666E+04 -0.11999339571E+04 -0.10118132739E+04  0.19949836612E+04  0.46999998093E+01 0.  1.
</event>
<event>
 5   0  0.6848661E-07  0.3433559E+04  0.7818609E-02  0.8129719E-01
       -2   -1    0    0    0  501  0.00000000000E+00  0.00000000000E+00  0.24567855363E+04  0.24567855363E+04  0.25500000920E-02 0. -1.
        2   -1    0    0  501    0  0.00000000000E+00  0.00000000000E+00 -0.11996696821E+04  0.11996696821E+04  0.25500000920E-02 0.  1.
    10030    2    1    2    0    0  0.00000000000E+00  0.00000000000E+00  0.12571158541E+04  0.36564552184E+04  0.34335585758E+04 0.  0.
        1    1    3    3  502    0  0.11092174462E+04 -0.54826113057E+03 -0.63881757956E+03  0.13924947074E+04  0.50400001928E-02 0.  1.
       -1    1    3    3    0  502 -0.11092174462E+04  0.54826113057E+03  0.18959334337E+04  0.22639605110E+04  0.50400001928E-02 0. -1.
</event>
<event>
 5   0  0.2086250E-07  0.3626814E+04  0.7818609E-02  0.8084377E-01
        1   -1    0    0  501    0  0.00000000000E+00  0.00000000000E+00  0.27466410579E+04  0.27466410579E+04  0.50400001928E-02 0.  1.
       -1   -1    0    0    0  501  0.00000000000E+00  0.00000000000E+00 -0.11972606906E+04  0.11972606906E+04  0.50400001928E-02 0. -1.
    10030    2    1    2    0    0  0.00000000000E+00  0.00000000000E+00  0.15493803673E+04  0.39439017485E+04  0.36268142328E+04 0.  0.
        4    1    3    3  502    0 -0.17799770041E+04  0.32283685626E+03  0.91181828299E+03  0.20258222936E+04  0.12699999809E+01 0. -1.
       -4    1    3    3    0  502  0.17799770041E+04 -0.32283685626E+03  0.63756208430E+03  0.19180794549E+04  0.12699999809E+01 0.  1.
</event>
<event>
 5   0  0.2086250E-07  0.3565586E+04  0.7818609E-02  0.8098420E-01
        1   -1    0    0  501    0  0.00000000000E+00  0.00000000000E+00  0.22818132062E+04  0.22818132062E+04  0.50400001928E-02 0. -1.
       -1   -1    0    0    0  501  0.00000000000E+00  0.00000000000E+00 -0.13929058289E+04  0.13929058289E+04  0.50400001928E-02 0.  1.
    10030    2    1    2    0    0  0.00000000000E+00  0.00000000000E+00  0.88890737732E+03  0.36747190351E+04  0.35655860194E+04 0.  0.
        3    1    3    3  502    0  0.76579212996E+03 -0.26353415943E+02 -0.12145420296E+04  0.14360516845E+04  0.10100000352E+00 0.  1.
       -3    1    3    3    0  502 -0.76579212996E+03  0.26353415943E+02  0.21034494069E+04  0.22386673506E+04  0.10100000352E+00 0. -1.
</event>
<event>
 5   0  0.6669864E-07  0.3607626E+04  0.7818609E-02  0.8088747E-01
        2   -1    0    0  501    0  0.00000000000E+00  0.00000000000E+00  0.26368897088E+04  0.26368897088E+04  0.25500000920E-02 0.  1.
       -2   -1    0    0    0  501  0.00000000000E+00  0.00000000000E+00 -0.12339316691E+04  0.12339316691E+04  0.25500000920E-02 0. -1.
    10030    2    1    2    0    0  0.00000000000E+00  0.00000000000E+00  0.14029580397E+04  0.38708213779E+04  0.36076262110E+04 0.  0.
        5    1    3    3  502    0  0.20820349631E+03 -0.11260234574E+04 -0.79391499895E+03  0.13934133048E+04  0.46999998093E+01 0. -1.
       -5    1    3    3    0  502 -0.20820349631E+03  0.11260234574E+04  0.21968730387E+04  0.24774080731E+04  0.46999998093E+01 0.  1.
</event>
<event>
 5   0  0.2108068E-07  0.3657250E+04  0.7818609E-02  0.8077502E-01
        1   -1    0    0  501    0  0.00000000000E+00  0.00000000000E+00  0.22576914642E+04  0.22576914642E+04  0.50400001928E-02 0.  1.
       -1   -1    0    0    0  501  0.00000000000E+00  0.00000000000E+00 -0.14811009271E+04  0.14811009271E+04  0.50400001928E-02 0. -1.
    10030    2    1    2    0    0  0.00000000000E+00  0.00000000000E+00  0.77659053716E+03  0.37387923913E+04  0.36572497430E+04 0.  0.
        5    1    3    3  502    0  0.91536798022E+03  0.51027843085E+03  0.19202272101E+04  0.21875962252E+04  0.46999998093E+01 0.  1.
       -5    1    3    3    0  502 -0.91536798022E+03 -0.51027843085E+03 -0.11436366729E+04  0.15511961661E+04  0.46999998093E+01 0. -1.
</event>
<event>
 5   0  0.2086250E-07  0.3612819E+04  0.7818609E-02  0.8087562E-01
        1   -1    0    0  501    0  0.00000000000E+00  0.00000000000E+00  0.15790894912E+04  0.15790894912E+04  0.50400001928E-02 0. -1.
       -1   -1    0    0    0  501  0.00000000000E+00  0.00000000000E+00 -0.20664540900E+04  0.20664540900E+04  0.50400001928E-02 0.  1.
    10030    2    1    2    0    0  0.00000000000E+00  0.00000000000E+00 -0.48736459882E+03  0.36455435812E+04  0.36128193631E+04 0.  0.
        3    1    3    3  502    0  0.17103559107E+04 -0.11779641235E+03  0.33061485671E+03  0.17459952834E+04  0.10100000352E+00 0. -1.
       -3    1    3    3    0  502 -0.17103559107E+04  0.11779641235E+03 -0.81797945553E+03  0.18995482978E+04  0.10100000352E+00 0.  1.
</event>
<event>
 5   0  0.6541476E-07  0.3618029E+04  0.7818609E-02  0.8086374E-01
       -2   -1    0    0    0  501  0.00000000000E+00  0.00000000000E+00  0.12344083229E+04  0.12344083229E+04  0.25500000920E-02 0. -1.
        2   -1    0    0  501    0  0.00000000000E+00  0.00000000000E+00 -0.26510945903E+04  0.26510945903E+04  0.25500000920E-02 0.  1.
    10030    2    1    2    0    0  0.00000000000E+00  0.00000000000E+00 -0.14166862674E+04  0.38855029132E+04  0.36180288706E+04 0.  0.
        4    1    3    3  502    0 -0.16485639362E+04  0.57114454464E+03 -0.19491735228E+03  0.17555522008E+04  0.12699999809E+01 0. -1.
       -4    1    3    3    0  502  0.16485639362E+04 -0.57114454464E+03 -0.12217689152E+04  0.21299507124E+04  0.12699999809E+01 0.  1.
</event>
<event>
 5   0  0.6324216E-07  0.3816565E+04  0.7818609E-02  0.8042609E-01
       -2   -1    0    0    0  501  0.00000000000E+00  0.00000000000E+00  0.21873652553E+04  0.21873652553E+04  0.25500000920E-02 0. -1.
        2   -1    0    0  501    0  0.00000000000E+00  0.00000000000E+00 -0.16648079123E+04  0.16648079123E+04  0.25500000920E-02 0.  1.
    10030    2    1    2    0    0  0.00000000000E+00  0.00000000000E+00  0.52255734301E+03  0.38521731675E+04  0.38165654633E+04 0.  0.
        2    1    3    3  502    0  0.29903616504E+03 -0.33302704299E+03  0.21336366473E+04  0.21800768294E+04  0.25500000920E-02 0. -1.
       -2    1    3    3    0  502 -0.29903616504E+03  0.33302704299E+03 -0.16110793043E+04  0.16720963381E+04  0.25500000920E-02 0.  1.
</event>
<event>
 5   0  0.2086250E-07  0.3627925E+04  0.7818609E-02  0.8084125E-01
        1   -1    0    0  501    0  0.00000000000E+00  0.00000000000E+00  0.22470184080E+04  0.22470184080E+04  0.50400001928E-02 0.  1.
       -1   -1    0    0    0  501  0.00000000000E+00  0.00000000000E+00 -0.14643668223E+04  0.14643668223E+04  0.50400001928E-02 0. -1.
    10030    2    1    2    0    0  0.00000000000E+00  0.00000000000E+00  0.78265158564E+03  0.37113852303E+04  0.36279245889E+04 0.  0.
        2    1    3    3  502    0  0.14755218451E+04 -0.88846533715E+03  0.97356203704E+03  0.19784737579E+04  0.25500000920E-02 0.  1.
       -2    1    3    3    0  502 -0.14755218451E+04  0.88846533715E+03 -0.19091045140E+03  0.17329114724E+04  0.25500000920E-02 0. -1.
</event>
<event>
 5   0  0.6324216E-07  0.3454583E+04  0.7818609E-02  0.8124638E-01
        2   -1    0    0  501    0  0.00000000000E+00  0.00000000000E+00  0.16713211877E+04  0.16713211877E+04  0.25500000920E-02 0. -1.
       -2   -1    0    0    0  501  0.00000000000E+00  0.00000000000E+00 -0.17851360505E+04  0.17851360505E+04  0.25500000920E-02 0.  1.
    10030    2    1    2    0    0  0.00000000000E+00  0.00000000000E+00 -0.11381486274E+03  0.34564572382E+04  0.34545828715E+04 0.  0.
        2    1    3    3  502    0  0.23730823879E+03 -0.61343017687E+03  0.15411203539E+04  0.16756084648E+04  0.25500000920E-02 0. -1.
       -2    1    3    3    0  502 -0.23730823879E+03  0.61343017687E+03 -0.16549352167E+04  0.17808487733E+04  0.25500000920E-02 0.  1.
</event>
<event>
 5   0  0.2086250E-07  0.3584501E+04  0.7818609E-02  0.8094051E-01
       -1   -1    0    0    0  501  0.00000000000E+00  0.00000000000E+00  0.17499365457E+04  0.17499365457E+04  0.50400001928E-02 0.  1.
        1   -1    0    0  501    0  0.00000000000E+00  0.00000000000E+00 -0.18355877443E+04  0.18355877443E+04  0.50400001928E-02 0. -1.
    10030    2    1    2    0    0  0.00000000000E+00  0.00000000000E+00 -0.85651198587E+02  0.35855242900E+04  0.35845011238E+04 0.  0.
        2    1    3    3  502    0  0.13666357637E+04 -0.10940146614E+04 -0.42712361029E+03  0.18019422767E+04  0.25500000920E-02 0. -1.
       -2    1    3    3    0  502 -0.13666357637E+04  0.10940146614E+04  0.34147241171E+03  0.17835820133E+04  0.25500000920E-02 0.  1.
</event>
<event>
 5   0  0.2193129E-07  0.3613768E+04  0.7818609E-02  0.8087345E-01
       -1   -1    0    0    0  501  0.00000000000E+00  0.00000000000E+00  0.26189408006E+04  0.26189408006E+04  0.50400001928E-02 0. -1.
        1   -1    0    0  501    0  0.00000000000E+00  0.00000000000E+00 -0.12466225453E+04  0.12466225453E+04  0.50400001928E-02 0.  1.
    10030    2    1    2    0    0  0.00000000000E+00  0.00000000000E+00  0.13723182553E+04  0.38655633459E+04  0.36137684745E+04 0.  0.
        1    1    3    3  502    0  0.16383643983E+04 -0.45309394793E+03  0.30857942958E+02  0.17001424175E+04  0.50400001928E-02 0.  1.
       -1    1    3    3    0  502 -0.16383643983E+04  0.45309394793E+03  0.13414603124E+04  0.21654209284E+04  0.50400001928E-02 0. -1.
</event>
<event>
 5   0  0.6324216E-07  0.3682309E+04  0.7818609E-02  0.8071894E-01
        2   -1    0    0  501    0  0.00000000000E+00  0.00000000000E+00  0.23178477528E+04  0.23178477528E+04  0.25500000920E-02 0. -1.
       -2   -1    0    0    0  501  0.00000000000E+00  0.00000000000E+00 -0.14624989497E+04  0.14624989498E+04  0.25500000920E-02 0.  1.
    10030    2    1    2    0    0  0.00000000000E+00  0.00000000000E+00  0.85534880302E+03  0.37803467025E+04  0.36823090061E+04 0.  0.
        2    1    3    3  502    0  0.13152776300E+04  0.12443535563E+04  0.77044827618E+03  0.19677300535E+04  0.25500000920E-02 0.  1.
       -2    1    3    3    0  502 -0.13152776300E+04 -0.12443535563E+04  0.84900526839E+02  0.18126166491E+04  0.25500000920E-02 0. -1.
</event>
<event>
 5   0  0.6541476E-07  0.3599937E+04  0.7818609E-02  0.8090506E-01
       -2   -1    0    0    0  501  0.00000000000E+00  0.00000000000E+00  0.15201973981E+04  0.15201973981E+04  0.25500000920E-02 0. -1.
        2   -1    0    0  501    0  0.00000000000E+00  0.00000000000E+00 -0.21312272273E+04  0.21312272273E+04  0.25500000920E-02 0.  1.
    10030    2    1    2    0    0  0.00000000000E+00  0.00000000000E+00 -0.61102982925E+03  0.36514246254E+04  0.35999367137E+04 0.  0.
        4    1    3    3  502    0  0.61379540880E+03 -0.75825557436E+03 -0.18398257091E+04  0.20824640628E+04  0.12699999809E+01 0.  1.
       -4    1    3    3    0  502 -0.61379540880E+03  0.75825557436E+03  0.12287958799E+04  0.15689605627E+04  0.12699999809E+01 0. -1.
</event>
<event>
 5   0  0.6848661E-07  0.3584056E+04  0.7818609E-02  0.8094154E-01
        2   -1    0    0  501    0  0.00000000000E+00  0.00000000000E+00  0.29352100299E+04  0.29352100299E+04  0.25500000920E-02 0. -1.
       -2   -1    0    0    0  501  0.00000000000E+00  0.00000000000E+00 -0.10940836204E+04  0.10940836204E+04  0.25500000920E-02 0.  1.
    10030    2    1    2    0    0  0.00000000000E+00  0.00000000000E+00  0.18411264096E+04  0.40292936503E+04  0.35840564817E+04 0.  0.
        1    1    3    3  502    0  0.14136369002E+04 -0.66630112936E+03  0.19064525698E+04  0.24651344551E+04  0.50400001928E-02 0.  1.
       -1    1    3    3    0  502 -0.14136369002E+04  0.66630112936E+03 -0.65326160230E+02  0.15641591952E+04  0.50400001928E-02 0. -1.
</event>
<event>
 5   0  0.6848661E-07  0.3054591E+04  0.7818609E-02  0.8228312E-01
        2   -1    0    0  501    0  0.00000000000E+00  0.00000000000E+00  0.89913222080E+03  0.89913222080E+03  0.25500000920E-02 0.  1.
       -2   -1    0    0    0  501  0.00000000000E+00  0.00000000000E+00 -0.25943145531E+04  0.25943145531E+04  0.25500000920E-02 0. -1.
    10030    2    1    2    0    0  0.00000000000E+00  0.00000000000E+00 -0.16951823323E+04  0.34934467739E+04  0.30545911711E+04 0.  0.
        1    1    3    3  502    0 -0.10732520304E+04 -0.10301991727E+04 -0.45231836411E+03  0.15549186984E+04  0.50400001928E-02 0.  1.
       -1    1    3    3    0  502  0.10732520304E+04  0.10301991727E+04 -0.12428639682E+04  0.19385280755E+04  0.50400001928E-02 0. -1.
</event>
<event>
 5   0  0.2086250E-07  0.3549182E+04  0.7818609E-02  0.8102232E-01
        1   -1    0    0  501    0  0.00000000000E+00  0.00000000000E+00  0.99374101126E+03  0.99374101127E+03  0.50400001928E-02 0.  1.
       -1   -1    0    0    0  501  0.00000000000E+00  0.00000000000E+00 -0.31690074612E+04  0.31690074612E+04  0.50400001928E-02 0. -1.
    10030    2    1    2    0    0  0.00000000000E+00  0.00000000000E+00 -0.21752664500E+04  0.41627484725E+04  0.35491816968E+04 0.  0.
        2    1    3    3  502    0 -0.89578116220E+03  0.94956788357E+03 -0.24975592365E+04  0.28181386048E+04  0.25500000920E-02 0. -1.
       -2    1    3    3    0  502  0.89578116220E+03 -0.94956788357E+03  0.32229278653E+03  0.13446098677E+04  0.25500000920E-02 0.  1.
</event>
<event>
 5   0  0.2086250E-07  0.3200402E+04  0.7818609E-02  0.8188711E-01
        1   -1    0    0  501    0  0.00000000000E+00  0.00000000000E+00  0.21868986225E+04  0.21868986225E+04  0.50400001928E-02 0. -1.
       -1   -1    0    0    0  501  0.00000000000E+00  0.00000000000E+00 -0.11709013628E+04  0.11709013628E+04  0.50400001928E-02 0.  1.
    10030    2    1    2    0    0  0.00000000000E+00  0.00000000000E+00  0.10159972597E+04  0.33577999853E+04  0.32004015856E+04 0.  0.
        2    1    3    3  502    0 -0.80987659246E+03 -0.42833907743E+03  0.18844935347E+04  0.20953974188E+04  0.25500000920E-02 0. -1.
       -2    1    3    3    0  502  0.80987659246E+03  0.42833907743E+03 -0.86849627497E+03  0.12624025665E+04  0.25500000920E-02 0.  1.
</event>
<event>
 5   0  0.6848661E-07  0.3594443E+04  0.7818609E-02  0.8091766E-01
        2   -1    0    0  501    0  0.00000000000E+00  0.00000000000E+00  0.18992801870E+04  0.18992801870E+04  0.25500000920E-02 0.  1.
       -2   -1    0    0    0  501  0.00000000000E+00  0.00000000000E+00 -0.17006472504E+04  0.17006472504E+04  0.25500000920E-02 0. -1.
    10030    2    1    2    0    0  0.00000000000E+00  0.00000000000E+00  0.19863293664E+03  0.35999274374E+04  0.35944432825E+04 0.  0.
        1    1    3    3  502    0  0.81724510200E+02  0.13310085588E+04 -0.11074048199E+04  0.17333805452E+04  0.50400001928E-02 0. -1.
       -1    1    3    3    0  502 -0.81724510200E+02 -0.13310085588E+04  0.13060377566E+04  0.18665468922E+04  0.50400001928E-02 0.  1.
</event>
<event>
 5   0  0.6669864E-07  0.3595134E+04  0.7818609E-02  0.8091607E-01
        2   -1    0    0  501    0  0.00000000000E+00  0.00000000000E+00  0.16331712277E+04  0.16331712277E+04  0.25500000920E-02 0. -1.
       -2   -1    0    0    0  501  0.00000000000E+00  0.00000000000E+00 -0.19785113133E+04  0.19785113133E+04  0.25500000920E-02 0.  1.
    10030    2    1    2    0    0  0.00000000000E+00  0.00000000000E+00 -0.34534008564E+03  0.36116825409E+04  0.35951343510E+04 0.  0.
        5    1    3    3  502    0 -0.37144284072E+03 -0.51039193756E+03 -0.18634964618E+04  0.19675138798E+04  0.46999998093E+01 0.  1.
       -5    1    3    3    0  502  0.37144284072E+03  0.51039193756E+03  0.15181563762E+04  0.16441686612E+04  0.46999998093E+01 0. -1.
</event>
<event>
 5   0  0.6541476E-07  0.3607200E+04  0.7818609E-02  0.8088844E-01
        2   -1    0    0  501    0  0.00000000000E+00  0.00000000000E+00  0.23604640334E+04  0.23604640334E+04  0.25500000920E-02 0.  1.
       -2   -1    0    0    0  501  0.00000000000E+00  0.00000000000E+00 -0.13781076962E+04  0.13781076962E+04  0.25500000920E-02 0. -1.
    10030    2    1    2    0    0  0.00000000000E+00  0.00000000000E+00  0.98235633724E+03  0.37385717296E+04  0.36072003832E+04 0.  0.
        4    1    3    3  502    0  0.16473602518E+03 -0.47215825453E+03 -0.13048201761E+04  0.13973649059E+04  0.12699999809E+01 0. -1.
       -4    1    3    3    0  502 -0.16473602518E+03  0.47215825453E+03  0.22871765134E+04  0.23412068237E+04  0.12699999809E+01 0.  1.
</event>
<event>
 5   0  0.2193129E-07  0.3709571E+04  0.7818609E-02  0.8065844E-01
       -1   -1    0    0    0  501  0.00000000000E+00  0.00000000000E+00  0.16846210330E+04  0.16846210330E+04  0.50400001928E-02 0.  1.
        1   -1    0    0  501    0  0.00000000000E+00  0.00000000000E+00 -0.20421381751E+04  0.20421381751E+04  0.50400001928E-02 0. -1.
    10030    2    1    2    0    0  0.00000000000E+00  0.00000000000E+00 -0.35751714211E+03  0.37267592080E+04  0.37095708226E+04 0.  0.
        1    1    3    3  502    0 -0.73692032103E+03 -0.41366212648E+03 -0.18374876246E+04  0.20225055463E+04  0.50400001928E-02 0. -1.
       -1    1    3    3    0  502  0.73692032103E+03  0.41366212648E+03  0.14799704825E+04  0.17042536617E+04  0.50400001928E-02 0.  1.
</event>
<event>
 5   0  0.6729577E-07  0.3532705E+04  0.7818609E-02  0.8106083E-01
       -2   -1    0    0    0  501  0.00000000000E+00  0.00000000000E+00  0.13057219912E+04  0.13057219912E+04  0.25500000920E-02 0. -1.
        2   -1    0    0  501    0  0.00000000000E+00  0.00000000000E+00 -0.23894836794E+04  0.23894836794E+04  0.25500000920E-02 0.  1.
    10030    2    1    2    0    0  0.00000000000E+00  0.00000000000E+00 -0.10837616882E+04  0.36952056707E+04  0.35327051323E+04 0.  0.
        3    1    3    3  502    0  0.30209988672E+03 -0.11095663495E+04  0.86053788174E+03  0.14362894143E+04  0.10100000352E+00 0. -1.
       -3    1    3    3    0  502 -0.30209988672E+03  0.11095663495E+04 -0.19442995699E+04  0.22589162564E+04  0.10100000352E+00 0.  1.
</event>
<event>
 5   0  0.6848661E-07  0.3661991E+04  0.7818609E-02  0.8076438E-01
       -2   -1    0    0    0  501  0.00000000000E+00  0.00000000000E+00  0.12612459632E+04  0.12612459632E+04  0.25500000920E-02 0. -1.
        2   -1    0    0  501    0  0.00000000000E+00  0.00000000000E+00 -0.26581214737E+04  0.26581214737E+04  0.25500000920E-02 0.  1.
    10030    2    1    2    0    0  0.00000000000E+00  0.00000000000E+00 -0.13968755105E+04  0.39193674369E+04  0.36619912498E+04 0.  0.
        1    1    3    3  502    0  0.12067661699E+03  0.53898636478E+03 -0.25668332562E+04  0.26255860512E+04  0.50400001928E-02 0.  1.
       -1    1    3    3    0  502 -0.12067661699E+03 -0.53898636478E+03  0.11699577457E+04  0.12937813857E+04  0.50400001928E-02 0. -1.
</event>
<event>
 5   0  0.2086250E-07  0.3600253E+04  0.7818609E-02  0.8090434E-01
        1   -1    0    0  501    0  0.00000000000E+00  0.00000000000E+00  0.24130913680E+04  0.24130913680E+04  0.50400001928E-02 0.  1.
       -1   -1    0    0    0  501  0.00000000000E+00  0.00000000000E+00 -0.13428645592E+04  0.13428645592E+04  0.50400001928E-02 0. -1.
    10030    2    1    2    0    0  0.00000000000E+00  0.00000000000E+00  0.10702268088E+04  0.37559559272E+04  0.36002527001E+04 0.  0.
        4    1    3    3  502    0 -0.66550452828E+03  0.15002678571E+04  0.13065197843E+04  0.20977834683E+04  0.12699999809E+01 0.  1.
       -4    1    3    3    0  502  0.66550452828E+03 -0.15002678571E+04 -0.23629297550E+03  0.16581724589E+04  0.12699999809E+01 0. -1.
</event>
<event>
 5   0  0.6729577E-07  0.3561853E+04  0.7818609E-02  0.8099286E-01
       -2   -1    0    0    0  501  0.00000000000E+00  0.00000000000E+00  0.17653099650E+04  0.17653099650E+04  0.25500000920E-02 0. -1.
        2   -1    0    0  501    0  0.00000000000E+00  0.00000000000E+00 -0.17966807904E+04  0.17966807904E+04  0.25500000920E-02 0.  1.
    10030    2    1    2    0    0  0.00000000000E+00  0.00000000000E+00 -0.31370825350E+02  0.35619907554E+04  0.35618526096E+04 0.  0.
        3    1    3    3  502    0  0.34588571360E+03 -0.17150195084E+04 -0.34851907164E+03  0.17839266785E+04  0.10100000352E+00 0.  1.
       -3    1    3    3    0  502 -0.34588571360E+03  0.17150195084E+04  0.31714824629E+03  0.17780640768E+04  0.10100000352E+00 0. -1.
</event>
<event>
 5   0  0.6848661E-07  0.3592516E+04  0.7818609E-02  0.8092208E-01
       -2   -1    0    0    0  501  0.00000000000E+00  0.00000000000E+00  0.12205143918E+04  0.12205143918E+04  0.25500000920E-02 0. -1.
        2   -1    0    0  501    0  0.00000000000E+00  0.00000000000E+00 -0.26435925128E+04  0.26435925128E+04  0.25500000920E-02 0.  1.
    10030    2    1    2    0    0  0.00000000000E+00  0.00000000000E+00 -0.14230781210E+04  0.38641069046E+04  0.35925159473E+04 0.  0.
        1    1    3    3  502    0  0.56957030393E+03 -0.13259909255E+04  0.43883941139E+03  0.15083906307E+04  0.50400001928E-02 0. -1.
       -1    1    3    3    0  502 -0.56957030393E+03  0.13259909255E+04 -0.18619175324E+04  0.23557162739E+04  0.50400001928E-02 0.  1.
</event>
<event>
 5   0  0.2086250E-07  0.3619010E+04  0.7818609E-02  0.8086151E-01
        1   -1    0    0  501    0  0.00000000000E+00  0.00000000000E+00  0.26326008591E+04  0.26326008591E+04  0.50400001928E-02 0.  1.
       -1   -1    0    0    0  501  0.00000000000E+00  0.00000000000E+00 -0.12437541472E+04  0.12437541472E+04  0.50400001928E-02 0. -1.
    10030    2    1    2    0    0  0.00000000000E+00  0.00000000000E+00  0.13888467119E+04  0.38763550063E+04  0.36190099400E+04 0.  0.
        2    1    3    3  502    0  0.10223216314E+04 -0.12617425982E+04  0.15494156950E+04  0.22445099461E+04  0.25500000920E-02 0.  1.
       -2    1    3    3    0  502 -0.10223216314E+04  0.12617425982E+04 -0.16056898308E+03  0.16318450602E+04  0.25500000920E-02 0. -1.
</event>
<event>
 5   0  0.6669864E-07  0.3597443E+04  0.7818609E-02  0.8091078E-01
       -2   -1    0    0    0  501  0.00000000000E+00  0.00000000000E+00  0.11175015632E+04  0.11175015632E+04  0.25500000920E-02 0. -1.
        2   -1    0    0  501    0  0.00000000000E+00  0.00000000000E+00 -0.28952080503E+04  0.28952080503E+04  0.25500000920E-02 0.  1.
    10030    2    1    2    0    0  0.00000000000E+00  0.00000000000E+00 -0.17777064872E+04  0.40127096135E+04  0.35974432709E+04 0.  0.
        5    1    3    3  502    0  0.52152121321E+03  0.60426642059E+03 -0.26868324986E+04  0.28028937277E+04  0.46999998093E+01 0.  1.
       -5    1    3    3    0  502 -0.52152121321E+03 -0.60426642059E+03  0.90912601146E+03  0.12098158858E+04  0.46999998093E+01 0. -1.
</event>
<event>
 5   0  0.2193129E-07  0.3625310E+04  0.7818609E-02  0.8084719E-01
        1   -1    0    0  501    0  0.00000000000E+00  0.00000000000E+00  0.26543704795E+04  0.26543704796E+04  0.50400001928E-02 0. -1.
       -1   -1    0    0    0  501  0.00000000000E+00  0.00000000000E+00 -0.12378522988E+04  0.12378522988E+04  0.50400001928E-02 0.  1.
    10030    2    1    2    0    0  0.00000000000E+00  0.00000000000E+00  0.14165181808E+04  0.38922227783E+04  0.36253102487E+04 0.  0.
        1    1    3    3  502    0  0.16542448467E+04 -0.42553152604E+03  0.13596543110E+04  0.21831772575E+04  0.50400001928E-02 0.  1.
       -1    1    3    3    0  502 -0.16542448467E+04  0.42553152604E+03  0.56863869782E+02  0.17090455208E+04  0.50400001928E-02 0. -1.
</event>
<event>
 5   0  0.6848661E-07  0.3586950E+04  0.7818609E-02  0.8093488E-01
        2   -1    0    0  501    0  0.00000000000E+00  0.00000000000E+00  0.13432281553E+04  0.13432281553E+04  0.25500000920E-02 0.  1.
       -2   -1    0    0    0  501  0.00000000000E+00  0.00000000000E+00 -0.23946430250E+04  0.23946430250E+04  0.25500000920E-02 0. -1.
    10030    2    1    2    0    0  0.00000000000E+00  0.00000000000E+00 -0.10514148697E+04  0.37378711803E+04  0.35869496417E+04 0.  0.
        1    1    3    3  502    0 -0.16102663339E+04 -0.63898396335E+03 -0.42187066792E+02  0.17329275577E+04  0.50400001928E-02 0.  1.
       -1    1    3    3    0  502  0.16102663339E+04  0.63898396335E+03 -0.10092278029E+04  0.20049436226E+04  0.50400001928E-02 0. -1.
</event>
<event>
 5   0  0.6324216E-07  0.3623214E+04  0.7818609E-02  0.8085195E-01
        2   -1    0    0  501    0  0.00000000000E+00  0.00000000000E+00  0.18103454751E+04  0.18103454751E+04  0.25500000920E-02 0.  1.
       -2   -1    0    0    0  501  0.00000000000E+00  0.00000000000E+00 -0.18128695313E+04  0.18128695313E+04  0.25500000920E-02 0. -1.
    10030    2    1    2    0    0  0.00000000000E+00  0.00000000000E+00 -0.25240562081E+01  0.36232150065E+04  0.36232141273E+04 0.  0.
        2    1    3    3  502    0  0.21061376168E+03  0.16029255646E+04  0.81616806375E+03  0.18110380533E+04  0.25500000920E-02 0.  1.
       -2    1    3    3    0  502 -0.21061376168E+03 -0.16029255646E+04 -0.81869211996E+03  0.18121769532E+04  0.25500000920E-02 0. -1.
</event>
<event>
 5   0  0.2086250E-07  0.3443579E+04  0.7818609E-02  0.8127293E-01
       -3   -1    0    0    0  501  0.00000000000E+00  0.00000000000E+00  0.99291213830E+03  0.99291214343E+03  0.10100000352E+00 0.  1.
        3   -1    0    0  501    0  0.00000000000E+00  0.00000000000E+00 -0.29857220465E+04  0.29857220482E+04  0.10100000352E+00 0. -1.
    10030    2    1    2    0    0  0.00000000000E+00  0.00000000000E+00 -0.19928099082E+04  0.39786341917E+04  0.34435793443E+04 0.  0.
        2    1    3    3  502    0 -0.12670691920E+04 -0.63831609215E+03 -0.21235039535E+04  0.25538560671E+04  0.25500000920E-02 0.  1.
       -2    1    3    3    0  502  0.12670691920E+04  0.63831609215E+03  0.13069404533E+03  0.14247781246E+04  0.25500000920E-02 0. -1.
</event>
<event>
 5   0  0.2086250E-07  0.3590090E+04  0.7818609E-02  0.8092766E-01
       -1   -1    0    0    0  501  0.00000000000E+00  0.00000000000E+00  0.14134721542E+04  0.14134721542E+04  0.50400001928E-02 0.  1.
        1   -1    0    0  501    0  0.00000000000E+00  0.00000000000E+00 -0.22796247432E+04  0.22796247432E+04  0.50400001928E-02 0. -1.
    10030    2    1    2    0    0  0.00000000000E+00  0.00000000000E+00 -0.86615258892E+03  0.36930968974E+04  0.35900897463E+04 0.  0.
        3    1    3    3  502    0 -0.96379669824E+03  0.12982971870E+04 -0.12349986326E+04  0.20346255906E+04  0.10100000352E+00 0.  1.
       -3    1    3    3    0  502  0.96379669824E+03 -0.12982971870E+04  0.36884604373E+03  0.16584713068E+04  0.10100000352E+00 0. -1.
</event>
<event>
 5   0  0.6729577E-07  0.3597100E+04  0.7818609E-02  0.8091156E-01
       -2   -1    0    0    0  501  0.00000000000E+00  0.00000000000E+00  0.35046672034E+04  0.35046672034E+04  0.25500000920E-02 0.  1.
        2   -1    0    0  501    0  0.00000000000E+00  0.00000000000E+00 -0.92299266718E+03  0.92299266718E+03  0.25500000920E-02 0. -1.
    10030    2    1    2    0    0  0.00000000000E+00  0.00000000000E+00  0.25816745362E+04  0.44276598705E+04  0.35971000151E+04 0.  0.
        3    1    3    3  502    0  0.69475885054E+03 -0.22472197281E+03 -0.73232931208E+03  0.10341644245E+04  0.10100000352E+00 0. -1.
       -3    1    3    3    0  502 -0.69475885054E+03  0.22472197281E+03  0.33140038483E+04  0.33934954460E+04  0.10100000352E+00 0.  1.
</event>
<event>
 5   0  0.6669864E-07  0.2968718E+04  0.7818609E-02  0.8252720E-01
        2   -1    0    0  501    0  0.00000000000E+00  0.00000000000E+00  0.12626109468E+04  0.12626109468E+04  0.25500000920E-02 0. -1.
       -2   -1    0    0    0  501  0.00000000000E+00  0.00000000000E+00 -0.17450518811E+04  0.17450518811E+04  0.25500000920E-02 0.  1.
    10030    2    1    2    0    0  0.00000000000E+00  0.00000000000E+00 -0.48244093423E+03  0.30076628279E+04  0.29687179777E+04 0.  0.
        5    1    3    3  502    0  0.45805587447E+03  0.13041940811E+04 -0.78920621374E+03  0.15917304807E+04  0.46999998093E+01 0.  1.
       -5    1    3    3    0  502 -0.45805587447E+03 -0.13041940811E+04  0.30676527951E+03  0.14159323472E+04  0.46999998093E+01 0. -1.
</event>
<event>
 5   0  0.2086250E-07  0.3583450E+04  0.7818609E-02  0.8094293E-01
       -3   -1    0    0    0  501  0.00000000000E+00  0.00000000000E+00  0.26107629660E+04  0.26107629680E+04  0.10100000352E+00 0. -1.
        3   -1    0    0  501    0  0.00000000000E+00  0.00000000000E+00 -0.12296321512E+04  0.12296321554E+04  0.10100000352E+00 0.  1.
    10030    2    1    2    0    0  0.00000000000E+00  0.00000000000E+00  0.13811308148E+04  0.38403951233E+04  0.35834497870E+04 0.  0.
        2    1    3    3  502    0  0.11033822130E+04  0.49970822273E+03 -0.72437423704E+03  0.14113393111E+04  0.25500000920E-02 0.  1.
       -2    1    3    3    0  502 -0.11033822130E+04 -0.49970822273E+03  0.21055050518E+04  0.24290558123E+04  0.25500000920E-02 0. -1.
</event>
<event>
 5   0  0.6848661E-07  0.3570980E+04  0.7818609E-02  0.8097172E-01
        2   -1    0    0  501    0  0.00000000000E+00  0.00000000000E+00  0.25722153897E+04  0.25722153897E+04  0.25500000920E-02 0. -1.
       -2   -1    0    0    0  501  0.00000000000E+00  0.00000000000E+00 -0.12393885385E+04  0.12393885385E+04  0.25500000920E-02 0.  1.
    10030    2    1    2    0    0  0.00000000000E+00  0.00000000000E+00  0.13328268512E+04  0.38116039283E+04  0.35709798502E+04 0.  0.
        1    1    3    3  502    0  0.13177940272E+04  0.85389406582E+02  0.19490962354E+04  0.23543255050E+04  0.50400001928E-02 0. -1.
       -1    1    3    3    0  502 -0.13177940272E+04 -0.85389406582E+02 -0.61626938414E+03  0.14572784232E+04  0.50400001928E-02 0.  1.
</event>
<event>
 5   0  0.2193129E-07  0.3668461E+04  0.7818609E-02  0.8074987E-01
       -1   -1    0    0    0  501  0.00000000000E+00  0.00000000000E+00  0.24118118467E+04  0.24118118467E+04  0.50400001928E-02 0. -1.
        1   -1    0    0  501    0  0.00000000000E+00  0.00000000000E+00 -0.13949688338E+04  0.13949688338E+04  0.50400001928E-02 0.  1.
    10030    2    1    2    0    0  0.00000000000E+00  0.00000000000E+00  0.10168430129E+04  0.38067806805E+04  0.36684614536E+04 0.  0.
        1    1    3    3  502    0 -0.76850186175E+03 -0.27636974988E+03 -0.11958891024E+04  0.14481457439E+04  0.50400001928E-02 0.  1.
       -1    1    3    3    0  502  0.76850186175E+03  0.27636974988E+03  0.22127321153E+04  0.23586349367E+04  0.50400001928E-02 0. -1.
</event>
<event>
 5   0  0.6729577E-07  0.3583628E+04  0.7818609E-02  0.8094252E-01
        2   -1    0    0  501    0  0.00000000000E+00  0.00000000000E+00  0.19200978989E+04  0.19200978989E+04  0.25500000920E-02 0. -1.
       -2   -1    0    0    0  501  0.00000000000E+00  0.00000000000E+00 -0.16721007378E+04  0.16721007378E+04  0.25500000920E-02 0.  1.
    10030    2    1    2    0    0  0.00000000000E+00  0.00000000000E+00  0.24799716110E+03  0.35921986366E+04  0.35836278341E+04 0.  0.
        3    1    3    3  502    0  0.13442514515E+03  0.14851178823E+04 -0.87183192808E+03  0.17273494623E+04  0.10100000352E+00 0.  1.
       -3    1    3    3    0  502 -0.13442514515E+03 -0.14851178823E+04  0.11198290892E+04  0.18648491743E+04  0.10100000352E+00 0. -1.
</event>
<event>
 5   0  0.6541476E-07  0.3555873E+04  0.7818609E-02  0.8100675E-01
        2   -1    0    0  501    0  0.00000000000E+00  0.00000000000E+00  0.24776100882E+04  0.24776100882E+04  0.25500000920E-02 0. -1.
       -2   -1    0    0    0  501  0.00000000000E+00  0.00000000000E+00 -0.12758495912E+04  0.12758495912E+04  0.25500000920E-02 0.  1.
    10030    2    1    2    0    0  0.00000000000E+00  0.00000000000E+00  0.12017604970E+04  0.37534596794E+04  0.35558727864E+04 0.  0.
        4    1    3    3  502    0  0.15522261040E+03  0.16352647564E+04 -0.11727059857E+03  0.16467965535E+04  0.12699999809E+01 0.  1.
       -4    1    3    3    0  502 -0.15522261040E+03 -0.16352647564E+04  0.13190310955E+04  0.21066631259E+04  0.12699999809E+01 0. -1.
</event>
<event>
 5   0  0.6324216E-07  0.3424048E+04  0.7818609E-02  0.8132029E-01
        2   -1    0    0  501    0  0.00000000000E+00  0.00000000000E+00  0.18029518166E+04  0.18029518166E+04  0.25500000920E-02 0. -1.
       -2   -1    0    0    0  501  0.00000000000E+00  0.00000000000E+00 -0.16256815323E+04  0.16256815323E+04  0.25500000920E-02 0.  1.
    10030    2    1    2    0    0  0.00000000000E+00  0.00000000000E+00  0.17727028432E+03  0.34286333489E+04  0.34240475883E+04 0.  0.
        2    1    3    3  502    0 -0.77733406514E+03 -0.11262013393E+04 -0.94155162825E+03  0.16610530317E+04  0.25500000920E-02 0.  1.
       -2    1    3    3    0  502  0.77733406514E+03  0.11262013393E+04  0.11188219126E+04  0.17675803171E+04  0.25500000920E-02 0. -1.
</event>
<event>
 5   0  0.6324216E-07  0.3507742E+04  0.7818609E-02  0.8111958E-01
        2   -1    0    0  501    0  0.00000000000E+00  0.00000000000E+00  0.18833258005E+04  0.18833258005E+04  0.25500000920E-02 0. -1.
       -2   -1    0    0    0  501  0.00000000000E+00  0.00000000000E+00 -0.16333142158E+04  0.16333142158E+04  0.25500000920E-02 0.  1.
    10030    2    1    2    0    0  0.00000000000E+00  0.00000000000E+00  0.25001158470E+03  0.35166400163E+04  0.35077416113E+04 0.  0.
        2    1    3    3  502    0  0.15979727656E+04 -0.70853257761E+03 -0.18631631284E+02  0.17481082663E+04  0.25500000920E-02 0. -1.
       -2    1    3    3    0  502 -0.15979727656E+04  0.70853257761E+03  0.26864321598E+03  0.17685317500E+04  0.25500000920E-02 0.  1.
</event>
<event>
 5   0  0.6848661E-07  0.3623817E+04  0.7818609E-02  0.8085058E-01
        2   -1    0    0  501    0  0.00000000000E+00  0.00000000000E+00  0.12650871718E+04  0.12650871718E+04  0.25500000920E-02 0. -1.
       -2   -1    0    0    0  501  0.00000000000E+00  0.00000000000E+00 -0.25950875982E+04  0.25950875982E+04  0.25500000920E-02 0.  1.
    10030    2    1    2    0    0  0.00000000000E+00  0.00000000000E+00 -0.13300004264E+04  0.38601747700E+04  0.36238167890E+04 0.  0.
        1    1    3    3  502    0  0.17912620649E+03  0.17051703748E+04 -0.40848486329E+02  0.17150395925E+04  0.50400001928E-02 0.  1.
       -1    1    3    3    0  502 -0.17912620649E+03 -0.17051703748E+04 -0.12891519401E+04  0.21451351775E+04  0.50400001928E-02 0. -1.
</event>
<event>
 5   0  0.2086250E-07  0.3536127E+04  0.7818609E-02  0.8105281E-01
        3   -1    0    0  501    0  0.00000000000E+00  0.00000000000E+00  0.15926013757E+04  0.15926013789E+04  0.10100000352E+00 0. -1.
       -3   -1    0    0    0  501  0.00000000000E+00  0.00000000000E+00 -0.19628568641E+04  0.19628568667E+04  0.10100000352E+00 0.  1.
    10030    2    1    2    0    0  0.00000000000E+00  0.00000000000E+00 -0.37025548831E+03  0.35554582456E+04  0.35361270070E+04 0.  0.
        2    1    3    3  502    0 -0.53676769783E+03 -0.11797058746E+04 -0.13942921815E+04  0.19036481291E+04  0.25500000920E-02 0.  1.
       -2    1    3    3    0  502  0.53676769783E+03  0.11797058746E+04  0.10240366932E+04  0.16518101165E+04  0.25500000920E-02 0. -1.
</event>
<event>
 5   0  0.2193129E-07  0.3603723E+04  0.7818609E-02  0.8089640E-01
       -1   -1    0    0    0  501  0.00000000000E+00  0.00000000000E+00  0.20235866182E+04  0.20235866183E+04  0.50400001928E-02 0. -1.
        1   -1    0    0  501    0  0.00000000000E+00  0.00000000000E+00 -0.16044304635E+04  0.16044304635E+04  0.50400001928E-02 0.  1.
    10030    2    1    2    0    0  0.00000000000E+00  0.00000000000E+00  0.41915615476E+03  0.36280170817E+04  0.36037225286E+04 0.  0.
        1    1    3    3  502    0 -0.13528209600E+04 -0.46082306522E+02  0.14069048186E+04  0.19523394422E+04  0.50400001928E-02 0.  1.
       -1    1    3    3    0  502  0.13528209600E+04  0.46082306522E+02 -0.98774866382E+03  0.16756776396E+04  0.50400001928E-02 0. -1.
</event>
<event>
 5   0  0.6848661E-07  0.3587818E+04  0.7818609E-02  0.8093288E-01
        2   -1    0    0  501    0  0.00000000000E+00  0.00000000000E+00  0.19197286296E+04  0.19197286296E+04  0.25500000920E-02 0. -1.
       -2   -1    0    0    0  501  0.00000000000E+00  0.00000000000E+00 -0.16763355666E+04  0.16763355666E+04  0.25500000920E-02 0.  1.
    10030    2    1    2    0    0  0.00000000000E+00  0.00000000000E+00  0.24339306301E+03  0.35960641962E+04  0.35878179329E+04 0.  0.
        1    1    3    3  502    0 -0.26688104984E+03  0.15208716755E+04  0.10369400027E+04  0.18599786874E+04  0.50400001928E-02 0. -1.
       -1    1    3    3    0  502  0.26688104984E+03 -0.15208716755E+04 -0.79354693972E+03  0.17360855088E+04  0.50400001928E-02 0.  1.
</event>
<event>
 5   0  0.2086250E-07  0.3601373E+04  0.7818609E-02  0.8090177E-01
        1   -1    0    0  501    0  0.00000000000E+00  0.00000000000E+00  0.18579647417E+04  0.18579647417E+04  0.50400001928E-02 0. -1.
       -1   -1    0    0    0  501  0.00000000000E+00  0.00000000000E+00 -0.17451741138E+04  0.17451741138E+04  0.50400001928E-02 0.  1.
    10030    2    1    2    0    0  0.00000000000E+00  0.00000000000E+00  0.11279062787E+03  0.36031388555E+04  0.36013730557E+04 0.  0.
        2    1    3    3  502    0 -0.14009953487E+03  0.98711406717E+03 -0.14438231165E+04  0.17546074356E+04  0.25500000920E-02 0.  1.
       -2    1    3    3    0  502  0.14009953487E+03 -0.98711406717E+03  0.15566137444E+04  0.18485314199E+04  0.25500000920E-02 0. -1.
</event>
<event>
 5   0  0.2086250E-07  0.3569206E+04  0.7818609E-02  0.8097582E-01
        1   -1    0    0  501    0  0.00000000000E+00  0.00000000000E+00  0.13622238761E+04  0.13622238761E+04  0.50400001928E-02 0.  1.
       -1   -1    0    0    0  501  0.00000000000E+00  0.00000000000E+00 -0.23379474959E+04  0.23379474959E+04  0.50400001928E-02 0. -1.
    10030    2    1    2    0    0  0.00000000000E+00  0.00000000000E+00 -0.97572361978E+03  0.37001713719E+04  0.35692060181E+04 0.  0.
        3    1    3    3  502    0  0.23207706655E+03 -0.75555466272E+03  0.11708748306E+04  0.14126820210E+04  0.10100000352E+00 0.  1.
       -3    1    3    3    0  502 -0.23207706655E+03  0.75555466272E+03 -0.21465984504E+04  0.22874893510E+04  0.10100000352E+00 0. -1.
</event>
<event>
 5   0  0.2086250E-07  0.3674540E+04  0.7818609E-02  0.8073628E-01
        1   -1    0    0  501    0  0.00000000000E+00  0.00000000000E+00  0.25661011326E+04  0.25661011326E+04  0.50400001928E-02 0. -1.
       -1   -1    0    0    0  501  0.00000000000E+00  0.00000000000E+00 -0.13154432238E+04  0.13154432238E+04  0.50400001928E-02 0.  1.
    10030    2    1    2    0    0  0.00000000000E+00  0.00000000000E+00  0.12506579088E+04  0.38815443564E+04  0.36745396155E+04 0.  0.
        4    1    3    3  502    0 -0.12165791483E+04 -0.13675057903E+04  0.79375333674E+03  0.19950395693E+04  0.12699999809E+01 0.  1.
       -4    1    3    3    0  502  0.12165791483E+04  0.13675057903E+04  0.45690457202E+03  0.18865047871E+04  0.12699999809E+01 0. -1.
</event>
<event>
 5   0  0.6848661E-07  0.3120681E+04  0.7818609E-02  0.8210085E-01
        2   -1    0    0  501    0  0.00000000000E+00  0.00000000000E+00  0.17438921592E+04  0.17438921592E+04  0.25500000920E-02 0.  1.
       -2   -1    0    0    0  501  0.00000000000E+00  0.00000000000E+00 -0.13961084407E+04  0.13961084407E+04  0.25500000920E-02 0. -1.
    10030    2    1    2    0    0  0.00000000000E+00  0.00000000000E+00  0.34778371853E+03  0.31400005999E+04  0.31206810559E+04 0.  0.
        1    1    3    3  502    0  0.14770172926E+04 -0.28514916775E+03  0.59091204702E+03  0.16161890910E+04  0.50400001928E-02 0.  1.
       -1    1    3    3    0  502 -0.14770172926E+04  0.28514916775E+03 -0.24312832849E+03  0.15238115089E+04  0.50400001928E-02 0. -1.
</event>
<event>
 5   0  0.2086250E-07  0.3618494E+04  0.7818609E-02  0.8086268E-01
        1   -1    0    0  501    0  0.00000000000E+00  0.00000000000E+00  0.15062309981E+04  0.15062309981E+04  0.50400001928E-02 0. -1.
       -1   -1    0    0    0  501  0.00000000000E+00  0.00000000000E+00 -0.21732226000E+04  0.21732226000E+04  0.50400001928E-02 0.  1.
    10030    2    1    2    0    0  0.00000000000E+00  0.00000000000E+00 -0.66699160189E+03  0.36794535981E+04  0.36184942978E+04 0.  0.
        2    1    3    3  502    0  0.70823166256E+03 -0.71763842411E+03 -0.18610614427E+04  0.21166357007E+04  0.25500000920E-02 0.  1.
       -2    1    3    3    0  502 -0.70823166256E+03  0.71763842411E+03  0.11940698408E+04  0.15628178974E+04  0.25500000920E-02 0. -1.
</event>
<event>
 5   0  0.2108068E-07  0.3513701E+04  0.7818609E-02  0.8110551E-01
        1   -1    0    0  501    0  0.00000000000E+00  0.00000000000E+00  0.12060622535E+04  0.12060622535E+04  0.50400001928E-02 0.  1.
       -1   -1    0    0    0  501  0.00000000000E+00  0.00000000000E+00 -0.25591747685E+04  0.25591747685E+04  0.50400001928E-02 0. -1.
    10030    2    1    2    0    0  0.00000000000E+00  0.00000000000E+00 -0.13531125150E+04  0.37652370219E+04  0.35137012328E+04 0.  0.
        5    1    3    3  502    0 -0.36347746008E+03  0.10396541230E+04  0.79018993109E+03  0.13555142111E+04  0.46999998093E+01 0.  1.
       -5    1    3    3    0  502  0.36347746008E+03 -0.10396541230E+04 -0.21433024461E+04  0.24097228108E+04  0.46999998093E+01 0. -1.
</event>
<event>
 5   0  0.2108068E-07  0.3591198E+04  0.7818609E-02  0.8092511E-01
        1   -1    0    0  501    0  0.00000000000E+00  0.00000000000E+00  0.18873999087E+04  0.18873999088E+04  0.50400001928E-02 0.  1.
       -1   -1    0    0    0  501  0.00000000000E+00  0.00000000000E+00 -0.17082633971E+04  0.17082633971E+04  0.50400001928E-02 0. -1.
    10030    2    1    2    0    0  0.00000000000E+00  0.00000000000E+00  0.17913651162E+03  0.35956633059E+04  0.35911982289E+04 0.  0.
        5    1    3    3  502    0  0.89054516481E+02  0.15532349658E+04  0.98716742650E+03  0.18425501849E+04  0.46999998093E+01 0.  1.
       -5    1    3    3    0  502 -0.89054516481E+02 -0.15532349658E+04 -0.80803091488E+03  0.17531131210E+04  0.46999998093E+01 0. -1.
</event>
<event>
 5   0  0.6848661E-07  0.3623798E+04  0.7818609E-02  0.8085062E-01
        2   -1    0    0  501    0  0.00000000000E+00  0.00000000000E+00  0.14598355539E+04  0.14598355539E+04  0.25500000920E-02 0. -1.
       -2   -1    0    0    0  501  0.00000000000E+00  0.00000000000E+00 -0.22488683456E+04  0.22488683456E+04  0.25500000920E-02 0.  1.
    10030    2    1    2    0    0  0.00000000000E+00  0.00000000000E+00 -0.78903279165E+03  0.37087038995E+04  0.36237979894E+04 0.  0.
        1    1    3    3  502    0  0.10887472728E+04  0.12746189163E+04 -0.10983461376E+04  0.20040928730E+04  0.50400001928E-02 0.  1.
       -1    1    3    3    0  502 -0.10887472728E+04 -0.12746189163E+04  0.30931334593E+03  0.17046110265E+04  0.50400001928E-02 0. -1.
</event>
<event>
 5   0  0.2108068E-07  0.3597817E+04  0.7818609E-02  0.8090992E-01
        1   -1    0    0  501    0  0.00000000000E+00  0.00000000000E+00  0.25159345759E+04  0.25159345759E+04  0.50400001928E-02 0.  1.
       -1   -1    0    0    0  501  0.00000000000E+00  0.00000000000E+00 -0.12862305192E+04  0.12862305192E+04  0.50400001928E-02 0. -1.
    10030    2    1    2    0    0  0.00000000000E+00  0.00000000000E+00  0.12297040567E+04  0.38021650951E+04  0.35978170247E+04 0.  0.
        5    1    3    3  502    0  0.67593881510E+03  0.55896357911E+03  0.22746357061E+04  0.24378931991E+04  0.46999998093E+01 0.  1.
       -5    1    3    3    0  502 -0.67593881510E+03 -0.55896357911E+03 -0.10449316494E+04  0.13642718961E+04  0.46999998093E+01 0. -1.
</event>
<event>
 5   0  0.6324216E-07  0.3581549E+04  0.7818609E-02  0.8094731E-01
        2   -1    0    0  501    0  0.00000000000E+00  0.00000000000E+00  0.10731077282E+04  0.10731077282E+04  0.25500000920E-02 0. -1.
       -2   -1    0    0    0  501  0.00000000000E+00  0.00000000000E+00 -0.29883979885E+04  0.29883979885E+04  0.25500000920E-02 0.  1.
    10030    2    1    2    0    0  0.00000000000E+00  0.00000000000E+00 -0.19152902603E+04  0.40615057167E+04  0.35815488138E+04 0.  0.
        2    1    3    3  502    0 -0.75175640198E+02 -0.16944709707E+03 -0.29774882756E+04  0.29832532791E+04  0.25500000920E-02 0.  1.
       -2    1    3    3    0  502  0.75175640198E+02  0.16944709707E+03  0.10621980153E+04  0.10782524376E+04  0.25500000920E-02 0. -1.
</event>
<event>
 5   0  0.2086250E-07  0.3595495E+04  0.7818609E-02  0.8091524E-01
        1   -1    0    0  501    0  0.00000000000E+00  0.00000000000E+00  0.24671608143E+04  0.24671608143E+04  0.50400001928E-02 0.  1.
       -1   -1    0    0    0  501  0.00000000000E+00  0.00000000000E+00 -0.13099659876E+04  0.13099659877E+04  0.50400001928E-02 0. -1.
    10030    2    1    2    0    0  0.00000000000E+00  0.00000000000E+00  0.11571948267E+04  0.37771268020E+04  0.35954953778E+04 0.  0.
        2    1    3    3  502    0  0.16893243388E+04  0.23617334917E+03 -0.17798215589E+02  0.17058462266E+04  0.25500000920E-02 0. -1.
       -2    1    3    3    0  502 -0.16893243388E+04 -0.23617334917E+03  0.11749930423E+04  0.20712805754E+04  0.25500000920E-02 0.  1.
</event>
<event>
 5   0  0.6669864E-07  0.3554630E+04  0.7818609E-02  0.8100964E-01
       -2   -1    0    0    0  501  0.00000000000E+00  0.00000000000E+00  0.15104528516E+04  0.15104528516E+04  0.25500000920E-02 0. -1.
        2   -1    0    0  501    0  0.00000000000E+00  0.00000000000E+00 -0.20913252377E+04  0.20913252377E+04  0.25500000920E-02 0.  1.
    10030    2    1    2    0    0  0.00000000000E+00  0.00000000000E+00 -0.58087238609E+03  0.36017780893E+04  0.35546297522E+04 0.  0.
        5    1    3    3  502    0 -0.53209846524E+03  0.14887757425E+04 -0.11131441600E+04  0.19335702726E+04  0.46999998093E+01 0. -1.
       -5    1    3    3    0  502  0.53209846524E+03 -0.14887757425E+04  0.53227177386E+03  0.16682078166E+04  0.46999998093E+01 0.  1.
</event>
<event>
 5   0  0.6541476E-07  0.3627670E+04  0.7818609E-02  0.8084183E-01
        2   -1    0    0  501    0  0.00000000000E+00  0.00000000000E+00  0.30588395741E+04  0.30588395741E+04  0.25500000920E-02 0.  1.
       -2   -1    0    0    0  501  0.00000000000E+00  0.00000000000E+00 -0.10755701674E+04  0.10755701674E+04  0.25500000920E-02 0. -1.
    10030    2    1    2    0    0  0.00000000000E+00  0.00000000000E+00  0.19832694066E+04  0.41344097415E+04  0.36276695510E+04 0.  0.
        4    1    3    3  502    0 -0.17759366104E+04 -0.40493275085E+02  0.57381146784E+03  0.18667757667E+04  0.12699999809E+01 0.  1.
       -4    1    3    3    0  502  0.17759366104E+04  0.40493275085E+02  0.14094579388E+04  0.22676339748E+04  0.12699999809E+01 0. -1.
</event>
<event>
 5   0  0.6541476E-07  0.3610078E+04  0.7818609E-02  0.8088187E-01
       -2   -1    0    0    0  501  0.00000000000E+00  0.00000000000E+00  0.11738255142E+04  0.11738255142E+04  0.25500000920E-02 0. -1.
        2   -1    0    0  501    0  0.00000000000E+00  0.00000000000E+00 -0.27756810950E+04  0.27756810950E+04  0.25500000920E-02 0.  1.
    10030    2    1    2    0    0  0.00000000000E+00  0.00000000000E+00 -0.16018555808E+04  0.39495066093E+04  0.36100777214E+04 0.  0.
        4    1    3    3  502    0  0.16888554654E+04 -0.29777255348E+03 -0.18470806642E+03  0.17248246169E+04  0.12699999809E+01 0.  1.
       -4    1    3    3    0  502 -0.16888554654E+04  0.29777255348E+03 -0.14171475144E+04  0.22246819923E+04  0.12699999809E+01 0. -1.
</event>
<event>
 5   0  0.2086250E-07  0.3579754E+04  0.7818609E-02  0.8095145E-01
       -3   -1    0    0    0  501  0.00000000000E+00  0.00000000000E+00  0.14163078637E+04  0.14163078673E+04  0.10100000352E+00 0.  1.
        3   -1    0    0  501    0  0.00000000000E+00  0.00000000000E+00 -0.22619794607E+04  0.22619794630E+04  0.10100000352E+00 0. -1.
    10030    2    1    2    0    0  0.00000000000E+00  0.00000000000E+00 -0.84567159706E+03  0.36782873303E+04  0.35797537952E+04 0.  0.
        4    1    3    3  502    0 -0.27127607798E+03 -0.16542139041E+04  0.22184383397E+03  0.16909259743E+04  0.12699999809E+01 0.  1.
       -4    1    3    3    0  502  0.27127607798E+03  0.16542139041E+04 -0.10675154310E+04  0.19873613560E+04  0.12699999809E+01 0. -1.
</event>
<event>
 5   0  0.2086250E-07  0.3614498E+04  0.7818609E-02  0.8087179E-01
       -3   -1    0    0    0  501  0.00000000000E+00  0.00000000000E+00  0.31698557830E+04  0.31698557847E+04  0.10100000352E+00 0. -1.
        3   -1    0    0  501    0  0.00000000000E+00  0.00000000000E+00 -0.10303778318E+04  0.10303778367E+04  0.10100000352E+00 0.  1.
    10030    2    1    2    0    0  0.00000000000E+00  0.00000000000E+00  0.21394779513E+04  0.42002336214E+04  0.36144981076E+04 0.  0.
        5    1    3    3  502    0  0.15767848621E+04 -0.28743095292E+03  0.20400764868E+04  0.25943787726E+04  0.46999998093E+01 0. -1.
       -5    1    3    3    0  502 -0.15767848621E+04  0.28743095292E+03  0.99401464495E+02  0.16058548487E+04  0.46999998093E+01 0.  1.
</event>
<event>
 5   0  0.2108068E-07  0.3585631E+04  0.7818609E-02  0.8093791E-01
       -1   -1    0    0    0  501  0.00000000000E+00  0.00000000000E+00  0.13054236195E+04  0.13054236195E+04  0.50400001928E-02 0. -1.
        1   -1    0    0  501    0  0.00000000000E+00  0.00000000000E+00 -0.24621798373E+04  0.24621798373E+04  0.50400001928E-02 0.  1.
    10030    2    1    2    0    0  0.00000000000E+00  0.00000000000E+00 -0.11567562178E+04  0.37676034568E+04  0.35856311662E+04 0.  0.
        5    1    3    3  502    0 -0.59523695985E+02  0.81794135013E+03  0.10967680422E+04  0.13694865282E+04  0.46999998093E+01 0. -1.
       -5    1    3    3    0  502  0.59523695985E+02 -0.81794135013E+03 -0.22535242600E+04  0.23981169286E+04  0.46999998093E+01 0.  1.
</event>
<event>
 5   0  0.6541476E-07  0.3590393E+04  0.7818609E-02  0.8092696E-01
       -2   -1    0    0    0  501  0.00000000000E+00  0.00000000000E+00  0.11821616213E+04  0.11821616213E+04  0.25500000920E-02 0. -1.
        2   -1    0    0  501    0  0.00000000000E+00  0.00000000000E+00 -0.27261337620E+04  0.27261337620E+04  0.25500000920E-02 0.  1.
    10030    2    1    2    0    0  0.00000000000E+00  0.00000000000E+00 -0.15439721407E+04  0.39082953834E+04  0.35903931306E+04 0.  0.
        4    1    3    3  502    0  0.27312413451E+03  0.71113716823E+03  0.99749527891E+03  0.12551140622E+04  0.12699999809E+01 0. -1.
       -4    1    3    3    0  502 -0.27312413451E+03 -0.71113716823E+03 -0.25414674196E+04  0.26531813211E+04  0.12699999809E+01 0.  1.
</event>
<event>
 5   0  0.6669864E-07  0.3598690E+04  0.7818609E-02  0.8090792E-01
        2   -1    0    0  501    0  0.00000000000E+00  0.00000000000E+00  0.16783450449E+04  0.16783450449E+04  0.25500000920E-02 0. -1.
       -2   -1    0    0    0  501  0.00000000000E+00  0.00000000000E+00 -0.19290684805E+04  0.19290684805E+04  0.25500000920E-02 0.  1.
    10030    2    1    2    0    0  0.00000000000E+00  0.00000000000E+00 -0.25072343566E+03  0.36074135254E+04  0.35986900537E+04 0.  0.
        5    1    3    3  502    0  0.10171365357E+04 -0.40064864288E+02 -0.16126862858E+04  0.19070791992E+04  0.46999998093E+01 0.  1.
       -5    1    3    3    0  502 -0.10171365357E+04  0.40064864288E+02  0.13619628502E+04  0.17003343262E+04  0.46999998093E+01 0. -1.
</event>
<event>
 5   0  0.2108068E-07  0.3289631E+04  0.7818609E-02  0.8165539E-01
       -1   -1    0    0    0  501  0.00000000000E+00  0.00000000000E+00  0.10497335026E+04  0.10497335026E+04  0.50400001928E-02 0. -1.
        1   -1    0    0  501    0  0.00000000000E+00  0.00000000000E+00 -0.25772420589E+04  0.25772420589E+04  0.50400001928E-02 0.  1.
    10030    2    1    2    0    0  0.00000000000E+00  0.00000000000E+00 -0.15275085563E+04  0.36269755615E+04  0.32896305772E+04 0.  0.
        5    1    3    3  502    0 -0.98780448490E+03 -0.10816522074E+04  0.61071032446E+02  0.14661108277E+04  0.46999998093E+01 0. -1.
       -5    1    3    3    0  502  0.98780448490E+03  0.10816522074E+04 -0.15885795887E+04  0.21608647338E+04  0.46999998093E+01 0.  1.
</event>
<event>
 5   0  0.6541476E-07  0.3621738E+04  0.7818609E-02  0.8085530E-01
       -2   -1    0    0    0  501  0.00000000000E+00  0.00000000000E+00  0.14526393272E+04  0.14526393272E+04  0.25500000920E-02 0. -1.
        2   -1    0    0  501    0  0.00000000000E+00  0.00000000000E+00 -0.22574402889E+04  0.22574402889E+04  0.25500000920E-02 0.  1.
    10030    2    1    2    0    0  0.00000000000E+00  0.00000000000E+00 -0.80480096165E+03  0.37100796161E+04  0.36217380040E+04 0.  0.
        4    1    3    3  502    0  0.82464245578E+03  0.10473543813E+04  0.85316261229E+03  0.15826795114E+04  0.12699999809E+01 0. -1.
       -4    1    3    3    0  502 -0.82464245578E+03 -0.10473543813E+04 -0.16579635739E+04  0.21274001047E+04  0.12699999809E+01 0.  1.
</event>
<event>
 5   0  0.6848661E-07  0.3599393E+04  0.7818609E-02  0.8090631E-01
       -2   -1    0    0    0  501  0.00000000000E+00  0.00000000000E+00  0.13391914035E+04  0.13391914035E+04  0.25500000920E-02 0.  1.
        2   -1    0    0  501    0  0.00000000000E+00  0.00000000000E+00 -0.24185548566E+04  0.24185548566E+04  0.25500000920E-02 0. -1.
    10030    2    1    2    0    0  0.00000000000E+00  0.00000000000E+00 -0.10793634531E+04  0.37577462601E+04  0.35993932115E+04 0.  0.
        1    1    3    3  502    0  0.82729796985E+03 -0.13209469053E+03 -0.22025641884E+04  0.23565143628E+04  0.50400001928E-02 0. -1.
       -1    1    3    3    0  502 -0.82729796985E+03  0.13209469053E+03  0.11232007352E+04  0.14012318973E+04  0.50400001928E-02 0.  1.
</event>
<event>
 5   0  0.2086250E-07  0.3263341E+04  0.7818609E-02  0.8172286E-01
       -1   -1    0    0    0  501  0.00000000000E+00  0.00000000000E+00  0.14667317689E+04  0.14667317689E+04  0.50400001928E-02 0.  1.
        1   -1    0    0  501    0  0.00000000000E+00  0.00000000000E+00 -0.18151567633E+04  0.18151567633E+04  0.50400001928E-02 0. -1.
    10030    2    1    2    0    0  0.00000000000E+00  0.00000000000E+00 -0.34842499443E+03  0.32818885323E+04  0.32633406750E+04 0.  0.
        3    1    3    3  502    0  0.84976862662E+02 -0.52048215075E+03  0.13786573684E+04  0.14760822762E+04  0.10100000352E+00 0.  1.
       -3    1    3    3    0  502 -0.84976862662E+02  0.52048215075E+03 -0.17270823628E+04  0.18058062561E+04  0.10100000352E+00 0. -1.
</event>
<event>
 5   0  0.6729577E-07  0.3620448E+04  0.7818609E-02  0.8085824E-01
        2   -1    0    0  501    0  0.00000000000E+00  0.00000000000E+00  0.18268484590E+04  0.18268484590E+04  0.25500000920E-02 0.  1.
       -2   -1    0    0    0  501  0.00000000000E+00  0.00000000000E+00 -0.17937508519E+04  0.17937508519E+04  0.25500000920E-02 0. -1.
    10030    2    1    2    0    0  0.00000000000E+00  0.00000000000E+00  0.33097607006E+02  0.36205993109E+04  0.36204480273E+04 0.  0.
        3    1    3    3  502    0 -0.16284444138E+04  0.78871058962E+03 -0.38365842798E+02  0.18097976548E+04  0.10100000352E+00 0. -1.
       -3    1    3    3    0  502  0.16284444138E+04 -0.78871058962E+03  0.71463449804E+02  0.18108016561E+04  0.10100000352E+00 0.  1.
</event>
<event>
 5   0  0.2086250E-07  0.3575697E+04  0.7818609E-02  0.8096081E-01
       -1   -1    0    0    0  501  0.00000000000E+00  0.00000000000E+00  0.13553151454E+04  0.13553151454E+04  0.50400001928E-02 0.  1.
        1   -1    0    0  501    0  0.00000000000E+00  0.00000000000E+00 -0.23584205472E+04  0.23584205472E+04  0.50400001928E-02 0. -1.
    10030    2    1    2    0    0  0.00000000000E+00  0.00000000000E+00 -0.10031054018E+04  0.37137356926E+04  0.35756974630E+04 0.  0.
        3    1    3    3  502    0 -0.50503718911E+03  0.11318325579E+04 -0.18398201988E+04  0.22183430474E+04  0.10100000352E+00 0. -1.
       -3    1    3    3    0  502  0.50503718911E+03 -0.11318325579E+04  0.83671479700E+03  0.14953926452E+04  0.10100000352E+00 0.  1.
</event>
<event>
 5   0  0.2108068E-07  0.3555003E+04  0.7818609E-02  0.8100877E-01
       -1   -1    0    0    0  501  0.00000000000E+00  0.00000000000E+00  0.25162687098E+04  0.25162687098E+04  0.50400001928E-02 0. -1.
        1   -1    0    0  501    0  0.00000000000E+00  0.00000000000E+00 -0.12556338729E+04  0.12556338730E+04  0.50400001928E-02 0.  1.
    10030    2    1    2    0    0  0.00000000000E+00  0.00000000000E+00  0.12606348369E+04  0.37719025828E+04  0.35550033618E+04 0.  0.
        5    1    3    3  502    0  0.11603247543E+04 -0.88579018044E+03  0.17063494723E+04  0.22455797449E+04  0.46999998093E+01 0. -1.
       -5    1    3    3    0  502 -0.11603247543E+04  0.88579018044E+03 -0.44571463544E+03  0.15263228379E+04  0.46999998093E+01 0.  1.
</event>
<event>
 5   0  0.2193129E-07  0.3585042E+04  0.7818609E-02  0.8093927E-01
        1   -1    0    0  501    0  0.00000000000E+00  0.00000000000E+00  0.12910518915E+04  0.12910518915E+04  0.50400001928E-02 0.  1.
       -1   -1    0    0    0  501  0.00000000000E+00  0.00000000000E+00 -0.24887705536E+04  0.24887705536E+04  0.50400001928E-02 0. -1.
    10030    2    1    2    0    0  0.00000000000E+00  0.00000000000E+00 -0.11977186621E+04  0.37798224452E+04  0.35850422206E+04 0.  0.
        1    1    3    3  502    0 -0.28002591870E+03 -0.78478128143E+03  0.10744531475E+04  0.13596858979E+04  0.50400001928E-02 0.  1.
       -1    1    3    3    0  502  0.28002591870E+03  0.78478128143E+03 -0.22721718096E+04  0.24201365472E+04  0.50400001928E-02 0. -1.
</event>
<event>
 5   0  0.2193129E-07  0.3604688E+04  0.7818609E-02  0.8089419E-01
        1   -1    0    0  501    0  0.00000000000E+00  0.00000000000E+00  0.25569312799E+04  0.25569312799E+04  0.50400001928E-02 0.  1.
       -1   -1    0    0    0  501  0.00000000000E+00  0.00000000000E+00 -0.12704460089E+04  0.12704460089E+04  0.50400001928E-02 0. -1.
    10030    2    1    2    0    0  0.00000000000E+00  0.00000000000E+00  0.12864852710E+04  0.38273772889E+04  0.36046875813E+04 0.  0.
        1    1    3    3  502    0 -0.15205619947E+04 -0.36420599728E+03  0.15951122907E+04  0.22336378417E+04  0.50400001928E-02 0.  1.
       -1    1    3    3    0  502  0.15205619947E+04  0.36420599728E+03 -0.30862701967E+03  0.15937394472E+04  0.50400001928E-02 0. -1.
</event>
<event>
 5   0  0.6729577E-07  0.3667086E+04  0.7818609E-02  0.8075295E-01
        2   -1    0    0  501    0  0.00000000000E+00  0.00000000000E+00  0.18524757341E+04  0.18524757341E+04  0.25500000920E-02 0. -1.
       -2   -1    0    0    0  501  0.00000000000E+00  0.00000000000E+00 -0.18148040320E+04  0.18148040320E+04  0.25500000920E-02 0.  1.
    10030    2    1    2    0    0  0.00000000000E+00  0.00000000000E+00  0.37671702064E+02  0.36672797661E+04  0.36670862719E+04 0.  0.
        3    1    3    3  502    0  0.16331753950E+04 -0.35557833442E+03  0.77265450330E+03  0.18413833969E+04  0.10100000352E+00 0. -1.
       -3    1    3    3    0  502 -0.16331753950E+04  0.35557833442E+03 -0.73498280124E+03  0.18258963692E+04  0.10100000352E+00 0.  1.
</event>
<event>
 5   0  0.2193129E-07  0.3593939E+04  0.7818609E-02  0.8091881E-01
       -1   -1    0    0    0  501  0.00000000000E+00  0.00000000000E+00  0.23920112978E+04  0.23920112978E+04  0.50400001928E-02 0. -1.
        1   -1    0    0  501    0  0.00000000000E+00  0.00000000000E+00 -0.13499517984E+04  0.13499517984E+04  0.50400001928E-02 0.  1.
    10030    2    1    2    0    0  0.00000000000E+00  0.00000000000E+00  0.10420594995E+04  0.37419630962E+04  0.35939393168E+04 0.  0.
        1    1    3    3  502    0  0.28607552421E+03 -0.86806453919E+03 -0.10898601599E+04  0.14223819522E+04  0.50400001928E-02 0.  1.
       -1    1    3    3    0  502 -0.28607552421E+03  0.86806453919E+03  0.21319196594E+04  0.23195811440E+04  0.50400001928E-02 0. -1.
</event>
<event>
 5   0  0.2086250E-07  0.3565273E+04  0.7818609E-02  0.8098493E-01
       -1   -1    0    0    0  501  0.00000000000E+00  0.00000000000E+00  0.18142901719E+04  0.18142901719E+04  0.50400001928E-02 0. -1.
        1   -1    0    0  501    0  0.00000000000E+00  0.00000000000E+00 -0.17515347751E+04  0.17515347751E+04  0.50400001928E-02 0.  1.
    10030    2    1    2    0    0  0.00000000000E+00  0.00000000000E+00  0.62755396871E+02  0.35658249470E+04  0.35652726842E+04 0.  0.
        2    1    3    3  502    0  0.49229813959E+02  0.53080675747E+03 -0.16699480946E+04  0.17529706292E+04  0.25500000920E-02 0.  1.
       -2    1    3    3    0  502 -0.49229813959E+02 -0.53080675747E+03  0.17327034914E+04  0.18128543178E+04  0.25500000920E-02 0. -1.
</event>
<event>
 5   0  0.2108068E-07  0.3621044E+04  0.7818609E-02  0.8085688E-01
        1   -1    0    0  501    0  0.00000000000E+00  0.00000000000E+00  0.22693359527E+04  0.22693359527E+04  0.50400001928E-02 0.  1.
       -1   -1    0    0    0  501  0.00000000000E+00  0.00000000000E+00 -0.14444707598E+04  0.14444707598E+04  0.50400001928E-02 0. -1.
    10030    2    1    2    0    0  0.00000000000E+00  0.00000000000E+00  0.82486519287E+03  0.37138067125E+04  0.36210437324E+04 0.  0.
        5    1    3    3  502    0  0.17250298007E+04 -0.10971534204E+03  0.96493704421E+03  0.19796188671E+04  0.46999998093E+01 0.  1.
       -5    1    3    3    0  502 -0.17250298007E+04  0.10971534204E+03 -0.14007185134E+03  0.17341878454E+04  0.46999998093E+01 0. -1.
</event>
<event>
 5   0  0.6541476E-07  0.3580619E+04  0.7818609E-02  0.8094946E-01
       -2   -1    0    0    0  501  0.00000000000E+00  0.00000000000E+00  0.30347698163E+04  0.30347698163E+04  0.25500000920E-02 0. -1.
        2   -1    0    0  501    0  0.00000000000E+00  0.00000000000E+00 -0.10561616478E+04  0.10561616478E+04  0.25500000920E-02 0.  1.
    10030    2    1    2    0    0  0.00000000000E+00  0.00000000000E+00  0.19786081685E+04  0.40909314642E+04  0.35806186561E+04 0.  0.
        4    1    3    3  502    0 -0.13448278777E+04 -0.11625847207E+04  0.12317787284E+04  0.21627403224E+04  0.12699999809E+01 0. -1.
       -4    1    3    3    0  502  0.13448278777E+04  0.11625847207E+04  0.74682944010E+03  0.19281911418E+04  0.12699999809E+01 0.  1.
</event>
<event>
 5   0  0.6729577E-07  0.3595973E+04  0.7818609E-02  0.8091415E-01
        2   -1    0    0  501    0  0.00000000000E+00  0.00000000000E+00  0.19114307176E+04  0.19114307176E+04  0.25500000920E-02 0. -1.
       -2   -1    0    0    0  501  0.00000000000E+00  0.00000000000E+00 -0.16912748436E+04  0.16912748436E+04  0.25500000920E-02 0.  1.
    10030    2    1    2    0    0  0.00000000000E+00  0.00000000000E+00  0.22015587399E+03  0.36027055612E+04  0.35959725738E+04 0.  0.
        3    1    3    3  502    0 -0.64269969615E+03 -0.11621866685E+04 -0.11042202752E+04  0.17271488581E+04  0.10100000352E+00 0.  1.
       -3    1    3    3    0  502  0.64269969615E+03  0.11621866685E+04  0.13243761492E+04  0.18755567031E+04  0.10100000352E+00 0. -1.
</event>
<event>
 5   0  0.2193129E-07  0.3635637E+04  0.7818609E-02  0.8082377E-01
       -1   -1    0    0    0  501  0.00000000000E+00  0.00000000000E+00  0.28222692745E+04  0.28222692745E+04  0.50400001928E-02 0. -1.
        1   -1    0    0  501    0  0.00000000000E+00  0.00000000000E+00 -0.11708534516E+04  0.11708534516E+04  0.50400001928E-02 0.  1.
    10030    2    1    2    0    0  0.00000000000E+00  0.00000000000E+00  0.16514158230E+04  0.39931227261E+04  0.36356367923E+04 0.  0.
        1    1    3    3  502    0 -0.10637411423E+04  0.12580802710E+04  0.16694589239E+04  0.23455072553E+04  0.50400001928E-02 0. -1.
       -1    1    3    3    0  502  0.10637411423E+04 -0.12580802710E+04 -0.18043100969E+02  0.16476154708E+04  0.50400001928E-02 0.  1.
</event>
<event>
 5   0  0.2086250E-07  0.3648380E+04  0.7818609E-02  0.8079499E-01
       -1   -1    0    0    0  501  0.00000000000E+00  0.00000000000E+00  0.31546840467E+04  0.31546840467E+04  0.50400001928E-02 0. -1.
        1   -1    0    0  501    0  0.00000000000E+00  0.00000000000E+00 -0.10548346407E+04  0.10548346407E+04  0.50400001928E-02 0.  1.
    10030    2    1    2    0    0  0.00000000000E+00  0.00000000000E+00  0.20998494059E+04  0.42095186874E+04  0.36483804697E+04 0.  0.
        2    1    3    3  502    0  0.69565774899E+03  0.11866580180E+04  0.24323604940E+04  0.27943647808E+04  0.25500000920E-02 0. -1.
       -2    1    3    3    0  502 -0.69565774899E+03 -0.11866580180E+04 -0.33251108809E+03  0.14151539065E+04  0.25500000920E-02 0.  1.
</event>
<event>
 5   0  0.2086250E-07  0.3604466E+04  0.7818609E-02  0.8089470E-01
       -1   -1    0    0    0  501  0.00000000000E+00  0.00000000000E+00  0.11198617992E+04  0.11198617992E+04  0.50400001928E-02 0. -1.
        1   -1    0    0  501    0  0.00000000000E+00  0.00000000000E+00 -0.29003962212E+04  0.29003962212E+04  0.50400001928E-02 0.  1.
    10030    2    1    2    0    0  0.00000000000E+00  0.00000000000E+00 -0.17805344220E+04  0.40202580204E+04  0.36044655252E+04 0.  0.
        4    1    3    3  502    0  0.13194341477E+03  0.16553792051E+04 -0.10923849830E+03  0.16642187476E+04  0.12699999809E+01 0.  1.
       -4    1    3    3    0  502 -0.13194341477E+03 -0.16553792051E+04 -0.16712959237E+04  0.23560392728E+04  0.12699999809E+01 0. -1.
</event>
<event>
 5   0  0.2086250E-07  0.3611862E+04  0.7818609E-02  0.8087780E-01
       -1   -1    0    0    0  501  0.00000000000E+00  0.00000000000E+00  0.16383985871E+04  0.16383985871E+04  0.50400001928E-02 0.  1.
        1   -1    0    0  501    0  0.00000000000E+00  0.00000000000E+00 -0.19905946065E+04  0.19905946065E+04  0.50400001928E-02 0. -1.
    10030    2    1    2    0    0  0.00000000000E+00  0.00000000000E+00 -0.35219601948E+03  0.36289931936E+04  0.36118623400E+04 0.  0.
        3    1    3    3  502    0  0.64170417303E+03  0.11048272719E+04  0.11062625490E+04  0.16900427166E+04  0.10100000352E+00 0.  1.
       -3    1    3    3    0  502 -0.64170417303E+03 -0.11048272719E+04 -0.14584585684E+04  0.19389504770E+04  0.10100000352E+00 0. -1.
</event>
<event>
 5   0  0.2193129E-07  0.3567557E+04  0.7818609E-02  0.8097964E-01
        1   -1    0    0  501    0  0.00000000000E+00  0.00000000000E+00  0.23881971886E+04  0.23881971886E+04  0.50400001928E-02 0.  1.
       -1   -1    0    0    0  501  0.00000000000E+00  0.00000000000E+00 -0.13323292574E+04  0.13323292574E+04  0.50400001928E-02 0. -1.
    10030    2    1    2    0    0  0.00000000000E+00  0.00000000000E+00  0.10558679312E+04  0.37205264460E+04  0.35675565794E+04 0.  0.
        1    1    3    3  502    0 -0.15857676276E+04 -0.52438146271E+03 -0.12520258096E+03  0.16749061387E+04  0.50400001928E-02 0. -1.
       -1    1    3    3    0  502  0.15857676276E+04  0.52438146271E+03  0.11810705122E+04  0.20456203074E+04  0.50400001928E-02 0.  1.
</event>
<event>
 5   0  0.6541476E-07  0.3598607E+04  0.7818609E-02  0.8090811E-01
       -2   -1    0    0    0  501  0.00000000000E+00  0.00000000000E+00  0.20384299217E+04  0.20384299217E+04  0.25500000920E-02 0. -1.
        2   -1    0    0  501    0  0.00000000000E+00  0.00000000000E+00 -0.15882285004E+04  0.15882285004E+04  0.25500000920E-02 0.  1.
    10030    2    1    2    0    0  0.00000000000E+00  0.00000000000E+00  0.45020142126E+03  0.36266584221E+04  0.35986066735E+04 0.  0.
        4    1    3    3  502    0 -0.17730596560E+04  0.80430868870E+02 -0.72636193059E+02  0.17763691333E+04  0.12699999809E+01 0. -1.
       -4    1    3    3    0  502  0.17730596560E+04 -0.80430868870E+02  0.52283761432E+03  0.18502892888E+04  0.12699999809E+01 0.  1.
</event>
<event>
 5   0  0.6541476E-07  0.3431798E+04  0.7818609E-02  0.8130146E-01
        2   -1    0    0  501    0  0.00000000000E+00  0.00000000000E+00  0.17297599425E+04  0.17297599425E+04  0.25500000920E-02 0.  1.
       -2   -1    0    0    0  501  0.00000000000E+00  0.00000000000E+00 -0.17021490818E+04  0.17021490818E+04  0.25500000920E-02 0. -1.
    10030    2    1    2    0    0  0.00000000000E+00  0.00000000000E+00  0.27610860737E+02  0.34319090243E+04  0.34317979532E+04 0.  0.
        4    1    3    3  502    0 -0.84536215848E+03  0.61774423294E+03 -0.13456732185E+04  0.17050170498E+04  0.12699999809E+01 0. -1.
       -4    1    3    3    0  502  0.84536215848E+03 -0.61774423294E+03  0.13732840793E+04  0.17268919745E+04  0.12699999809E+01 0.  1.
</event>
<event>
 5   0  0.2086250E-07  0.3598721E+04  0.7818609E-02  0.8090785E-01
        1   -1    0    0  501    0  0.00000000000E+00  0.00000000000E+00  0.18257369164E+04  0.18257369164E+04  0.50400001928E-02 0.  1.
       -1   -1    0    0    0  501  0.00000000000E+00  0.00000000000E+00 -0.17733654911E+04  0.17733654911E+04  0.50400001928E-02 0. -1.
    10030    2    1    2    0    0  0.00000000000E+00  0.00000000000E+00  0.52371425304E+02  0.35991024075E+04  0.35987213526E+04 0.  0.
        3    1    3    3  502    0 -0.17026273264E+03 -0.59200095924E+03 -0.16646275913E+04  0.17749477631E+04  0.10100000352E+00 0. -1.
       -3    1    3    3    0  502  0.17026273264E+03  0.59200095924E+03  0.17169990166E+04  0.18241546445E+04  0.10100000352E+00 0.  1.
</event>
<event>
 5   0  0.2086250E-07  0.3618987E+04  0.7818609E-02  0.8086156E-01
        1   -1    0    0  501    0  0.00000000000E+00  0.00000000000E+00  0.18529042222E+04  0.18529042222E+04  0.50400001928E-02 0.  1.
       -1   -1    0    0    0  501  0.00000000000E+00  0.00000000000E+00 -0.17671000511E+04  0.17671000512E+04  0.50400001928E-02 0. -1.
    10030    2    1    2    0    0  0.00000000000E+00  0.00000000000E+00  0.85804171096E+02  0.36200042734E+04  0.36189872318E+04 0.  0.
        4    1    3    3  502    0  0.89061432952E+03 -0.49602208050E+03 -0.14525209788E+04  0.17745564502E+04  0.12699999809E+01 0. -1.
       -4    1    3    3    0  502 -0.89061432952E+03  0.49602208050E+03  0.15383251499E+04  0.18454478232E+04  0.12699999809E+01 0.  1.
</event>
<event>
 5   0  0.6541476E-07  0.3556801E+04  0.7818609E-02  0.8100459E-01
        2   -1    0    0  501    0  0.00000000000E+00  0.00000000000E+00  0.21353171392E+04  0.21353171392E+04  0.25500000920E-02 0.  1.
       -2   -1    0    0    0  501  0.00000000000E+00  0.00000000000E+00 -0.14811420384E+04  0.14811420384E+04  0.25500000920E-02 0. -1.
    10030    2    1    2    0    0  0.00000000000E+00  0.00000000000E+00  0.65417510082E+03  0.36164591777E+04  0.35568007986E+04 0.  0.
        4    1    3    3  502    0  0.68093513931E+03 -0.15989909338E+04 -0.56414788484E+02  0.17388585082E+04  0.12699999809E+01 0.  1.
       -4    1    3    3    0  502 -0.68093513931E+03  0.15989909338E+04  0.71058988931E+03  0.18776006695E+04  0.12699999809E+01 0. -1.
</event>
<event>
 5   0  0.6541476E-07  0.3523908E+04  0.7818609E-02  0.8108147E-01
       -2   -1    0    0    0  501  0.00000000000E+00  0.00000000000E+00  0.13283884800E+04  0.13283884800E+04  0.25500000920E-02 0. -1.
        2   -1    0    0  501    0  0.00000000000E+00  0.00000000000E+00 -0.23370289676E+04  0.23370289676E+04  0.25500000920E-02 0.  1.
    10030    2    1    2    0    0  0.00000000000E+00  0.00000000000E+00 -0.10086404876E+04  0.36654174476E+04  0.35239082610E+04 0.  0.
        4    1    3    3  502    0  0.10773455601E+04  0.11828347714E+04 -0.12720019674E+04  0.20439574776E+04  0.12699999809E+01 0.  1.
       -4    1    3    3    0  502 -0.10773455601E+04 -0.11828347714E+04  0.26336147975E+03  0.16214599700E+04  0.12699999809E+01 0. -1.
</event>
<event>
 5   0  0.6669864E-07  0.3626523E+04  0.7818609E-02  0.8084443E-01
        2   -1    0    0  501    0  0.00000000000E+00  0.00000000000E+00  0.19579145800E+04  0.19579145800E+04  0.25500000920E-02 0.  1.
       -2   -1    0    0    0  501  0.00000000000E+00  0.00000000000E+00 -0.16792958828E+04  0.16792958828E+04  0.25500000920E-02 0. -1.
    10030    2    1    2    0    0  0.00000000000E+00  0.00000000000E+00  0.27861869726E+03  0.36372104628E+04  0.36265233451E+04 0.  0.
        5    1    3    3  502    0 -0.37133377954E+03  0.69386701243E+03 -0.14990760990E+04  0.16931011332E+04  0.46999998093E+01 0. -1.
       -5    1    3    3    0  502  0.37133377954E+03 -0.69386701243E+03  0.17776947963E+04  0.19441093296E+04  0.46999998093E+01 0.  1.
</event>
<event>
 5   0  0.6848661E-07  0.3579094E+04  0.7818609E-02  0.8095297E-01
        2   -1    0    0  501    0  0.00000000000E+00  0.00000000000E+00  0.13005436459E+04  0.13005436459E+04  0.25500000920E-02 0. -1.
       -2   -1    0    0    0  501  0.00000000000E+00  0.00000000000E+00 -0.24624151123E+04  0.24624151123E+04  0.25500000920E-02 0.  1.
    10030    2    1    2    0    0  0.00000000000E+00  0.00000000000E+00 -0.11618714664E+04  0.37629587582E+04  0.35790939233E+04 0.  0.
        1    1    3    3  502    0  0.11304191302E+04  0.17727462457E+02  0.87752463592E+03  0.14311572798E+04  0.50400001928E-02 0. -1.
       -1    1    3    3    0  502 -0.11304191302E+04 -0.17727462457E+02 -0.20393961023E+04  0.23318014784E+04  0.50400001928E-02 0.  1.
</event>
<event>
 5   0  0.2086250E-07  0.3575057E+04  0.7818609E-02  0.8096229E-01
        3   -1    0    0  501    0  0.00000000000E+00  0.00000000000E+00  0.14062215504E+04  0.14062215541E+04  0.10100000352E+00 0.  1.
       -3   -1    0    0    0  501  0.00000000000E+00  0.00000000000E+00 -0.22722290210E+04  0.22722290233E+04  0.10100000352E+00 0. -1.
    10030    2    1    2    0    0  0.00000000000E+00  0.00000000000E+00 -0.86600747057E+03  0.36784505773E+04  0.35750566024E+04 0.  0.
        4    1    3    3  502    0 -0.16005710315E+04  0.23593153703E+03 -0.12150949890E+04  0.20233508747E+04  0.12699999809E+01 0. -1.
       -4    1    3    3    0  502  0.16005710315E+04 -0.23593153703E+03  0.34908751841E+03  0.16550997026E+04  0.12699999809E+01 0.  1.
</event>
<event>
 5   0  0.6669864E-07  0.3589508E+04  0.7818609E-02  0.8092899E-01
       -2   -1    0    0    0  501  0.00000000000E+00  0.00000000000E+00  0.13913936508E+04  0.13913936508E+04  0.25500000920E-02 0.  1.
        2   -1    0    0  501    0  0.00000000000E+00  0.00000000000E+00 -0.23150472590E+04  0.23150472590E+04  0.25500000920E-02 0. -1.
    10030    2    1    2    0    0  0.00000000000E+00  0.00000000000E+00 -0.92365360821E+03  0.37064409098E+04  0.35895080763E+04 0.  0.
        5    1    3    3  502    0  0.15664512453E+04 -0.57921558597E+03 -0.11403950298E+04  0.20223212191E+04  0.46999998093E+01 0. -1.
       -5    1    3    3    0  502 -0.15664512453E+04  0.57921558597E+03  0.21674142160E+03  0.16841196908E+04  0.46999998093E+01 0.  1.
</event>
<event>
 5   0  0.2086250E-07  0.3616618E+04  0.7818609E-02  0.8086696E-01
       -1   -1    0    0    0  501  0.00000000000E+00  0.00000000000E+00  0.14370303119E+04  0.14370303119E+04  0.50400001928E-02 0.  1.
        1   -1    0    0  501    0  0.00000000000E+00  0.00000000000E+00 -0.22755131649E+04  0.22755131649E+04  0.50400001928E-02 0. -1.
    10030    2    1    2    0    0  0.00000000000E+00  0.00000000000E+00 -0.83848285295E+03  0.37125434768E+04  0.36166179743E+04 0.  0.
        2    1    3    3  502    0 -0.13137931172E+04  0.22011157446E+03 -0.16745751815E+04  0.21397905268E+04  0.25500000920E-02 0. -1.
       -2    1    3    3    0  502  0.13137931172E+04 -0.22011157446E+03  0.83609232854E+03  0.15727529500E+04  0.25500000920E-02 0.  1.
</event>
<event>
 5   0  0.6669864E-07  0.3557912E+04  0.7818609E-02  0.8100201E-01
        2   -1    0    0  501    0  0.00000000000E+00  0.00000000000E+00  0.17103022294E+04  0.17103022294E+04  0.25500000920E-02 0.  1.
       -2   -1    0    0    0  501  0.00000000000E+00  0.00000000000E+00 -0.18503651515E+04  0.18503651515E+04  0.25500000920E-02 0. -1.
    10030    2    1    2    0    0  0.00000000000E+00  0.00000000000E+00 -0.14006292211E+03  0.35606673809E+04  0.35579115468E+04 0.  0.
        5    1    3    3  502    0  0.70664368204E+03  0.16324701508E+04 -0.51110010945E+02  0.17795893936E+04  0.46999998093E+01 0. -1.
       -5    1    3    3    0  502 -0.70664368204E+03 -0.16324701508E+04 -0.88952911168E+02  0.17810779873E+04  0.46999998093E+01 0.  1.
</event>
<event>
 5   0  0.2086250E-07  0.3341834E+04  0.7818609E-02  0.8152331E-01
       -1   -1    0    0    0  501  0.00000000000E+00  0.00000000000E+00  0.12046338886E+04  0.12046338887E+04  0.50400001928E-02 0. -1.
        1   -1    0    0  501    0  0.00000000000E+00  0.00000000000E+00 -0.23176868618E+04  0.23176868618E+04  0.50400001928E-02 0.  1.
    10030    2    1    2    0    0  0.00000000000E+00  0.00000000000E+00 -0.11130529731E+04  0.35223207504E+04  0.33418343089E+04 0.  0.
        3    1    3    3  502    0  0.12241378211E+04 -0.77789125368E+03  0.31794208248E+03  0.14848284027E+04  0.10100000352E+00 0. -1.
       -3    1    3    3    0  502 -0.12241378211E+04  0.77789125368E+03 -0.14309950556E+04  0.20374923477E+04  0.10100000352E+00 0.  1.
</event>
<event>
 5   0  0.2086250E-07  0.3568674E+04  0.7818609E-02  0.8097705E-01
       -1   -1    0    0    0  501  0.00000000000E+00  0.00000000000E+00  0.15110041842E+04  0.15110041842E+04  0.50400001928E-02 0.  1.
        1   -1    0    0  501    0  0.00000000000E+00  0.00000000000E+00 -0.21071140388E+04  0.21071140388E+04  0.50400001928E-02 0. -1.
    10030    2    1    2    0    0  0.00000000000E+00  0.00000000000E+00 -0.59610985456E+03  0.36181182231E+04  0.35686737757E+04 0.  0.
        4    1    3    3  502    0  0.64320815407E+03 -0.44492749216E+03  0.13279674744E+04  0.15411607407E+04  0.12699999809E+01 0.  1.
       -4    1    3    3    0  502 -0.64320815407E+03  0.44492749216E+03 -0.19240773290E+04  0.20769574823E+04  0.12699999809E+01 0. -1.
</event>
<event>
 5   0  0.2086250E-07  0.3574523E+04  0.7818609E-02  0.8096353E-01
       -1   -1    0    0    0  501  0.00000000000E+00  0.00000000000E+00  0.13042052183E+04  0.13042052183E+04  0.50400001928E-02 0. -1.
        1   -1    0    0  501    0  0.00000000000E+00  0.00000000000E+00 -0.24492339982E+04  0.24492339982E+04  0.50400001928E-02 0.  1.
    10030    2    1    2    0    0  0.00000000000E+00  0.00000000000E+00 -0.11450287799E+04  0.37534392165E+04  0.35745230514E+04 0.  0.
        3    1    3    3  502    0 -0.24092100450E+03  0.27109070851E+03  0.12651598324E+04  0.13161164517E+04  0.10100000352E+00 0. -1.
       -3    1    3    3    0  502  0.24092100450E+03 -0.27109070851E+03 -0.24101886123E+04  0.24373227648E+04  0.10100000352E+00 0.  1.
</event>
<event>
 5   0  0.2086250E-07  0.3594123E+04  0.7818609E-02  0.8091839E-01
        1   -1    0    0  501    0  0.00000000000E+00  0.00000000000E+00  0.28623021474E+04  0.28623021474E+04  0.50400001928E-02 0.  1.
       -1   -1    0    0    0  501  0.00000000000E+00  0.00000000000E+00 -0.11282629734E+04  0.11282629734E+04  0.50400001928E-02 0. -1.
    10030    2    1    2    0    0  0.00000000000E+00  0.00000000000E+00  0.17340391740E+04  0.39905651209E+04  0.35941227200E+04 0.  0.
        3    1    3    3  502    0 -0.53675347123E+03  0.11834804289E+04  0.22451821364E+04  0.25941420644E+04  0.10100000352E+00 0.  1.
       -3    1    3    3    0  502  0.53675347123E+03 -0.11834804289E+04 -0.51114296230E+03  0.13964230565E+04  0.10100000352E+00 0. -1.
</event>
<event>
 5   0  0.6324216E-07  0.3382173E+04  0.7818609E-02  0.8142296E-01
       -2   -1    0    0    0  501  0.00000000000E+00  0.00000000000E+00  0.12472934284E+04  0.12472934284E+04  0.25500000920E-02 0. -1.
        2   -1    0    0  501    0  0.00000000000E+00  0.00000000000E+00 -0.22927833181E+04  0.22927833181E+04  0.25500000920E-02 0.  1.
    10030    2    1    2    0    0  0.00000000000E+00  0.00000000000E+00 -0.10454898898E+04  0.35400767465E+04  0.33821730088E+04 0.  0.
        2    1    3    3  502    0  0.12227510698E+03  0.71522810410E+03  0.10760746455E+04  0.12978594243E+04  0.25500000920E-02 0. -1.
       -2    1    3    3    0  502 -0.12227510698E+03 -0.71522810410E+03 -0.21215645352E+04  0.22422173222E+04  0.25500000920E-02 0.  1.
</event>
<event>
 5   0  0.2108068E-07  0.3631308E+04  0.7818609E-02  0.8083358E-01
        1   -1    0    0  501    0  0.00000000000E+00  0.00000000000E+00  0.13944737619E+04  0.13944737619E+04  0.50400001928E-02 0. -1.
       -1   -1    0    0    0  501  0.00000000000E+00  0.00000000000E+00 -0.23640460904E+04  0.23640460904E+04  0.50400001928E-02 0.  1.
    10030    2    1    2    0    0  0.00000000000E+00  0.00000000000E+00 -0.96957232849E+03  0.37585198523E+04  0.36313084391E+04 0.  0.
        5    1    3    3  502    0  0.34280096670E+03 -0.17349222759E+04 -0.91042260445E+03  0.19890598822E+04  0.46999998093E+01 0.  1.
       -5    1    3    3    0  502 -0.34280096670E+03  0.17349222759E+04 -0.59149724033E+02  0.17694599702E+04  0.46999998093E+01 0. -1.
</event>
<event>
 5   0  0.2086250E-07  0.3571447E+04  0.7818609E-02  0.8097064E-01
        1   -1    0    0  501    0  0.00000000000E+00  0.00000000000E+00  0.14659687302E+04  0.14659687302E+04  0.50400001928E-02 0. -1.
       -1   -1    0    0    0  501  0.00000000000E+00  0.00000000000E+00 -0.21752229130E+04  0.21752229130E+04  0.50400001928E-02 0.  1.
    10030    2    1    2    0    0  0.00000000000E+00  0.00000000000E+00 -0.70925418282E+03  0.36411916432E+04  0.35714471978E+04 0.  0.
        2    1    3    3  502    0 -0.16547180620E+04 -0.12789674640E+03 -0.10265568574E+04  0.19514785226E+04  0.25500000920E-02 0.  1.
       -2    1    3    3    0  502  0.16547180620E+04  0.12789674640E+03  0.31730267460E+03  0.16897131206E+04  0.25500000920E-02 0. -1.
</event>
<event>
 5   0  0.2086250E-07  0.3596920E+04  0.7818609E-02  0.8091198E-01
       -1   -1    0    0    0  501  0.00000000000E+00  0.00000000000E+00  0.28606480840E+04  0.28606480840E+04  0.50400001928E-02 0.  1.
        1   -1    0    0  501    0  0.00000000000E+00  0.00000000000E+00 -0.11306734545E+04  0.11306734545E+04  0.50400001928E-02 0. -1.
    10030    2    1    2    0    0  0.00000000000E+00  0.00000000000E+00  0.17299746295E+04  0.39913215385E+04  0.35969202668E+04 0.  0.
        3    1    3    3  502    0  0.72716094554E+03 -0.12039904045E+04 -0.37866366130E+03  0.14566200992E+04  0.10100000352E+00 0. -1.
       -3    1    3    3    0  502 -0.72716094554E+03  0.12039904045E+04  0.21086382908E+04  0.25347014393E+04  0.10100000352E+00 0.  1.
</event>
<event>
 5   0  0.6848661E-07  0.3568063E+04  0.7818609E-02  0.8097847E-01
       -2   -1    0    0    0  501  0.00000000000E+00  0.00000000000E+00  0.18072314955E+04  0.18072314955E+04  0.25500000920E-02 0. -1.
        2   -1    0    0  501    0  0.00000000000E+00  0.00000000000E+00 -0.17611292614E+04  0.17611292614E+04  0.25500000920E-02 0.  1.
    10030    2    1    2    0    0  0.00000000000E+00  0.00000000000E+00  0.46102234114E+02  0.35683607570E+04  0.35680629305E+04 0.  0.
        1    1    3    3  502    0 -0.11570508098E+04  0.82011477502E+03 -0.10593577763E+04  0.17701959549E+04  0.50400001928E-02 0.  1.
       -1    1    3    3    0  502  0.11570508098E+04 -0.82011477502E+03  0.11054600104E+04  0.17981648020E+04  0.50400001928E-02 0. -1.
</event>
<event>
 5   0  0.6324216E-07  0.3588831E+04  0.7818609E-02  0.8093055E-01
        2   -1    0    0  501    0  0.00000000000E+00  0.00000000000E+00  0.32845540152E+04  0.32845540152E+04  0.25500000920E-02 0. -1.
       -2   -1    0    0    0  501  0.00000000000E+00  0.00000000000E+00 -0.98032385671E+03  0.98032385671E+03  0.25500000920E-02 0.  1.
    10030    2    1    2    0    0  0.00000000000E+00  0.00000000000E+00  0.23042301585E+04  0.42648778719E+04  0.35888308178E+04 0.  0.
        2    1    3    3  502    0  0.15363261666E+03  0.70369586493E+03 -0.80099546154E+03  0.10772114837E+04  0.25500000920E-02 0.  1.
       -2    1    3    3    0  502 -0.15363261666E+03 -0.70369586493E+03  0.31052256200E+04  0.31876663882E+04  0.25500000920E-02 0. -1.
</event>
<event>
 5   0  0.2086250E-07  0.3602553E+04  0.7818609E-02  0.8089907E-01
       -1   -1    0    0    0  501  0.00000000000E+00  0.00000000000E+00  0.13708221180E+04  0.13708221180E+04  0.50400001928E-02 0. -1.
        1   -1    0    0  501    0  0.00000000000E+00  0.00000000000E+00 -0.23668992000E+04  0.23668992000E+04  0.50400001928E-02 0.  1.
    10030    2    1    2    0    0  0.00000000000E+00  0.00000000000E+00 -0.99607708203E+03  0.37377213180E+04  0.36025534136E+04 0.  0.
        3    1    3    3  502    0  0.16329739511E+04  0.16977802008E+03  0.27082558859E+03  0.16639636446E+04  0.10100000352E+00 0. -1.
       -3    1    3    3    0  502 -0.16329739511E+04 -0.16977802008E+03 -0.12669026706E+04  0.20737576734E+04  0.10100000352E+00 0.  1.
</event>
<event>
 5   0  0.6848661E-07  0.3522347E+04  0.7818609E-02  0.8108514E-01
       -2   -1    0    0    0  501  0.00000000000E+00  0.00000000000E+00  0.14574048657E+04  0.14574048657E+04  0.25500000920E-02 0. -1.
        2   -1    0    0  501    0  0.00000000000E+00  0.00000000000E+00 -0.21282564405E+04  0.21282564405E+04  0.25500000920E-02 0.  1.
    10030    2    1    2    0    0  0.00000000000E+00  0.00000000000E+00 -0.67085157488E+03  0.35856613062E+04  0.35223465428E+04 0.  0.
        1    1    3    3  502    0  0.80671821108E+03  0.64821271698E+03  0.11152360763E+04  0.15214221979E+04  0.50400001928E-02 0. -1.
       -1    1    3    3    0  502 -0.80671821108E+03 -0.64821271698E+03 -0.17860876511E+04  0.20642391083E+04  0.50400001928E-02 0.  1.
</event>
<event>
 5   0  0.2193129E-07  0.3554752E+04  0.7818609E-02  0.8100936E-01
       -1   -1    0    0    0  501  0.00000000000E+00  0.00000000000E+00  0.13678193460E+04  0.13678193460E+04  0.50400001928E-02 0. -1.
        1   -1    0    0  501    0  0.00000000000E+00  0.00000000000E+00 -0.23095634679E+04  0.23095634679E+04  0.50400001928E-02 0.  1.
    10030    2    1    2    0    0  0.00000000000E+00  0.00000000000E+00 -0.94174412187E+03  0.36773828139E+04  0.35547520826E+04 0.  0.
        1    1    3    3  502    0  0.98453053258E+03 -0.87901484665E+03  0.76061395897E+03  0.15233190949E+04  0.50400001928E-02 0. -1.
       -1    1    3    3    0  502 -0.98453053258E+03  0.87901484665E+03 -0.17023580808E+04  0.21540637190E+04  0.50400001928E-02 0.  1.
</event>
<event>
 5   0  0.2086250E-07  0.3629013E+04  0.7818609E-02  0.8083878E-01
        1   -1    0    0  501    0  0.00000000000E+00  0.00000000000E+00  0.15435824558E+04  0.15435824559E+04  0.50400001928E-02 0. -1.
       -1   -1    0    0    0  501  0.00000000000E+00  0.00000000000E+00 -0.21329825320E+04  0.21329825320E+04  0.50400001928E-02 0.  1.
    10030    2    1    2    0    0  0.00000000000E+00  0.00000000000E+00 -0.58940007614E+03  0.36765649878E+04  0.36290133177E+04 0.  0.
        3    1    3    3  502    0  0.49860351896E+03 -0.13159141183E+04 -0.14552224481E+04  0.20243289800E+04  0.10100000352E+00 0.  1.
       -3    1    3    3    0  502 -0.49860351896E+03  0.13159141183E+04  0.86582237191E+03  0.16522360079E+04  0.10100000352E+00 0. -1.
</event>
<event>
 5   0  0.6541476E-07  0.3620264E+04  0.7818609E-02  0.8085866E-01
        2   -1    0    0  501    0  0.00000000000E+00  0.00000000000E+00  0.24742341709E+04  0.24742341709E+04  0.25500000920E-02 0.  1.
       -2   -1    0    0    0  501  0.00000000000E+00  0.00000000000E+00 -0.13242798147E+04  0.13242798147E+04  0.25500000920E-02 0. -1.
    10030    2    1    2    0    0  0.00000000000E+00  0.00000000000E+00  0.11499543562E+04  0.37985139856E+04  0.36202642828E+04 0.  0.
        4    1    3    3  502    0  0.13411730740E+04  0.79345440712E+03  0.15413358973E+04  0.21918104553E+04  0.12699999809E+01 0.  1.
       -4    1    3    3    0  502 -0.13411730740E+04 -0.79345440712E+03 -0.39138154118E+03  0.16067035303E+04  0.12699999809E+01 0. -1.
</event>
<event>
 5   0  0.2086250E-07  0.3073809E+04  0.7818609E-02  0.8222963E-01
        1   -1    0    0  501    0  0.00000000000E+00  0.00000000000E+00  0.24348307236E+04  0.24348307236E+04  0.50400001928E-02 0.  1.
       -1   -1    0    0    0  501  0.00000000000E+00  0.00000000000E+00 -0.97011925127E+03  0.97011925129E+03  0.50400001928E-02 0. -1.
    10030    2    1    2    0    0  0.00000000000E+00  0.00000000000E+00  0.14647114723E+04  0.34049499749E+04  0.30738094662E+04 0.  0.
        2    1    3    3  502    0 -0.56263606889E+03  0.56491411905E+03  0.21878252168E+04  0.23285760643E+04  0.25500000920E-02 0.  1.
       -2    1    3    3    0  502  0.56263606889E+03 -0.56491411905E+03 -0.72311374449E+03  0.10763739106E+04  0.25500000920E-02 0. -1.
</event>
<event>
 5   0  0.6848661E-07  0.3615798E+04  0.7818609E-02  0.8086882E-01
       -2   -1    0    0    0  501  0.00000000000E+00  0.00000000000E+00  0.33651230048E+04  0.33651230048E+04  0.25500000920E-02 0. -1.
        2   -1    0    0  501    0  0.00000000000E+00  0.00000000000E+00 -0.97128666330E+03  0.97128666330E+03  0.25500000920E-02 0.  1.
    10030    2    1    2    0    0  0.00000000000E+00  0.00000000000E+00  0.23938363415E+04  0.43364096681E+04  0.36157981664E+04 0.  0.
        1    1    3    3  502    0  0.17028061432E+04  0.33048841430E+03  0.18081209121E+04  0.25056082268E+04  0.50400001928E-02 0. -1.
       -1    1    3    3    0  502 -0.17028061432E+04 -0.33048841430E+03  0.58571542938E+03  0.18308014413E+04  0.50400001928E-02 0.  1.
</event>
<event>
 5   0  0.6669864E-07  0.3586381E+04  0.7818609E-02  0.8093618E-01
        2   -1    0    0  501    0  0.00000000000E+00  0.00000000000E+00  0.21674645262E+04  0.21674645262E+04  0.25500000920E-02 0.  1.
       -2   -1    0    0    0  501  0.00000000000E+00  0.00000000000E+00 -0.14835455628E+04  0.14835455628E+04  0.25500000920E-02 0. -1.
    10030    2    1    2    0    0  0.00000000000E+00  0.00000000000E+00  0.68391896337E+03  0.36510100891E+04  0.35863811178E+04 0.  0.
        5    1    3    3  502    0  0.11360922324E+04 -0.41107702892E+03  0.16909119273E+04  0.20781951592E+04  0.46999998093E+01 0.  1.
       -5    1    3    3    0  502 -0.11360922324E+04  0.41107702892E+03 -0.10069929639E+04  0.15728149298E+04  0.46999998093E+01 0. -1.
</event>
<event>
 5   0  0.6541476E-07  0.3608345E+04  0.7818609E-02  0.8088583E-01
        2   -1    0    0  501    0  0.00000000000E+00  0.00000000000E+00  0.28199306926E+04  0.28199306926E+04  0.25500000920E-02 0.  1.
       -2   -1    0    0    0  501  0.00000000000E+00  0.00000000000E+00 -0.11542970192E+04  0.11542970192E+04  0.25500000920E-02 0. -1.
    10030    2    1    2    0    0  0.00000000000E+00  0.00000000000E+00  0.16656336734E+04  0.39742277118E+04  0.36083445473E+04 0.  0.
        4    1    3    3  502    0 -0.10392811387E+04 -0.12624850218E+04  0.16723852356E+04  0.23389843318E+04  0.12699999809E+01 0.  1.
       -4    1    3    3    0  502  0.10392811387E+04  0.12624850218E+04 -0.67515622228E+01  0.16352433800E+04  0.12699999809E+01 0. -1.
</event>
<event>
 5   0  0.2086250E-07  0.3601810E+04  0.7818609E-02  0.8090077E-01
       -1   -1    0    0    0  501  0.00000000000E+00  0.00000000000E+00  0.10259707857E+04  0.10259707857E+04  0.50400001928E-02 0.  1.
        1   -1    0    0  501    0  0.00000000000E+00  0.00000000000E+00 -0.31611604481E+04  0.31611604481E+04  0.50400001928E-02 0. -1.
    10030    2    1    2    0    0  0.00000000000E+00  0.00000000000E+00 -0.21351896624E+04  0.41871312338E+04  0.36018096944E+04 0.  0.
        3    1    3    3  502    0  0.49286927374E+03 -0.25007316961E+03 -0.30601347818E+04  0.31096433243E+04  0.10100000352E+00 0. -1.
       -3    1    3    3    0  502 -0.49286927374E+03  0.25007316961E+03  0.92494511940E+03  0.10774879096E+04  0.10100000352E+00 0.  1.
</event>
<event>
 5   0  0.2086250E-07  0.3595708E+04  0.7818609E-02  0.8091476E-01
        1   -1    0    0  501    0  0.00000000000E+00  0.00000000000E+00  0.20522845027E+04  0.20522845027E+04  0.50400001928E-02 0.  1.
       -1   -1    0    0    0  501  0.00000000000E+00  0.00000000000E+00 -0.15749663344E+04  0.15749663344E+04  0.50400001928E-02 0. -1.
    10030    2    1    2    0    0  0.00000000000E+00  0.00000000000E+00  0.47731816831E+03  0.36272508371E+04  0.35957079973E+04 0.  0.
        3    1    3    3  502    0  0.11922665739E+04 -0.22580945110E+03  0.15768668151E+04  0.19897232104E+04  0.10100000352E+00 0.  1.
       -3    1    3    3    0  502 -0.11922665739E+04  0.22580945110E+03 -0.10995486467E+04  0.16375276267E+04  0.10100000352E+00 0. -1.
</event>
<event>
 5   0  0.6729577E-07  0.3599606E+04  0.7818609E-02  0.8090582E-01
        2   -1    0    0  501    0  0.00000000000E+00  0.00000000000E+00  0.17740929328E+04  0.17740929328E+04  0.25500000920E-02 0.  1.
       -2   -1    0    0    0  501  0.00000000000E+00  0.00000000000E+00 -0.18258853661E+04  0.18258853661E+04  0.25500000920E-02 0. -1.
    10030    2    1    2    0    0  0.00000000000E+00  0.00000000000E+00 -0.51792433371E+02  0.35999782989E+04  0.35996057140E+04 0.  0.
        3    1    3    3  502    0 -0.12011318156E+04 -0.64383767822E+03 -0.12016223061E+04  0.18169041723E+04  0.10100000352E+00 0. -1.
       -3    1    3    3    0  502  0.12011318156E+04  0.64383767822E+03  0.11498298728E+04  0.17830741266E+04  0.10100000352E+00 0.  1.
</event>
<event>
 5   0  0.6541476E-07  0.3570353E+04  0.7818609E-02  0.8097317E-01
        2   -1    0    0  501    0  0.00000000000E+00  0.00000000000E+00  0.22179751115E+04  0.22179751115E+04  0.25500000920E-02 0. -1.
       -2   -1    0    0    0  501  0.00000000000E+00  0.00000000000E+00 -0.14368310039E+04  0.14368310039E+04  0.25500000920E-02 0.  1.
    10030    2    1    2    0    0  0.00000000000E+00  0.00000000000E+00  0.78114410758E+03  0.36548061153E+04  0.35703531511E+04 0.  0.
        4    1    3    3  502    0 -0.18287191067E+03 -0.14539784045E+04 -0.65303220966E+03  0.16043528341E+04  0.12699999809E+01 0.  1.
       -4    1    3    3    0  502  0.18287191067E+03  0.14539784045E+04  0.14341763172E+04  0.20504532812E+04  0.12699999809E+01 0. -1.
</event>
<event>
 5   0  0.2086250E-07  0.3481751E+04  0.7818609E-02  0.8118128E-01
        1   -1    0    0  501    0  0.00000000000E+00  0.00000000000E+00  0.14910131380E+04  0.14910131380E+04  0.50400001928E-02 0.  1.
       -1   -1    0    0    0  501  0.00000000000E+00  0.00000000000E+00 -0.20326091776E+04  0.20326091776E+04  0.50400001928E-02 0. -1.
    10030    2    1    2    0    0  0.00000000000E+00  0.00000000000E+00 -0.54159603957E+03  0.35236223156E+04  0.34817507022E+04 0.  0.
        4    1    3    3  502    0  0.11122556021E+04  0.35065263545E+03  0.10372531824E+04  0.15607580121E+04  0.12699999809E+01 0.  1.
       -4    1    3    3    0  502 -0.11122556021E+04 -0.35065263545E+03 -0.15788492219E+04  0.19628643034E+04  0.12699999809E+01 0. -1.
</event>
<event>
 5   0  0.2193129E-07  0.3308073E+04  0.7818609E-02  0.8160844E-01
        1   -1    0    0  501    0  0.00000000000E+00  0.00000000000E+00  0.17968809816E+04  0.17968809816E+04  0.50400001928E-02 0. -1.
       -1   -1    0    0    0  501  0.00000000000E+00  0.00000000000E+00 -0.15225477352E+04  0.15225477352E+04  0.50400001928E-02 0.  1.
    10030    2    1    2    0    0  0.00000000000E+00  0.00000000000E+00  0.27433324645E+03  0.33194287168E+04  0.33080731968E+04 0.  0.
        1    1    3    3  502    0  0.11212655400E+04 -0.49461122213E+03 -0.97748421516E+03  0.15675943554E+04  0.50400001928E-02 0.  1.
       -1    1    3    3    0  502 -0.11212655400E+04  0.49461122213E+03  0.12518174616E+04  0.17518343613E+04  0.50400001928E-02 0. -1.
</event>
<event>
 5   0  0.2086250E-07  0.3600030E+04  0.7818609E-02  0.8090485E-01
       -1   -1    0    0    0  501  0.00000000000E+00  0.00000000000E+00  0.21255170592E+04  0.21255170592E+04  0.50400001928E-02 0.  1.
        1   -1    0    0  501    0  0.00000000000E+00  0.00000000000E+00 -0.15243606225E+04  0.15243606226E+04  0.50400001928E-02 0. -1.
    10030    2    1    2    0    0  0.00000000000E+00  0.00000000000E+00  0.60115643664E+03  0.36498776817E+04  0.36000302819E+04 0.  0.
        2    1    3    3  502    0 -0.11961077729E+04 -0.13440194516E+04  0.35603864454E+03  0.18340735010E+04  0.25500000920E-02 0. -1.
       -2    1    3    3    0  502  0.11961077729E+04  0.13440194516E+04  0.24511779210E+03  0.18158041807E+04  0.25500000920E-02 0.  1.
</event>
<event>
 5   0  0.6541476E-07  0.3583677E+04  0.7818609E-02  0.8094241E-01
       -2   -1    0    0    0  501  0.00000000000E+00  0.00000000000E+00  0.17050759866E+04  0.17050759866E+04  0.25500000920E-02 0.  1.
        2   -1    0    0  501    0  0.00000000000E+00  0.00000000000E+00 -0.18830158901E+04  0.18830158901E+04  0.25500000920E-02 0. -1.
    10030    2    1    2    0    0  0.00000000000E+00  0.00000000000E+00 -0.17793990353E+03  0.35880918767E+04  0.35836769813E+04 0.  0.
        4    1    3    3  502    0  0.51816081312E+02  0.14561068419E+03 -0.18763291608E+04  0.18826842832E+04  0.12699999809E+01 0. -1.
       -4    1    3    3    0  502 -0.51816081312E+02 -0.14561068419E+03  0.16983892573E+04  0.17054075935E+04  0.12699999809E+01 0.  1.
</event>
<event>
 5   0  0.6541476E-07  0.3608458E+04  0.7818609E-02  0.8088557E-01
        2   -1    0    0  501    0  0.00000000000E+00  0.00000000000E+00  0.28104769985E+04  0.28104769985E+04  0.25500000920E-02 0. -1.
       -2   -1    0    0    0  501  0.00000000000E+00  0.00000000000E+00 -0.11582524798E+04  0.11582524798E+04  0.25500000920E-02 0.  1.
    10030    2    1    2    0    0  0.00000000000E+00  0.00000000000E+00  0.16522245187E+04  0.39687294784E+04  0.36084578164E+04 0.  0.
        4    1    3    3  502    0 -0.25972037522E+03 -0.13960834650E+04 -0.39799466213E+03  0.14747559386E+04  0.12699999809E+01 0.  1.
       -4    1    3    3    0  502  0.25972037522E+03  0.13960834650E+04  0.20502191808E+04  0.24939735397E+04  0.12699999809E+01 0. -1.
</event>
<event>
 5   0  0.6669864E-07  0.3605218E+04  0.7818609E-02  0.8089297E-01
        2   -1    0    0  501    0  0.00000000000E+00  0.00000000000E+00  0.24563017961E+04  0.24563017961E+04  0.25500000920E-02 0. -1.
       -2   -1    0    0    0  501  0.00000000000E+00  0.00000000000E+00 -0.13228827332E+04  0.13228827332E+04  0.25500000920E-02 0.  1.
    10030    2    1    2    0    0  0.00000000000E+00  0.00000000000E+00  0.11334190629E+04  0.37791845292E+04  0.36052180147E+04 0.  0.
        5    1    3    3  502    0 -0.14042902515E+04 -0.21669898161E+03  0.17294627105E+04  0.22383147492E+04  0.46999998093E+01 0. -1.
       -5    1    3    3    0  502  0.14042902515E+04  0.21669898161E+03 -0.59604364765E+03  0.15408697800E+04  0.46999998093E+01 0.  1.
</event>
<event>
 5   0  0.2086250E-07  0.3674894E+04  0.7818609E-02  0.8073548E-01
       -1   -1    0    0    0  501  0.00000000000E+00  0.00000000000E+00  0.15583849104E+04  0.15583849104E+04  0.50400001928E-02 0. -1.
        1   -1    0    0  501    0  0.00000000000E+00  0.00000000000E+00 -0.21664814440E+04  0.21664814440E+04  0.50400001928E-02 0.  1.
    10030    2    1    2    0    0  0.00000000000E+00  0.00000000000E+00 -0.60809653360E+03  0.37248663544E+04  0.36748942792E+04 0.  0.
        3    1    3    3  502    0 -0.41892653170E+03 -0.16317597049E+04 -0.10475575028E+04  0.19838134755E+04  0.10100000352E+00 0.  1.
       -3    1    3    3    0  502  0.41892653170E+03  0.16317597049E+04  0.43946096924E+03  0.17410528789E+04  0.10100000352E+00 0. -1.
</event>
<event>
 5   0  0.2086250E-07  0.3609438E+04  0.7818609E-02  0.8088333E-01
       -1   -1    0    0    0  501  0.00000000000E+00  0.00000000000E+00  0.11889629249E+04  0.11889629249E+04  0.50400001928E-02 0.  1.
        1   -1    0    0  501    0  0.00000000000E+00  0.00000000000E+00 -0.27393715580E+04  0.27393715580E+04  0.50400001928E-02 0. -1.
    10030    2    1    2    0    0  0.00000000000E+00  0.00000000000E+00 -0.15504086331E+04  0.39283344829E+04  0.36094383053E+04 0.  0.
        2    1    3    3  502    0  0.30078892366E+03  0.11306805457E+04  0.72027767702E+03  0.13739404663E+04  0.25500000920E-02 0.  1.
       -2    1    3    3    0  502 -0.30078892366E+03 -0.11306805457E+04 -0.22706863101E+04  0.25543940166E+04  0.25500000920E-02 0. -1.
</event>
<event>
 5   0  0.6848661E-07  0.3604044E+04  0.7818609E-02  0.8089566E-01
       -2   -1    0    0    0  501  0.00000000000E+00  0.00000000000E+00  0.20539830936E+04  0.20539830936E+04  0.25500000920E-02 0. -1.
        2   -1    0    0  501    0  0.00000000000E+00  0.00000000000E+00 -0.15809686758E+04  0.15809686758E+04  0.25500000920E-02 0.  1.
    10030    2    1    2    0    0  0.00000000000E+00  0.00000000000E+00  0.47301441779E+03  0.36349517694E+04  0.36040438020E+04 0.  0.
        1    1    3    3  502    0 -0.62077545456E+03 -0.60307119687E+03 -0.13576253989E+04  0.16100322224E+04  0.50400001928E-02 0.  1.
       -1    1    3    3    0  502  0.62077545456E+03  0.60307119687E+03  0.18306398167E+04  0.20249195470E+04  0.50400001928E-02 0. -1.
</event>
<event>
 5   0  0.2086250E-07  0.3566095E+04  0.7818609E-02  0.8098302E-01
       -1   -1    0    0    0  501  0.00000000000E+00  0.00000000000E+00  0.18493040974E+04  0.18493040974E+04  0.50400001928E-02 0. -1.
        1   -1    0    0  501    0  0.00000000000E+00  0.00000000000E+00 -0.17191646361E+04  0.17191646361E+04  0.50400001928E-02 0.  1.
    10030    2    1    2    0    0  0.00000000000E+00  0.00000000000E+00  0.13013946129E+03  0.35684687334E+04  0.35660948981E+04 0.  0.
        4    1    3    3  502    0  0.26029791572E+03  0.21619453596E+03  0.18168811063E+04  0.18481216544E+04  0.12699999809E+01 0. -1.
       -4    1    3    3    0  502 -0.26029791572E+03 -0.21619453596E+03 -0.16867416450E+04  0.17203470790E+04  0.12699999809E+01 0.  1.
</event>
<event>
 5   0  0.6541476E-07  0.3568859E+04  0.7818609E-02  0.8097662E-01
        2   -1    0    0  501    0  0.00000000000E+00  0.00000000000E+00  0.20533311278E+04  0.20533311278E+04  0.25500000920E-02 0.  1.
       -2   -1    0    0    0  501  0.00000000000E+00  0.00000000000E+00 -0.15507424680E+04  0.15507424680E+04  0.25500000920E-02 0. -1.
    10030    2    1    2    0    0  0.00000000000E+00  0.00000000000E+00  0.50258865974E+03  0.36040735958E+04  0.35688585182E+04 0.  0.
        4    1    3    3  502    0  0.53758678291E+03  0.78231778323E+03  0.17772187262E+04  0.20148272076E+04  0.12699999809E+01 0.  1.
       -4    1    3    3    0  502 -0.53758678291E+03 -0.78231778323E+03 -0.12746300664E+04  0.15892463881E+04  0.12699999809E+01 0. -1.
</event>
<event>
 5   0  0.6324216E-07  0.3601703E+04  0.7818609E-02  0.8090102E-01
       -2   -1    0    0    0  501  0.00000000000E+00  0.00000000000E+00  0.20972003574E+04  0.20972003574E+04  0.25500000920E-02 0. -1.
        2   -1    0    0  501    0  0.00000000000E+00  0.00000000000E+00 -0.15463790443E+04  0.15463790443E+04  0.25500000920E-02 0.  1.
    10030    2    1    2    0    0  0.00000000000E+00  0.00000000000E+00  0.55082131305E+03  0.36435794017E+04  0.36017033106E+04 0.  0.
        2    1    3    3  502    0 -0.46916027911E+03 -0.12281971486E+04 -0.96954272648E+03  0.16335827808E+04  0.25500000920E-02 0.  1.
       -2    1    3    3    0  502  0.46916027911E+03  0.12281971486E+04  0.15203640395E+04  0.20099966209E+04  0.25500000920E-02 0. -1.
</event>
<event>
 5   0  0.2193129E-07  0.3589001E+04  0.7818609E-02  0.8093016E-01
       -1   -1    0    0    0  501  0.00000000000E+00  0.00000000000E+00  0.15018968248E+04  0.15018968248E+04  0.50400001928E-02 0. -1.
        1   -1    0    0  501    0  0.00000000000E+00  0.00000000000E+00 -0.21441105740E+04  0.21441105740E+04  0.50400001928E-02 0.  1.
    10030    2    1    2    0    0  0.00000000000E+00  0.00000000000E+00 -0.64221374921E+03  0.36460073989E+04  0.35890014562E+04 0.  0.
        1    1    3    3  502    0  0.33354686073E+03  0.11722124427E+04  0.10169691901E+04  0.15873127772E+04  0.50400001928E-02 0. -1.
       -1    1    3    3    0  502 -0.33354686073E+03 -0.11722124427E+04 -0.16591829393E+04  0.20586946216E+04  0.50400001928E-02 0.  1.
</event>
<event>
 5   0  0.6541476E-07  0.3680463E+04  0.7818609E-02  0.8072305E-01
       -2   -1    0    0    0  501  0.00000000000E+00  0.00000000000E+00  0.26413263634E+04  0.26413263634E+04  0.25500000920E-02 0.  1.
        2   -1    0    0  501    0  0.00000000000E+00  0.00000000000E+00 -0.12821025714E+04  0.12821025714E+04  0.25500000920E-02 0. -1.
    10030    2    1    2    0    0  0.00000000000E+00  0.00000000000E+00  0.13592237920E+04  0.39234289348E+04  0.36804626462E+04 0.  0.
        4    1    3    3  502    0  0.12359900168E+04 -0.76968109090E+03 -0.52000778261E+03  0.15461209558E+04  0.12699999809E+01 0. -1.
       -4    1    3    3    0  502 -0.12359900168E+04  0.76968109090E+03  0.18792315746E+04  0.23773079790E+04  0.12699999809E+01 0.  1.
</event>
<event>
 5   0  0.2086250E-07  0.3574235E+04  0.7818609E-02  0.8096419E-01
       -1   -1    0    0    0  501  0.00000000000E+00  0.00000000000E+00  0.23842125941E+04  0.23842125941E+04  0.50400001928E-02 0.  1.
        1   -1    0    0  501    0  0.00000000000E+00  0.00000000000E+00 -0.13395570140E+04  0.13395570140E+04  0.50400001928E-02 0. -1.
    10030    2    1    2    0    0  0.00000000000E+00  0.00000000000E+00  0.10446555801E+04  0.37237696081E+04  0.35742348570E+04 0.  0.
        3    1    3    3  502    0 -0.88490203140E+03 -0.14540482735E+04 -0.44952814858E+02  0.17027415401E+04  0.10100000352E+00 0. -1.
       -3    1    3    3    0  502  0.88490203140E+03  0.14540482735E+04  0.10896083950E+04  0.20210280679E+04  0.10100000352E+00 0.  1.
</event>
<event>
 5   0  0.6669864E-07  0.3047870E+04  0.7818609E-02  0.8230192E-01
        2   -1    0    0  501    0  0.00000000000E+00  0.00000000000E+00  0.17441056033E+04  0.17441056033E+04  0.25500000920E-02 0. -1.
       -2   -1    0    0    0  501  0.00000000000E+00  0.00000000000E+00 -0.13315584377E+04  0.13315584377E+04  0.25500000920E-02 0.  1.
    10030    2    1    2    0    0  0.00000000000E+00  0.00000000000E+00  0.41254716555E+03  0.30756640410E+04  0.30478704253E+04 0.  0.
        5    1    3    3  502    0 -0.13045114733E+04  0.76859332362E+03  0.31866512385E+02  0.15144383268E+04  0.46999998093E+01 0.  1.
       -5    1    3    3    0  502  0.13045114733E+04 -0.76859332362E+03  0.38068065316E+03  0.15612257142E+04  0.46999998093E+01 0. -1.
</event>
<event>
 5   0  0.6669864E-07  0.3603885E+04  0.7818609E-02  0.8089602E-01
       -2   -1    0    0    0  501  0.00000000000E+00  0.00000000000E+00  0.12514543471E+04  0.12514543471E+04  0.25500000920E-02 0. -1.
        2   -1    0    0  501    0  0.00000000000E+00  0.00000000000E+00 -0.25945783458E+04  0.25945783458E+04  0.25500000920E-02 0.  1.
    10030    2    1    2    0    0  0.00000000000E+00  0.00000000000E+00 -0.13431239987E+04  0.38460326929E+04  0.36038847649E+04 0.  0.
        5    1    3    3  502    0 -0.17065836892E+04 -0.52331399047E+03 -0.93446557354E+03  0.20148283845E+04  0.46999998093E+01 0.  1.
       -5    1    3    3    0  502  0.17065836892E+04  0.52331399047E+03 -0.40865842521E+03  0.18312043084E+04  0.46999998093E+01 0. -1.
</event>
<event>
 5   0  0.6848661E-07  0.3597444E+04  0.7818609E-02  0.8091078E-01
        2   -1    0    0  501    0  0.00000000000E+00  0.00000000000E+00  0.16010678133E+04  0.16010678133E+04  0.25500000920E-02 0.  1.
       -2   -1    0    0    0  501  0.00000000000E+00  0.00000000000E+00 -0.20207764162E+04  0.20207764163E+04  0.25500000920E-02 0. -1.
    10030    2    1    2    0    0  0.00000000000E+00  0.00000000000E+00 -0.41970860296E+03  0.36218442295E+04  0.35974435801E+04 0.  0.
        1    1    3    3  502    0  0.22559700685E+03  0.27064212935E+03 -0.19856943786E+04  0.20167110197E+04  0.50400001928E-02 0. -1.
       -1    1    3    3    0  502 -0.22559700685E+03 -0.27064212935E+03  0.15659857757E+04  0.16051332098E+04  0.50400001928E-02 0.  1.
</event>
<event>
 5   0  0.2086250E-07  0.3640054E+04  0.7818609E-02  0.8081378E-01
        1   -1    0    0  501    0  0.00000000000E+00  0.00000000000E+00  0.11077820597E+04  0.11077820597E+04  0.50400001928E-02 0.  1.
       -1   -1    0    0    0  501  0.00000000000E+00  0.00000000000E+00 -0.29902072128E+04  0.29902072128E+04  0.50400001928E-02 0. -1.
    10030    2    1    2    0    0  0.00000000000E+00  0.00000000000E+00 -0.18824251531E+04  0.40979892726E+04  0.36400537937E+04 0.  0.
        4    1    3    3  502    0  0.16269222721E+04 -0.55823462828E+03 -0.27138787728E+03  0.17413084082E+04  0.12699999809E+01 0.  1.
       -4    1    3    3    0  502 -0.16269222721E+04  0.55823462828E+03 -0.16110372759E+04  0.23566808644E+04  0.12699999809E+01 0. -1.
</event>
<event>
 5   0  0.2086250E-07  0.3601989E+04  0.7818609E-02  0.8090036E-01
        1   -1    0    0  501    0  0.00000000000E+00  0.00000000000E+00  0.16778652171E+04  0.16778652171E+04  0.50400001928E-02 0.  1.
       -1   -1    0    0    0  501  0.00000000000E+00  0.00000000000E+00 -0.19331595611E+04  0.19331595611E+04  0.50400001928E-02 0. -1.
    10030    2    1    2    0    0  0.00000000000E+00  0.00000000000E+00 -0.25529434398E+03  0.36110247782E+04  0.36019889987E+04 0.  0.
        3    1    3    3  502    0 -0.10903359215E+04 -0.71709116361E+03  0.11166468884E+04  0.17175425591E+04  0.10100000352E+00 0. -1.
       -3    1    3    3    0  502  0.10903359215E+04  0.71709116361E+03 -0.13719412324E+04  0.18934822191E+04  0.10100000352E+00 0.  1.
</event>
<event>
 5   0  0.2086250E-07  0.3609530E+04  0.7818609E-02  0.8088312E-01
        1   -1    0    0  501    0  0.00000000000E+00  0.00000000000E+00  0.19580409287E+04  0.19580409287E+04  0.50400001928E-02 0.  1.
       -1   -1    0    0    0  501  0.00000000000E+00  0.00000000000E+00 -0.16634870965E+04  0.16634870965E+04  0.50400001928E-02 0. -1.
    10030    2    1    2    0    0  0.00000000000E+00  0.00000000000E+00  0.29455383213E+03  0.36215280252E+04  0.36095295091E+04 0.  0.
        3    1    3    3  502    0  0.14201135864E+04  0.93870560789E+03 -0.45411943988E+03  0.17618499631E+04  0.10100000352E+00 0. -1.
       -3    1    3    3    0  502 -0.14201135864E+04 -0.93870560789E+03  0.74867327201E+03  0.18596780622E+04  0.10100000352E+00 0.  1.
</event>
<event>
 5   0  0.6541476E-07  0.3597621E+04  0.7818609E-02  0.8091037E-01
       -2   -1    0    0    0  501  0.00000000000E+00  0.00000000000E+00  0.22209163427E+04  0.22209163427E+04  0.25500000920E-02 0. -1.
        2   -1    0    0  501    0  0.00000000000E+00  0.00000000000E+00 -0.14569299178E+04  0.14569299178E+04  0.25500000920E-02 0.  1.
    10030    2    1    2    0    0  0.00000000000E+00  0.00000000000E+00  0.76398642492E+03  0.36778462606E+04  0.35976211389E+04 0.  0.
        4    1    3    3  502    0 -0.60048164244E+03 -0.13192464859E+04  0.14709837323E+04  0.20651354065E+04  0.12699999809E+01 0. -1.
       -4    1    3    3    0  502  0.60048164244E+03  0.13192464859E+04 -0.70699730742E+03  0.16127108541E+04  0.12699999809E+01 0.  1.
</event>
<event>
 5   0  0.2108068E-07  0.3598809E+04  0.7818609E-02  0.8090764E-01
       -1   -1    0    0    0  501  0.00000000000E+00  0.00000000000E+00  0.11868051736E+04  0.11868051736E+04  0.50400001928E-02 0.  1.
        1   -1    0    0  501    0  0.00000000000E+00  0.00000000000E+00 -0.27282127638E+04  0.27282127638E+04  0.50400001928E-02 0. -1.
    10030    2    1    2    0    0  0.00000000000E+00  0.00000000000E+00 -0.15414075902E+04  0.39150179374E+04  0.35988092602E+04 0.  0.
        5    1    3    3  502    0  0.12770640991E+04  0.23078275127E+03  0.58528446642E+03  0.14236338673E+04  0.46999998093E+01 0.  1.
       -5    1    3    3    0  502 -0.12770640991E+04 -0.23078275127E+03 -0.21266920566E+04  0.24913840702E+04  0.46999998093E+01 0. -1.
</event>
<event>
 5   0  0.2193129E-07  0.3587222E+04  0.7818609E-02  0.8093425E-01
        1   -1    0    0  501    0  0.00000000000E+00  0.00000000000E+00  0.14608708433E+04  0.14608708433E+04  0.50400001928E-02 0. -1.
       -1   -1    0    0    0  501  0.00000000000E+00  0.00000000000E+00 -0.22021388670E+04  0.22021388670E+04  0.50400001928E-02 0.  1.
    10030    2    1    2    0    0  0.00000000000E+00  0.00000000000E+00 -0.74126802371E+03  0.36630097103E+04  0.35872220247E+04 0.  0.
        1    1    3    3  502    0  0.46825573458E+03 -0.13292941285E+03 -0.21334043208E+04  0.21882293431E+04  0.50400001928E-02 0.  1.
       -1    1    3    3    0  502 -0.46825573458E+03  0.13292941285E+03  0.13921362971E+04  0.14747803672E+04  0.50400001928E-02 0. -1.
</event>
<event>
 5   0  0.2086250E-07  0.3506802E+04  0.7818609E-02  0.8112180E-01
        1   -1    0    0  501    0  0.00000000000E+00  0.00000000000E+00  0.11100366119E+04  0.11100366119E+04  0.50400001928E-02 0.  1.
       -1   -1    0    0    0  501  0.00000000000E+00  0.00000000000E+00 -0.27696519963E+04  0.27696519963E+04  0.50400001928E-02 0. -1.
    10030    2    1    2    0    0  0.00000000000E+00  0.00000000000E+00 -0.16596153844E+04  0.38796886082E+04  0.35068020293E+04 0.  0.
        2    1    3    3  502    0  0.16369989179E+04  0.22088991038E+02 -0.13522676720E+03  0.16427232449E+04  0.25500000920E-02 0.  1.
       -2    1    3    3    0  502 -0.16369989179E+04 -0.22088991038E+02 -0.15243886172E+04  0.22369653633E+04  0.25500000920E-02 0. -1.
</event>
<event>
 5   0  0.6729577E-07  0.3601384E+04  0.7818609E-02  0.8090175E-01
       -2   -1    0    0    0  501  0.00000000000E+00  0.00000000000E+00  0.17452018415E+04  0.17452018415E+04  0.25500000920E-02 0. -1.
        2   -1    0    0  501    0  0.00000000000E+00  0.00000000000E+00 -0.18579463542E+04  0.18579463542E+04  0.25500000920E-02 0.  1.
    10030    2    1    2    0    0  0.00000000000E+00  0.00000000000E+00 -0.11274451270E+03  0.36031481957E+04  0.36013838444E+04 0.  0.
        3    1    3    3  502    0  0.17651060836E+04 -0.10021354147E+03  0.28562725707E+03  0.17908727427E+04  0.10100000352E+00 0.  1.
       -3    1    3    3    0  502 -0.17651060836E+04  0.10021354147E+03 -0.39837176976E+03  0.18122754530E+04  0.10100000352E+00 0. -1.
</event>
<event>
 5   0  0.6541476E-07  0.3610537E+04  0.7818609E-02  0.8088082E-01
        2   -1    0    0  501    0  0.00000000000E+00  0.00000000000E+00  0.20269346061E+04  0.20269346061E+04  0.25500000920E-02 0.  1.
       -2   -1    0    0    0  501  0.00000000000E+00  0.00000000000E+00 -0.16078440831E+04  0.16078440831E+04  0.25500000920E-02 0. -1.
    10030    2    1    2    0    0  0.00000000000E+00  0.00000000000E+00  0.41909052300E+03  0.36347786891E+04  0.36105372526E+04 0.  0.
        4    1    3    3  502    0 -0.15803939161E+04 -0.41829547365E+03  0.98043926646E+03  0.19062735379E+04  0.12699999809E+01 0.  1.
       -4    1    3    3    0  502  0.15803939161E+04  0.41829547365E+03 -0.56134874346E+03  0.17285051512E+04  0.12699999809E+01 0. -1.
</event>
<event>
 5   0  0.6848661E-07  0.3478881E+04  0.7818609E-02  0.8118813E-01
       -2   -1    0    0    0  501  0.00000000000E+00  0.00000000000E+00  0.22405421966E+04  0.22405421966E+04  0.25500000920E-02 0. -1.
        2   -1    0    0  501    0  0.00000000000E+00  0.00000000000E+00 -0.13504112684E+04  0.13504112684E+04  0.25500000920E-02 0.  1.
    10030    2    1    2    0    0  0.00000000000E+00  0.00000000000E+00  0.89013092822E+03  0.35909534651E+04  0.34788811016E+04 0.  0.
        1    1    3    3  502    0  0.11846019411E+04  0.48472492641E+03  0.16608962505E+04  0.20968586906E+04  0.50400001928E-02 0. -1.
       -1    1    3    3    0  502 -0.11846019411E+04 -0.48472492641E+03 -0.77076532229E+03  0.14940947745E+04  0.50400001928E-02 0.  1.
</event>
<event>
 5   0  0.6729577E-07  0.3590758E+04  0.7818609E-02  0.8092612E-01
        2   -1    0    0  501    0  0.00000000000E+00  0.00000000000E+00  0.18451223850E+04  0.18451223850E+04  0.25500000920E-02 0. -1.
       -2   -1    0    0    0  501  0.00000000000E+00  0.00000000000E+00 -0.17469767194E+04  0.17469767194E+04  0.25500000920E-02 0.  1.
    10030    2    1    2    0    0  0.00000000000E+00  0.00000000000E+00  0.98145665542E+02  0.35920991044E+04  0.35907580543E+04 0.  0.
        3    1    3    3  502    0 -0.11595599099E+04  0.81974266696E+03 -0.10498949646E+04  0.17660228400E+04  0.10100000352E+00 0.  1.
       -3    1    3    3    0  502  0.11595599099E+04 -0.81974266696E+03  0.11480406301E+04  0.18260762644E+04  0.10100000352E+00 0. -1.
</event>
<event>
 5   0  0.2108068E-07  0.3285819E+04  0.7818609E-02  0.8166513E-01
       -1   -1    0    0    0  501  0.00000000000E+00  0.00000000000E+00  0.11460120632E+04  0.11460120632E+04  0.50400001928E-02 0. -1.
        1   -1    0    0  501    0  0.00000000000E+00  0.00000000000E+00 -0.23552551413E+04  0.23552551413E+04  0.50400001928E-02 0.  1.
    10030    2    1    2    0    0  0.00000000000E+00  0.00000000000E+00 -0.12092430781E+04  0.35012672045E+04  0.32858185000E+04 0.  0.
        5    1    3    3  502    0 -0.78371745741E+01  0.69206313728E+02  0.11444310594E+04  0.11465580992E+04  0.46999998093E+01 0. -1.
       -5    1    3    3    0  502  0.78371745741E+01 -0.69206313728E+02 -0.23536741374E+04  0.23547091053E+04  0.46999998093E+01 0.  1.
</event>
<event>
 5   0  0.2086250E-07  0.3580486E+04  0.7818609E-02  0.8094976E-01
        1   -1    0    0  501    0  0.00000000000E+00  0.00000000000E+00  0.13066335487E+04  0.13066335488E+04  0.50400001928E-02 0.  1.
       -1   -1    0    0    0  501  0.00000000000E+00  0.00000000000E+00 -0.24528457597E+04  0.24528457597E+04  0.50400001928E-02 0. -1.
    10030    2    1    2    0    0  0.00000000000E+00  0.00000000000E+00 -0.11462122109E+04  0.37594793085E+04  0.35804863131E+04 0.  0.
        4    1    3    3  502    0 -0.14320570431E+04  0.84240197128E+03 -0.12731759054E+04  0.20931810612E+04  0.12699999809E+01 0. -1.
       -4    1    3    3    0  502  0.14320570431E+04 -0.84240197128E+03  0.12696369449E+03  0.16662982472E+04  0.12699999809E+01 0.  1.
</event>
<event>
 5   0  0.2108068E-07  0.3585845E+04  0.7818609E-02  0.8093742E-01
        1   -1    0    0  501    0  0.00000000000E+00  0.00000000000E+00  0.26043356545E+04  0.26043356545E+04  0.50400001928E-02 0. -1.
       -1   -1    0    0    0  501  0.00000000000E+00  0.00000000000E+00 -0.12343155229E+04  0.12343155230E+04  0.50400001928E-02 0.  1.
    10030    2    1    2    0    0  0.00000000000E+00  0.00000000000E+00  0.13700201315E+04  0.38386511774E+04  0.35858454653E+04 0.  0.
        5    1    3    3  502    0 -0.61528545228E+03  0.16161348688E+04  0.17826409144E+03  0.17384672209E+04  0.46999998093E+01 0.  1.
       -5    1    3    3    0  502  0.61528545228E+03 -0.16161348688E+04  0.11917560401E+04  0.21001839565E+04  0.46999998093E+01 0. -1.
</event>
<event>
 5   0  0.2086250E-07  0.3610785E+04  0.7818609E-02  0.8088026E-01
        1   -1    0    0  501    0  0.00000000000E+00  0.00000000000E+00  0.23070209405E+04  0.23070209405E+04  0.50400001928E-02 0.  1.
       -1   -1    0    0    0  501  0.00000000000E+00  0.00000000000E+00 -0.14128358570E+04  0.14128358570E+04  0.50400001928E-02 0. -1.
    10030    2    1    2    0    0  0.00000000000E+00  0.00000000000E+00  0.89418508348E+03  0.37198567975E+04  0.36107849050E+04 0.  0.
        3    1    3    3  502    0 -0.14374504195E+04 -0.10919323999E+04  0.47733615231E+03  0.18671984059E+04  0.10100000352E+00 0.  1.
       -3    1    3    3    0  502  0.14374504195E+04  0.10919323999E+04  0.41684893117E+03  0.18526583916E+04  0.10100000352E+00 0. -1.
</event>
<event>
 5   0  0.6541476E-07  0.3543817E+04  0.7818609E-02  0.8103484E-01
       -2   -1    0    0    0  501  0.00000000000E+00  0.00000000000E+00  0.13861134847E+04  0.13861134847E+04  0.25500000920E-02 0.  1.
        2   -1    0    0  501    0  0.00000000000E+00  0.00000000000E+00 -0.22650818931E+04  0.22650818931E+04  0.25500000920E-02 0. -1.
    10030    2    1    2    0    0  0.00000000000E+00  0.00000000000E+00 -0.87896840843E+03  0.36511953778E+04  0.35438174648E+04 0.  0.
        4    1    3    3  502    0 -0.40339937821E+03 -0.11930712284E+04  0.84468013530E+03  0.15164551290E+04  0.12699999809E+01 0.  1.
       -4    1    3    3    0  502  0.40339937821E+03  0.11930712284E+04 -0.17236485437E+04  0.21347402487E+04  0.12699999809E+01 0. -1.
</event>
<event>
 5   0  0.6848661E-07  0.3585892E+04  0.7818609E-02  0.8093731E-01
        2   -1    0    0  501    0  0.00000000000E+00  0.00000000000E+00  0.14864717902E+04  0.14864717902E+04  0.25500000920E-02 0.  1.
       -2   -1    0    0    0  501  0.00000000000E+00  0.00000000000E+00 -0.21626078066E+04  0.21626078066E+04  0.25500000920E-02 0. -1.
    10030    2    1    2    0    0  0.00000000000E+00  0.00000000000E+00 -0.67613601642E+03  0.36490795968E+04  0.35858920775E+04 0.  0.
        1    1    3    3  502    0 -0.59286839656E+03  0.90682206858E+03  0.11156835959E+04  0.15551749374E+04  0.50400001928E-02 0.  1.
       -1    1    3    3    0  502  0.59286839656E+03 -0.90682206858E+03 -0.17918196123E+04  0.20939046594E+04  0.50400001928E-02 0. -1.
</event>
<event>
 5   0  0.6324216E-07  0.3483977E+04  0.7818609E-02  0.8117598E-01
       -2   -1    0    0    0  501  0.00000000000E+00  0.00000000000E+00  0.15030552184E+04  0.15030552184E+04  0.25500000920E-02 0.  1.
        2   -1    0    0  501    0  0.00000000000E+00  0.00000000000E+00 -0.20189034568E+04  0.20189034568E+04  0.25500000920E-02 0. -1.
    10030    2    1    2    0    0  0.00000000000E+00  0.00000000000E+00 -0.51584823836E+03  0.35219586753E+04  0.34839766798E+04 0.  0.
        2    1    3    3  502    0 -0.32558084135E+03  0.13097996370E+04  0.85542057290E+03  0.15979118655E+04  0.25500000920E-02 0.  1.
       -2    1    3    3    0  502  0.32558084135E+03 -0.13097996370E+04 -0.13712688113E+04  0.19240468097E+04  0.25500000920E-02 0. -1.
</event>
<event>
 5   0  0.2086250E-07  0.3624738E+04  0.7818609E-02  0.8084849E-01
        1   -1    0    0  501    0  0.00000000000E+00  0.00000000000E+00  0.21632818415E+04  0.21632818415E+04  0.50400001928E-02 0.  1.
       -1   -1    0    0    0  501  0.00000000000E+00  0.00000000000E+00 -0.15183784462E+04  0.15183784462E+04  0.50400001928E-02 0. -1.
    10030    2    1    2    0    0  0.00000000000E+00  0.00000000000E+00  0.64490339526E+03  0.36816602877E+04  0.36247375194E+04 0.  0.
        3    1    3    3  502    0 -0.91955434434E+03  0.13262780029E+04  0.11600762124E+04  0.19875538639E+04  0.10100000352E+00 0.  1.
       -3    1    3    3    0  502  0.91955434434E+03 -0.13262780029E+04 -0.51517281715E+03  0.16941064237E+04  0.10100000352E+00 0. -1.
</event>
<event>
 5   0  0.6729577E-07  0.3815841E+04  0.7818609E-02  0.8042764E-01
        2   -1    0    0  501    0  0.00000000000E+00  0.00000000000E+00  0.31033175448E+04  0.31033175448E+04  0.25500000920E-02 0. -1.
       -2   -1    0    0    0  501  0.00000000000E+00  0.00000000000E+00 -0.11729900459E+04  0.11729900459E+04  0.25500000920E-02 0.  1.
    10030    2    1    2    0    0  0.00000000000E+00  0.00000000000E+00  0.19303274988E+04  0.42763075907E+04  0.38158409764E+04 0.  0.
        3    1    3    3  502    0 -0.11623723653E+04  0.15020186657E+04  0.76161129140E+03  0.20462701086E+04  0.10100000352E+00 0.  1.
       -3    1    3    3    0  502  0.11623723653E+04 -0.15020186657E+04  0.11687162074E+04  0.22300374821E+04  0.10100000352E+00 0. -1.
</event>
<event>
 5   0  0.6669864E-07  0.3590549E+04  0.7818609E-02  0.8092660E-01
       -2   -1    0    0    0  501  0.00000000000E+00  0.00000000000E+00  0.15978035696E+04  0.15978035696E+04  0.25500000920E-02 0. -1.
        2   -1    0    0  501    0  0.00000000000E+00  0.00000000000E+00 -0.20171508104E+04  0.20171508104E+04  0.25500000920E-02 0.  1.
    10030    2    1    2    0    0  0.00000000000E+00  0.00000000000E+00 -0.41934724082E+03  0.36149543799E+04  0.35905491308E+04 0.  0.
        5    1    3    3  502    0  0.91259969630E+03  0.16407364948E+03  0.13380555611E+04  0.16279352391E+04  0.46999998093E+01 0. -1.
       -5    1    3    3    0  502 -0.91259969630E+03 -0.16407364948E+03 -0.17574028019E+04  0.19870191409E+04  0.46999998093E+01 0.  1.
</event>
<event>
 5   0  0.6848661E-07  0.3384656E+04  0.7818609E-02  0.8141682E-01
       -2   -1    0    0    0  501  0.00000000000E+00  0.00000000000E+00  0.13343219725E+04  0.13343219725E+04  0.25500000920E-02 0.  1.
        2   -1    0    0  501    0  0.00000000000E+00  0.00000000000E+00 -0.21463895655E+04  0.21463895655E+04  0.25500000920E-02 0. -1.
    10030    2    1    2    0    0  0.00000000000E+00  0.00000000000E+00 -0.81206759294E+03  0.34807115380E+04  0.33846564131E+04 0.  0.
        1    1    3    3  502    0 -0.74277250254E+03  0.81887398389E+03 -0.17236883152E+04  0.20477712275E+04  0.50400001928E-02 0. -1.
       -1    1    3    3    0  502  0.74277250254E+03 -0.81887398389E+03  0.91162072230E+03  0.14329403105E+04  0.50400001928E-02 0.  1.
</event>
<event>
 5   0  0.2086250E-07  0.3590016E+04  0.7818609E-02  0.8092782E-01
        1   -1    0    0  501    0  0.00000000000E+00  0.00000000000E+00  0.22152151427E+04  0.22152151428E+04  0.50400001928E-02 0.  1.
       -1   -1    0    0    0  501  0.00000000000E+00  0.00000000000E+00 -0.14545105222E+04  0.14545105222E+04  0.50400001928E-02 0. -1.
    10030    2    1    2    0    0  0.00000000000E+00  0.00000000000E+00  0.76070462057E+03  0.36697256649E+04  0.35900160078E+04 0.  0.
        3    1    3    3  502    0  0.13503141716E+04 -0.66736791286E+03 -0.61771033919E+03  0.16279724711E+04  0.10100000352E+00 0. -1.
       -3    1    3    3    0  502 -0.13503141716E+04  0.66736791286E+03  0.13784149598E+04  0.20417531939E+04  0.10100000352E+00 0.  1.
</event>
<event>
 5   0  0.2086250E-07  0.3614933E+04  0.7818609E-02  0.8087080E-01
       -1   -1    0    0    0  501  0.00000000000E+00  0.00000000000E+00  0.14143382676E+04  0.14143382676E+04  0.50400001928E-02 0. -1.
        1   -1    0    0  501    0  0.00000000000E+00  0.00000000000E+00 -0.23098684725E+04  0.23098684725E+04  0.50400001928E-02 0.  1.
    10030    2    1    2    0    0  0.00000000000E+00  0.00000000000E+00 -0.89553020490E+03  0.37242067401E+04  0.36149331246E+04 0.  0.
        4    1    3    3  502    0  0.17260320636E+04 -0.26176692150E+03 -0.93013334467E+03  0.19780946028E+04  0.12699999809E+01 0.  1.
       -4    1    3    3    0  502 -0.17260320636E+04  0.26176692150E+03  0.34603139770E+02  0.17461121373E+04  0.12699999809E+01 0. -1.
</event>
<event>
 5   0  0.2086250E-07  0.3727953E+04  0.7818609E-02  0.8061795E-01
       -1   -1    0    0    0  501  0.00000000000E+00  0.00000000000E+00  0.13986906259E+04  0.13986906259E+04  0.50400001928E-02 0. -1.
        1   -1    0    0  501    0  0.00000000000E+00  0.00000000000E+00 -0.24840434194E+04  0.24840434194E+04  0.50400001928E-02 0.  1.
    10030    2    1    2    0    0  0.00000000000E+00  0.00000000000E+00 -0.10853527935E+04  0.38827340453E+04  0.37279529209E+04 0.  0.
        3    1    3    3  502    0 -0.12363260005E+04  0.13932743632E+04 -0.61402466638E+03  0.19613112277E+04  0.10100000352E+00 0. -1.
       -3    1    3    3    0  502  0.12363260005E+04 -0.13932743632E+04 -0.47132812715E+03  0.19214228177E+04  0.10100000352E+00 0.  1.
</event>
<event>
 5   0  0.6541476E-07  0.3637521E+04  0.7818609E-02  0.8081951E-01
       -2   -1    0    0    0  501  0.00000000000E+00  0.00000000000E+00  0.12373848029E+04  0.12373848029E+04  0.25500000920E-02 0.  1.
        2   -1    0    0  501    0  0.00000000000E+00  0.00000000000E+00 -0.26732904018E+04  0.26732904018E+04  0.25500000920E-02 0. -1.
    10030    2    1    2    0    0  0.00000000000E+00  0.00000000000E+00 -0.14359055989E+04  0.39106752048E+04  0.36375205385E+04 0.  0.
        4    1    3    3  502    0  0.88083722870E+03 -0.13120466497E+03  0.98694316485E+03  0.13293409311E+04  0.12699999809E+01 0.  1.
       -4    1    3    3    0  502 -0.88083722870E+03  0.13120466497E+03 -0.24228487637E+04  0.25813342737E+04  0.12699999809E+01 0. -1.
</event>
<event>
 5   0  0.6669864E-07  0.3624690E+04  0.7818609E-02  0.8084860E-01
        2   -1    0    0  501    0  0.00000000000E+00  0.00000000000E+00  0.15834814374E+04  0.15834814374E+04  0.25500000920E-02 0. -1.
       -2   -1    0    0    0  501  0.00000000000E+00  0.00000000000E+00 -0.20742861509E+04  0.20742861509E+04  0.25500000920E-02 0.  1.
    10030    2    1    2    0    0  0.00000000000E+00  0.00000000000E+00 -0.49080471347E+03  0.36577675883E+04  0.36246895679E+04 0.  0.
        5    1    3    3  502    0 -0.60595640736E+03  0.67951873010E+03 -0.18267518858E+04  0.20410716338E+04  0.46999998093E+01 0.  1.
       -5    1    3    3    0  502  0.60595640736E+03 -0.67951873010E+03  0.13359471723E+04  0.16166959545E+04  0.46999998093E+01 0. -1.
</event>
<event>
 5   0  0.6324216E-07  0.3583181E+04  0.7818609E-02  0.8094355E-01
        2   -1    0    0  501    0  0.00000000000E+00  0.00000000000E+00  0.10879669499E+04  0.10879669499E+04  0.25500000920E-02 0.  1.
       -2   -1    0    0    0  501  0.00000000000E+00  0.00000000000E+00 -0.29502695033E+04  0.29502695033E+04  0.25500000920E-02 0. -1.
    10030    2    1    2    0    0  0.00000000000E+00  0.00000000000E+00 -0.18623025535E+04  0.40382364532E+04  0.35831805497E+04 0.  0.
        2    1    3    3  502    0  0.10710375844E+04  0.54033692364E+03 -0.24308250593E+04  0.27107187178E+04  0.25500000920E-02 0. -1.
       -2    1    3    3    0  502 -0.10710375844E+04 -0.54033692364E+03  0.56852250583E+03  0.13275177354E+04  0.25500000920E-02 0.  1.
</event>
<event>
 5   0  0.6729577E-07  0.3577312E+04  0.7818609E-02  0.8095708E-01
        2   -1    0    0  501    0  0.00000000000E+00  0.00000000000E+00  0.23135265259E+04  0.23135265259E+04  0.25500000920E-02 0. -1.
       -2   -1    0    0    0  501  0.00000000000E+00  0.00000000000E+00 -0.13828630412E+04  0.13828630412E+04  0.25500000920E-02 0.  1.
    10030    2    1    2    0    0  0.00000000000E+00  0.00000000000E+00  0.93066348468E+03  0.36963895670E+04  0.35773120230E+04 0.  0.
        3    1    3    3  502    0  0.12774054642E+04  0.11393000069E+04  0.10017669722E+04  0.19832564894E+04  0.10100000352E+00 0. -1.
       -3    1    3    3    0  502 -0.12774054642E+04 -0.11393000069E+04 -0.71103487546E+02  0.17131330777E+04  0.10100000352E+00 0.  1.
</event>
<event>
 5   0  0.6324216E-07  0.3526521E+04  0.7818609E-02  0.8107533E-01
        2   -1    0    0  501    0  0.00000000000E+00  0.00000000000E+00  0.23914128501E+04  0.23914128501E+04  0.25500000920E-02 0.  1.
       -2   -1    0    0    0  501  0.00000000000E+00  0.00000000000E+00 -0.13001051856E+04  0.13001051856E+04  0.25500000920E-02 0. -1.
    10030    2    1    2    0    0  0.00000000000E+00  0.00000000000E+00  0.10913076645E+04  0.36915180357E+04  0.35265213723E+04 0.  0.
        2    1    3    3  502    0 -0.13459931323E+04 -0.43889610256E+03 -0.55459934423E+03  0.15204958842E+04  0.25500000920E-02 0. -1.
       -2    1    3    3    0  502  0.13459931323E+04  0.43889610256E+03  0.16459070087E+04  0.21710221515E+04  0.25500000920E-02 0.  1.
</event>
<event>
 5   0  0.6729577E-07  0.3353385E+04  0.7818609E-02  0.8149443E-01
       -2   -1    0    0    0  501  0.00000000000E+00  0.00000000000E+00  0.11694668698E+04  0.11694668698E+04  0.25500000920E-02 0.  1.
        2   -1    0    0  501    0  0.00000000000E+00  0.00000000000E+00 -0.24039133159E+04  0.24039133159E+04  0.25500000920E-02 0. -1.
    10030    2    1    2    0    0  0.00000000000E+00  0.00000000000E+00 -0.12344464461E+04  0.35733801857E+04  0.33533845475E+04 0.  0.
        3    1    3    3  502    0 -0.15178916782E+04 -0.65464117927E+03 -0.91625145052E+03  0.18899912569E+04  0.10100000352E+00 0. -1.
       -3    1    3    3    0  502  0.15178916782E+04  0.65464117927E+03 -0.31819499556E+03  0.16833889288E+04  0.10100000352E+00 0.  1.
</event>
<event>
 5   0  0.6729577E-07  0.3577971E+04  0.7818609E-02  0.8095556E-01
       -2   -1    0    0    0  501  0.00000000000E+00  0.00000000000E+00  0.12167174872E+04  0.12167174872E+04  0.25500000920E-02 0.  1.
        2   -1    0    0  501    0  0.00000000000E+00  0.00000000000E+00 -0.26304122071E+04  0.26304122071E+04  0.25500000920E-02 0. -1.
    10030    2    1    2    0    0  0.00000000000E+00  0.00000000000E+00 -0.14136947199E+04  0.38471296943E+04  0.35779706711E+04 0.  0.
        3    1    3    3  502    0 -0.32527975983E+03 -0.98273282118E+03  0.86198831966E+03  0.13470688896E+04  0.10100000352E+00 0.  1.
       -3    1    3    3    0  502  0.32527975983E+03  0.98273282118E+03 -0.22756830396E+04  0.25000608046E+04  0.10100000352E+00 0. -1.
</event>
<event>
 5   0  0.6324216E-07  0.3457329E+04  0.7818609E-02  0.8123978E-01
        2   -1    0    0  501    0  0.00000000000E+00  0.00000000000E+00  0.18866131889E+04  0.18866131889E+04  0.25500000920E-02 0.  1.
       -2   -1    0    0    0  501  0.00000000000E+00  0.00000000000E+00 -0.15839392016E+04  0.15839392017E+04  0.25500000920E-02 0. -1.
    10030    2    1    2    0    0  0.00000000000E+00  0.00000000000E+00  0.30267398721E+03  0.34705523905E+04  0.34573287886E+04 0.  0.
        2    1    3    3  502    0 -0.87196912617E+03  0.14840864778E+04 -0.87652196959E+01  0.17213133531E+04  0.25500000920E-02 0. -1.
       -2    1    3    3    0  502  0.87196912617E+03 -0.14840864778E+04  0.31143920691E+03  0.17492390374E+04  0.25500000920E-02 0.  1.
</event>
<event>
 5   0  0.2108068E-07  0.3658542E+04  0.7818609E-02  0.8077212E-01
        1   -1    0    0  501    0  0.00000000000E+00  0.00000000000E+00  0.16751504001E+04  0.16751504001E+04  0.50400001928E-02 0. -1.
       -1   -1    0    0    0  501  0.00000000000E+00  0.00000000000E+00 -0.19975715939E+04  0.19975715939E+04  0.50400001928E-02 0.  1.
    10030    2    1    2    0    0  0.00000000000E+00  0.00000000000E+00 -0.32242119382E+03  0.36727219939E+04  0.36585422532E+04 0.  0.
        5    1    3    3  502    0 -0.64397197139E+03  0.13276995068E+04  0.92405522516E+03  0.17410875996E+04  0.46999998093E+01 0.  1.
       -5    1    3    3    0  502  0.64397197139E+03 -0.13276995068E+04 -0.12464764190E+04  0.19316343943E+04  0.46999998093E+01 0. -1.
</event>
<event>
 5   0  0.2086250E-07  0.3614840E+04  0.7818609E-02  0.8087101E-01
       -1   -1    0    0    0  501  0.00000000000E+00  0.00000000000E+00  0.16654540149E+04  0.16654540149E+04  0.50400001928E-02 0.  1.
        1   -1    0    0  501    0  0.00000000000E+00  0.00000000000E+00 -0.19614878081E+04  0.19614878081E+04  0.50400001928E-02 0. -1.
    10030    2    1    2    0    0  0.00000000000E+00  0.00000000000E+00 -0.29603379325E+03  0.36269418230E+04  0.36148403811E+04 0.  0.
        2    1    3    3  502    0  0.77489258038E+03  0.15703003060E+04  0.30121648984E+03  0.17768041355E+04  0.25500000920E-02 0. -1.
       -2    1    3    3    0  502 -0.77489258038E+03 -0.15703003060E+04 -0.59725028309E+03  0.18501376875E+04  0.25500000920E-02 0.  1.
</event>
<event>
 5   0  0.2086250E-07  0.3595065E+04  0.7818609E-02  0.8091623E-01
       -1   -1    0    0    0  501  0.00000000000E+00  0.00000000000E+00  0.17890518292E+04  0.17890518292E+04  0.50400001928E-02 0. -1.
        1   -1    0    0  501    0  0.00000000000E+00  0.00000000000E+00 -0.18060531107E+04  0.18060531107E+04  0.50400001928E-02 0.  1.
    10030    2    1    2    0    0  0.00000000000E+00  0.00000000000E+00 -0.17001281526E+02  0.35951049400E+04  0.35950647401E+04 0.  0.
        2    1    3    3  502    0 -0.13044830285E+04 -0.82095173122E+03 -0.93343525298E+03  0.18019264935E+04  0.25500000920E-02 0.  1.
       -2    1    3    3    0  502  0.13044830285E+04  0.82095173122E+03  0.91643397146E+03  0.17931784464E+04  0.25500000920E-02 0. -1.
</event>
<event>
 5   0  0.2086250E-07  0.3598622E+04  0.7818609E-02  0.8090807E-01
       -1   -1    0    0    0  501  0.00000000000E+00  0.00000000000E+00  0.15204952043E+04  0.15204952043E+04  0.50400001928E-02 0. -1.
        1   -1    0    0  501    0  0.00000000000E+00  0.00000000000E+00 -0.21292536397E+04  0.21292536397E+04  0.50400001928E-02 0.  1.
    10030    2    1    2    0    0  0.00000000000E+00  0.00000000000E+00 -0.60875843536E+03  0.36497488440E+04  0.35986219295E+04 0.  0.
        3    1    3    3  502    0  0.15222677067E+04 -0.91489250058E+03 -0.11849957538E+02  0.17760821181E+04  0.10100000352E+00 0. -1.
       -3    1    3    3    0  502 -0.15222677067E+04  0.91489250058E+03 -0.59690847782E+03  0.18736667259E+04  0.10100000352E+00 0.  1.
</event>
<event>
 5   0  0.6848661E-07  0.3518813E+04  0.7818609E-02  0.8109346E-01
       -2   -1    0    0    0  501  0.00000000000E+00  0.00000000000E+00  0.15541286425E+04  0.15541286425E+04  0.25500000920E-02 0. -1.
        2   -1    0    0  501    0  0.00000000000E+00  0.00000000000E+00 -0.19917985722E+04  0.19917985722E+04  0.25500000920E-02 0.  1.
    10030    2    1    2    0    0  0.00000000000E+00  0.00000000000E+00 -0.43766992977E+03  0.35459272147E+04  0.35188129880E+04 0.  0.
        1    1    3    3  502    0  0.13514495068E+03  0.67259088083E+03  0.14137936765E+04  0.15714500343E+04  0.50400001928E-02 0. -1.
       -1    1    3    3    0  502 -0.13514495068E+03 -0.67259088083E+03 -0.18514636062E+04  0.19744771804E+04  0.50400001928E-02 0.  1.
</event>
<event>
 5   0  0.2086250E-07  0.3603616E+04  0.7818609E-02  0.8089664E-01
        1   -1    0    0  501    0  0.00000000000E+00  0.00000000000E+00  0.26609639065E+04  0.26609639065E+04  0.50400001928E-02 0. -1.
       -1   -1    0    0    0  501  0.00000000000E+00  0.00000000000E+00 -0.12200514718E+04  0.12200514718E+04  0.50400001928E-02 0.  1.
    10030    2    1    2    0    0  0.00000000000E+00  0.00000000000E+00  0.14409124347E+04  0.38810153782E+04  0.36036164781E+04 0.  0.
        3    1    3    3  502    0 -0.92117620876E+03 -0.12131829044E+04 -0.31598301328E+03  0.15557067982E+04  0.10100000352E+00 0.  1.
       -3    1    3    3    0  502  0.92117620876E+03  0.12131829044E+04  0.17568954480E+04  0.23253085800E+04  0.10100000352E+00 0. -1.
</event>
<event>
 5   0  0.6729577E-07  0.3602463E+04  0.7818609E-02  0.8089928E-01
       -2   -1    0    0    0  501  0.00000000000E+00  0.00000000000E+00  0.12738301343E+04  0.12738301343E+04  0.25500000920E-02 0. -1.
        2   -1    0    0  501    0  0.00000000000E+00  0.00000000000E+00 -0.25469920972E+04  0.25469920972E+04  0.25500000920E-02 0.  1.
    10030    2    1    2    0    0  0.00000000000E+00  0.00000000000E+00 -0.12731619629E+04  0.38208222315E+04  0.36024632047E+04 0.  0.
        3    1    3    3  502    0  0.15786331636E+04 -0.58267427613E+03 -0.13180559334E+04  0.21374899838E+04  0.10100000352E+00 0.  1.
       -3    1    3    3    0  502 -0.15786331636E+04  0.58267427613E+03  0.44893970497E+02  0.16833322477E+04  0.10100000352E+00 0. -1.
</event>
<event>
 5   0  0.2193129E-07  0.3642259E+04  0.7818609E-02  0.8080880E-01
        1   -1    0    0  501    0  0.00000000000E+00  0.00000000000E+00  0.13992608742E+04  0.13992608742E+04  0.50400001928E-02 0. -1.
       -1   -1    0    0    0  501  0.00000000000E+00  0.00000000000E+00 -0.23701884213E+04  0.23701884213E+04  0.50400001928E-02 0.  1.
    10030    2    1    2    0    0  0.00000000000E+00  0.00000000000E+00 -0.97092754706E+03  0.37694492955E+04  0.36422585973E+04 0.  0.
        1    1    3    3  502    0  0.24948588425E+03  0.80403168176E+03  0.11857977572E+04  0.14542442961E+04  0.50400001928E-02 0. -1.
       -1    1    3    3    0  502 -0.24948588425E+03 -0.80403168176E+03 -0.21567253042E+04  0.23152049995E+04  0.50400001928E-02 0.  1.
</event>
<event>
 5   0  0.6541476E-07  0.3583218E+04  0.7818609E-02  0.8094347E-01
       -2   -1    0    0    0  501  0.00000000000E+00  0.00000000000E+00  0.26759974057E+04  0.26759974057E+04  0.25500000920E-02 0. -1.
        2   -1    0    0  501    0  0.00000000000E+00  0.00000000000E+00 -0.11995017257E+04  0.11995017257E+04  0.25500000920E-02 0.  1.
    10030    2    1    2    0    0  0.00000000000E+00  0.00000000000E+00  0.14764956799E+04  0.38754991314E+04  0.35832183891E+04 0.  0.
        4    1    3    3  502    0 -0.38403105251E+03  0.28584681336E+03 -0.11290413340E+04  0.12263458716E+04  0.12699999809E+01 0.  1.
       -4    1    3    3    0  502  0.38403105251E+03 -0.28584681336E+03  0.26055370139E+04  0.26491532598E+04  0.12699999809E+01 0. -1.
</event>
<event>
 5   0  0.6541476E-07  0.3607453E+04  0.7818609E-02  0.8088787E-01
       -2   -1    0    0    0  501  0.00000000000E+00  0.00000000000E+00  0.14577181818E+04  0.14577181818E+04  0.25500000920E-02 0. -1.
        2   -1    0    0  501    0  0.00000000000E+00  0.00000000000E+00 -0.22318640919E+04  0.22318640919E+04  0.25500000920E-02 0.  1.
    10030    2    1    2    0    0  0.00000000000E+00  0.00000000000E+00 -0.77414591014E+03  0.36895822737E+04  0.36074527667E+04 0.  0.
        4    1    3    3  502    0 -0.16106336496E+04 -0.46324847088E+03  0.29495776296E+03  0.17016878661E+04  0.12699999809E+01 0. -1.
       -4    1    3    3    0  502  0.16106336496E+04  0.46324847088E+03 -0.10691036731E+04  0.19878944076E+04  0.12699999809E+01 0.  1.
</event>
<event>
 5   0  0.2108068E-07  0.3609406E+04  0.7818609E-02  0.8088341E-01
        1   -1    0    0  501    0  0.00000000000E+00  0.00000000000E+00  0.30328426108E+04  0.30328426108E+04  0.50400001928E-02 0.  1.
       -1   -1    0    0    0  501  0.00000000000E+00  0.00000000000E+00 -0.10738944047E+04  0.10738944047E+04  0.50400001928E-02 0. -1.
    10030    2    1    2    0    0  0.00000000000E+00  0.00000000000E+00  0.19589482061E+04  0.41067370155E+04  0.36094058846E+04 0.  0.
        5    1    3    3  502    0  0.34882644671E+03  0.13840083943E+04  0.22360838111E+04  0.26527819408E+04  0.46999998093E+01 0.  1.
       -5    1    3    3    0  502 -0.34882644671E+03 -0.13840083943E+04 -0.27713560499E+03  0.14539550746E+04  0.46999998093E+01 0. -1.
</event>
<event>
 5   0  0.2086250E-07  0.3602092E+04  0.7818609E-02  0.8090013E-01
       -1   -1    0    0    0  501  0.00000000000E+00  0.00000000000E+00  0.22974002775E+04  0.22974002775E+04  0.50400001928E-02 0.  1.
        1   -1    0    0  501    0  0.00000000000E+00  0.00000000000E+00 -0.14119289410E+04  0.14119289410E+04  0.50400001928E-02 0. -1.
    10030    2    1    2    0    0  0.00000000000E+00  0.00000000000E+00  0.88547133651E+03  0.37093292184E+04  0.36020915817E+04 0.  0.
        3    1    3    3  502    0 -0.11363309299E+04  0.13606046975E+04  0.77044367330E+03  0.19328933207E+04  0.10100000352E+00 0.  1.
       -3    1    3    3    0  502  0.11363309299E+04 -0.13606046975E+04  0.11502766321E+03  0.17764358977E+04  0.10100000352E+00 0. -1.
</event>
<event>
 5   0  0.2086250E-07  0.3705435E+04  0.7818609E-02  0.8066758E-01
        1   -1    0    0  501    0  0.00000000000E+00  0.00000000000E+00  0.20844944911E+04  0.20844944912E+04  0.50400001928E-02 0.  1.
       -1   -1    0    0    0  501  0.00000000000E+00  0.00000000000E+00 -0.16467121852E+04  0.16467121852E+04  0.50400001928E-02 0. -1.
    10030    2    1    2    0    0  0.00000000000E+00  0.00000000000E+00  0.43778230598E+03  0.37312066763E+04  0.37054351855E+04 0.  0.
        2    1    3    3  502    0 -0.86815511454E+03  0.14158239443E+04 -0.60798495489E+03  0.17685860028E+04  0.25500000920E-02 0. -1.
       -2    1    3    3    0  502  0.86815511454E+03 -0.14158239443E+04  0.10457672609E+04  0.19626206735E+04  0.25500000920E-02 0.  1.
</event>
<event>
 5   0  0.6541476E-07  0.3591923E+04  0.7818609E-02  0.8092344E-01
       -2   -1    0    0    0  501  0.00000000000E+00  0.00000000000E+00  0.11375744076E+04  0.11375744076E+04  0.25500000920E-02 0.  1.
        2   -1    0    0  501    0  0.00000000000E+00  0.00000000000E+00 -0.28353995117E+04  0.28353995117E+04  0.25500000920E-02 0. -1.
    10030    2    1    2    0    0  0.00000000000E+00  0.00000000000E+00 -0.16978251042E+04  0.39729739193E+04  0.35919231171E+04 0.  0.
        4    1    3    3  502    0  0.11881609841E+04 -0.51601320303E+03 -0.22248580332E+04  0.25744884989E+04  0.12699999809E+01 0. -1.
       -4    1    3    3    0  502 -0.11881609841E+04  0.51601320303E+03  0.52703292907E+03  0.13984854204E+04  0.12699999809E+01 0.  1.
</event>
<event>
 5   0  0.2086250E-07  0.3605288E+04  0.7818609E-02  0.8089281E-01
        1   -1    0    0  501    0  0.00000000000E+00  0.00000000000E+00  0.15633044730E+04  0.15633044730E+04  0.50400001928E-02 0. -1.
       -1   -1    0    0    0  501  0.00000000000E+00  0.00000000000E+00 -0.20786263433E+04  0.20786263433E+04  0.50400001928E-02 0.  1.
    10030    2    1    2    0    0  0.00000000000E+00  0.00000000000E+00 -0.51532187036E+03  0.36419308163E+04  0.36052882604E+04 0.  0.
        3    1    3    3  502    0  0.12163203216E+04 -0.10428429802E+04  0.57691345692E+03  0.17028757304E+04  0.10100000352E+00 0. -1.
       -3    1    3    3    0  502 -0.12163203216E+04  0.10428429802E+04 -0.10922353273E+04  0.19390550860E+04  0.10100000352E+00 0.  1.
</event>
<event>
 5   0  0.6324216E-07  0.3591985E+04  0.7818609E-02  0.8092330E-01
       -2   -1    0    0    0  501  0.00000000000E+00  0.00000000000E+00  0.11851770396E+04  0.11851770396E+04  0.25500000920E-02 0.  1.
        2   -1    0    0  501    0  0.00000000000E+00  0.00000000000E+00 -0.27216096476E+04  0.27216096476E+04  0.25500000920E-02 0. -1.
    10030    2    1    2    0    0  0.00000000000E+00  0.00000000000E+00 -0.15364326080E+04  0.39067866872E+04  0.35919851142E+04 0.  0.
        2    1    3    3  502    0 -0.72971534208E+03  0.43250582882E+03 -0.24900034962E+04  0.26305252676E+04  0.25500000920E-02 0. -1.
       -2    1    3    3    0  502  0.72971534208E+03 -0.43250582882E+03  0.95357088820E+03  0.12762614196E+04  0.25500000920E-02 0.  1.
</event>
<event>
 5   0  0.6541476E-07  0.3558410E+04  0.7818609E-02  0.8100085E-01
       -2   -1    0    0    0  501  0.00000000000E+00  0.00000000000E+00  0.14999277105E+04  0.14999277105E+04  0.25500000920E-02 0. -1.
        2   -1    0    0  501    0  0.00000000000E+00  0.00000000000E+00 -0.21104825758E+04  0.21104825758E+04  0.25500000920E-02 0.  1.
    10030    2    1    2    0    0  0.00000000000E+00  0.00000000000E+00 -0.61055486531E+03  0.36104102863E+04  0.35584104867E+04 0.  0.
        4    1    3    3  502    0  0.10935538769E+04 -0.77597395365E+03  0.88124494779E+03  0.16045528752E+04  0.12699999809E+01 0. -1.
       -4    1    3    3    0  502 -0.10935538769E+04  0.77597395365E+03 -0.14917998131E+04  0.20058574111E+04  0.12699999809E+01 0.  1.
</event>
<event>
 5   0  0.2108068E-07  0.3712031E+04  0.7818609E-02  0.8065301E-01
       -1   -1    0    0    0  501  0.00000000000E+00  0.00000000000E+00  0.16511581923E+04  0.16511581923E+04  0.50400001928E-02 0. -1.
        1   -1    0    0  501    0  0.00000000000E+00  0.00000000000E+00 -0.20862892312E+04  0.20862892312E+04  0.50400001928E-02 0.  1.
    10030    2    1    2    0    0  0.00000000000E+00  0.00000000000E+00 -0.43513103887E+03  0.37374474235E+04  0.37120310104E+04 0.  0.
        5    1    3    3  502    0 -0.57105029044E+03 -0.48896360914E+03 -0.19261192663E+04  0.20676414978E+04  0.46999998093E+01 0.  1.
       -5    1    3    3    0  502  0.57105029044E+03  0.48896360914E+03  0.14909882274E+04  0.16698059257E+04  0.46999998093E+01 0. -1.
</event>
<event>
 5   0  0.2086250E-07  0.3621119E+04  0.7818609E-02  0.8085671E-01
       -1   -1    0    0    0  501  0.00000000000E+00  0.00000000000E+00  0.12454861741E+04  0.12454861741E+04  0.50400001928E-02 0.  1.
        1   -1    0    0  501    0  0.00000000000E+00  0.00000000000E+00 -0.26320053582E+04  0.26320053582E+04  0.50400001928E-02 0. -1.
    10030    2    1    2    0    0  0.00000000000E+00  0.00000000000E+00 -0.13865191842E+04  0.38774915323E+04  0.36211193207E+04 0.  0.
        2    1    3    3  502    0  0.28191629485E+03  0.10140464523E+04  0.88425664720E+03  0.13746551651E+04  0.25500000920E-02 0.  1.
       -2    1    3    3    0  502 -0.28191629485E+03 -0.10140464523E+04 -0.22707758314E+04  0.25028363672E+04  0.25500000920E-02 0. -1.
</event>
<event>
 5   0  0.6324216E-07  0.3607175E+04  0.7818609E-02  0.8088850E-01
       -2   -1    0    0    0  501  0.00000000000E+00  0.00000000000E+00  0.10703915712E+04  0.10703915712E+04  0.25500000920E-02 0. -1.
        2   -1    0    0  501    0  0.00000000000E+00  0.00000000000E+00 -0.30390066166E+04  0.30390066166E+04  0.25500000920E-02 0.  1.
    10030    2    1    2    0    0  0.00000000000E+00  0.00000000000E+00 -0.19686150454E+04  0.41093981878E+04  0.36071745549E+04 0.  0.
        2    1    3    3  502    0  0.97634732754E+02 -0.13239270446E+03  0.10618274332E+04  0.10744942379E+04  0.25500000920E-02 0. -1.
       -2    1    3    3    0  502 -0.97634732754E+02  0.13239270446E+03 -0.30304424786E+04  0.30349039500E+04  0.25500000920E-02 0.  1.
</event>
<event>
 5   0  0.6729577E-07  0.3588499E+04  0.7818609E-02  0.8093131E-01
       -2   -1    0    0    0  501  0.00000000000E+00  0.00000000000E+00  0.20329637235E+04  0.20329637235E+04  0.25500000920E-02 0.  1.
        2   -1    0    0  501    0  0.00000000000E+00  0.00000000000E+00 -0.15835656314E+04  0.15835656314E+04  0.25500000920E-02 0. -1.
    10030    2    1    2    0    0  0.00000000000E+00  0.00000000000E+00  0.44939809214E+03  0.36165293549E+04  0.35884991193E+04 0.  0.
        3    1    3    3  502    0  0.12422900488E+04 -0.68376710711E+03 -0.88321017235E+03  0.16705933799E+04  0.10100000352E+00 0. -1.
       -3    1    3    3    0  502 -0.12422900488E+04  0.68376710711E+03  0.13326082645E+04  0.19459359750E+04  0.10100000352E+00 0.  1.
</event>
<event>
 5   0  0.6669864E-07  0.3560485E+04  0.7818609E-02  0.8099604E-01
       -2   -1    0    0    0  501  0.00000000000E+00  0.00000000000E+00  0.14742800545E+04  0.14742800545E+04  0.25500000920E-02 0. -1.
        2   -1    0    0  501    0  0.00000000000E+00  0.00000000000E+00 -0.21497023784E+04  0.21497023784E+04  0.25500000920E-02 0.  1.
    10030    2    1    2    0    0  0.00000000000E+00  0.00000000000E+00 -0.67542232387E+03  0.36239824329E+04  0.35604849892E+04 0.  0.
        5    1    3    3  502    0 -0.13076234789E+04 -0.16688353168E+03 -0.15555068084E+04  0.20389587531E+04  0.46999998093E+01 0.  1.
       -5    1    3    3    0  502  0.13076234789E+04  0.16688353168E+03  0.88008448453E+03  0.15850236798E+04  0.46999998093E+01 0. -1.
</event>
<event>
 5   0  0.2086250E-07  0.3494527E+04  0.7818609E-02  0.8115088E-01
       -1   -1    0    0    0  501  0.00000000000E+00  0.00000000000E+00  0.12557885102E+04  0.12557885102E+04  0.50400001928E-02 0.  1.
        1   -1    0    0  501    0  0.00000000000E+00  0.00000000000E+00 -0.24310853018E+04  0.24310853018E+04  0.50400001928E-02 0. -1.
    10030    2    1    2    0    0  0.00000000000E+00  0.00000000000E+00 -0.11752967916E+04  0.36868738120E+04  0.34945265713E+04 0.  0.
        2    1    3    3  502    0 -0.97313392825E+03 -0.14499090015E+04 -0.65185216452E+03  0.18639036991E+04  0.25500000920E-02 0.  1.
       -2    1    3    3    0  502  0.97313392825E+03  0.14499090015E+04 -0.52344462708E+03  0.18229701129E+04  0.25500000920E-02 0. -1.
</event>
<event>
 5   0  0.6324216E-07  0.3630409E+04  0.7818609E-02  0.8083562E-01
        2   -1    0    0  501    0  0.00000000000E+00  0.00000000000E+00  0.19709576827E+04  0.19709576827E+04  0.25500000920E-02 0. -1.
       -2   -1    0    0    0  501  0.00000000000E+00  0.00000000000E+00 -0.16717591695E+04  0.16717591695E+04  0.25500000920E-02 0.  1.
    10030    2    1    2    0    0  0.00000000000E+00  0.00000000000E+00  0.29919851318E+03  0.36427168522E+04  0.36304085604E+04 0.  0.
        2    1    3    3  502    0  0.57140348468E+03  0.47300514451E+03 -0.15127404855E+04  0.16848203422E+04  0.25500000920E-02 0.  1.
       -2    1    3    3    0  502 -0.57140348468E+03 -0.47300514451E+03  0.18119389987E+04  0.19578965100E+04  0.25500000920E-02 0. -1.
</event>
<event>
 5   0  0.2086250E-07  0.3525732E+04  0.7818609E-02  0.8107719E-01
        1   -1    0    0  501    0  0.00000000000E+00  0.00000000000E+00  0.23221425225E+04  0.23221425225E+04  0.50400001928E-02 0. -1.
       -1   -1    0    0    0  501  0.00000000000E+00  0.00000000000E+00 -0.13382884569E+04  0.13382884569E+04  0.50400001928E-02 0.  1.
    10030    2    1    2    0    0  0.00000000000E+00  0.00000000000E+00  0.98385406566E+03  0.36604309794E+04  0.35257319995E+04 0.  0.
        2    1    3    3  502    0 -0.14719671914E+03  0.69111665098E+03  0.21686795793E+04  0.22808946090E+04  0.25500000920E-02 0. -1.
       -2    1    3    3    0  502  0.14719671914E+03 -0.69111665098E+03 -0.11848255137E+04  0.13795363704E+04  0.25500000920E-02 0.  1.
</event>
<event>
 5   0  0.6669864E-07  0.3574128E+04  0.7818609E-02  0.8096444E-01
       -2   -1    0    0    0  501  0.00000000000E+00  0.00000000000E+00  0.17117790596E+04  0.17117790596E+04  0.25500000920E-02 0. -1.
        2   -1    0    0  501    0  0.00000000000E+00  0.00000000000E+00 -0.18656595291E+04  0.18656595291E+04  0.25500000920E-02 0.  1.
    10030    2    1    2    0    0  0.00000000000E+00  0.00000000000E+00 -0.15388046950E+03  0.35774385887E+04  0.35741275379E+04 0.  0.
        5    1    3    3  502    0 -0.10651419741E+04  0.14074810851E+04  0.20268283504E+03  0.17766915465E+04  0.46999998093E+01 0. -1.
       -5    1    3    3    0  502  0.10651419741E+04 -0.14074810851E+04 -0.35656330454E+03  0.18007470422E+04  0.46999998093E+01 0.  1.
</event>
<event>
 5   0  0.2193129E-07  0.3600241E+04  0.7818609E-02  0.8090436E-01
        1   -1    0    0  501    0  0.00000000000E+00  0.00000000000E+00  0.22557861579E+04  0.22557861579E+04  0.50400001928E-02 0. -1.
       -1   -1    0    0    0  501  0.00000000000E+00  0.00000000000E+00 -0.14364989685E+04  0.14364989685E+04  0.50400001928E-02 0.  1.
    10030    2    1    2    0    0  0.00000000000E+00  0.00000000000E+00  0.81928718939E+03  0.36922851264E+04  0.36002413747E+04 0.  0.
        1    1    3    3  502    0 -0.70618164762E+03 -0.93562501963E+03 -0.99142662122E+03  0.15352568000E+04  0.50400001928E-02 0.  1.
       -1    1    3    3    0  502  0.70618164762E+03  0.93562501963E+03  0.18107138106E+04  0.21570283264E+04  0.50400001928E-02 0. -1.
</event>
<event>
 5   0  0.2086250E-07  0.3619396E+04  0.7818609E-02  0.8086063E-01
       -1   -1    0    0    0  501  0.00000000000E+00  0.00000000000E+00  0.15904487540E+04  0.15904487541E+04  0.50400001928E-02 0. -1.
        1   -1    0    0  501    0  0.00000000000E+00  0.00000000000E+00 -0.20591715955E+04  0.20591715955E+04  0.50400001928E-02 0.  1.
    10030    2    1    2    0    0  0.00000000000E+00  0.00000000000E+00 -0.46872284146E+03  0.36496203496E+04  0.36193960261E+04 0.  0.
        4    1    3    3  502    0  0.86148252716E+03  0.15802787273E+04 -0.42454256952E+03  0.18492352491E+04  0.12699999809E+01 0. -1.
       -4    1    3    3    0  502 -0.86148252716E+03 -0.15802787273E+04 -0.44180271947E+02  0.18003851004E+04  0.12699999809E+01 0.  1.
</event>
<event>
 5   0  0.2193129E-07  0.3597938E+04  0.7818609E-02  0.8090964E-01
        1   -1    0    0  501    0  0.00000000000E+00  0.00000000000E+00  0.14311648310E+04  0.14311648310E+04  0.50400001928E-02 0. -1.
       -1   -1    0    0    0  501  0.00000000000E+00  0.00000000000E+00 -0.22612971756E+04  0.22612971756E+04  0.50400001928E-02 0.  1.
    10030    2    1    2    0    0  0.00000000000E+00  0.00000000000E+00 -0.83013234457E+03  0.36924620066E+04  0.35979377372E+04 0.  0.
        1    1    3    3  502    0  0.15367025855E+04 -0.84222994596E+03  0.24169441436E+01  0.17523732364E+04  0.50400001928E-02 0. -1.
       -1    1    3    3    0  502 -0.15367025855E+04  0.84222994596E+03 -0.83254928871E+03  0.19400887702E+04  0.50400001928E-02 0.  1.
</event>
<event>
 5   0  0.6669864E-07  0.3588415E+04  0.7818609E-02  0.8093151E-01
       -2   -1    0    0    0  501  0.00000000000E+00  0.00000000000E+00  0.13043014707E+04  0.13043014707E+04  0.25500000920E-02 0. -1.
        2   -1    0    0  501    0  0.00000000000E+00  0.00000000000E+00 -0.24681261998E+04  0.24681261998E+04  0.25500000920E-02 0.  1.
    10030    2    1    2    0    0  0.00000000000E+00  0.00000000000E+00 -0.11638247291E+04  0.37724276705E+04  0.35884150442E+04 0.  0.
        5    1    3    3  502    0 -0.10998476741E+04 -0.14161950755E+04 -0.64743959736E+03  0.19064295215E+04  0.46999998093E+01 0. -1.
       -5    1    3    3    0  502  0.10998476741E+04  0.14161950755E+04 -0.51638513170E+03  0.18659981491E+04  0.46999998093E+01 0.  1.
</event>
<event>
 5   0  0.2108068E-07  0.3577889E+04  0.7818609E-02  0.8095575E-01
        1   -1    0    0  501    0  0.00000000000E+00  0.00000000000E+00  0.20596200228E+04  0.20596200228E+04  0.50400001928E-02 0. -1.
       -1   -1    0    0    0  501  0.00000000000E+00  0.00000000000E+00 -0.15538408803E+04  0.15538408803E+04  0.50400001928E-02 0.  1.
    10030    2    1    2    0    0  0.00000000000E+00  0.00000000000E+00  0.50577914248E+03  0.36134609031E+04  0.35778886451E+04 0.  0.
        5    1    3    3  502    0 -0.74898419122E+03  0.16057963541E+04  0.39834702249E+01  0.17718908566E+04  0.46999998093E+01 0.  1.
       -5    1    3    3    0  502  0.74898419122E+03 -0.16057963541E+04  0.50179567226E+03  0.18415700465E+04  0.46999998093E+01 0. -1.
</event>
<event>
 5   0  0.2086250E-07  0.3644441E+04  0.7818609E-02  0.8080387E-01
       -1   -1    0    0    0  501  0.00000000000E+00  0.00000000000E+00  0.29779575614E+04  0.29779575614E+04  0.50400001928E-02 0.  1.
        1   -1    0    0  501    0  0.00000000000E+00  0.00000000000E+00 -0.11150217557E+04  0.11150217558E+04  0.50400001928E-02 0. -1.
    10030    2    1    2    0    0  0.00000000000E+00  0.00000000000E+00  0.18629358057E+04  0.40929793172E+04  0.36444409550E+04 0.  0.
        3    1    3    3  502    0  0.17164287673E+04 -0.16887800146E+03  0.15919274484E+04  0.23471004461E+04  0.10100000352E+00 0.  1.
       -3    1    3    3    0  502 -0.17164287673E+04  0.16887800146E+03  0.27100835724E+03  0.17458788711E+04  0.10100000352E+00 0. -1.
</event>
<event>
 5   0  0.6848661E-07  0.3599164E+04  0.7818609E-02  0.8090683E-01
       -2   -1    0    0    0  501  0.00000000000E+00  0.00000000000E+00  0.26870470223E+04  0.26870470223E+04  0.25500000920E-02 0. -1.
        2   -1    0    0  501    0  0.00000000000E+00  0.00000000000E+00 -0.12052244204E+04  0.12052244204E+04  0.25500000920E-02 0.  1.
    10030    2    1    2    0    0  0.00000000000E+00  0.00000000000E+00  0.14818226019E+04  0.38922714427E+04  0.35991636195E+04 0.  0.
        1    1    3    3  502    0 -0.17832501855E+04 -0.22564813387E+03  0.83516643885E+03  0.19820194966E+04  0.50400001928E-02 0.  1.
       -1    1    3    3    0  502  0.17832501855E+04  0.22564813387E+03  0.64665616302E+03  0.19102519461E+04  0.50400001928E-02 0. -1.
</event>
<event>
 5   0  0.2086250E-07  0.3569853E+04  0.7818609E-02  0.8097432E-01
        1   -1    0    0  501    0  0.00000000000E+00  0.00000000000E+00  0.15963873232E+04  0.15963873232E+04  0.50400001928E-02 0.  1.
       -1   -1    0    0    0  501  0.00000000000E+00  0.00000000000E+00 -0.19957326054E+04  0.19957326054E+04  0.50400001928E-02 0. -1.
    10030    2    1    2    0    0  0.00000000000E+00  0.00000000000E+00 -0.39934528218E+03  0.35921199286E+04  0.35698527878E+04 0.  0.
        3    1    3    3  502    0 -0.42135031381E+02 -0.73440261291E+02  0.15943654971E+04  0.15966120948E+04  0.10100000352E+00 0.  1.
       -3    1    3    3    0  502  0.42135031381E+02  0.73440261291E+02 -0.19937107793E+04  0.19955078337E+04  0.10100000352E+00 0. -1.
</event>
<event>
 5   0  0.6729577E-07  0.3664642E+04  0.7818609E-02  0.8075843E-01
        2   -1    0    0  501    0  0.00000000000E+00  0.00000000000E+00  0.17871158943E+04  0.17871158943E+04  0.25500000920E-02 0. -1.
       -2   -1    0    0    0  501  0.00000000000E+00  0.00000000000E+00 -0.18786693405E+04  0.18786693405E+04  0.25500000920E-02 0.  1.
    10030    2    1    2    0    0  0.00000000000E+00  0.00000000000E+00 -0.91553446131E+02  0.36657852348E+04  0.36646417770E+04 0.  0.
        3    1    3    3  502    0 -0.15331768058E+04  0.16170116938E+03 -0.10363490290E+04  0.18576322850E+04  0.10100000352E+00 0.  1.
       -3    1    3    3    0  502  0.15331768058E+04 -0.16170116938E+03  0.94479558289E+03  0.18081529498E+04  0.10100000352E+00 0. -1.
</event>
<event>
 5   0  0.2193129E-07  0.3635268E+04  0.7818609E-02  0.8082461E-01
       -1   -1    0    0    0  501  0.00000000000E+00  0.00000000000E+00  0.16427433772E+04  0.16427433772E+04  0.50400001928E-02 0.  1.
        1   -1    0    0  501    0  0.00000000000E+00  0.00000000000E+00 -0.20111435044E+04  0.20111435044E+04  0.50400001928E-02 0. -1.
    10030    2    1    2    0    0  0.00000000000E+00  0.00000000000E+00 -0.36840012714E+03  0.36538868816E+04  0.36352676229E+04 0.  0.
        1    1    3    3  502    0 -0.11062998201E+04  0.25337585203E+03  0.12428230829E+04  0.16830650106E+04  0.50400001928E-02 0.  1.
       -1    1    3    3    0  502  0.11062998201E+04 -0.25337585203E+03 -0.16112232101E+04  0.19708218710E+04  0.50400001928E-02 0. -1.
</event>
<event>
 5   0  0.2193129E-07  0.3602764E+04  0.7818609E-02  0.8089859E-01
        1   -1    0    0  501    0  0.00000000000E+00  0.00000000000E+00  0.15092835967E+04  0.15092835967E+04  0.50400001928E-02 0.  1.
       -1   -1    0    0    0  501  0.00000000000E+00  0.00000000000E+00 -0.21500119166E+04  0.21500119166E+04  0.50400001928E-02 0. -1.
    10030    2    1    2    0    0  0.00000000000E+00  0.00000000000E+00 -0.64072831990E+03  0.36592955133E+04  0.36027643378E+04 0.  0.
        1    1    3    3  502    0  0.14778681707E+04 -0.27882050256E+03 -0.13274578310E+04  0.20059859161E+04  0.50400001928E-02 0. -1.
       -1    1    3    3    0  502 -0.14778681707E+04  0.27882050256E+03  0.68672951109E+03  0.16533095972E+04  0.50400001928E-02 0.  1.
</event>
<event>
 5   0  0.6848661E-07  0.3574157E+04  0.7818609E-02  0.8096437E-01
        2   -1    0    0  501    0  0.00000000000E+00  0.00000000000E+00  0.19673049516E+04  0.19673049516E+04  0.25500000920E-02 0. -1.
       -2   -1    0    0    0  501  0.00000000000E+00  0.00000000000E+00 -0.16233629904E+04  0.16233629904E+04  0.25500000920E-02 0.  1.
    10030    2    1    2    0    0  0.00000000000E+00  0.00000000000E+00  0.34394196117E+03  0.35906679420E+04  0.35741572709E+04 0.  0.
        1    1    3    3  502    0 -0.12141599062E+04  0.89306081557E+03  0.11365668841E+04  0.18877304310E+04  0.50400001928E-02 0. -1.
       -1    1    3    3    0  502  0.12141599062E+04 -0.89306081557E+03 -0.79262492294E+03  0.17029375110E+04  0.50400001928E-02 0.  1.
</event>
<event>
 5   0  0.2086250E-07  0.3590828E+04  0.7818609E-02  0.8092596E-01
       -1   -1    0    0    0  501  0.00000000000E+00  0.00000000000E+00  0.25330748408E+04  0.25330748408E+04  0.50400001928E-02 0. -1.
        1   -1    0    0  501    0  0.00000000000E+00  0.00000000000E+00 -0.12725683153E+04  0.12725683153E+04  0.50400001928E-02 0.  1.
    10030    2    1    2    0    0  0.00000000000E+00  0.00000000000E+00  0.12605065255E+04  0.38056431561E+04  0.35908276386E+04 0.  0.
        3    1    3    3  502    0  0.10042813251E+04 -0.26277587640E+03  0.21827692518E+04  0.24170464948E+04  0.10100000352E+00 0. -1.
       -3    1    3    3    0  502 -0.10042813251E+04  0.26277587640E+03 -0.92226272632E+03  0.13885966613E+04  0.10100000352E+00 0.  1.
</event>
<event>
 5   0  0.2086250E-07  0.3643189E+04  0.7818609E-02  0.8080670E-01
        1   -1    0    0  501    0  0.00000000000E+00  0.00000000000E+00  0.15819066098E+04  0.15819066098E+04  0.50400001928E-02 0. -1.
       -1   -1    0    0    0  501  0.00000000000E+00  0.00000000000E+00 -0.20975997073E+04  0.20975997073E+04  0.50400001928E-02 0.  1.
    10030    2    1    2    0    0  0.00000000000E+00  0.00000000000E+00 -0.51569309755E+03  0.36795063171E+04  0.36431891752E+04 0.  0.
        3    1    3    3  502    0  0.33281783975E+03 -0.14040872514E+04 -0.13806745101E+04  0.19971206365E+04  0.10100000352E+00 0.  1.
       -3    1    3    3    0  502 -0.33281783975E+03  0.14040872514E+04  0.86498141253E+03  0.16823856805E+04  0.10100000352E+00 0. -1.
</event>
<event>
 5   0  0.6729577E-07  0.3519789E+04  0.7818609E-02  0.8109116E-01
       -2   -1    0    0    0  501  0.00000000000E+00  0.00000000000E+00  0.17932956582E+04  0.17932956582E+04  0.25500000920E-02 0.  1.
        2   -1    0    0  501    0  0.00000000000E+00  0.00000000000E+00 -0.17271153158E+04  0.17271153158E+04  0.25500000920E-02 0. -1.
    10030    2    1    2    0    0  0.00000000000E+00  0.00000000000E+00  0.66180342318E+02  0.35204109740E+04  0.35197888556E+04 0.  0.
        3    1    3    3  502    0 -0.87452303451E+03 -0.14427442396E+04  0.53410475959E+03  0.17696240797E+04  0.10100000352E+00 0.  1.
       -3    1    3    3    0  502  0.87452303451E+03  0.14427442396E+04 -0.46792441727E+03  0.17507868943E+04  0.10100000352E+00 0. -1.
</event>
<event>
 5   0  0.6669864E-07  0.3527631E+04  0.7818609E-02  0.8107273E-01
        2   -1    0    0  501    0  0.00000000000E+00  0.00000000000E+00  0.26486723191E+04  0.26486723191E+04  0.25500000920E-02 0.  1.
       -2   -1    0    0    0  501  0.00000000000E+00  0.00000000000E+00 -0.11745677305E+04  0.11745677305E+04  0.25500000920E-02 0. -1.
    10030    2    1    2    0    0  0.00000000000E+00  0.00000000000E+00  0.14741045886E+04  0.38232400496E+04  0.35276309527E+04 0.  0.
        5    1    3    3  502    0 -0.19842716156E+01  0.94120683978E+03  0.23537467203E+04  0.25349595590E+04  0.46999998093E+01 0.  1.
       -5    1    3    3    0  502  0.19842716156E+01 -0.94120683978E+03 -0.87964213169E+03  0.12882804906E+04  0.46999998093E+01 0. -1.
</event>
<event>
 5   0  0.6324216E-07  0.3517130E+04  0.7818609E-02  0.8109742E-01
        2   -1    0    0  501    0  0.00000000000E+00  0.00000000000E+00  0.13581632248E+04  0.13581632248E+04  0.25500000920E-02 0.  1.
       -2   -1    0    0    0  501  0.00000000000E+00  0.00000000000E+00 -0.22770095531E+04  0.22770095531E+04  0.25500000920E-02 0. -1.
    10030    2    1    2    0    0  0.00000000000E+00  0.00000000000E+00 -0.91884632827E+03  0.36351727779E+04  0.35171298740E+04 0.  0.
        2    1    3    3  502    0  0.17522926083E+03  0.76355134725E+02 -0.22662411693E+04  0.22742876770E+04  0.25500000920E-02 0. -1.
       -2    1    3    3    0  502 -0.17522926083E+03 -0.76355134725E+02  0.13473948410E+04  0.13608851010E+04  0.25500000920E-02 0.  1.
</event>
<event>
 5   0  0.6324216E-07  0.3597509E+04  0.7818609E-02  0.8091062E-01
       -2   -1    0    0    0  501  0.00000000000E+00  0.00000000000E+00  0.11024321819E+04  0.11024321819E+04  0.25500000920E-02 0. -1.
        2   -1    0    0  501    0  0.00000000000E+00  0.00000000000E+00 -0.29348907468E+04  0.29348907468E+04  0.25500000920E-02 0.  1.
    10030    2    1    2    0    0  0.00000000000E+00  0.00000000000E+00 -0.18324585649E+04  0.40373229287E+04  0.35975091436E+04 0.  0.
        2    1    3    3  502    0  0.90446169191E+03 -0.12065154931E+04 -0.20168333879E+04  0.25182032288E+04  0.25500000920E-02 0.  1.
       -2    1    3    3    0  502 -0.90446169191E+03  0.12065154931E+04  0.18437482304E+03  0.15191196999E+04  0.25500000920E-02 0. -1.
</event>
<event>
 5   0  0.6729577E-07  0.3581636E+04  0.7818609E-02  0.8094711E-01
       -2   -1    0    0    0  501  0.00000000000E+00  0.00000000000E+00  0.20301073919E+04  0.20301073919E+04  0.25500000920E-02 0. -1.
        2   -1    0    0  501    0  0.00000000000E+00  0.00000000000E+00 -0.15797333222E+04  0.15797333222E+04  0.25500000920E-02 0.  1.
    10030    2    1    2    0    0  0.00000000000E+00  0.00000000000E+00  0.45037406974E+03  0.36098407141E+04  0.35816355452E+04 0.  0.
        3    1    3    3  502    0 -0.51562715691E+03  0.10749222837E+04 -0.11216367442E+04  0.16368867637E+04  0.10100000352E+00 0.  1.
       -3    1    3    3    0  502  0.51562715691E+03 -0.10749222837E+04  0.15720108140E+04  0.19729539504E+04  0.10100000352E+00 0. -1.
</event>
<event>
 5   0  0.2086250E-07  0.3671185E+04  0.7818609E-02  0.8074378E-01
       -1   -1    0    0    0  501  0.00000000000E+00  0.00000000000E+00  0.13223525262E+04  0.13223525262E+04  0.50400001928E-02 0. -1.
        1   -1    0    0  501    0  0.00000000000E+00  0.00000000000E+00 -0.25480339645E+04  0.25480339645E+04  0.50400001928E-02 0.  1.
    10030    2    1    2    0    0  0.00000000000E+00  0.00000000000E+00 -0.12256814382E+04  0.38703864907E+04  0.36711846316E+04 0.  0.
        2    1    3    3  502    0 -0.45094384574E+03  0.17524878499E+04 -0.28817776264E+03  0.18323783558E+04  0.25500000920E-02 0. -1.
       -2    1    3    3    0  502  0.45094384574E+03 -0.17524878499E+04 -0.93750367560E+03  0.20380081349E+04  0.25500000920E-02 0.  1.
</event>
<event>
 5   0  0.6848661E-07  0.3551881E+04  0.7818609E-02  0.8101604E-01
        2   -1    0    0  501    0  0.00000000000E+00  0.00000000000E+00  0.17788735295E+04  0.17788735295E+04  0.25500000920E-02 0.  1.
       -2   -1    0    0    0  501  0.00000000000E+00  0.00000000000E+00 -0.17730127100E+04  0.17730127101E+04  0.25500000920E-02 0. -1.
    10030    2    1    2    0    0  0.00000000000E+00  0.00000000000E+00  0.58608194851E+01  0.35518862396E+04  0.35518814042E+04 0.  0.
        1    1    3    3  502    0 -0.64397488494E+03  0.88512268117E+03 -0.13955776844E+04  0.17736354999E+04  0.50400001928E-02 0. -1.
       -1    1    3    3    0  502  0.64397488494E+03 -0.88512268117E+03  0.14014385039E+04  0.17782507397E+04  0.50400001928E-02 0.  1.
</event>
<event>
 5   0  0.2086250E-07  0.3501161E+04  0.7818609E-02  0.8113515E-01
        1   -1    0    0  501    0  0.00000000000E+00  0.00000000000E+00  0.26230938004E+04  0.26230938004E+04  0.50400001928E-02 0.  1.
       -1   -1    0    0    0  501  0.00000000000E+00  0.00000000000E+00 -0.11682893100E+04  0.11682893100E+04  0.50400001928E-02 0. -1.
    10030    2    1    2    0    0  0.00000000000E+00  0.00000000000E+00  0.14548044904E+04  0.37913831104E+04  0.35011612052E+04 0.  0.
        3    1    3    3  502    0  0.45993655766E+02 -0.64365896847E+03  0.24895990385E+04  0.25718700719E+04  0.10100000352E+00 0.  1.
       -3    1    3    3    0  502 -0.45993655766E+02  0.64365896847E+03 -0.10347945481E+04  0.12195130385E+04  0.10100000352E+00 0. -1.
</event>
<event>
 5   0  0.2086250E-07  0.3584572E+04  0.7818609E-02  0.8094035E-01
        1   -1    0    0  501    0  0.00000000000E+00  0.00000000000E+00  0.16936767829E+04  0.16936767829E+04  0.50400001928E-02 0. -1.
       -1   -1    0    0    0  501  0.00000000000E+00  0.00000000000E+00 -0.18966360981E+04  0.18966360981E+04  0.50400001928E-02 0.  1.
    10030    2    1    2    0    0  0.00000000000E+00  0.00000000000E+00 -0.20295931522E+03  0.35903128810E+04  0.35845716760E+04 0.  0.
        3    1    3    3  502    0 -0.86598742569E+03  0.71206832487E+03 -0.15020443429E+04  0.18743299440E+04  0.10100000352E+00 0.  1.
       -3    1    3    3    0  502  0.86598742569E+03 -0.71206832487E+03  0.12990850277E+04  0.17159829370E+04  0.10100000352E+00 0. -1.
</event>
<event>
 5   0  0.2086250E-07  0.3585233E+04  0.7818609E-02  0.8093883E-01
        1   -1    0    0  501    0  0.00000000000E+00  0.00000000000E+00  0.97767108629E+03  0.97767108630E+03  0.50400001928E-02 0. -1.
       -1   -1    0    0    0  501  0.00000000000E+00  0.00000000000E+00 -0.32868664098E+04  0.32868664098E+04  0.50400001928E-02 0.  1.
    10030    2    1    2    0    0  0.00000000000E+00  0.00000000000E+00 -0.23091953235E+04  0.42645374961E+04  0.35852331882E+04 0.  0.
        4    1    3    3  502    0  0.14889843876E+04  0.83661671397E+03 -0.18022550903E+04  0.24829673893E+04  0.12699999809E+01 0.  1.
       -4    1    3    3    0  502 -0.14889843876E+04 -0.83661671397E+03 -0.50694023321E+03  0.17815701069E+04  0.12699999809E+01 0. -1.
</event>
<event>
 5   0  0.6541476E-07  0.3583574E+04  0.7818609E-02  0.8094265E-01
        2   -1    0    0  501    0  0.00000000000E+00  0.00000000000E+00  0.16764878043E+04  0.16764878043E+04  0.25500000920E-02 0. -1.
       -2   -1    0    0    0  501  0.00000000000E+00  0.00000000000E+00 -0.19150156686E+04  0.19150156686E+04  0.25500000920E-02 0.  1.
    10030    2    1    2    0    0  0.00000000000E+00  0.00000000000E+00 -0.23852786425E+03  0.35915034729E+04  0.35835738661E+04 0.  0.
        4    1    3    3  502    0 -0.44505062699E+03 -0.17021307299E+04 -0.45939627938E+03  0.18183414521E+04  0.12699999809E+01 0.  1.
       -4    1    3    3    0  502  0.44505062699E+03  0.17021307299E+04  0.22086841513E+03  0.17731620208E+04  0.12699999809E+01 0. -1.
</event>
<event>
 5   0  0.2086250E-07  0.3778273E+04  0.7818609E-02  0.8050833E-01
       -1   -1    0    0    0  501  0.00000000000E+00  0.00000000000E+00  0.15728416472E+04  0.15728416472E+04  0.50400001928E-02 0. -1.
        1   -1    0    0  501    0  0.00000000000E+00  0.00000000000E+00 -0.22690380907E+04  0.22690380907E+04  0.50400001928E-02 0.  1.
    10030    2    1    2    0    0  0.00000000000E+00  0.00000000000E+00 -0.69619644357E+03  0.38418797379E+04  0.37782734724E+04 0.  0.
        3    1    3    3  502    0 -0.14135053847E+04 -0.12274546368E+04 -0.60573139922E+03  0.19676262085E+04  0.10100000352E+00 0.  1.
       -3    1    3    3    0  502  0.14135053847E+04  0.12274546368E+04 -0.90465044349E+02  0.18742535294E+04  0.10100000352E+00 0. -1.
</event>
<event>
 5   0  0.6669864E-07  0.3582624E+04  0.7818609E-02  0.8094484E-01
       -2   -1    0    0    0  501  0.00000000000E+00  0.00000000000E+00  0.21861729348E+04  0.21861729348E+04  0.25500000920E-02 0.  1.
        2   -1    0    0  501    0  0.00000000000E+00  0.00000000000E+00 -0.14677696330E+04  0.14677696330E+04  0.25500000920E-02 0. -1.
    10030    2    1    2    0    0  0.00000000000E+00  0.00000000000E+00  0.71840330181E+03  0.36539425679E+04  0.35826237571E+04 0.  0.
        5    1    3    3  502    0  0.15601765631E+04  0.77347114470E+03  0.78752323802E+03  0.19111837850E+04  0.46999998093E+01 0.  1.
       -5    1    3    3    0  502 -0.15601765631E+04 -0.77347114470E+03 -0.69119936218E+02  0.17427587829E+04  0.46999998093E+01 0. -1.
</event>
<event>
 5   0  0.2086250E-07  0.3622761E+04  0.7818609E-02  0.8085298E-01
       -1   -1    0    0    0  501  0.00000000000E+00  0.00000000000E+00  0.22851612419E+04  0.22851612419E+04  0.50400001928E-02 0.  1.
        1   -1    0    0  501    0  0.00000000000E+00  0.00000000000E+00 -0.14358282930E+04  0.14358282930E+04  0.50400001928E-02 0. -1.
    10030    2    1    2    0    0  0.00000000000E+00  0.00000000000E+00  0.84933294889E+03  0.37209895348E+04  0.36227609168E+04 0.  0.
        3    1    3    3  502    0 -0.12143179688E+04  0.12066881020E+04  0.10326928508E+04  0.19992795800E+04  0.10100000352E+00 0.  1.
       -3    1    3    3    0  502  0.12143179688E+04 -0.12066881020E+04 -0.18335990193E+03  0.17217099548E+04  0.10100000352E+00 0. -1.
</event>
<event>
 5   0  0.6848661E-07  0.3606160E+04  0.7818609E-02  0.8089082E-01
        2   -1    0    0  501    0  0.00000000000E+00  0.00000000000E+00  0.22699504275E+04  0.22699504275E+04  0.25500000920E-02 0. -1.
       -2   -1    0    0    0  501  0.00000000000E+00  0.00000000000E+00 -0.14322331525E+04  0.14322331525E+04  0.25500000920E-02 0.  1.
    10030    2    1    2    0    0  0.00000000000E+00  0.00000000000E+00  0.83771727507E+03  0.37021835800E+04  0.36061604273E+04 0.  0.
        1    1    3    3  502    0 -0.11493278932E+04  0.13776924651E+04  0.60281448543E+03  0.18927166820E+04  0.50400001928E-02 0. -1.
       -1    1    3    3    0  502  0.11493278932E+04 -0.13776924651E+04  0.23490278964E+03  0.18094668980E+04  0.50400001928E-02 0.  1.
</event>
<event>
 5   0  0.2086250E-07  0.3585856E+04  0.7818609E-02  0.8093739E-01
        1   -1    0    0  501    0  0.00000000000E+00  0.00000000000E+00  0.17274732011E+04  0.17274732011E+04  0.50400001928E-02 0.  1.
       -1   -1    0    0    0  501  0.00000000000E+00  0.00000000000E+00 -0.18608627533E+04  0.18608627533E+04  0.50400001928E-02 0. -1.
    10030    2    1    2    0    0  0.00000000000E+00  0.00000000000E+00 -0.13338955218E+03  0.35883359545E+04  0.35858558462E+04 0.  0.
        3    1    3    3  502    0  0.13329569219E+04  0.83077659664E+03  0.79855729533E+03  0.17620038801E+04  0.10100000352E+00 0. -1.
       -3    1    3    3    0  502 -0.13329569219E+04 -0.83077659664E+03 -0.93194684751E+03  0.18263320744E+04  0.10100000352E+00 0.  1.
</event>
<event>
 5   0  0.6669864E-07  0.3498277E+04  0.7818609E-02  0.8114198E-01
       -2   -1    0    0    0  501  0.00000000000E+00  0.00000000000E+00  0.15083092858E+04  0.15083092858E+04  0.25500000920E-02 0. -1.
        2   -1    0    0  501    0  0.00000000000E+00  0.00000000000E+00 -0.20284206809E+04  0.20284206809E+04  0.25500000920E-02 0.  1.
    10030    2    1    2    0    0  0.00000000000E+00  0.00000000000E+00 -0.52011139506E+03  0.35367299667E+04  0.34982771466E+04 0.  0.
        5    1    3    3  502    0 -0.96513910802E+03 -0.19374295228E+03 -0.17217814613E+04  0.19833263271E+04  0.46999998093E+01 0.  1.
       -5    1    3    3    0  502  0.96513910802E+03  0.19374295228E+03  0.12016700663E+04  0.15534036396E+04  0.46999998093E+01 0. -1.
</event>
<event>
 5   0  0.6729577E-07  0.3516548E+04  0.7818609E-02  0.8109880E-01
        2   -1    0    0  501    0  0.00000000000E+00  0.00000000000E+00  0.26334025353E+04  0.26334025353E+04  0.25500000920E-02 0. -1.
       -2   -1    0    0    0  501  0.00000000000E+00  0.00000000000E+00 -0.11739667062E+04  0.11739667062E+04  0.25500000920E-02 0.  1.
    10030    2    1    2    0    0  0.00000000000E+00  0.00000000000E+00  0.14594358291E+04  0.38073692415E+04  0.35165476823E+04 0.  0.
        3    1    3    3  502    0  0.11080543069E+04 -0.14277225404E+02 -0.74829318339E+03  0.13371353277E+04  0.10100000352E+00 0.  1.
       -3    1    3    3    0  502 -0.11080543069E+04  0.14277225404E+02  0.22077290124E+04  0.24702339138E+04  0.10100000352E+00 0. -1.
</event>
<event>
 5   0  0.6729577E-07  0.3640156E+04  0.7818609E-02  0.8081355E-01
        2   -1    0    0  501    0  0.00000000000E+00  0.00000000000E+00  0.25212005935E+04  0.25212005935E+04  0.25500000920E-02 0. -1.
       -2   -1    0    0    0  501  0.00000000000E+00  0.00000000000E+00 -0.13139308154E+04  0.13139308154E+04  0.25500000920E-02 0.  1.
    10030    2    1    2    0    0  0.00000000000E+00  0.00000000000E+00  0.12072697780E+04  0.38351314089E+04  0.36401555745E+04 0.  0.
        3    1    3    3  502    0 -0.21709730088E+03  0.29095207061E+03 -0.12754016712E+04  0.13260594928E+04  0.10100000352E+00 0.  1.
       -3    1    3    3    0  502  0.21709730088E+03 -0.29095207061E+03  0.24826714492E+04  0.25090719161E+04  0.10100000352E+00 0. -1.
</event>
<event>
 5   0  0.2193129E-07  0.3597580E+04  0.7818609E-02  0.8091046E-01
       -1   -1    0    0    0  501  0.00000000000E+00  0.00000000000E+00  0.16024911669E+04  0.16024911669E+04  0.50400001928E-02 0.  1.
        1   -1    0    0  501    0  0.00000000000E+00  0.00000000000E+00 -0.20191345773E+04  0.20191345773E+04  0.50400001928E-02 0. -1.
    10030    2    1    2    0    0  0.00000000000E+00  0.00000000000E+00 -0.41664341040E+03  0.36216257442E+04  0.35975799226E+04 0.  0.
        1    1    3    3  502    0  0.23512214070E+03 -0.57754478858E+02 -0.20026569709E+04  0.20172389407E+04  0.50400001928E-02 0. -1.
       -1    1    3    3    0  502 -0.23512214070E+03  0.57754478858E+02  0.15860135605E+04  0.16043868034E+04  0.50400001928E-02 0.  1.
</event>
<event>
 5   0  0.2086250E-07  0.3543594E+04  0.7818609E-02  0.8103536E-01
       -1   -1    0    0    0  501  0.00000000000E+00  0.00000000000E+00  0.15540129276E+04  0.15540129276E+04  0.50400001928E-02 0.  1.
        1   -1    0    0  501    0  0.00000000000E+00  0.00000000000E+00 -0.20201024241E+04  0.20201024242E+04  0.50400001928E-02 0. -1.
    10030    2    1    2    0    0  0.00000000000E+00  0.00000000000E+00 -0.46608949651E+03  0.35741153518E+04  0.35435943799E+04 0.  0.
        4    1    3    3  502    0 -0.14183199316E+03 -0.13997124284E+04 -0.13193319385E+04  0.19287170796E+04  0.12699999809E+01 0. -1.
       -4    1    3    3    0  502  0.14183199316E+03  0.13997124284E+04  0.85324244196E+03  0.16453982722E+04  0.12699999809E+01 0.  1.
</event>
<event>
 5   0  0.2193129E-07  0.3551550E+04  0.7818609E-02  0.8101681E-01
        1   -1    0    0  501    0  0.00000000000E+00  0.00000000000E+00  0.11759558283E+04  0.11759558283E+04  0.50400001928E-02 0. -1.
       -1   -1    0    0    0  501  0.00000000000E+00  0.00000000000E+00 -0.26815429007E+04  0.26815429007E+04  0.50400001928E-02 0.  1.
    10030    2    1    2    0    0  0.00000000000E+00  0.00000000000E+00 -0.15055870724E+04  0.38574987290E+04  0.35515495226E+04 0.  0.
        1    1    3    3  502    0 -0.16435199218E+04 -0.66726199398E+03 -0.84353511252E+03  0.19641659268E+04  0.50400001928E-02 0.  1.
       -1    1    3    3    0  502  0.16435199218E+04  0.66726199398E+03 -0.66205195991E+03  0.18933328021E+04  0.50400001928E-02 0. -1.
</event>
<event>
 5   0  0.2086250E-07  0.3546057E+04  0.7818609E-02  0.8102961E-01
       -3   -1    0    0    0  501  0.00000000000E+00  0.00000000000E+00  0.21572879728E+04  0.21572879752E+04  0.10100000352E+00 0.  1.
        3   -1    0    0  501    0  0.00000000000E+00  0.00000000000E+00 -0.14572141224E+04  0.14572141259E+04  0.10100000352E+00 0. -1.
    10030    2    1    2    0    0  0.00000000000E+00  0.00000000000E+00  0.70007385042E+03  0.36145021010E+04  0.35460572531E+04 0.  0.
        5    1    3    3  502    0  0.95477810983E+03  0.14017622672E+04 -0.17672584175E+03  0.17052251481E+04  0.46999998093E+01 0.  1.
       -5    1    3    3    0  502 -0.95477810983E+03 -0.14017622672E+04  0.87679969217E+03  0.19092769529E+04  0.46999998093E+01 0. -1.
</event>
<event>
 5   0  0.2108068E-07  0.3118202E+04  0.7818609E-02  0.8210760E-01
       -1   -1    0    0    0  501  0.00000000000E+00  0.00000000000E+00  0.18864768499E+04  0.18864768499E+04  0.50400001928E-02 0. -1.
        1   -1    0    0  501    0  0.00000000000E+00  0.00000000000E+00 -0.12885372183E+04  0.12885372183E+04  0.50400001928E-02 0.  1.
    10030    2    1    2    0    0  0.00000000000E+00  0.00000000000E+00  0.59793963163E+03  0.31750140682E+04  0.31182018104E+04 0.  0.
        5    1    3    3  502    0 -0.34349710763E+03  0.10412157698E+04  0.14276114255E+04  0.18000602808E+04  0.46999998093E+01 0. -1.
       -5    1    3    3    0  502  0.34349710763E+03 -0.10412157698E+04 -0.82967179387E+03  0.13749537875E+04  0.46999998093E+01 0.  1.
</event>
<event>
 5   0  0.2086250E-07  0.3573383E+04  0.7818609E-02  0.8096616E-01
        1   -1    0    0  501    0  0.00000000000E+00  0.00000000000E+00  0.13445825467E+04  0.13445825468E+04  0.50400001928E-02 0.  1.
       -1   -1    0    0    0  501  0.00000000000E+00  0.00000000000E+00 -0.23741685874E+04  0.23741685874E+04  0.50400001928E-02 0. -1.
    10030    2    1    2    0    0  0.00000000000E+00  0.00000000000E+00 -0.10295860406E+04  0.37187511341E+04  0.35733825128E+04 0.  0.
        4    1    3    3  502    0 -0.96414686593E+03  0.79814911038E+03  0.81208248548E+03  0.14920123182E+04  0.12699999809E+01 0.  1.
       -4    1    3    3    0  502  0.96414686593E+03 -0.79814911038E+03 -0.18416685261E+04  0.22267388160E+04  0.12699999809E+01 0. -1.
</event>
<event>
 5   0  0.2086250E-07  0.3614027E+04  0.7818609E-02  0.8087286E-01
       -1   -1    0    0    0  501  0.00000000000E+00  0.00000000000E+00  0.22371856432E+04  0.22371856432E+04  0.50400001928E-02 0.  1.
        1   -1    0    0  501    0  0.00000000000E+00  0.00000000000E+00 -0.14595561799E+04  0.14595561799E+04  0.50400001928E-02 0. -1.
    10030    2    1    2    0    0  0.00000000000E+00  0.00000000000E+00  0.77762946327E+03  0.36967418231E+04  0.36140271893E+04 0.  0.
        2    1    3    3  502    0 -0.10047325784E+03  0.15599941839E+04 -0.53836424802E+03  0.16533338419E+04  0.25500000920E-02 0. -1.
       -2    1    3    3    0  502  0.10047325784E+03 -0.15599941839E+04  0.13159937113E+04  0.20434079812E+04  0.25500000920E-02 0.  1.
</event>
<event>
 5   0  0.6324216E-07  0.3607708E+04  0.7818609E-02  0.8088728E-01
        2   -1    0    0  501    0  0.00000000000E+00  0.00000000000E+00  0.28361309890E+04  0.28361309890E+04  0.25500000920E-02 0.  1.
       -2   -1    0    0    0  501  0.00000000000E+00  0.00000000000E+00 -0.11472985080E+04  0.11472985080E+04  0.25500000920E-02 0. -1.
    10030    2    1    2    0    0  0.00000000000E+00  0.00000000000E+00  0.16888324810E+04  0.39834294970E+04  0.36077077776E+04 0.  0.
        2    1    3    3  502    0  0.13838551806E+03  0.75324969722E+03 -0.95887571501E+03  0.12271830731E+04  0.25500000920E-02 0. -1.
       -2    1    3    3    0  502 -0.13838551806E+03 -0.75324969722E+03  0.26477081960E+04  0.27562464239E+04  0.25500000920E-02 0.  1.
</event>
<event>
 5   0  0.2108068E-07  0.3594088E+04  0.7818609E-02  0.8091847E-01
       -1   -1    0    0    0  501  0.00000000000E+00  0.00000000000E+00  0.15397169627E+04  0.15397169627E+04  0.50400001928E-02 0.  1.
        1   -1    0    0  501    0  0.00000000000E+00  0.00000000000E+00 -0.20973771767E+04  0.20973771767E+04  0.50400001928E-02 0. -1.
    10030    2    1    2    0    0  0.00000000000E+00  0.00000000000E+00 -0.55766021396E+03  0.36370941394E+04  0.35940880435E+04 0.  0.
        5    1    3    3  502    0 -0.16079271651E+04 -0.66201910552E+03 -0.73773853002E+03  0.18889095513E+04  0.46999998093E+01 0. -1.
       -5    1    3    3    0  502  0.16079271651E+04  0.66201910552E+03  0.18007831605E+03  0.17481845881E+04  0.46999998093E+01 0.  1.
</event>
<event>
 5   0  0.2086250E-07  0.3621658E+04  0.7818609E-02  0.8085549E-01
       -1   -1    0    0    0  501  0.00000000000E+00  0.00000000000E+00  0.23246837033E+04  0.23246837033E+04  0.50400001928E-02 0. -1.
        1   -1    0    0  501    0  0.00000000000E+00  0.00000000000E+00 -0.14105580005E+04  0.14105580005E+04  0.50400001928E-02 0.  1.
    10030    2    1    2    0    0  0.00000000000E+00  0.00000000000E+00  0.91412570280E+03  0.37352417039E+04  0.36216577400E+04 0.  0.
        3    1    3    3  502    0  0.16659498552E+04 -0.49205081316E+03 -0.70444762783E+02  0.17385239134E+04  0.10100000352E+00 0. -1.
       -3    1    3    3    0  502 -0.16659498552E+04  0.49205081316E+03  0.98457046558E+03  0.19967177904E+04  0.10100000352E+00 0.  1.
</event>
<event>
 5   0  0.6324216E-07  0.3608614E+04  0.7818609E-02  0.8088521E-01
        2   -1    0    0  501    0  0.00000000000E+00  0.00000000000E+00  0.20126682203E+04  0.20126682204E+04  0.25500000920E-02 0. -1.
       -2   -1    0    0    0  501  0.00000000000E+00  0.00000000000E+00 -0.16175162833E+04  0.16175162833E+04  0.25500000920E-02 0.  1.
    10030    2    1    2    0    0  0.00000000000E+00  0.00000000000E+00  0.39515193707E+03  0.36301845036E+04  0.36086139274E+04 0.  0.
        2    1    3    3  502    0 -0.19382620904E+03  0.85120929798E+03  0.17860644109E+04  0.19880019991E+04  0.25500000920E-02 0. -1.
       -2    1    3    3    0  502  0.19382620904E+03 -0.85120929798E+03 -0.13909124739E+04  0.16421825046E+04  0.25500000920E-02 0.  1.
</event>
<event>
 5   0  0.2086250E-07  0.3595446E+04  0.7818609E-02  0.8091536E-01
        1   -1    0    0  501    0  0.00000000000E+00  0.00000000000E+00  0.31462159658E+04  0.31462159658E+04  0.50400001928E-02 0. -1.
       -1   -1    0    0    0  501  0.00000000000E+00  0.00000000000E+00 -0.10272047569E+04  0.10272047570E+04  0.50400001928E-02 0.  1.
    10030    2    1    2    0    0  0.00000000000E+00  0.00000000000E+00  0.21190112088E+04  0.41734207227E+04  0.35954460121E+04 0.  0.
        2    1    3    3  502    0  0.92270430041E+03 -0.12069682966E+04  0.21750674624E+04  0.26531253572E+04  0.25500000920E-02 0. -1.
       -2    1    3    3    0  502 -0.92270430041E+03  0.12069682966E+04 -0.56056253607E+02  0.15202953655E+04  0.25500000920E-02 0.  1.
</event>
<event>
 5   0  0.2108068E-07  0.3591529E+04  0.7818609E-02  0.8092435E-01
       -1   -1    0    0    0  501  0.00000000000E+00  0.00000000000E+00  0.15364475689E+04  0.15364475689E+04  0.50400001928E-02 0. -1.
        1   -1    0    0  501    0  0.00000000000E+00  0.00000000000E+00 -0.20988477235E+04  0.20988477235E+04  0.50400001928E-02 0.  1.
    10030    2    1    2    0    0  0.00000000000E+00  0.00000000000E+00 -0.56240015459E+03  0.36352952924E+04  0.35915286341E+04 0.  0.
        5    1    3    3  502    0 -0.12503747506E+04 -0.12815984743E+04 -0.42004207442E+03  0.18391272660E+04  0.46999998093E+01 0.  1.
       -5    1    3    3    0  502  0.12503747506E+04  0.12815984743E+04 -0.14235808017E+03  0.17961680264E+04  0.46999998093E+01 0. -1.
</event>
<event>
 5   0  0.6848661E-07  0.3586308E+04  0.7818609E-02  0.8093635E-01
       -2   -1    0    0    0  501  0.00000000000E+00  0.00000000000E+00  0.19680743109E+04  0.19680743109E+04  0.25500000920E-02 0. -1.
        2   -1    0    0  501    0  0.00000000000E+00  0.00000000000E+00 -0.16337801194E+04  0.16337801194E+04  0.25500000920E-02 0.  1.
    10030    2    1    2    0    0  0.00000000000E+00  0.00000000000E+00  0.33429419145E+03  0.36018544303E+04  0.35863076737E+04 0.  0.
        1    1    3    3  502    0  0.27631358745E+03  0.34068494311E+03  0.19133577174E+04  0.19629959715E+04  0.50400001928E-02 0. -1.
       -1    1    3    3    0  502 -0.27631358745E+03 -0.34068494311E+03 -0.15790635260E+04  0.16388584589E+04  0.50400001928E-02 0.  1.
</event>
<event>
 5   0  0.6324216E-07  0.3619389E+04  0.7818609E-02  0.8086065E-01
       -2   -1    0    0    0  501  0.00000000000E+00  0.00000000000E+00  0.18644859335E+04  0.18644859335E+04  0.25500000920E-02 0. -1.
        2   -1    0    0  501    0  0.00000000000E+00  0.00000000000E+00 -0.17565132119E+04  0.17565132119E+04  0.25500000920E-02 0.  1.
    10030    2    1    2    0    0  0.00000000000E+00  0.00000000000E+00  0.10797272154E+03  0.36209991454E+04  0.36193889957E+04 0.  0.
        2    1    3    3  502    0  0.34516471553E+03 -0.17748212924E+04  0.13060290103E+03  0.18127841621E+04  0.25500000920E-02 0. -1.
       -2    1    3    3    0  502 -0.34516471553E+03  0.17748212924E+04 -0.22630179484E+02  0.18082149833E+04  0.25500000920E-02 0.  1.
</event>
<event>
 5   0  0.6541476E-07  0.3606030E+04  0.7818609E-02  0.8089112E-01
       -2   -1    0    0    0  501  0.00000000000E+00  0.00000000000E+00  0.16979331633E+04  0.16979331633E+04  0.25500000920E-02 0.  1.
        2   -1    0    0  501    0  0.00000000000E+00  0.00000000000E+00 -0.19145998096E+04  0.19145998096E+04  0.25500000920E-02 0. -1.
    10030    2    1    2    0    0  0.00000000000E+00  0.00000000000E+00 -0.21666664629E+03  0.36125329730E+04  0.36060296789E+04 0.  0.
        4    1    3    3  502    0  0.17528435015E+04 -0.27877781502E+03 -0.42621218413E+03  0.18253317095E+04  0.12699999809E+01 0. -1.
       -4    1    3    3    0  502 -0.17528435015E+04  0.27877781502E+03  0.20954553783E+03  0.17872012635E+04  0.12699999809E+01 0.  1.
</event>
<event>
 5   0  0.6669864E-07  0.3592429E+04  0.7818609E-02  0.8092228E-01
        2   -1    0    0  501    0  0.00000000000E+00  0.00000000000E+00  0.17021222622E+04  0.17021222622E+04  0.25500000920E-02 0. -1.
       -2   -1    0    0    0  501  0.00000000000E+00  0.00000000000E+00 -0.18955082603E+04  0.18955082603E+04  0.25500000920E-02 0.  1.
    10030    2    1    2    0    0  0.00000000000E+00  0.00000000000E+00 -0.19338599802E+03  0.35976305225E+04  0.35924291548E+04 0.  0.
        5    1    3    3  502    0  0.56844579736E+03  0.16879520552E+04 -0.32952037362E+03  0.18113305971E+04  0.46999998093E+01 0. -1.
       -5    1    3    3    0  502 -0.56844579736E+03 -0.16879520552E+04  0.13613437560E+03  0.17862999254E+04  0.46999998093E+01 0.  1.
</event>
<event>
 5   0  0.6541476E-07  0.3520501E+04  0.7818609E-02  0.8108949E-01
        2   -1    0    0  501    0  0.00000000000E+00  0.00000000000E+00  0.24710814700E+04  0.24710814700E+04  0.25500000920E-02 0. -1.
       -2   -1    0    0    0  501  0.00000000000E+00  0.00000000000E+00 -0.12538969751E+04  0.12538969751E+04  0.25500000920E-02 0.  1.
    10030    2    1    2    0    0  0.00000000000E+00  0.00000000000E+00  0.12171844949E+04  0.37249784451E+04  0.35205008624E+04 0.  0.
        4    1    3    3  502    0  0.37843909330E+03 -0.27413827334E+02 -0.12101125413E+04  0.12682041006E+04  0.12699999809E+01 0.  1.
       -4    1    3    3    0  502 -0.37843909330E+03  0.27413827334E+02  0.24272970361E+04  0.24567743445E+04  0.12699999809E+01 0. -1.
</event>
<event>
 5   0  0.6848661E-07  0.3482153E+04  0.7818609E-02  0.8118033E-01
        2   -1    0    0  501    0  0.00000000000E+00  0.00000000000E+00  0.29282745571E+04  0.29282745571E+04  0.25500000920E-02 0.  1.
       -2   -1    0    0    0  501  0.00000000000E+00  0.00000000000E+00 -0.10351990680E+04  0.10351990680E+04  0.25500000920E-02 0. -1.
    10030    2    1    2    0    0  0.00000000000E+00  0.00000000000E+00  0.18930754890E+04  0.39634736251E+04  0.34821528355E+04 0.  0.
        1    1    3    3  502    0 -0.16294277886E+04 -0.52647425593E+02  0.25087788201E+03  0.16494685149E+04  0.50400001928E-02 0. -1.
       -1    1    3    3    0  502  0.16294277886E+04  0.52647425593E+02  0.16421976070E+04  0.23140051103E+04  0.50400001928E-02 0.  1.
</event>
<event>
 5   0  0.2086250E-07  0.3589275E+04  0.7818609E-02  0.8092953E-01
        1   -1    0    0  501    0  0.00000000000E+00  0.00000000000E+00  0.22198291931E+04  0.22198291931E+04  0.50400001928E-02 0.  1.
       -1   -1    0    0    0  501  0.00000000000E+00  0.00000000000E+00 -0.14508880442E+04  0.14508880442E+04  0.50400001928E-02 0. -1.
    10030    2    1    2    0    0  0.00000000000E+00  0.00000000000E+00  0.76894114896E+03  0.36707172373E+04  0.35892749332E+04 0.  0.
        4    1    3    3  502    0 -0.12795919041E+04  0.65399429715E+03 -0.71493738836E+03  0.16050548476E+04  0.12699999809E+01 0. -1.
       -4    1    3    3    0  502  0.12795919041E+04 -0.65399429715E+03  0.14838785373E+04  0.20656623897E+04  0.12699999809E+01 0.  1.
</event>
<event>
 5   0  0.6324216E-07  0.3628330E+04  0.7818609E-02  0.8084033E-01
        2   -1    0    0  501    0  0.00000000000E+00  0.00000000000E+00  0.21433583318E+04  0.21433583318E+04  0.25500000920E-02 0. -1.
       -2   -1    0    0    0  501  0.00000000000E+00  0.00000000000E+00 -0.15355318776E+04  0.15355318777E+04  0.25500000920E-02 0.  1.
    10030    2    1    2    0    0  0.00000000000E+00  0.00000000000E+00  0.60782645414E+03  0.36788902094E+04  0.36283302185E+04 0.  0.
        2    1    3    3  502    0  0.12636032223E+04  0.12866572205E+04  0.50418815816E+03  0.18725345405E+04  0.25500000920E-02 0. -1.
       -2    1    3    3    0  502 -0.12636032223E+04 -0.12866572205E+04  0.10363829598E+03  0.18063556690E+04  0.25500000920E-02 0.  1.
</event>
<event>
 5   0  0.6729577E-07  0.3573721E+04  0.7818609E-02  0.8096538E-01
        2   -1    0    0  501    0  0.00000000000E+00  0.00000000000E+00  0.16851918270E+04  0.16851918270E+04  0.25500000920E-02 0.  1.
       -2   -1    0    0    0  501  0.00000000000E+00  0.00000000000E+00 -0.18946627032E+04  0.18946627032E+04  0.25500000920E-02 0. -1.
    10030    2    1    2    0    0  0.00000000000E+00  0.00000000000E+00 -0.20947087624E+03  0.35798545302E+04  0.35737208074E+04 0.  0.
        3    1    3    3  502    0  0.12471748543E+04  0.11129122857E+04  0.52789519945E+03  0.17529096453E+04  0.10100000352E+00 0.  1.
       -3    1    3    3    0  502 -0.12471748543E+04 -0.11129122857E+04 -0.73736607569E+03  0.18269448849E+04  0.10100000352E+00 0. -1.
</event>
<event>
 5   0  0.2086250E-07  0.3621673E+04  0.7818609E-02  0.8085545E-01
        4   -1    0    0  501    0  0.00000000000E+00  0.00000000000E+00  0.18611798788E+04  0.18611803121E+04  0.12699999809E+01 0. -1.
       -4   -1    0    0    0  501  0.00000000000E+00  0.00000000000E+00 -0.17618541289E+04  0.17618545866E+04  0.12699999809E+01 0.  1.
    10030    2    1    2    0    0  0.00000000000E+00  0.00000000000E+00  0.99325749918E+02  0.36230348987E+04  0.36216731316E+04 0.  0.
        3    1    3    3  502    0  0.15019592932E+04  0.92493439744E+03 -0.36005638066E+03  0.18002849679E+04  0.10100000352E+00 0.  1.
       -3    1    3    3    0  502 -0.15019592932E+04 -0.92493439744E+03  0.45938213057E+03  0.18227499308E+04  0.10100000352E+00 0. -1.
</event>
<event>
 5   0  0.6848661E-07  0.3377281E+04  0.7818609E-02  0.8143505E-01
       -2   -1    0    0    0  501  0.00000000000E+00  0.00000000000E+00  0.14980459659E+04  0.14980459659E+04  0.25500000920E-02 0.  1.
        2   -1    0    0  501    0  0.00000000000E+00  0.00000000000E+00 -0.19034843572E+04  0.19034843572E+04  0.25500000920E-02 0. -1.
    10030    2    1    2    0    0  0.00000000000E+00  0.00000000000E+00 -0.40543839129E+03  0.34015303231E+04  0.33772811920E+04 0.  0.
        1    1    3    3  502    0  0.12473177406E+04  0.10297761194E+04 -0.69124478692E+03  0.17589939618E+04  0.50400001928E-02 0. -1.
       -1    1    3    3    0  502 -0.12473177406E+04 -0.10297761194E+04  0.28580639563E+03  0.16425363613E+04  0.50400001928E-02 0.  1.
</event>
<event>
 5   0  0.2193129E-07  0.3635230E+04  0.7818609E-02  0.8082469E-01
        1   -1    0    0  501    0  0.00000000000E+00  0.00000000000E+00  0.29846138808E+04  0.29846138808E+04  0.50400001928E-02 0. -1.
       -1   -1    0    0    0  501  0.00000000000E+00  0.00000000000E+00 -0.11069182404E+04  0.11069182404E+04  0.50400001928E-02 0.  1.
    10030    2    1    2    0    0  0.00000000000E+00  0.00000000000E+00  0.18776956404E+04  0.40915321213E+04  0.36352295913E+04 0.  0.
        1    1    3    3  502    0  0.12115697709E+04  0.10097313417E+04 -0.78032092894E+02  0.15790971153E+04  0.50400001928E-02 0.  1.
       -1    1    3    3    0  502 -0.12115697709E+04 -0.10097313417E+04  0.19557277333E+04  0.25124350059E+04  0.50400001928E-02 0. -1.
</event>
<event>
 5   0  0.6324216E-07  0.3606286E+04  0.7818609E-02  0.8089053E-01
       -2   -1    0    0    0  501  0.00000000000E+00  0.00000000000E+00  0.14148634774E+04  0.14148634774E+04  0.25500000920E-02 0. -1.
        2   -1    0    0  501    0  0.00000000000E+00  0.00000000000E+00 -0.22979772114E+04  0.22979772114E+04  0.25500000920E-02 0.  1.
    10030    2    1    2    0    0  0.00000000000E+00  0.00000000000E+00 -0.88311373399E+03  0.37128406888E+04  0.36062856394E+04 0.  0.
        2    1    3    3  502    0 -0.13066322825E+03 -0.74250391497E+03  0.12448082051E+04  0.14553117915E+04  0.25500000920E-02 0. -1.
       -2    1    3    3    0  502  0.13066322825E+03  0.74250391497E+03 -0.21279219391E+04  0.22575288973E+04  0.25500000920E-02 0.  1.
</event>
<event>
 5   0  0.2108068E-07  0.3646342E+04  0.7818609E-02  0.8079958E-01
        1   -1    0    0  501    0  0.00000000000E+00  0.00000000000E+00  0.14157646852E+04  0.14157646852E+04  0.50400001928E-02 0.  1.
       -1   -1    0    0    0  501  0.00000000000E+00  0.00000000000E+00 -0.23478140149E+04  0.23478140149E+04  0.50400001928E-02 0. -1.
    10030    2    1    2    0    0  0.00000000000E+00  0.00000000000E+00 -0.93204932967E+03  0.37635787002E+04  0.36463418215E+04 0.  0.
        5    1    3    3  502    0  0.64270853332E+03  0.11228462177E+04 -0.17918768116E+04  0.22101363047E+04  0.46999998093E+01 0. -1.
       -5    1    3    3    0  502 -0.64270853332E+03 -0.11228462177E+04  0.85982748195E+03  0.15534423955E+04  0.46999998093E+01 0.  1.
</event>
<event>
 5   0  0.6669864E-07  0.3636847E+04  0.7818609E-02  0.8082103E-01
        2   -1    0    0  501    0  0.00000000000E+00  0.00000000000E+00  0.12230805794E+04  0.12230805794E+04  0.25500000920E-02 0. -1.
       -2   -1    0    0    0  501  0.00000000000E+00  0.00000000000E+00 -0.27035536653E+04  0.27035536653E+04  0.25500000920E-02 0.  1.
    10030    2    1    2    0    0  0.00000000000E+00  0.00000000000E+00 -0.14804730860E+04  0.39266342447E+04  0.36368469769E+04 0.  0.
        5    1    3    3  502    0  0.11486593011E+04 -0.14032616413E+04 -0.88541436356E+03  0.20180540402E+04  0.46999998093E+01 0.  1.
       -5    1    3    3    0  502 -0.11486593011E+04  0.14032616413E+04 -0.59505872241E+03  0.19085802045E+04  0.46999998093E+01 0. -1.
</event>
<event>
 5   0  0.2086250E-07  0.3587303E+04  0.7818609E-02  0.8093406E-01
       -1   -1    0    0    0  501  0.00000000000E+00  0.00000000000E+00  0.18287712028E+04  0.18287712028E+04  0.50400001928E-02 0. -1.
        1   -1    0    0  501    0  0.00000000000E+00  0.00000000000E+00 -0.17592066707E+04  0.17592066708E+04  0.50400001928E-02 0.  1.
    10030    2    1    2    0    0  0.00000000000E+00  0.00000000000E+00  0.69564532038E+02  0.35879778735E+04  0.35873034437E+04 0.  0.
        4    1    3    3  502    0 -0.13754186416E+03 -0.83574558765E+03  0.16161539712E+04  0.18246489315E+04  0.12699999809E+01 0. -1.
       -4    1    3    3    0  502  0.13754186416E+03  0.83574558765E+03 -0.15465894392E+04  0.17633289421E+04  0.12699999809E+01 0.  1.
</event>
<event>
 5   0  0.6541476E-07  0.3606996E+04  0.7818609E-02  0.8088891E-01
        2   -1    0    0  501    0  0.00000000000E+00  0.00000000000E+00  0.16338806155E+04  0.16338806155E+04  0.25500000920E-02 0. -1.
       -2   -1    0    0    0  501  0.00000000000E+00  0.00000000000E+00 -0.19907242801E+04  0.19907242801E+04  0.25500000920E-02 0.  1.
    10030    2    1    2    0    0  0.00000000000E+00  0.00000000000E+00 -0.35684366466E+03  0.36246048956E+04  0.36069964303E+04 0.  0.
        4    1    3    3  502    0 -0.10485914595E+03  0.41039719028E+02 -0.19871879129E+04  0.19903761235E+04  0.12699999809E+01 0.  1.
       -4    1    3    3    0  502  0.10485914595E+03 -0.41039719028E+02  0.16303442482E+04  0.16342287721E+04  0.12699999809E+01 0. -1.
</event>
<event>
 5   0  0.2193129E-07  0.3521999E+04  0.7818609E-02  0.8108596E-01
        1   -1    0    0  501    0  0.00000000000E+00  0.00000000000E+00  0.28910772691E+04  0.28910772691E+04  0.50400001928E-02 0.  1.
       -1   -1    0    0    0  501  0.00000000000E+00  0.00000000000E+00 -0.10726519238E+04  0.10726519238E+04  0.50400001928E-02 0. -1.
    10030    2    1    2    0    0  0.00000000000E+00  0.00000000000E+00  0.18184253453E+04  0.39637291929E+04  0.35219992019E+04 0.  0.
        1    1    3    3  502    0 -0.27408200500E+03 -0.60444498304E+03  0.27449400332E+04  0.28240344312E+04  0.50400001928E-02 0.  1.
       -1    1    3    3    0  502  0.27408200500E+03  0.60444498304E+03 -0.92651468785E+03  0.11396947617E+04  0.50400001928E-02 0. -1.
</event>
<event>
 5   0  0.6848661E-07  0.3629010E+04  0.7818609E-02  0.8083879E-01
        2   -1    0    0  501    0  0.00000000000E+00  0.00000000000E+00  0.16665434193E+04  0.16665434193E+04  0.25500000920E-02 0.  1.
       -2   -1    0    0    0  501  0.00000000000E+00  0.00000000000E+00 -0.19756035839E+04  0.19756035839E+04  0.25500000920E-02 0. -1.
    10030    2    1    2    0    0  0.00000000000E+00  0.00000000000E+00 -0.30906016463E+03  0.36421470032E+04  0.36290104171E+04 0.  0.
        1    1    3    3  502    0  0.33590913843E+03  0.61080956398E+03  0.15267970986E+04  0.16784018151E+04  0.50400001928E-02 0.  1.
       -1    1    3    3    0  502 -0.33590913843E+03 -0.61080956398E+03 -0.18358572632E+04  0.19637451881E+04  0.50400001928E-02 0. -1.
</event>
<event>
 5   0  0.2086250E-07  0.3558408E+04  0.7818609E-02  0.8100086E-01
       -1   -1    0    0    0  501  0.00000000000E+00  0.00000000000E+00  0.15416582164E+04  0.15416582165E+04  0.50400001928E-02 0.  1.
        1   -1    0    0  501    0  0.00000000000E+00  0.00000000000E+00 -0.20533515557E+04  0.20533515557E+04  0.50400001928E-02 0. -1.
    10030    2    1    2    0    0  0.00000000000E+00  0.00000000000E+00 -0.51169333924E+03  0.35950097721E+04  0.35584076760E+04 0.  0.
        4    1    3    3  502    0 -0.17337238665E+04  0.36742531655E+03 -0.41483397543E+03  0.18201342391E+04  0.12699999809E+01 0. -1.
       -4    1    3    3    0  502  0.17337238665E+04 -0.36742531655E+03 -0.96859363809E+02  0.17748755330E+04  0.12699999809E+01 0.  1.
</event>
<event>
 5   0  0.6729577E-07  0.3592179E+04  0.7818609E-02  0.8092286E-01
       -2   -1    0    0    0  501  0.00000000000E+00  0.00000000000E+00  0.13218711697E+04  0.13218711697E+04  0.25500000920E-02 0. -1.
        2   -1    0    0  501    0  0.00000000000E+00  0.00000000000E+00 -0.24404326869E+04  0.24404326869E+04  0.25500000920E-02 0.  1.
    10030    2    1    2    0    0  0.00000000000E+00  0.00000000000E+00 -0.11185615172E+04  0.37623038566E+04  0.35921790659E+04 0.  0.
        3    1    3    3  502    0  0.73076641154E+03 -0.11402674921E+04  0.67629667373E+03  0.15138053715E+04  0.10100000352E+00 0. -1.
       -3    1    3    3    0  502 -0.73076641154E+03  0.11402674921E+04 -0.17948581910E+04  0.22484984851E+04  0.10100000352E+00 0.  1.
</event>
<event>
 5   0  0.2086250E-07  0.3796767E+04  0.7818609E-02  0.8046849E-01
        1   -1    0    0  501    0  0.00000000000E+00  0.00000000000E+00  0.21346166139E+04  0.21346166139E+04  0.50400001928E-02 0. -1.
       -1   -1    0    0    0  501  0.00000000000E+00  0.00000000000E+00 -0.16882940913E+04  0.16882940913E+04  0.50400001928E-02 0.  1.
    10030    2    1    2    0    0  0.00000000000E+00  0.00000000000E+00  0.44632252265E+03  0.38229107052E+04  0.37967673705E+04 0.  0.
        3    1    3    3  502    0 -0.96875993231E+01  0.23788995178E+03  0.21195242940E+04  0.21328545947E+04  0.10100000352E+00 0. -1.
       -3    1    3    3    0  502  0.96875993231E+01 -0.23788995178E+03 -0.16732017714E+04  0.16900561105E+04  0.10100000352E+00 0.  1.
</event>
<event>
 5   0  0.6848661E-07  0.3598652E+04  0.7818609E-02  0.8090801E-01
        2   -1    0    0  501    0  0.00000000000E+00  0.00000000000E+00  0.17060283782E+04  0.17060283782E+04  0.25500000920E-02 0. -1.
       -2   -1    0    0    0  501  0.00000000000E+00  0.00000000000E+00 -0.18977254606E+04  0.18977254606E+04  0.25500000920E-02 0.  1.
    10030    2    1    2    0    0  0.00000000000E+00  0.00000000000E+00 -0.19169708236E+03  0.36037538388E+04  0.35986516863E+04 0.  0.
        1    1    3    3  502    0 -0.87334895515E+03  0.20372410536E+03 -0.16579741463E+04  0.18849721957E+04  0.50400001928E-02 0.  1.
       -1    1    3    3    0  502  0.87334895515E+03 -0.20372410536E+03  0.14662770640E+04  0.17187816432E+04  0.50400001928E-02 0. -1.
</event>
<event>
 5   0  0.2086250E-07  0.3301557E+04  0.7818609E-02  0.8162499E-01
       -1   -1    0    0    0  501  0.00000000000E+00  0.00000000000E+00  0.15233084863E+04  0.15233084863E+04  0.50400001928E-02 0. -1.
        1   -1    0    0  501    0  0.00000000000E+00  0.00000000000E+00 -0.17889151893E+04  0.17889151893E+04  0.50400001928E-02 0.  1.
    10030    2    1    2    0    0  0.00000000000E+00  0.00000000000E+00 -0.26560670297E+03  0.33122236756E+04  0.33015570201E+04 0.  0.
        4    1    3    3  502    0 -0.14030836461E+04  0.11144681964E+03 -0.99814674003E+03  0.17255035900E+04  0.12699999809E+01 0.  1.
       -4    1    3    3    0  502  0.14030836461E+04 -0.11144681964E+03  0.73254003706E+03  0.15867200857E+04  0.12699999809E+01 0. -1.
</event>
<event>
 5   0  0.6729577E-07  0.3567040E+04  0.7818609E-02  0.8098084E-01
       -2   -1    0    0    0  501  0.00000000000E+00  0.00000000000E+00  0.16619424258E+04  0.16619424258E+04  0.25500000920E-02 0. -1.
        2   -1    0    0  501    0  0.00000000000E+00  0.00000000000E+00 -0.19139913785E+04  0.19139913785E+04  0.25500000920E-02 0.  1.
    10030    2    1    2    0    0  0.00000000000E+00  0.00000000000E+00 -0.25204895272E+03  0.35759338043E+04  0.35670399350E+04 0.  0.
        3    1    3    3  502    0 -0.17772753909E+04 -0.14900083120E+03 -0.12014457734E+03  0.17875524587E+04  0.10100000352E+00 0.  1.
       -3    1    3    3    0  502  0.17772753909E+04  0.14900083120E+03 -0.13190437538E+03  0.17883813456E+04  0.10100000352E+00 0. -1.
</event>
<event>
 5   0  0.2086250E-07  0.3593619E+04  0.7818609E-02  0.8091955E-01
       -1   -1    0    0    0  501  0.00000000000E+00  0.00000000000E+00  0.21110390875E+04  0.21110390875E+04  0.50400001928E-02 0.  1.
        1   -1    0    0  501    0  0.00000000000E+00  0.00000000000E+00 -0.15293529241E+04  0.15293529241E+04  0.50400001928E-02 0. -1.
    10030    2    1    2    0    0  0.00000000000E+00  0.00000000000E+00  0.58168616336E+03  0.36403920116E+04  0.35936186783E+04 0.  0.
        4    1    3    3  502    0 -0.87780551454E+03  0.11194182313E+04  0.14028013983E+04  0.19978721365E+04  0.12699999809E+01 0.  1.
       -4    1    3    3    0  502  0.87780551454E+03 -0.11194182313E+04 -0.82111523498E+03  0.16425198750E+04  0.12699999809E+01 0. -1.
</event>
<event>
 5   0  0.2086250E-07  0.3561978E+04  0.7818609E-02  0.8099257E-01
       -3   -1    0    0    0  501  0.00000000000E+00  0.00000000000E+00  0.17056371174E+04  0.17056371204E+04  0.10100000352E+00 0. -1.
        3   -1    0    0  501    0  0.00000000000E+00  0.00000000000E+00 -0.18596694091E+04  0.18596694118E+04  0.10100000352E+00 0.  1.
    10030    2    1    2    0    0  0.00000000000E+00  0.00000000000E+00 -0.15403229173E+03  0.35653065322E+04  0.35619776419E+04 0.  0.
        5    1    3    3  502    0  0.43540484656E+03 -0.10155346907E+04  0.13210751920E+04  0.17222513874E+04  0.46999998093E+01 0. -1.
       -5    1    3    3    0  502 -0.43540484656E+03  0.10155346907E+04 -0.14751074837E+04  0.18430551448E+04  0.46999998093E+01 0.  1.
</event>
<event>
 5   0  0.2086250E-07  0.3508383E+04  0.7818609E-02  0.8111806E-01
        1   -1    0    0  501    0  0.00000000000E+00  0.00000000000E+00  0.13817766692E+04  0.13817766692E+04  0.50400001928E-02 0. -1.
       -1   -1    0    0    0  501  0.00000000000E+00  0.00000000000E+00 -0.22269793770E+04  0.22269793770E+04  0.50400001928E-02 0.  1.
    10030    2    1    2    0    0  0.00000000000E+00  0.00000000000E+00 -0.84520270782E+03  0.36087560463E+04  0.35083831866E+04 0.  0.
        4    1    3    3  502    0 -0.64747592661E+03 -0.41119764951E+03  0.12001512086E+04  0.14243149647E+04  0.12699999809E+01 0. -1.
       -4    1    3    3    0  502  0.64747592661E+03  0.41119764951E+03 -0.20453539164E+04  0.21844410815E+04  0.12699999809E+01 0.  1.
</event>
<event>
 5   0  0.2108068E-07  0.3689086E+04  0.7818609E-02  0.8070385E-01
       -1   -1    0    0    0  501  0.00000000000E+00  0.00000000000E+00  0.13507215703E+04  0.13507215703E+04  0.50400001928E-02 0.  1.
        1   -1    0    0  501    0  0.00000000000E+00  0.00000000000E+00 -0.25189044612E+04  0.25189044612E+04  0.50400001928E-02 0. -1.
    10030    2    1    2    0    0  0.00000000000E+00  0.00000000000E+00 -0.11681828909E+04  0.38696260315E+04  0.36890858430E+04 0.  0.
        5    1    3    3  502    0 -0.53387230664E+03 -0.77499964313E+03  0.10799478551E+04  0.14324641518E+04  0.46999998093E+01 0.  1.
       -5    1    3    3    0  502  0.53387230664E+03  0.77499964313E+03 -0.22481307459E+04  0.24371618796E+04  0.46999998093E+01 0. -1.
</event>
<event>
 5   0  0.6324216E-07  0.3616172E+04  0.7818609E-02  0.8086797E-01
        2   -1    0    0  501    0  0.00000000000E+00  0.00000000000E+00  0.21259855787E+04  0.21259855787E+04  0.25500000920E-02 0.  1.
       -2   -1    0    0    0  501  0.00000000000E+00  0.00000000000E+00 -0.15377218156E+04  0.15377218156E+04  0.25500000920E-02 0. -1.
    10030    2    1    2    0    0  0.00000000000E+00  0.00000000000E+00  0.58826376307E+03  0.36637073943E+04  0.36161716796E+04 0.  0.
        2    1    3    3  502    0  0.70679781942E+02  0.14257337828E+04 -0.83016819341E+03  0.16513302760E+04  0.25500000920E-02 0. -1.
       -2    1    3    3    0  502 -0.70679781942E+02 -0.14257337828E+04  0.14184319565E+04  0.20123771183E+04  0.25500000920E-02 0.  1.
</event>
<event>
 5   0  0.6541476E-07  0.2905834E+04  0.7818609E-02  0.8271144E-01
       -2   -1    0    0    0  501  0.00000000000E+00  0.00000000000E+00  0.18316976058E+04  0.18316976058E+04  0.25500000920E-02 0.  1.
        2   -1    0    0  501    0  0.00000000000E+00  0.00000000000E+00 -0.11524653850E+04  0.11524653850E+04  0.25500000920E-02 0. -1.
    10030    2    1    2    0    0  0.00000000000E+00  0.00000000000E+00  0.67923222080E+03  0.29841629908E+04  0.29058341910E+04 0.  0.
        4    1    3    3  502    0  0.53236460052E+03  0.13421051341E+04  0.50618634556E+03  0.15299949308E+04  0.12699999809E+01 0. -1.
       -4    1    3    3    0  502 -0.53236460052E+03 -0.13421051341E+04  0.17304587524E+03  0.14541680600E+04  0.12699999809E+01 0.  1.
</event>
<event>
 5   0  0.6669864E-07  0.3613951E+04  0.7818609E-02  0.8087304E-01
        2   -1    0    0  501    0  0.00000000000E+00  0.00000000000E+00  0.22338550324E+04  0.22338550324E+04  0.25500000920E-02 0. -1.
       -2   -1    0    0    0  501  0.00000000000E+00  0.00000000000E+00 -0.14616704253E+04  0.14616704253E+04  0.25500000920E-02 0.  1.
    10030    2    1    2    0    0  0.00000000000E+00  0.00000000000E+00  0.77218460701E+03  0.36955254577E+04  0.36139506556E+04 0.  0.
        5    1    3    3  502    0 -0.14088239734E+04  0.88623950718E+03 -0.33330180306E+03  0.16974444421E+04  0.46999998093E+01 0.  1.
       -5    1    3    3    0  502  0.14088239734E+04 -0.88623950718E+03  0.11054864101E+04  0.19980810156E+04  0.46999998093E+01 0. -1.
</event>
<event>
 5   0  0.6669864E-07  0.3601893E+04  0.7818609E-02  0.8090058E-01
       -2   -1    0    0    0  501  0.00000000000E+00  0.00000000000E+00  0.24500890882E+04  0.24500890882E+04  0.25500000920E-02 0.  1.
        2   -1    0    0  501    0  0.00000000000E+00  0.00000000000E+00 -0.13237918739E+04  0.13237918739E+04  0.25500000920E-02 0. -1.
    10030    2    1    2    0    0  0.00000000000E+00  0.00000000000E+00  0.11262972142E+04  0.37738809621E+04  0.36018928498E+04 0.  0.
        5    1    3    3  502    0  0.17151060514E+04 -0.47214664876E+03  0.85740526336E+03  0.19747600110E+04  0.46999998093E+01 0. -1.
       -5    1    3    3    0  502 -0.17151060514E+04  0.47214664876E+03  0.26889195086E+03  0.17991209511E+04  0.46999998093E+01 0.  1.
</event>
<event>
 5   0  0.2086250E-07  0.3634785E+04  0.7818609E-02  0.8082570E-01
        1   -1    0    0  501    0  0.00000000000E+00  0.00000000000E+00  0.23164164531E+04  0.23164164531E+04  0.50400001928E-02 0.  1.
       -1   -1    0    0    0  501  0.00000000000E+00  0.00000000000E+00 -0.14258731993E+04  0.14258731993E+04  0.50400001928E-02 0. -1.
    10030    2    1    2    0    0  0.00000000000E+00  0.00000000000E+00  0.89054325380E+03  0.37422896525E+04  0.36347853521E+04 0.  0.
        4    1    3    3  502    0  0.15391296111E+04 -0.91593294137E+03  0.76271097798E+03  0.19466850700E+04  0.12699999809E+01 0.  1.
       -4    1    3    3    0  502 -0.15391296111E+04  0.91593294137E+03  0.12783227582E+03  0.17956045825E+04  0.12699999809E+01 0. -1.
</event>
<event>
 5   0  0.2193129E-07  0.3623950E+04  0.7818609E-02  0.8085028E-01
        1   -1    0    0  501    0  0.00000000000E+00  0.00000000000E+00  0.25176275538E+04  0.25176275538E+04  0.50400001928E-02 0.  1.
       -1   -1    0    0    0  501  0.00000000000E+00  0.00000000000E+00 -0.13041060087E+04  0.13041060087E+04  0.50400001928E-02 0. -1.
    10030    2    1    2    0    0  0.00000000000E+00  0.00000000000E+00  0.12135215451E+04  0.38217335625E+04  0.36239499007E+04 0.  0.
        1    1    3    3  502    0  0.17590121793E+02 -0.47298604960E+03 -0.12377625221E+04  0.13251721687E+04  0.50400001928E-02 0. -1.
       -1    1    3    3    0  502 -0.17590121793E+02  0.47298604960E+03  0.24512840672E+04  0.24965613939E+04  0.50400001928E-02 0.  1.
</event>
<event>
 5   0  0.6729577E-07  0.3586798E+04  0.7818609E-02  0.8093522E-01
        2   -1    0    0  501    0  0.00000000000E+00  0.00000000000E+00  0.25159341471E+04  0.25159341471E+04  0.25500000920E-02 0.  1.
       -2   -1    0    0    0  501  0.00000000000E+00  0.00000000000E+00 -0.12783640801E+04  0.12783640801E+04  0.25500000920E-02 0. -1.
    10030    2    1    2    0    0  0.00000000000E+00  0.00000000000E+00  0.12375700670E+04  0.37942982272E+04  0.35867979266E+04 0.  0.
        3    1    3    3  502    0 -0.29819072567E+03  0.96374881029E+03 -0.94974471981E+03  0.13855484550E+04  0.10100000352E+00 0. -1.
       -3    1    3    3    0  502  0.29819072567E+03 -0.96374881029E+03  0.21873147868E+04  0.24087497722E+04  0.10100000352E+00 0.  1.
</event>
<event>
 5   0  0.6848661E-07  0.3555563E+04  0.7818609E-02  0.8100747E-01
       -2   -1    0    0    0  501  0.00000000000E+00  0.00000000000E+00  0.18034355087E+04  0.18034355087E+04  0.25500000920E-02 0. -1.
        2   -1    0    0  501    0  0.00000000000E+00  0.00000000000E+00 -0.17524926206E+04  0.17524926206E+04  0.25500000920E-02 0.  1.
    10030    2    1    2    0    0  0.00000000000E+00  0.00000000000E+00  0.50942888043E+02  0.35559281293E+04  0.35555632019E+04 0.  0.
        1    1    3    3  502    0  0.83474495675E+02  0.93714255157E+03  0.15340371024E+04  0.17995760570E+04  0.50400001928E-02 0. -1.
       -1    1    3    3    0  502 -0.83474495675E+02 -0.93714255157E+03 -0.14830942143E+04  0.17563520723E+04  0.50400001928E-02 0.  1.
</event>
<event>
 5   0  0.6669864E-07  0.3570588E+04  0.7818609E-02  0.8097262E-01
       -2   -1    0    0    0  501  0.00000000000E+00  0.00000000000E+00  0.14285791462E+04  0.14285791462E+04  0.25500000920E-02 0.  1.
        2   -1    0    0  501    0  0.00000000000E+00  0.00000000000E+00 -0.22310797159E+04  0.22310797159E+04  0.25500000920E-02 0. -1.
    10030    2    1    2    0    0  0.00000000000E+00  0.00000000000E+00 -0.80250056972E+03  0.36596588620E+04  0.35705876018E+04 0.  0.
        5    1    3    3  502    0  0.16257687795E+04 -0.20180552390E+03  0.32595746264E+03  0.16703652149E+04  0.46999998093E+01 0.  1.
       -5    1    3    3    0  502 -0.16257687795E+04  0.20180552390E+03 -0.11284580324E+04  0.19892936471E+04  0.46999998093E+01 0. -1.
</event>
<event>
 5   0  0.2086250E-07  0.3040352E+04  0.7818609E-02  0.8232301E-01
       -1   -1    0    0    0  501  0.00000000000E+00  0.00000000000E+00  0.22111371637E+04  0.22111371637E+04  0.50400001928E-02 0. -1.
        1   -1    0    0  501    0  0.00000000000E+00  0.00000000000E+00 -0.10451339842E+04  0.10451339842E+04  0.50400001928E-02 0.  1.
    10030    2    1    2    0    0  0.00000000000E+00  0.00000000000E+00  0.11660031795E+04  0.32562711479E+04  0.30403516859E+04 0.  0.
        3    1    3    3  502    0 -0.38244208576E+03  0.60106328657E+03  0.20212775999E+04  0.21431523906E+04  0.10100000352E+00 0. -1.
       -3    1    3    3    0  502  0.38244208576E+03 -0.60106328657E+03 -0.85527442040E+03  0.11131187573E+04  0.10100000352E+00 0.  1.
</event>
<event>
 5   0  0.6324216E-07  0.3615747E+04  0.7818609E-02  0.8086894E-01
        2   -1    0    0  501    0  0.00000000000E+00  0.00000000000E+00  0.19859225594E+04  0.19859225594E+04  0.25500000920E-02 0. -1.
       -2   -1    0    0    0  501  0.00000000000E+00  0.00000000000E+00 -0.16457876235E+04  0.16457876235E+04  0.25500000920E-02 0.  1.
    10030    2    1    2    0    0  0.00000000000E+00  0.00000000000E+00  0.34013493589E+03  0.36317101830E+04  0.36157470983E+04 0.  0.
        2    1    3    3  502    0 -0.12265767259E+04 -0.66721764007E+03 -0.98336512941E+03  0.17078281007E+04  0.25500000920E-02 0.  1.
       -2    1    3    3    0  502  0.12265767259E+04  0.66721764007E+03  0.13235000653E+04  0.19238820823E+04  0.25500000920E-02 0. -1.
</event>
<event>
 5   0  0.2193129E-07  0.3609237E+04  0.7818609E-02  0.8088379E-01
        1   -1    0    0  501    0  0.00000000000E+00  0.00000000000E+00  0.36104032109E+04  0.36104032110E+04  0.50400001928E-02 0.  1.
       -1   -1    0    0    0  501  0.00000000000E+00  0.00000000000E+00 -0.90201780352E+03  0.90201780353E+03  0.50400001928E-02 0. -1.
    10030    2    1    2    0    0  0.00000000000E+00  0.00000000000E+00  0.27083854074E+04  0.45124210145E+04  0.36092370242E+04 0.  0.
        1    1    3    3  502    0 -0.76497006075E+03 -0.10951526875E+04  0.28711181896E+04  0.31666793746E+04  0.50400001928E-02 0.  1.
       -1    1    3    3    0  502  0.76497006075E+03  0.10951526875E+04 -0.16273278217E+03  0.13457416399E+04  0.50400001928E-02 0. -1.
</event>
<event>
 5   0  0.6729577E-07  0.3617634E+04  0.7818609E-02  0.8086464E-01
       -2   -1    0    0    0  501  0.00000000000E+00  0.00000000000E+00  0.16914215255E+04  0.16914215255E+04  0.25500000920E-02 0.  1.
        2   -1    0    0  501    0  0.00000000000E+00  0.00000000000E+00 -0.19343607394E+04  0.19343607394E+04  0.25500000920E-02 0. -1.
    10030    2    1    2    0    0  0.00000000000E+00  0.00000000000E+00 -0.24293921387E+03  0.36257822649E+04  0.36176342505E+04 0.  0.
        3    1    3    3  502    0 -0.11353200627E+04  0.76871584547E+03  0.10609943080E+04  0.17336622012E+04  0.10100000352E+00 0.  1.
       -3    1    3    3    0  502  0.11353200627E+04 -0.76871584547E+03 -0.13039335219E+04  0.18921200637E+04  0.10100000352E+00 0. -1.
</event>
<event>
 5   0  0.6324216E-07  0.3608263E+04  0.7818609E-02  0.8088602E-01
       -2   -1    0    0    0  501  0.00000000000E+00  0.00000000000E+00  0.14964482473E+04  0.14964482473E+04  0.25500000920E-02 0. -1.
        2   -1    0    0  501    0  0.00000000000E+00  0.00000000000E+00 -0.21750768363E+04  0.21750768363E+04  0.25500000920E-02 0.  1.
    10030    2    1    2    0    0  0.00000000000E+00  0.00000000000E+00 -0.67862858896E+03  0.36715250836E+04  0.36082626953E+04 0.  0.
        2    1    3    3  502    0 -0.15098236714E+04 -0.95172635209E+03 -0.70987730676E+02  0.17861662370E+04  0.25500000920E-02 0. -1.
       -2    1    3    3    0  502  0.15098236714E+04  0.95172635209E+03 -0.60764085828E+03  0.18853588467E+04  0.25500000920E-02 0.  1.
</event>
<event>
 5   0  0.2086250E-07  0.3586363E+04  0.7818609E-02  0.8093623E-01
        1   -1    0    0  501    0  0.00000000000E+00  0.00000000000E+00  0.17362961992E+04  0.17362961992E+04  0.50400001928E-02 0. -1.
       -1   -1    0    0    0  501  0.00000000000E+00  0.00000000000E+00 -0.18519304715E+04  0.18519304715E+04  0.50400001928E-02 0.  1.
    10030    2    1    2    0    0  0.00000000000E+00  0.00000000000E+00 -0.11563427224E+03  0.35882266707E+04  0.35863629704E+04 0.  0.
        3    1    3    3  502    0 -0.10585383312E+04 -0.14453137083E+04  0.20099610840E+02  0.17916023885E+04  0.10100000352E+00 0. -1.
       -3    1    3    3    0  502  0.10585383312E+04  0.14453137083E+04 -0.13573388308E+03  0.17966242822E+04  0.10100000352E+00 0.  1.
</event>
<event>
 5   0  0.6669864E-07  0.3612688E+04  0.7818609E-02  0.8087592E-01
       -2   -1    0    0    0  501  0.00000000000E+00  0.00000000000E+00  0.22193087972E+04  0.22193087972E+04  0.25500000920E-02 0. -1.
        2   -1    0    0  501    0  0.00000000000E+00  0.00000000000E+00 -0.14702227290E+04  0.14702227290E+04  0.25500000920E-02 0.  1.
    10030    2    1    2    0    0  0.00000000000E+00  0.00000000000E+00  0.74908606826E+03  0.36895315262E+04  0.36126877730E+04 0.  0.
        5    1    3    3  502    0 -0.10149987294E+04  0.14403099174E+03 -0.11443333901E+04  0.15363880841E+04  0.46999998093E+01 0.  1.
       -5    1    3    3    0  502  0.10149987294E+04 -0.14403099174E+03  0.18934194584E+04  0.21531434421E+04  0.46999998093E+01 0. -1.
</event>
<event>
 5   0  0.6324216E-07  0.3620596E+04  0.7818609E-02  0.8085790E-01
        2   -1    0    0  501    0  0.00000000000E+00  0.00000000000E+00  0.32369472932E+04  0.32369472932E+04  0.25500000920E-02 0.  1.
       -2   -1    0    0    0  501  0.00000000000E+00  0.00000000000E+00 -0.10124289395E+04  0.10124289395E+04  0.25500000920E-02 0. -1.
    10030    2    1    2    0    0  0.00000000000E+00  0.00000000000E+00  0.22245183536E+04  0.42493762327E+04  0.36205961472E+04 0.  0.
        2    1    3    3  502    0 -0.15930194206E+04 -0.51536563681E+03  0.30433035044E+03  0.17017430994E+04  0.25500000920E-02 0.  1.
       -2    1    3    3    0  502  0.15930194206E+04  0.51536563681E+03  0.19201880032E+04  0.25476331333E+04  0.25500000920E-02 0. -1.
</event>
<event>
 5   0  0.6669864E-07  0.3596252E+04  0.7818609E-02  0.8091351E-01
       -2   -1    0    0    0  501  0.00000000000E+00  0.00000000000E+00  0.14115225012E+04  0.14115225012E+04  0.25500000920E-02 0.  1.
        2   -1    0    0  501    0  0.00000000000E+00  0.00000000000E+00 -0.22906173669E+04  0.22906173669E+04  0.25500000920E-02 0. -1.
    10030    2    1    2    0    0  0.00000000000E+00  0.00000000000E+00 -0.87909486568E+03  0.37021398681E+04  0.35962524690E+04 0.  0.
        5    1    3    3  502    0  0.13598861669E+04  0.20994612464E+03 -0.16311561556E+04  0.21340244273E+04  0.46999998093E+01 0. -1.
       -5    1    3    3    0  502 -0.13598861669E+04 -0.20994612464E+03  0.75206128996E+03  0.15681154409E+04  0.46999998093E+01 0.  1.
</event>
<event>
 5   0  0.2193129E-07  0.3460837E+04  0.7818609E-02  0.8123134E-01
       -1   -1    0    0    0  501  0.00000000000E+00  0.00000000000E+00  0.13377596205E+04  0.13377596205E+04  0.50400001928E-02 0.  1.
        1   -1    0    0  501    0  0.00000000000E+00  0.00000000000E+00 -0.22383300094E+04  0.22383300094E+04  0.50400001928E-02 0. -1.
    10030    2    1    2    0    0  0.00000000000E+00  0.00000000000E+00 -0.90057038891E+03  0.35760896299E+04  0.34608366063E+04 0.  0.
        1    1    3    3  502    0  0.93267054742E+03  0.85264558666E+03 -0.16717988815E+04  0.20956598834E+04  0.50400001928E-02 0. -1.
       -1    1    3    3    0  502 -0.93267054742E+03 -0.85264558666E+03  0.77122849262E+03  0.14804297465E+04  0.50400001928E-02 0.  1.
</event>
<event>
 5   0  0.6541476E-07  0.3626676E+04  0.7818609E-02  0.8084408E-01
       -2   -1    0    0    0  501  0.00000000000E+00  0.00000000000E+00  0.18937755318E+04  0.18937755318E+04  0.25500000920E-02 0.  1.
        2   -1    0    0  501    0  0.00000000000E+00  0.00000000000E+00 -0.17363170842E+04  0.17363170842E+04  0.25500000920E-02 0. -1.
    10030    2    1    2    0    0  0.00000000000E+00  0.00000000000E+00  0.15745844764E+03  0.36300926159E+04  0.36266760591E+04 0.  0.
        4    1    3    3  502    0 -0.95236639073E+03  0.21869492620E+03 -0.14502450747E+04  0.17487257082E+04  0.12699999809E+01 0. -1.
       -4    1    3    3    0  502  0.95236639073E+03 -0.21869492620E+03  0.16077035223E+04  0.18813669077E+04  0.12699999809E+01 0.  1.
</event>
<event>
 5   0  0.6729577E-07  0.3534333E+04  0.7818609E-02  0.8105701E-01
        2   -1    0    0  501    0  0.00000000000E+00  0.00000000000E+00  0.22928558531E+04  0.22928558531E+04  0.25500000920E-02 0.  1.
       -2   -1    0    0    0  501  0.00000000000E+00  0.00000000000E+00 -0.13620033304E+04  0.13620033304E+04  0.25500000920E-02 0. -1.
    10030    2    1    2    0    0  0.00000000000E+00  0.00000000000E+00  0.93085252263E+03  0.36548591835E+04  0.35343329261E+04 0.  0.
        3    1    3    3  502    0  0.13465118962E+04  0.71388702629E+03 -0.45958802969E+03  0.15918386037E+04  0.10100000352E+00 0. -1.
       -3    1    3    3    0  502 -0.13465118962E+04 -0.71388702629E+03  0.13904405523E+04  0.20630205798E+04  0.10100000352E+00 0.  1.
</event>
<event>
 5   0  0.6669864E-07  0.3505529E+04  0.7818609E-02  0.8112481E-01
        2   -1    0    0  501    0  0.00000000000E+00  0.00000000000E+00  0.12723962394E+04  0.12723962394E+04  0.25500000920E-02 0.  1.
       -2   -1    0    0    0  501  0.00000000000E+00  0.00000000000E+00 -0.24144857660E+04  0.24144857660E+04  0.25500000920E-02 0. -1.
    10030    2    1    2    0    0  0.00000000000E+00  0.00000000000E+00 -0.11420895266E+04  0.36868820055E+04  0.35055285529E+04 0.  0.
        5    1    3    3  502    0  0.14578047593E+04  0.68832617030E+03  0.15241712084E+03  0.16193334127E+04  0.46999998093E+01 0. -1.
       -5    1    3    3    0  502 -0.14578047593E+04 -0.68832617030E+03 -0.12945066475E+04  0.20675485927E+04  0.46999998093E+01 0.  1.
</event>
<event>
 5   0  0.6729577E-07  0.3629406E+04  0.7818609E-02  0.8083789E-01
       -2   -1    0    0    0  501  0.00000000000E+00  0.00000000000E+00  0.20858130352E+04  0.20858130352E+04  0.25500000920E-02 0. -1.
        2   -1    0    0  501    0  0.00000000000E+00  0.00000000000E+00 -0.15788309527E+04  0.15788309527E+04  0.25500000920E-02 0.  1.
    10030    2    1    2    0    0  0.00000000000E+00  0.00000000000E+00  0.50698208249E+03  0.36646439879E+04  0.36294055610E+04 0.  0.
        3    1    3    3  502    0  0.16665418382E+04  0.70905097487E+03  0.13822847234E+03  0.18163760911E+04  0.10100000352E+00 0.  1.
       -3    1    3    3    0  502 -0.16665418382E+04 -0.70905097487E+03  0.36875361015E+03  0.18482678969E+04  0.10100000352E+00 0. -1.
</event>
<event>
 5   0  0.2086250E-07  0.3742322E+04  0.7818609E-02  0.8058647E-01
        1   -1    0    0  501    0  0.00000000000E+00  0.00000000000E+00  0.15492794671E+04  0.15492794671E+04  0.50400001928E-02 0. -1.
       -1   -1    0    0    0  501  0.00000000000E+00  0.00000000000E+00 -0.22599173239E+04  0.22599173239E+04  0.50400001928E-02 0.  1.
    10030    2    1    2    0    0  0.00000000000E+00  0.00000000000E+00 -0.71063785679E+03  0.38091967910E+04  0.37423220103E+04 0.  0.
        3    1    3    3  502    0 -0.10804293712E+04  0.56313427905E+03  0.10901980743E+04  0.16349249811E+04  0.10100000352E+00 0. -1.
       -3    1    3    3    0  502  0.10804293712E+04 -0.56313427905E+03 -0.18008359311E+04  0.21742718099E+04  0.10100000352E+00 0.  1.
</event>
<event>
 5   0  0.2086250E-07  0.3736677E+04  0.7818609E-02  0.8059882E-01
        1   -1    0    0  501    0  0.00000000000E+00  0.00000000000E+00  0.12410161401E+04  0.12410161401E+04  0.50400001928E-02 0.  1.
       -1   -1    0    0    0  501  0.00000000000E+00  0.00000000000E+00 -0.28127671501E+04  0.28127671501E+04  0.50400001928E-02 0. -1.
    10030    2    1    2    0    0  0.00000000000E+00  0.00000000000E+00 -0.15717510100E+04  0.40537832902E+04  0.37366773645E+04 0.  0.
        3    1    3    3  502    0 -0.85907340445E+03  0.11988010117E+04 -0.20301895402E+04  0.25093426548E+04  0.10100000352E+00 0. -1.
       -3    1    3    3    0  502  0.85907340445E+03 -0.11988010117E+04  0.45843853022E+03  0.15444406353E+04  0.10100000352E+00 0.  1.
</event>
<event>
 5   0  0.6541476E-07  0.3688142E+04  0.7818609E-02  0.8070595E-01
        2   -1    0    0  501    0  0.00000000000E+00  0.00000000000E+00  0.24920573662E+04  0.24920573662E+04  0.25500000920E-02 0. -1.
       -2   -1    0    0    0  501  0.00000000000E+00  0.00000000000E+00 -0.13645746406E+04  0.13645746406E+04  0.25500000920E-02 0.  1.
    10030    2    1    2    0    0  0.00000000000E+00  0.00000000000E+00  0.11274827257E+04  0.38566320068E+04  0.36881422342E+04 0.  0.
        4    1    3    3  502    0  0.46504266097E+03  0.74898884583E+03  0.22574100886E+04  0.24234584562E+04  0.12699999809E+01 0. -1.
       -4    1    3    3    0  502 -0.46504266097E+03 -0.74898884583E+03 -0.11299273630E+04  0.14331735506E+04  0.12699999809E+01 0.  1.
</event>
<event>
 5   0  0.2108068E-07  0.3637163E+04  0.7818609E-02  0.8082032E-01
        1   -1    0    0  501    0  0.00000000000E+00  0.00000000000E+00  0.22978665725E+04  0.22978665725E+04  0.50400001928E-02 0. -1.
       -1   -1    0    0    0  501  0.00000000000E+00  0.00000000000E+00 -0.14392649706E+04  0.14392649706E+04  0.50400001928E-02 0.  1.
    10030    2    1    2    0    0  0.00000000000E+00  0.00000000000E+00  0.85860160188E+03  0.37371315431E+04  0.36371631060E+04 0.  0.
        5    1    3    3  502    0 -0.42888826572E+03  0.12215932975E+04 -0.88289945450E+03  0.15670892973E+04  0.46999998093E+01 0.  1.
       -5    1    3    3    0  502  0.42888826572E+03 -0.12215932975E+04  0.17415010564E+04  0.21700422458E+04  0.46999998093E+01 0. -1.
</event>
<event>
 5   0  0.2108068E-07  0.3612597E+04  0.7818609E-02  0.8087612E-01
       -1   -1    0    0    0  501  0.00000000000E+00  0.00000000000E+00  0.16176182936E+04  0.16176182936E+04  0.50400001928E-02 0.  1.
        1   -1    0    0  501    0  0.00000000000E+00  0.00000000000E+00 -0.20169865015E+04  0.20169865015E+04  0.50400001928E-02 0. -1.
    10030    2    1    2    0    0  0.00000000000E+00  0.00000000000E+00 -0.39936820784E+03  0.36346047951E+04  0.36125969954E+04 0.  0.
        5    1    3    3  502    0  0.26941730879E+03  0.61032036269E+03 -0.18884853700E+04  0.20028668738E+04  0.46999998093E+01 0. -1.
       -5    1    3    3    0  502 -0.26941730879E+03 -0.61032036269E+03  0.14891171621E+04  0.16317379213E+04  0.46999998093E+01 0.  1.
</event>
<event>
 5   0  0.2086250E-07  0.3581295E+04  0.7818609E-02  0.8094790E-01
        1   -1    0    0  501    0  0.00000000000E+00  0.00000000000E+00  0.14491050053E+04  0.14491050054E+04  0.50400001928E-02 0. -1.
       -1   -1    0    0    0  501  0.00000000000E+00  0.00000000000E+00 -0.22126882386E+04  0.22126882386E+04  0.50400001928E-02 0.  1.
    10030    2    1    2    0    0  0.00000000000E+00  0.00000000000E+00 -0.76358323323E+03  0.36617932439E+04  0.35812945156E+04 0.  0.
        3    1    3    3  502    0  0.56169264042E+02  0.18493879092E+03 -0.22019912786E+04  0.22104576322E+04  0.10100000352E+00 0.  1.
       -3    1    3    3    0  502 -0.56169264042E+02 -0.18493879092E+03  0.14384080454E+04  0.14513356117E+04  0.10100000352E+00 0. -1.
</event>
<event>
 5   0  0.6848661E-07  0.3544027E+04  0.7818609E-02  0.8103435E-01
        2   -1    0    0  501    0  0.00000000000E+00  0.00000000000E+00  0.28586569520E+04  0.28586569520E+04  0.25500000920E-02 0. -1.
       -2   -1    0    0    0  501  0.00000000000E+00  0.00000000000E+00 -0.10984293284E+04  0.10984293284E+04  0.25500000920E-02 0.  1.
    10030    2    1    2    0    0  0.00000000000E+00  0.00000000000E+00  0.17602276236E+04  0.39570862804E+04  0.35440274467E+04 0.  0.
        1    1    3    3  502    0  0.51908880455E+02 -0.96974124516E+02  0.28548416204E+04  0.28569597810E+04  0.50400001928E-02 0. -1.
       -1    1    3    3    0  502 -0.51908880455E+02  0.96974124516E+02 -0.10946139967E+04  0.11001264994E+04  0.50400001928E-02 0.  1.
</event>
<event>
 5   0  0.2086250E-07  0.3567930E+04  0.7818609E-02  0.8097878E-01
       -1   -1    0    0    0  501  0.00000000000E+00  0.00000000000E+00  0.12673329421E+04  0.12673329421E+04  0.50400001928E-02 0. -1.
        1   -1    0    0  501    0  0.00000000000E+00  0.00000000000E+00 -0.25112031059E+04  0.25112031059E+04  0.50400001928E-02 0.  1.
    10030    2    1    2    0    0  0.00000000000E+00  0.00000000000E+00 -0.12438701638E+04  0.37785360480E+04  0.35679296072E+04 0.  0.
        2    1    3    3  502    0  0.71576872150E+03  0.13611565080E+04  0.33556794220E+03  0.15740640857E+04  0.25500000920E-02 0. -1.
       -2    1    3    3    0  502 -0.71576872150E+03 -0.13611565080E+04 -0.15794381060E+04  0.22044719623E+04  0.25500000920E-02 0.  1.
</event>
<event>
 5   0  0.2086250E-07  0.3435146E+04  0.7818609E-02  0.8129334E-01
       -1   -1    0    0    0  501  0.00000000000E+00  0.00000000000E+00  0.20763615588E+04  0.20763615589E+04  0.50400001928E-02 0. -1.
        1   -1    0    0  501    0  0.00000000000E+00  0.00000000000E+00 -0.14207818881E+04  0.14207818881E+04  0.50400001928E-02 0.  1.
    10030    2    1    2    0    0  0.00000000000E+00  0.00000000000E+00  0.65557967072E+03  0.34971434470E+04  0.34351459335E+04 0.  0.
        3    1    3    3  502    0  0.35871997487E+03  0.16177023733E+04 -0.13249385718E+03  0.16622862633E+04  0.10100000352E+00 0. -1.
       -3    1    3    3    0  502 -0.35871997487E+03 -0.16177023733E+04  0.78807352790E+03  0.18348571837E+04  0.10100000352E+00 0.  1.
</event>
<event>
 5   0  0.2086250E-07  0.3390917E+04  0.7818609E-02  0.8140139E-01
        1   -1    0    0  501    0  0.00000000000E+00  0.00000000000E+00  0.22358640123E+04  0.22358640123E+04  0.50400001928E-02 0. -1.
       -1   -1    0    0    0  501  0.00000000000E+00  0.00000000000E+00 -0.12856684928E+04  0.12856684928E+04  0.50400001928E-02 0.  1.
    10030    2    1    2    0    0  0.00000000000E+00  0.00000000000E+00  0.95019551954E+03  0.35215325052E+04  0.33909172298E+04 0.  0.
        2    1    3    3  502    0  0.15254018279E+03 -0.12120171257E+04 -0.74591368357E+03  0.14313075294E+04  0.25500000920E-02 0.  1.
       -2    1    3    3    0  502 -0.15254018279E+03  0.12120171257E+04  0.16961092031E+04  0.20902249757E+04  0.25500000920E-02 0. -1.
</event>
<event>
 5   0  0.2086250E-07  0.3678690E+04  0.7818609E-02  0.8072701E-01
       -1   -1    0    0    0  501  0.00000000000E+00  0.00000000000E+00  0.12667014973E+04  0.12667014973E+04  0.50400001928E-02 0.  1.
        1   -1    0    0  501    0  0.00000000000E+00  0.00000000000E+00 -0.26708655081E+04  0.26708655081E+04  0.50400001928E-02 0. -1.
    10030    2    1    2    0    0  0.00000000000E+00  0.00000000000E+00 -0.14041640108E+04  0.39375670053E+04  0.36786896244E+04 0.  0.
        3    1    3    3  502    0 -0.92102326357E+03 -0.15848104377E+04 -0.86540183265E+03  0.20270244985E+04  0.10100000352E+00 0. -1.
       -3    1    3    3    0  502  0.92102326357E+03  0.15848104377E+04 -0.53876217816E+03  0.19105425068E+04  0.10100000352E+00 0.  1.
</event>
<event>
 5   0  0.6669864E-07  0.3549892E+04  0.7818609E-02  0.8102067E-01
       -2   -1    0    0    0  501  0.00000000000E+00  0.00000000000E+00  0.19404487043E+04  0.19404487043E+04  0.25500000920E-02 0. -1.
        2   -1    0    0  501    0  0.00000000000E+00  0.00000000000E+00 -0.16235588842E+04  0.16235588842E+04  0.25500000920E-02 0.  1.
    10030    2    1    2    0    0  0.00000000000E+00  0.00000000000E+00  0.31688982005E+03  0.35640075885E+04  0.35498916790E+04 0.  0.
        5    1    3    3  502    0 -0.12067514993E+04 -0.50560497829E+03 -0.10457096538E+04  0.16749377138E+04  0.46999998093E+01 0.  1.
       -5    1    3    3    0  502  0.12067514993E+04  0.50560497829E+03  0.13625994739E+04  0.18890698747E+04  0.46999998093E+01 0. -1.
</event>
<event>
 5   0  0.6848661E-07  0.3644924E+04  0.7818609E-02  0.8080278E-01
       -2   -1    0    0    0  501  0.00000000000E+00  0.00000000000E+00  0.14744117410E+04  0.14744117410E+04  0.25500000920E-02 0. -1.
        2   -1    0    0  501    0  0.00000000000E+00  0.00000000000E+00 -0.22526732963E+04  0.22526732963E+04  0.25500000920E-02 0.  1.
    10030    2    1    2    0    0  0.00000000000E+00  0.00000000000E+00 -0.77826155535E+03  0.37270850373E+04  0.36449241181E+04 0.  0.
        1    1    3    3  502    0  0.78400815221E+02 -0.66214816901E+03  0.13452091265E+04  0.15013908484E+04  0.50400001928E-02 0. -1.
       -1    1    3    3    0  502 -0.78400815221E+02  0.66214816901E+03 -0.21234706819E+04  0.22256941889E+04  0.50400001928E-02 0.  1.
</event>
<event>
 5   0  0.2193129E-07  0.3597784E+04  0.7818609E-02  0.8091000E-01
        1   -1    0    0  501    0  0.00000000000E+00  0.00000000000E+00  0.19251006080E+04  0.19251006080E+04  0.50400001928E-02 0. -1.
       -1   -1    0    0    0  501  0.00000000000E+00  0.00000000000E+00 -0.16809574178E+04  0.16809574178E+04  0.50400001928E-02 0.  1.
    10030    2    1    2    0    0  0.00000000000E+00  0.00000000000E+00  0.24414319018E+03  0.36060580258E+04  0.35977838440E+04 0.  0.
        1    1    3    3  502    0  0.10159800395E+04 -0.11358745071E+04 -0.83594342099E+03  0.17381679262E+04  0.50400001928E-02 0.  1.
       -1    1    3    3    0  502 -0.10159800395E+04  0.11358745071E+04  0.10800866112E+04  0.18678900996E+04  0.50400001928E-02 0. -1.
</event>
<event>
 5   0  0.6324216E-07  0.3609957E+04  0.7818609E-02  0.8088215E-01
       -2   -1    0    0    0  501  0.00000000000E+00  0.00000000000E+00  0.16674139203E+04  0.16674139203E+04  0.25500000920E-02 0.  1.
        2   -1    0    0  501    0  0.00000000000E+00  0.00000000000E+00 -0.19538920372E+04  0.19538920372E+04  0.25500000920E-02 0. -1.
    10030    2    1    2    0    0  0.00000000000E+00  0.00000000000E+00 -0.28647811694E+03  0.36213059575E+04  0.36099566654E+04 0.  0.
        2    1    3    3  502    0  0.86184460206E+03  0.10899501886E+04  0.10124154609E+04  0.17192302339E+04  0.25500000920E-02 0.  1.
       -2    1    3    3    0  502 -0.86184460206E+03 -0.10899501886E+04 -0.12988935778E+04  0.19020757236E+04  0.25500000920E-02 0. -1.
</event>
<event>
 5   0  0.6669864E-07  0.3570211E+04  0.7818609E-02  0.8097349E-01
        2   -1    0    0  501    0  0.00000000000E+00  0.00000000000E+00  0.25713613248E+04  0.25713613248E+04  0.25500000920E-02 0.  1.
       -2   -1    0    0    0  501  0.00000000000E+00  0.00000000000E+00 -0.12392667102E+04  0.12392667102E+04  0.25500000920E-02 0. -1.
    10030    2    1    2    0    0  0.00000000000E+00  0.00000000000E+00  0.13320946146E+04  0.38106280350E+04  0.35702114726E+04 0.  0.
        5    1    3    3  502    0  0.76866925310E+03  0.72632450138E+03  0.22010065819E+04  0.24418951177E+04  0.46999998093E+01 0.  1.
       -5    1    3    3    0  502 -0.76866925310E+03 -0.72632450138E+03 -0.86891196736E+03  0.13687329173E+04  0.46999998093E+01 0. -1.
</event>
<event>
 5   0  0.2086250E-07  0.3601441E+04  0.7818609E-02  0.8090162E-01
       -1   -1    0    0    0  501  0.00000000000E+00  0.00000000000E+00  0.21858804749E+04  0.21858804749E+04  0.50400001928E-02 0.  1.
        1   -1    0    0  501    0  0.00000000000E+00  0.00000000000E+00 -0.14834267544E+04  0.14834267544E+04  0.50400001928E-02 0. -1.
    10030    2    1    2    0    0  0.00000000000E+00  0.00000000000E+00  0.70245372055E+03  0.36693072293E+04  0.36014405886E+04 0.  0.
        2    1    3    3  502    0  0.13242305983E+03 -0.15052118622E+04 -0.64671798304E+03  0.16436066338E+04  0.25500000920E-02 0. -1.
       -2    1    3    3    0  502 -0.13242305983E+03  0.15052118622E+04  0.13491717036E+04  0.20257005955E+04  0.25500000920E-02 0.  1.
</event>
<event>
 5   0  0.6324216E-07  0.3603178E+04  0.7818609E-02  0.8089764E-01
        2   -1    0    0  501    0  0.00000000000E+00  0.00000000000E+00  0.19225177164E+04  0.19225177164E+04  0.25500000920E-02 0.  1.
       -2   -1    0    0    0  501  0.00000000000E+00  0.00000000000E+00 -0.16882673107E+04  0.16882673107E+04  0.25500000920E-02 0. -1.
    10030    2    1    2    0    0  0.00000000000E+00  0.00000000000E+00  0.23425040576E+03  0.36107850271E+04  0.36031784940E+04 0.  0.
        2    1    3    3  502    0 -0.15374824767E+04 -0.93883549361E+03  0.13860324031E+03  0.18067859056E+04  0.25500000920E-02 0. -1.
       -2    1    3    3    0  502  0.15374824767E+04  0.93883549361E+03  0.95647165443E+02  0.18039991216E+04  0.25500000920E-02 0.  1.
</event>
<event>
 5   0  0.6729577E-07  0.3599097E+04  0.7818609E-02  0.8090699E-01
        2   -1    0    0  501    0  0.00000000000E+00  0.00000000000E+00  0.16209603175E+04  0.16209603175E+04  0.25500000920E-02 0.  1.
       -2   -1    0    0    0  501  0.00000000000E+00  0.00000000000E+00 -0.19978121677E+04  0.19978121677E+04  0.25500000920E-02 0. -1.
    10030    2    1    2    0    0  0.00000000000E+00  0.00000000000E+00 -0.37685185025E+03  0.36187724852E+04  0.35990966898E+04 0.  0.
        3    1    3    3  502    0 -0.16327833203E+04  0.42128826662E+03 -0.82027930746E+03  0.18751862113E+04  0.10100000352E+00 0. -1.
       -3    1    3    3    0  502  0.16327833203E+04 -0.42128826662E+03  0.44342745721E+03  0.17435862739E+04  0.10100000352E+00 0.  1.
</event>
<event>
 5   0  0.2086250E-07  0.2926839E+04  0.7818609E-02  0.8264937E-01
        3   -1    0    0  501    0  0.00000000000E+00  0.00000000000E+00  0.97769679220E+03  0.97769679742E+03  0.10100000352E+00 0.  1.
       -3   -1    0    0    0  501  0.00000000000E+00  0.00000000000E+00 -0.21904505246E+04  0.21904505269E+04  0.10100000352E+00 0. -1.
    10030    2    1    2    0    0  0.00000000000E+00  0.00000000000E+00 -0.12127537324E+04  0.31681473244E+04  0.29268388841E+04 0.  0.
        3    1    3    3  502    0 -0.84012049450E+03  0.58634078413E+03 -0.17375200222E+04  0.20170705982E+04  0.10100000352E+00 0. -1.
       -3    1    3    3    0  502  0.84012049450E+03 -0.58634078413E+03  0.52476628978E+03  0.11510767262E+04  0.10100000352E+00 0.  1.
</event>
<event>
 5   0  0.2108068E-07  0.3369551E+04  0.7818609E-02  0.8145420E-01
        1   -1    0    0  501    0  0.00000000000E+00  0.00000000000E+00  0.13491100010E+04  0.13491100010E+04  0.50400001928E-02 0. -1.
       -1   -1    0    0    0  501  0.00000000000E+00  0.00000000000E+00 -0.21039561828E+04  0.21039561828E+04  0.50400001928E-02 0.  1.
    10030    2    1    2    0    0  0.00000000000E+00  0.00000000000E+00 -0.75484618175E+03  0.34530661838E+04  0.33695509065E+04 0.  0.
        5    1    3    3  502    0 -0.49487457504E+03 -0.10698013353E+04  0.85618621653E+03  0.14568639845E+04  0.46999998093E+01 0. -1.
       -5    1    3    3    0  502  0.49487457504E+03  0.10698013353E+04 -0.16110323983E+04  0.19962021993E+04  0.46999998093E+01 0.  1.
</event>
<event>
 5   0  0.6848661E-07  0.3656990E+04  0.7818609E-02  0.8077561E-01
        2   -1    0    0  501    0  0.00000000000E+00  0.00000000000E+00  0.29252145773E+04  0.29252145773E+04  0.25500000920E-02 0.  1.
       -2   -1    0    0    0  501  0.00000000000E+00  0.00000000000E+00 -0.11429566127E+04  0.11429566127E+04  0.25500000920E-02 0. -1.
    10030    2    1    2    0    0  0.00000000000E+00  0.00000000000E+00  0.17822579647E+04  0.40681711900E+04  0.36569896608E+04 0.  0.
        1    1    3    3  502    0  0.31381007935E+03 -0.17627731714E+04  0.47855526141E+03  0.18533378423E+04  0.50400001928E-02 0.  1.
       -1    1    3    3    0  502 -0.31381007935E+03  0.17627731714E+04  0.13037027032E+04  0.22148333477E+04  0.50400001928E-02 0. -1.
</event>
<event>
 5   0  0.2086250E-07  0.3623545E+04  0.7818609E-02  0.8085120E-01
        1   -1    0    0  501    0  0.00000000000E+00  0.00000000000E+00  0.17729076489E+04  0.17729076489E+04  0.50400001928E-02 0. -1.
       -1   -1    0    0    0  501  0.00000000000E+00  0.00000000000E+00 -0.18514894695E+04  0.18514894695E+04  0.50400001928E-02 0.  1.
    10030    2    1    2    0    0  0.00000000000E+00  0.00000000000E+00 -0.78581820604E+02  0.36243971184E+04  0.36235451383E+04 0.  0.
        4    1    3    3  502    0 -0.15777705432E+04 -0.85535990156E+03  0.20879519040E+03  0.18068197178E+04  0.12699999809E+01 0. -1.
       -4    1    3    3    0  502  0.15777705432E+04  0.85535990156E+03 -0.28737701100E+03  0.18175774007E+04  0.12699999809E+01 0.  1.
</event>
<event>
 5   0  0.2086250E-07  0.3570277E+04  0.7818609E-02  0.8097334E-01
        1   -1    0    0  501    0  0.00000000000E+00  0.00000000000E+00  0.18635006826E+04  0.18635006826E+04  0.50400001928E-02 0. -1.
       -1   -1    0    0    0  501  0.00000000000E+00  0.00000000000E+00 -0.17100711506E+04  0.17100711506E+04  0.50400001928E-02 0.  1.
    10030    2    1    2    0    0  0.00000000000E+00  0.00000000000E+00  0.15342953197E+03  0.35735718332E+04  0.35702766035E+04 0.  0.
        2    1    3    3  502    0  0.14945686227E+04  0.97601344057E+03  0.57173625456E+02  0.17859469274E+04  0.25500000920E-02 0. -1.
       -2    1    3    3    0  502 -0.14945686227E+04 -0.97601344057E+03  0.96255906514E+02  0.17876249058E+04  0.25500000920E-02 0.  1.
</event>
<event>
 5   0  0.6541476E-07  0.3093704E+04  0.7818609E-02  0.8217468E-01
        2   -1    0    0  501    0  0.00000000000E+00  0.00000000000E+00  0.19729038371E+04  0.19729038371E+04  0.25500000920E-02 0.  1.
       -2   -1    0    0    0  501  0.00000000000E+00  0.00000000000E+00 -0.12128071463E+04  0.12128071463E+04  0.25500000920E-02 0. -1.
    10030    2    1    2    0    0  0.00000000000E+00  0.00000000000E+00  0.76009669082E+03  0.31857109834E+04  0.30937044930E+04 0.  0.
        4    1    3    3  502    0  0.18557808250E+03 -0.13870304029E+04  0.10587849825E+04  0.17547990812E+04  0.12699999809E+01 0.  1.
       -4    1    3    3    0  502 -0.18557808250E+03  0.13870304029E+04 -0.29868829168E+03  0.14309119022E+04  0.12699999809E+01 0. -1.
</event>
<event>
 5   0  0.6324216E-07  0.3381706E+04  0.7818609E-02  0.8142411E-01
        2   -1    0    0  501    0  0.00000000000E+00  0.00000000000E+00  0.10567772620E+04  0.10567772620E+04  0.25500000920E-02 0. -1.
       -2   -1    0    0    0  501  0.00000000000E+00  0.00000000000E+00 -0.27053800275E+04  0.27053800275E+04  0.25500000920E-02 0.  1.
    10030    2    1    2    0    0  0.00000000000E+00  0.00000000000E+00 -0.16486027656E+04  0.37621572895E+04  0.33817061363E+04 0.  0.
        2    1    3    3  502    0  0.92776870630E+02 -0.74010653807E+03  0.86385281171E+03  0.11413180607E+04  0.25500000920E-02 0. -1.
       -2    1    3    3    0  502 -0.92776870630E+02  0.74010653807E+03 -0.25124555773E+04  0.26208392288E+04  0.25500000920E-02 0.  1.
</event>
<event>
 5   0  0.6669864E-07  0.3667139E+04  0.7818609E-02  0.8075283E-01
       -2   -1    0    0    0  501  0.00000000000E+00  0.00000000000E+00  0.14089964350E+04  0.14089964350E+04  0.25500000920E-02 0. -1.
        2   -1    0    0  501    0  0.00000000000E+00  0.00000000000E+00 -0.23860794302E+04  0.23860794302E+04  0.25500000920E-02 0.  1.
    10030    2    1    2    0    0  0.00000000000E+00  0.00000000000E+00 -0.97708299523E+03  0.37950758653E+04  0.36671391634E+04 0.  0.
        5    1    3    3  502    0 -0.68310080794E+03 -0.78711065725E+02  0.12705031042E+04  0.14446530288E+04  0.46999998093E+01 0. -1.
       -5    1    3    3    0  502  0.68310080794E+03  0.78711065725E+02 -0.22475860995E+04  0.23504228365E+04  0.46999998093E+01 0.  1.
</event>
<event>
 5   0  0.2086250E-07  0.3512502E+04  0.7818609E-02  0.8110833E-01
       -1   -1    0    0    0  501  0.00000000000E+00  0.00000000000E+00  0.12560554242E+04  0.12560554243E+04  0.50400001928E-02 0. -1.
        1   -1    0    0  501    0  0.00000000000E+00  0.00000000000E+00 -0.24556382824E+04  0.24556382824E+04  0.50400001928E-02 0.  1.
    10030    2    1    2    0    0  0.00000000000E+00  0.00000000000E+00 -0.11995828581E+04  0.37116937066E+04  0.35125021193E+04 0.  0.
        2    1    3    3  502    0  0.11598206965E+04  0.17982834185E+03 -0.19803632440E+04  0.23020340699E+04  0.25500000920E-02 0.  1.
       -2    1    3    3    0  502 -0.11598206965E+04 -0.17982834185E+03  0.78078038586E+03  0.14096596368E+04  0.25500000920E-02 0. -1.
</event>
<event>
 5   0  0.6541476E-07  0.3633364E+04  0.7818609E-02  0.8082892E-01
       -2   -1    0    0    0  501  0.00000000000E+00  0.00000000000E+00  0.12956675424E+04  0.12956675424E+04  0.25500000920E-02 0. -1.
        2   -1    0    0  501    0  0.00000000000E+00  0.00000000000E+00 -0.25472064801E+04  0.25472064801E+04  0.25500000920E-02 0.  1.
    10030    2    1    2    0    0  0.00000000000E+00  0.00000000000E+00 -0.12515389376E+04  0.38428740225E+04  0.36333635987E+04 0.  0.
        4    1    3    3  502    0  0.59399205349E+03  0.84837038355E+03  0.95286901086E+03  0.14073094301E+04  0.12699999809E+01 0. -1.
       -4    1    3    3    0  502 -0.59399205349E+03 -0.84837038355E+03 -0.22044079485E+04  0.24355645924E+04  0.12699999809E+01 0.  1.
</event>
<event>
 5   0  0.6729577E-07  0.3536352E+04  0.7818609E-02  0.8105229E-01
       -2   -1    0    0    0  501  0.00000000000E+00  0.00000000000E+00  0.13163903876E+04  0.13163903876E+04  0.25500000920E-02 0. -1.
        2   -1    0    0  501    0  0.00000000000E+00  0.00000000000E+00 -0.23750148662E+04  0.23750148662E+04  0.25500000920E-02 0.  1.
    10030    2    1    2    0    0  0.00000000000E+00  0.00000000000E+00 -0.10586244787E+04  0.36914052538E+04  0.35363522111E+04 0.  0.
        3    1    3    3  502    0  0.59579752949E+03  0.90457200014E+03 -0.19881666891E+04  0.22640742022E+04  0.10100000352E+00 0.  1.
       -3    1    3    3    0  502 -0.59579752949E+03 -0.90457200014E+03  0.92954221039E+03  0.14273310515E+04  0.10100000352E+00 0. -1.
</event>
<event>
 5   0  0.2086250E-07  0.3677636E+04  0.7818609E-02  0.8072936E-01
        1   -1    0    0  501    0  0.00000000000E+00  0.00000000000E+00  0.14965790638E+04  0.14965790638E+04  0.50400001928E-02 0.  1.
       -1   -1    0    0    0  501  0.00000000000E+00  0.00000000000E+00 -0.22593198384E+04  0.22593198384E+04  0.50400001928E-02 0. -1.
    10030    2    1    2    0    0  0.00000000000E+00  0.00000000000E+00 -0.76274077462E+03  0.37558989022E+04  0.36776355277E+04 0.  0.
        3    1    3    3  502    0  0.12100079584E+04 -0.12219114187E+04  0.28368972625E+03  0.17428903136E+04  0.10100000352E+00 0.  1.
       -3    1    3    3    0  502 -0.12100079584E+04  0.12219114187E+04 -0.10464305009E+04  0.20130085886E+04  0.10100000352E+00 0. -1.
</event>
<event>
 5   0  0.6729577E-07  0.3590851E+04  0.7818609E-02  0.8092591E-01
       -2   -1    0    0    0  501  0.00000000000E+00  0.00000000000E+00  0.14806433924E+04  0.14806433924E+04  0.25500000920E-02 0.  1.
        2   -1    0    0  501    0  0.00000000000E+00  0.00000000000E+00 -0.21771291436E+04  0.21771291437E+04  0.25500000920E-02 0. -1.
    10030    2    1    2    0    0  0.00000000000E+00  0.00000000000E+00 -0.69648575126E+03  0.36577725360E+04  0.35908505293E+04 0.  0.
        3    1    3    3  502    0 -0.84456667806E+03 -0.77120901929E+03  0.10615650621E+04  0.15604411608E+04  0.10100000352E+00 0.  1.
       -3    1    3    3    0  502  0.84456667806E+03  0.77120901929E+03 -0.17580508133E+04  0.20973313752E+04  0.10100000352E+00 0. -1.
</event>
<event>
 5   0  0.2086250E-07  0.3601212E+04  0.7818609E-02  0.8090214E-01
       -1   -1    0    0    0  501  0.00000000000E+00  0.00000000000E+00  0.18110988296E+04  0.18110988296E+04  0.50400001928E-02 0. -1.
        1   -1    0    0  501    0  0.00000000000E+00  0.00000000000E+00 -0.17901735358E+04  0.17901735358E+04  0.50400001928E-02 0.  1.
    10030    2    1    2    0    0  0.00000000000E+00  0.00000000000E+00  0.20925293843E+02  0.36012723654E+04  0.36012115714E+04 0.  0.
        2    1    3    3  502    0  0.90930260716E+03 -0.98664510129E+03  0.12112665822E+04  0.18076134876E+04  0.25500000920E-02 0. -1.
       -2    1    3    3    0  502 -0.90930260716E+03  0.98664510129E+03 -0.11903412884E+04  0.17936588779E+04  0.25500000920E-02 0.  1.
</event>
<event>
 5   0  0.2193129E-07  0.3774331E+04  0.7818609E-02  0.8051686E-01
        1   -1    0    0  501    0  0.00000000000E+00  0.00000000000E+00  0.20841210176E+04  0.20841210176E+04  0.50400001928E-02 0. -1.
       -1   -1    0    0    0  501  0.00000000000E+00  0.00000000000E+00 -0.17088232479E+04  0.17088232479E+04  0.50400001928E-02 0.  1.
    10030    2    1    2    0    0  0.00000000000E+00  0.00000000000E+00  0.37529776965E+03  0.37929442655E+04  0.37743314355E+04 0.  0.
        1    1    3    3  502    0  0.13280480948E+04 -0.23373184116E+03 -0.11391088094E+04  0.17651943789E+04  0.50400001928E-02 0.  1.
       -1    1    3    3    0  502 -0.13280480948E+04  0.23373184116E+03  0.15144065791E+04  0.20277498866E+04  0.50400001928E-02 0. -1.
</event>
<event>
 5   0  0.6541476E-07  0.3595234E+04  0.7818609E-02  0.8091584E-01
        2   -1    0    0  501    0  0.00000000000E+00  0.00000000000E+00  0.16629296931E+04  0.16629296931E+04  0.25500000920E-02 0.  1.
       -2   -1    0    0    0  501  0.00000000000E+00  0.00000000000E+00 -0.19432133351E+04  0.19432133351E+04  0.25500000920E-02 0. -1.
    10030    2    1    2    0    0  0.00000000000E+00  0.00000000000E+00 -0.28028364195E+03  0.36061430282E+04  0.35952341537E+04 0.  0.
        4    1    3    3  502    0  0.57599400459E+03 -0.14598127356E+04  0.73921850666E+03  0.17347241653E+04  0.12699999809E+01 0.  1.
       -4    1    3    3    0  502 -0.57599400459E+03  0.14598127356E+04 -0.10195021486E+04  0.18714188629E+04  0.12699999809E+01 0. -1.
</event>
<event>
 5   0  0.6541476E-07  0.3564524E+04  0.7818609E-02  0.8098667E-01
        2   -1    0    0  501    0  0.00000000000E+00  0.00000000000E+00  0.23265229602E+04  0.23265229602E+04  0.25500000920E-02 0. -1.
       -2   -1    0    0    0  501  0.00000000000E+00  0.00000000000E+00 -0.13653241608E+04  0.13653241608E+04  0.25500000920E-02 0.  1.
    10030    2    1    2    0    0  0.00000000000E+00  0.00000000000E+00  0.96119879935E+03  0.36918471210E+04  0.35645240963E+04 0.  0.
        4    1    3    3  502    0 -0.88715020533E+03  0.63153060386E+03 -0.98067933172E+03  0.14654691928E+04  0.12699999809E+01 0.  1.
       -4    1    3    3    0  502  0.88715020533E+03 -0.63153060386E+03  0.19418781311E+04  0.22263779282E+04  0.12699999809E+01 0. -1.
</event>
<event>
 5   0  0.6541476E-07  0.3511267E+04  0.7818609E-02  0.8111125E-01
        2   -1    0    0  501    0  0.00000000000E+00  0.00000000000E+00  0.24024387210E+04  0.24024387210E+04  0.25500000920E-02 0.  1.
       -2   -1    0    0    0  501  0.00000000000E+00  0.00000000000E+00 -0.12829666439E+04  0.12829666439E+04  0.25500000920E-02 0. -1.
    10030    2    1    2    0    0  0.00000000000E+00  0.00000000000E+00  0.11194720771E+04  0.36854053649E+04  0.35112668614E+04 0.  0.
        4    1    3    3  502    0  0.26816796681E+03  0.88178986175E+03 -0.10086189317E+04  0.13663020094E+04  0.12699999809E+01 0. -1.
       -4    1    3    3    0  502 -0.26816796681E+03 -0.88178986175E+03  0.21280910088E+04  0.23191033555E+04  0.12699999809E+01 0.  1.
</event>
<event>
 5   0  0.2086250E-07  0.3626508E+04  0.7818609E-02  0.8084447E-01
       -1   -1    0    0    0  501  0.00000000000E+00  0.00000000000E+00  0.17264841749E+04  0.17264841749E+04  0.50400001928E-02 0.  1.
        1   -1    0    0  501    0  0.00000000000E+00  0.00000000000E+00 -0.19043850148E+04  0.19043850148E+04  0.50400001928E-02 0. -1.
    10030    2    1    2    0    0  0.00000000000E+00  0.00000000000E+00 -0.17790083983E+03  0.36308691897E+04  0.36265082881E+04 0.  0.
        3    1    3    3  502    0 -0.37865582113E+03  0.15472849868E+04  0.77835885256E+03  0.17729392473E+04  0.10100000352E+00 0.  1.
       -3    1    3    3    0  502  0.37865582113E+03 -0.15472849868E+04 -0.95625969239E+03  0.18579299424E+04  0.10100000352E+00 0. -1.
</event>
<event>
 5   0  0.6729577E-07  0.3627015E+04  0.7818609E-02  0.8084331E-01
       -2   -1    0    0    0  501  0.00000000000E+00  0.00000000000E+00  0.12702526100E+04  0.12702526100E+04  0.25500000920E-02 0.  1.
        2   -1    0    0  501    0  0.00000000000E+00  0.00000000000E+00 -0.25890988296E+04  0.25890988296E+04  0.25500000920E-02 0. -1.
    10030    2    1    2    0    0  0.00000000000E+00  0.00000000000E+00 -0.13188462196E+04  0.38593514396E+04  0.36270150515E+04 0.  0.
        3    1    3    3  502    0 -0.15611022735E+04  0.44320658639E+03 -0.15208082273E+04  0.22240346357E+04  0.10100000352E+00 0. -1.
       -3    1    3    3    0  502  0.15611022735E+04 -0.44320658639E+03  0.20196200772E+03  0.16353168039E+04  0.10100000352E+00 0.  1.
</event>
<event>
 5   0  0.6848661E-07  0.3773724E+04  0.7818609E-02  0.8051817E-01
        2   -1    0    0  501    0  0.00000000000E+00  0.00000000000E+00  0.22596502824E+04  0.22596502824E+04  0.25500000920E-02 0.  1.
       -2   -1    0    0    0  501  0.00000000000E+00  0.00000000000E+00 -0.15755745681E+04  0.15755745681E+04  0.25500000920E-02 0. -1.
    10030    2    1    2    0    0  0.00000000000E+00  0.00000000000E+00  0.68407571426E+03  0.38352248504E+04  0.37737236346E+04 0.  0.
        1    1    3    3  502    0 -0.61192282276E+03  0.12030592944E+04  0.16820273107E+04  0.21566216824E+04  0.50400001928E-02 0.  1.
       -1    1    3    3    0  502  0.61192282276E+03 -0.12030592944E+04 -0.99795159645E+03  0.16786031681E+04  0.50400001928E-02 0. -1.
</event>
<event>
 5   0  0.2086250E-07  0.3583966E+04  0.7818609E-02  0.8094174E-01
        1   -1    0    0  501    0  0.00000000000E+00  0.00000000000E+00  0.19778805393E+04  0.19778805393E+04  0.50400001928E-02 0.  1.
       -1   -1    0    0    0  501  0.00000000000E+00  0.00000000000E+00 -0.16235577479E+04  0.16235577479E+04  0.50400001928E-02 0. -1.
    10030    2    1    2    0    0  0.00000000000E+00  0.00000000000E+00  0.35432279133E+03  0.36014382872E+04  0.35839661126E+04 0.  0.
        2    1    3    3  502    0 -0.13636586477E+04 -0.25205744083E+03 -0.96331889743E+03  0.16885144830E+04  0.25500000920E-02 0. -1.
       -2    1    3    3    0  502  0.13636586477E+04  0.25205744083E+03  0.13176416888E+04  0.19129238043E+04  0.25500000920E-02 0.  1.
</event>
<event>
 5   0  0.2193129E-07  0.3605975E+04  0.7818609E-02  0.8089124E-01
       -1   -1    0    0    0  501  0.00000000000E+00  0.00000000000E+00  0.18164099978E+04  0.18164099978E+04  0.50400001928E-02 0. -1.
        1   -1    0    0  501    0  0.00000000000E+00  0.00000000000E+00 -0.17896646636E+04  0.17896646636E+04  0.50400001928E-02 0.  1.
    10030    2    1    2    0    0  0.00000000000E+00  0.00000000000E+00  0.26745334237E+02  0.36060746615E+04  0.36059754784E+04 0.  0.
        1    1    3    3  502    0 -0.72711395111E+03  0.29528941889E+02 -0.16362781528E+04  0.17908022922E+04  0.50400001928E-02 0.  1.
       -1    1    3    3    0  502  0.72711395111E+03 -0.29528941889E+02  0.16630234870E+04  0.18152723693E+04  0.50400001928E-02 0. -1.
</event>
<event>
 5   0  0.2086250E-07  0.4040694E+04  0.7818609E-02  0.7996387E-01
       -1   -1    0    0    0  501  0.00000000000E+00  0.00000000000E+00  0.22440213187E+04  0.22440213187E+04  0.50400001928E-02 0. -1.
        1   -1    0    0  501    0  0.00000000000E+00  0.00000000000E+00 -0.18189675824E+04  0.18189675824E+04  0.50400001928E-02 0.  1.
    10030    2    1    2    0    0  0.00000000000E+00  0.00000000000E+00  0.42505373628E+03  0.40629889011E+04  0.40406940161E+04 0.  0.
        2    1    3    3  502    0 -0.11028542622E+04 -0.14911564746E+04 -0.59312233522E+03  0.19472106358E+04  0.25500000920E-02 0.  1.
       -2    1    3    3    0  502  0.11028542622E+04  0.14911564746E+04  0.10181760715E+04  0.21157782653E+04  0.25500000920E-02 0. -1.
</event>
<event>
 5   0  0.6729577E-07  0.3534191E+04  0.7818609E-02  0.8105734E-01
        2   -1    0    0  501    0  0.00000000000E+00  0.00000000000E+00  0.18832256820E+04  0.18832256820E+04  0.25500000920E-02 0. -1.
       -2   -1    0    0    0  501  0.00000000000E+00  0.00000000000E+00 -0.16581270179E+04  0.16581270179E+04  0.25500000920E-02 0.  1.
    10030    2    1    2    0    0  0.00000000000E+00  0.00000000000E+00  0.22509866411E+03  0.35413526999E+04  0.35341914969E+04 0.  0.
        3    1    3    3  502    0  0.16620006118E+04 -0.53647855005E+03  0.38248729562E+03  0.17878343910E+04  0.10100000352E+00 0.  1.
       -3    1    3    3    0  502 -0.16620006118E+04  0.53647855005E+03 -0.15738863152E+03  0.17535183089E+04  0.10100000352E+00 0. -1.
</event>
<event>
 5   0  0.2086250E-07  0.3577167E+04  0.7818609E-02  0.8095742E-01
       -1   -1    0    0    0  501  0.00000000000E+00  0.00000000000E+00  0.10717577870E+04  0.10717577870E+04  0.50400001928E-02 0. -1.
        1   -1    0    0  501    0  0.00000000000E+00  0.00000000000E+00 -0.29848454346E+04  0.29848454346E+04  0.50400001928E-02 0.  1.
    10030    2    1    2    0    0  0.00000000000E+00  0.00000000000E+00 -0.19130876476E+04  0.40566032216E+04  0.35771672242E+04 0.  0.
        2    1    3    3  502    0  0.13162256457E+04  0.25511303859E+03  0.38597270629E+03  0.13951729437E+04  0.25500000920E-02 0. -1.
       -2    1    3    3    0  502 -0.13162256457E+04 -0.25511303859E+03 -0.22990603539E+04  0.26614302778E+04  0.25500000920E-02 0.  1.
</event>
<event>
 5   0  0.6324216E-07  0.3583218E+04  0.7818609E-02  0.8094347E-01
        2   -1    0    0  501    0  0.00000000000E+00  0.00000000000E+00  0.25993484287E+04  0.25993484287E+04  0.25500000920E-02 0. -1.
       -2   -1    0    0    0  501  0.00000000000E+00  0.00000000000E+00 -0.12348722408E+04  0.12348722409E+04  0.25500000920E-02 0.  1.
    10030    2    1    2    0    0  0.00000000000E+00  0.00000000000E+00  0.13644761878E+04  0.38342206695E+04  0.35832182288E+04 0.  0.
        2    1    3    3  502    0 -0.56672655223E+03  0.10012806083E+04 -0.78732644563E+03  0.13941394383E+04  0.25500000920E-02 0.  1.
       -2    1    3    3    0  502  0.56672655223E+03 -0.10012806083E+04  0.21518026334E+04  0.24400812312E+04  0.25500000920E-02 0. -1.
</event>
<event>
 5   0  0.2086250E-07  0.3701664E+04  0.7818609E-02  0.8067593E-01
        1   -1    0    0  501    0  0.00000000000E+00  0.00000000000E+00  0.29546031833E+04  0.29546031833E+04  0.50400001928E-02 0. -1.
       -1   -1    0    0    0  501  0.00000000000E+00  0.00000000000E+00 -0.11594042494E+04  0.11594042494E+04  0.50400001928E-02 0.  1.
    10030    2    1    2    0    0  0.00000000000E+00  0.00000000000E+00  0.17951989339E+04  0.41140074327E+04  0.37016642128E+04 0.  0.
        3    1    3    3  502    0  0.16899741365E+03  0.11368610975E+04 -0.71471350009E+03  0.13534506560E+04  0.10100000352E+00 0. -1.
       -3    1    3    3    0  502 -0.16899741365E+03 -0.11368610975E+04  0.25099124340E+04  0.27605567767E+04  0.10100000352E+00 0.  1.
</event>
<event>
 5   0  0.2193129E-07  0.4067819E+04  0.7818609E-02  0.7991003E-01
        1   -1    0    0  501    0  0.00000000000E+00  0.00000000000E+00  0.25292642957E+04  0.25292642957E+04  0.50400001928E-02 0.  1.
       -1   -1    0    0    0  501  0.00000000000E+00  0.00000000000E+00 -0.16355697884E+04  0.16355697884E+04  0.50400001928E-02 0. -1.
    10030    2    1    2    0    0  0.00000000000E+00  0.00000000000E+00  0.89369450725E+03  0.41648340841E+04  0.40678192039E+04 0.  0.
        1    1    3    3  502    0  0.17169125566E+04  0.64527135602E+03 -0.45310667617E+03  0.18893039750E+04  0.50400001928E-02 0. -1.
       -1    1    3    3    0  502 -0.17169125566E+04 -0.64527135602E+03  0.13468011834E+04  0.22755301091E+04  0.50400001928E-02 0.  1.
</event>
<event>
 5   0  0.6541476E-07  0.3541946E+04  0.7818609E-02  0.8103921E-01
       -2   -1    0    0    0  501  0.00000000000E+00  0.00000000000E+00  0.26711968090E+04  0.26711968090E+04  0.25500000920E-02 0. -1.
        2   -1    0    0  501    0  0.00000000000E+00  0.00000000000E+00 -0.11741346210E+04  0.11741346210E+04  0.25500000920E-02 0.  1.
    10030    2    1    2    0    0  0.00000000000E+00  0.00000000000E+00  0.14970621880E+04  0.38453314300E+04  0.35419455970E+04 0.  0.
        4    1    3    3  502    0  0.97992762782E+03  0.30065571194E+03 -0.81936355451E+03  0.13122538856E+04  0.12699999809E+01 0.  1.
       -4    1    3    3    0  502 -0.97992762782E+03 -0.30065571194E+03  0.23164257425E+04  0.25330775444E+04  0.12699999809E+01 0. -1.
</event>
<event>
 5   0  0.6669864E-07  0.3607524E+04  0.7818609E-02  0.8088771E-01
        2   -1    0    0  501    0  0.00000000000E+00  0.00000000000E+00  0.18806934692E+04  0.18806934692E+04  0.25500000920E-02 0.  1.
       -2   -1    0    0    0  501  0.00000000000E+00  0.00000000000E+00 -0.17299770080E+04  0.17299770080E+04  0.25500000920E-02 0. -1.
    10030    2    1    2    0    0  0.00000000000E+00  0.00000000000E+00  0.15071646117E+03  0.36106704772E+04  0.36075235056E+04 0.  0.
        5    1    3    3  502    0 -0.55891492591E+03  0.89129526686E+03 -0.13910960699E+04  0.17441225624E+04  0.46999998093E+01 0. -1.
       -5    1    3    3    0  502  0.55891492591E+03 -0.89129526686E+03  0.15418125311E+04  0.18665479148E+04  0.46999998093E+01 0.  1.
</event>
<event>
 5   0  0.2086250E-07  0.3590265E+04  0.7818609E-02  0.8092725E-01
       -1   -1    0    0    0  501  0.00000000000E+00  0.00000000000E+00  0.12368520046E+04  0.12368520046E+04  0.50400001928E-02 0.  1.
        1   -1    0    0  501    0  0.00000000000E+00  0.00000000000E+00 -0.26054053531E+04  0.26054053531E+04  0.50400001928E-02 0. -1.
    10030    2    1    2    0    0  0.00000000000E+00  0.00000000000E+00 -0.13685533485E+04  0.38422573577E+04  0.35902650787E+04 0.  0.
        2    1    3    3  502    0 -0.11421001415E+04  0.96036919182E+03 -0.17522140943E+04  0.23015116663E+04  0.25500000920E-02 0. -1.
       -2    1    3    3    0  502  0.11421001415E+04 -0.96036919182E+03  0.38366074574E+03  0.15407456915E+04  0.25500000920E-02 0.  1.
</event>
<event>
 5   0  0.2086250E-07  0.3569078E+04  0.7818609E-02  0.8097612E-01
        1   -1    0    0  501    0  0.00000000000E+00  0.00000000000E+00  0.24115400257E+04  0.24115400257E+04  0.50400001928E-02 0.  1.
       -1   -1    0    0    0  501  0.00000000000E+00  0.00000000000E+00 -0.13205586070E+04  0.13205586070E+04  0.50400001928E-02 0. -1.
    10030    2    1    2    0    0  0.00000000000E+00  0.00000000000E+00  0.10909814187E+04  0.37320986327E+04  0.35690782771E+04 0.  0.
        4    1    3    3  502    0  0.94158834886E+03  0.85712460683E+03 -0.76194989946E+03  0.14838532517E+04  0.12699999809E+01 0. -1.
       -4    1    3    3    0  502 -0.94158834886E+03 -0.85712460683E+03  0.18529313182E+04  0.22482453810E+04  0.12699999809E+01 0.  1.
</event>
<event>
 5   0  0.2193129E-07  0.3617205E+04  0.7818609E-02  0.8086562E-01
       -1   -1    0    0    0  501  0.00000000000E+00  0.00000000000E+00  0.14432578955E+04  0.14432578955E+04  0.50400001928E-02 0. -1.
        1   -1    0    0  501    0  0.00000000000E+00  0.00000000000E+00 -0.22664295405E+04  0.22664295405E+04  0.50400001928E-02 0.  1.
    10030    2    1    2    0    0  0.00000000000E+00  0.00000000000E+00 -0.82317164499E+03  0.37096874359E+04  0.36172046272E+04 0.  0.
        1    1    3    3  502    0  0.70308374851E+03 -0.16621215429E+04 -0.53322499138E+03  0.18818351873E+04  0.50400001928E-02 0.  1.
       -1    1    3    3    0  502 -0.70308374851E+03  0.16621215429E+04 -0.28994665361E+03  0.18278522486E+04  0.50400001928E-02 0. -1.
</event>
<event>
 5   0  0.2108068E-07  0.3316037E+04  0.7818609E-02  0.8158827E-01
        1   -1    0    0  501    0  0.00000000000E+00  0.00000000000E+00  0.14385052064E+04  0.14385052064E+04  0.50400001928E-02 0. -1.
       -1   -1    0    0    0  501  0.00000000000E+00  0.00000000000E+00 -0.19110294442E+04  0.19110294442E+04  0.50400001928E-02 0.  1.
    10030    2    1    2    0    0  0.00000000000E+00  0.00000000000E+00 -0.47252423781E+03  0.33495346506E+04  0.33160372767E+04 0.  0.
        5    1    3    3  502    0  0.12317754141E+04  0.98700329273E+03 -0.74888998316E+03  0.17470845622E+04  0.46999998093E+01 0.  1.
       -5    1    3    3    0  502 -0.12317754141E+04 -0.98700329273E+03  0.27636574536E+03  0.16024500884E+04  0.46999998093E+01 0. -1.
</event>
<event>
 5   0  0.2086250E-07  0.3679082E+04  0.7818609E-02  0.8072613E-01
       -1   -1    0    0    0  501  0.00000000000E+00  0.00000000000E+00  0.17305012772E+04  0.17305012772E+04  0.50400001928E-02 0. -1.
        1   -1    0    0  501    0  0.00000000000E+00  0.00000000000E+00 -0.19554513515E+04  0.19554513516E+04  0.50400001928E-02 0.  1.
    10030    2    1    2    0    0  0.00000000000E+00  0.00000000000E+00 -0.22495007433E+03  0.36859526288E+04  0.36790819841E+04 0.  0.
        3    1    3    3  502    0 -0.23820984216E+03 -0.67864953965E+03  0.15837910435E+04  0.17394548589E+04  0.10100000352E+00 0. -1.
       -3    1    3    3    0  502  0.23820984216E+03  0.67864953965E+03 -0.18087411178E+04  0.19464977699E+04  0.10100000352E+00 0.  1.
</event>
<event>
 5   0  0.6848661E-07  0.3595391E+04  0.7818609E-02  0.8091548E-01
       -2   -1    0    0    0  501  0.00000000000E+00  0.00000000000E+00  0.13237596670E+04  0.13237596670E+04  0.25500000920E-02 0. -1.
        2   -1    0    0  501    0  0.00000000000E+00  0.00000000000E+00 -0.24413111605E+04  0.24413111605E+04  0.25500000920E-02 0.  1.
    10030    2    1    2    0    0  0.00000000000E+00  0.00000000000E+00 -0.11175514935E+04  0.37650708275E+04  0.35953910769E+04 0.  0.
        1    1    3    3  502    0  0.17356985960E+04 -0.42736203570E+03 -0.75862607876E+03  0.19418551576E+04  0.50400001928E-02 0.  1.
       -1    1    3    3    0  502 -0.17356985960E+04  0.42736203570E+03 -0.35892541470E+03  0.18232156699E+04  0.50400001928E-02 0. -1.
</event>
<event>
 5   0  0.2108068E-07  0.3887432E+04  0.7818609E-02  0.8027648E-01
       -1   -1    0    0    0  501  0.00000000000E+00  0.00000000000E+00  0.17970925873E+04  0.17970925873E+04  0.50400001928E-02 0.  1.
        1   -1    0    0  501    0  0.00000000000E+00  0.00000000000E+00 -0.21023024136E+04  0.21023024136E+04  0.50400001928E-02 0. -1.
    10030    2    1    2    0    0  0.00000000000E+00  0.00000000000E+00 -0.30520982631E+03  0.38993950008E+04  0.38874321003E+04 0.  0.
        5    1    3    3  502    0  0.16012251090E+03  0.15422118721E+03 -0.20895019347E+04  0.21013005064E+04  0.46999998093E+01 0. -1.
       -5    1    3    3    0  502 -0.16012251090E+03 -0.15422118721E+03  0.17842921084E+04  0.17980944945E+04  0.46999998093E+01 0.  1.
</event>
<event>
 5   0  0.2193129E-07  0.3615013E+04  0.7818609E-02  0.8087061E-01
       -1   -1    0    0    0  501  0.00000000000E+00  0.00000000000E+00  0.14853871653E+04  0.14853871654E+04  0.50400001928E-02 0. -1.
        1   -1    0    0  501    0  0.00000000000E+00  0.00000000000E+00 -0.21994800590E+04  0.21994800590E+04  0.50400001928E-02 0.  1.
    10030    2    1    2    0    0  0.00000000000E+00  0.00000000000E+00 -0.71409289367E+03  0.36848672244E+04  0.36150128355E+04 0.  0.
        1    1    3    3  502    0 -0.36599587473E+02  0.15497795008E+04 -0.13044818814E+04  0.20260377612E+04  0.50400001928E-02 0.  1.
       -1    1    3    3    0  502  0.36599587473E+02 -0.15497795008E+04  0.59038898772E+03  0.16588294632E+04  0.50400001928E-02 0. -1.
</event>
<event>
 5   0  0.2086250E-07  0.3072866E+04  0.7818609E-02  0.8223224E-01
        1   -1    0    0  501    0  0.00000000000E+00  0.00000000000E+00  0.16068019013E+04  0.16068019013E+04  0.50400001928E-02 0.  1.
       -1   -1    0    0    0  501  0.00000000000E+00  0.00000000000E+00 -0.14691453968E+04  0.14691453968E+04  0.50400001928E-02 0. -1.
    10030    2    1    2    0    0  0.00000000000E+00  0.00000000000E+00  0.13765650455E+03  0.30759472981E+04  0.30728655140E+04 0.  0.
        3    1    3    3  502    0  0.57488327250E+03 -0.14241661586E+04  0.25361409989E+02  0.15360283967E+04  0.10100000352E+00 0.  1.
       -3    1    3    3    0  502 -0.57488327250E+03  0.14241661586E+04  0.11229509456E+03  0.15399189013E+04  0.10100000352E+00 0. -1.
</event>
<event>
 5   0  0.2086250E-07  0.3580973E+04  0.7818609E-02  0.8094864E-01
        1   -1    0    0  501    0  0.00000000000E+00  0.00000000000E+00  0.22382351262E+04  0.22382351262E+04  0.50400001928E-02 0. -1.
       -1   -1    0    0    0  501  0.00000000000E+00  0.00000000000E+00 -0.14323080207E+04  0.14323080207E+04  0.50400001928E-02 0.  1.
    10030    2    1    2    0    0  0.00000000000E+00  0.00000000000E+00  0.80592710552E+03  0.36705431469E+04  0.35809731211E+04 0.  0.
        4    1    3    3  502    0  0.12976065259E+04 -0.21378983329E+03  0.16484075098E+04  0.21087289347E+04  0.12699999809E+01 0. -1.
       -4    1    3    3    0  502 -0.12976065259E+04  0.21378983329E+03 -0.84248040425E+03  0.15618142122E+04  0.12699999809E+01 0.  1.
</event>
<event>
 5   0  0.2086250E-07  0.3638301E+04  0.7818609E-02  0.8081774E-01
        1   -1    0    0  501    0  0.00000000000E+00  0.00000000000E+00  0.14688091267E+04  0.14688091267E+04  0.50400001928E-02 0. -1.
       -1   -1    0    0    0  501  0.00000000000E+00  0.00000000000E+00 -0.22530550347E+04  0.22530550347E+04  0.50400001928E-02 0.  1.
    10030    2    1    2    0    0  0.00000000000E+00  0.00000000000E+00 -0.78424590799E+03  0.37218641614E+04  0.36383005912E+04 0.  0.
        3    1    3    3  502    0  0.10782447244E+04 -0.65980893537E+03 -0.17303541252E+04  0.21429150533E+04  0.10100000352E+00 0.  1.
       -3    1    3    3    0  502 -0.10782447244E+04  0.65980893537E+03  0.94610821723E+03  0.15789491081E+04  0.10100000352E+00 0. -1.
</event>
<event>
 5   0  0.6848661E-07  0.3836319E+04  0.7818609E-02  0.8038406E-01
        2   -1    0    0  501    0  0.00000000000E+00  0.00000000000E+00  0.15687972160E+04  0.15687972160E+04  0.25500000920E-02 0.  1.
       -2   -1    0    0    0  501  0.00000000000E+00  0.00000000000E+00 -0.23453224495E+04  0.23453224495E+04  0.25500000920E-02 0. -1.
    10030    2    1    2    0    0  0.00000000000E+00  0.00000000000E+00 -0.77652523350E+03  0.39141196655E+04  0.38363187195E+04 0.  0.
        1    1    3    3  502    0  0.16788647871E+04 -0.73415797834E+03 -0.96700558515E+03  0.20718770987E+04  0.50400001928E-02 0.  1.
       -1    1    3    3    0  502 -0.16788647871E+04  0.73415797834E+03  0.19048035165E+03  0.18422425668E+04  0.50400001928E-02 0. -1.
</event>
<event>
 5   0  0.6729577E-07  0.3634518E+04  0.7818609E-02  0.8082630E-01
        2   -1    0    0  501    0  0.00000000000E+00  0.00000000000E+00  0.15563547456E+04  0.15563547456E+04  0.25500000920E-02 0.  1.
       -2   -1    0    0    0  501  0.00000000000E+00  0.00000000000E+00 -0.21219003370E+04  0.21219003370E+04  0.25500000920E-02 0. -1.
    10030    2    1    2    0    0  0.00000000000E+00  0.00000000000E+00 -0.56554559140E+03  0.36782550825E+04  0.36345176621E+04 0.  0.
        3    1    3    3  502    0  0.18823275232E+03  0.80159287160E+03  0.13567367860E+04  0.15870467597E+04  0.10100000352E+00 0.  1.
       -3    1    3    3    0  502 -0.18823275232E+03 -0.80159287160E+03 -0.19222823774E+04  0.20912083228E+04  0.10100000352E+00 0. -1.
</event>
<event>
 5   0  0.2086250E-07  0.3456975E+04  0.7818609E-02  0.8124063E-01
        1   -1    0    0  501    0  0.00000000000E+00  0.00000000000E+00  0.21618018002E+04  0.21618018002E+04  0.50400001928E-02 0. -1.
       -1   -1    0    0    0  501  0.00000000000E+00  0.00000000000E+00 -0.13820276671E+04  0.13820276671E+04  0.50400001928E-02 0.  1.
    10030    2    1    2    0    0  0.00000000000E+00  0.00000000000E+00  0.77977413306E+03  0.35438294673E+04  0.34569754982E+04 0.  0.
        3    1    3    3  502    0 -0.11462949013E+04 -0.68232359987E+03  0.15166438550E+04  0.20198430852E+04  0.10100000352E+00 0. -1.
       -3    1    3    3    0  502  0.11462949013E+04  0.68232359987E+03 -0.73686972193E+03  0.15239863821E+04  0.10100000352E+00 0.  1.
</event>
<event>
 5   0  0.2086250E-07  0.3589036E+04  0.7818609E-02  0.8093008E-01
       -1   -1    0    0    0  501  0.00000000000E+00  0.00000000000E+00  0.14947421745E+04  0.14947421745E+04  0.50400001928E-02 0.  1.
        1   -1    0    0  501    0  0.00000000000E+00  0.00000000000E+00 -0.21544154735E+04  0.21544154735E+04  0.50400001928E-02 0. -1.
    10030    2    1    2    0    0  0.00000000000E+00  0.00000000000E+00 -0.65967329900E+03  0.36491576481E+04  0.35890364555E+04 0.  0.
        2    1    3    3  502    0  0.31759770434E+03 -0.17660885526E+04 -0.31058290383E+03  0.18210982449E+04  0.25500000920E-02 0. -1.
       -2    1    3    3    0  502 -0.31759770434E+03  0.17660885526E+04 -0.34909039516E+03  0.18280594031E+04  0.25500000920E-02 0.  1.
</event>
<event>
 5   0  0.2086250E-07  0.3613798E+04  0.7818609E-02  0.8087339E-01
       -1   -1    0    0    0  501  0.00000000000E+00  0.00000000000E+00  0.14621313799E+04  0.14621313799E+04  0.50400001928E-02 0. -1.
        1   -1    0    0  501    0  0.00000000000E+00  0.00000000000E+00 -0.22329615259E+04  0.22329615259E+04  0.50400001928E-02 0.  1.
    10030    2    1    2    0    0  0.00000000000E+00  0.00000000000E+00 -0.77083014602E+03  0.36950929059E+04  0.36137975136E+04 0.  0.
        4    1    3    3  502    0 -0.40439590631E+03 -0.26001132012E+03  0.13955306982E+04  0.14760248907E+04  0.12699999809E+01 0. -1.
       -4    1    3    3    0  502  0.40439590631E+03  0.26001132012E+03 -0.21663608442E+04  0.22190680151E+04  0.12699999809E+01 0.  1.
</event>
<event>
 5   0  0.2086250E-07  0.3410509E+04  0.7818609E-02  0.8135332E-01
       -1   -1    0    0    0  501  0.00000000000E+00  0.00000000000E+00  0.18496868367E+04  0.18496868368E+04  0.50400001928E-02 0.  1.
        1   -1    0    0  501    0  0.00000000000E+00  0.00000000000E+00 -0.15720999669E+04  0.15720999669E+04  0.50400001928E-02 0. -1.
    10030    2    1    2    0    0  0.00000000000E+00  0.00000000000E+00  0.27758686985E+03  0.34217868036E+04  0.34105088270E+04 0.  0.
        2    1    3    3  502    0 -0.13721419757E+04  0.47317721048E+03 -0.75927678292E+03  0.16380389211E+04  0.25500000920E-02 0. -1.
       -2    1    3    3    0  502  0.13721419757E+04 -0.47317721048E+03  0.10368636528E+04  0.17837478825E+04  0.25500000920E-02 0.  1.
</event>
<event>
 5   0  0.2193129E-07  0.3588147E+04  0.7818609E-02  0.8093212E-01
        1   -1    0    0  501    0  0.00000000000E+00  0.00000000000E+00  0.18229842223E+04  0.18229842223E+04  0.50400001928E-02 0. -1.
       -1   -1    0    0    0  501  0.00000000000E+00  0.00000000000E+00 -0.17656210544E+04  0.17656210545E+04  0.50400001928E-02 0.  1.
    10030    2    1    2    0    0  0.00000000000E+00  0.00000000000E+00  0.57363167834E+02  0.35886052767E+04  0.35881467778E+04 0.  0.
        1    1    3    3  502    0 -0.69579597948E+03 -0.48426078192E+03 -0.15526778750E+04  0.17690249104E+04  0.50400001928E-02 0.  1.
       -1    1    3    3    0  502  0.69579597948E+03  0.48426078192E+03  0.16100410428E+04  0.18195803664E+04  0.50400001928E-02 0. -1.
</event>
<event>
 5   0  0.2108068E-07  0.3605208E+04  0.7818609E-02  0.8089300E-01
       -1   -1    0    0    0  501  0.00000000000E+00  0.00000000000E+00  0.21041594063E+04  0.21041594063E+04  0.50400001928E-02 0.  1.
        1   -1    0    0  501    0  0.00000000000E+00  0.00000000000E+00 -0.15442656786E+04  0.15442656786E+04  0.50400001928E-02 0. -1.
    10030    2    1    2    0    0  0.00000000000E+00  0.00000000000E+00  0.55989372767E+03  0.36484250849E+04  0.36052079848E+04 0.  0.
        5    1    3    3  502    0  0.24273180607E+03 -0.10805118036E+04 -0.11594018615E+04  0.16033275566E+04  0.46999998093E+01 0. -1.
       -5    1    3    3    0  502 -0.24273180607E+03  0.10805118036E+04  0.17192955891E+04  0.20450975283E+04  0.46999998093E+01 0.  1.
</event>
<event>
 5   0  0.6669864E-07  0.3550137E+04  0.7818609E-02  0.8102010E-01
        2   -1    0    0  501    0  0.00000000000E+00  0.00000000000E+00  0.25015974668E+04  0.25015974668E+04  0.25500000920E-02 0. -1.
       -2   -1    0    0    0  501  0.00000000000E+00  0.00000000000E+00 -0.12595424917E+04  0.12595424917E+04  0.25500000920E-02 0.  1.
    10030    2    1    2    0    0  0.00000000000E+00  0.00000000000E+00  0.12420549751E+04  0.37611399585E+04  0.35501370715E+04 0.  0.
        5    1    3    3  502    0  0.32581089717E+03  0.52682734197E+03  0.23833705106E+04  0.24625549476E+04  0.46999998093E+01 0. -1.
       -5    1    3    3    0  502 -0.32581089717E+03 -0.52682734197E+03 -0.11413155355E+04  0.12985850109E+04  0.46999998093E+01 0.  1.
</event>
<event>
 5   0  0.6541476E-07  0.3557266E+04  0.7818609E-02  0.8100351E-01
        2   -1    0    0  501    0  0.00000000000E+00  0.00000000000E+00  0.12691871106E+04  0.12691871106E+04  0.25500000920E-02 0.  1.
       -2   -1    0    0    0  501  0.00000000000E+00  0.00000000000E+00 -0.24925686924E+04  0.24925686924E+04  0.25500000920E-02 0. -1.
    10030    2    1    2    0    0  0.00000000000E+00  0.00000000000E+00 -0.12233815818E+04  0.37617558029E+04  0.35572663980E+04 0.  0.
        4    1    3    3  502    0  0.23402282540E+03 -0.14928786127E+04 -0.16037454102E+04  0.22035095163E+04  0.12699999809E+01 0.  1.
       -4    1    3    3    0  502 -0.23402282540E+03  0.14928786127E+04  0.38036382837E+03  0.15582462866E+04  0.12699999809E+01 0. -1.
</event>
<event>
 5   0  0.2108068E-07  0.3548024E+04  0.7818609E-02  0.8102502E-01
        1   -1    0    0  501    0  0.00000000000E+00  0.00000000000E+00  0.18872613590E+04  0.18872613590E+04  0.50400001928E-02 0.  1.
       -1   -1    0    0    0  501  0.00000000000E+00  0.00000000000E+00 -0.16675585385E+04  0.16675585385E+04  0.50400001928E-02 0. -1.
    10030    2    1    2    0    0  0.00000000000E+00  0.00000000000E+00  0.21970282056E+03  0.35548198975E+04  0.35480241226E+04 0.  0.
        5    1    3    3  502    0  0.14282758962E+04 -0.99192192521E+03  0.46154448768E+03  0.17991460601E+04  0.46999998093E+01 0. -1.
       -5    1    3    3    0  502 -0.14282758962E+04  0.99192192521E+03 -0.24184166712E+03  0.17556738374E+04  0.46999998093E+01 0.  1.
</event>
<event>
 5   0  0.6848661E-07  0.3654979E+04  0.7818609E-02  0.8078013E-01
       -2   -1    0    0    0  501  0.00000000000E+00  0.00000000000E+00  0.14399562128E+04  0.14399562128E+04  0.25500000920E-02 0. -1.
        2   -1    0    0  501    0  0.00000000000E+00  0.00000000000E+00 -0.23193187032E+04  0.23193187032E+04  0.25500000920E-02 0.  1.
    10030    2    1    2    0    0  0.00000000000E+00  0.00000000000E+00 -0.87936249037E+03  0.37592749160E+04  0.36549787283E+04 0.  0.
        1    1    3    3  502    0 -0.17301364061E+04 -0.37319588171E+03  0.28353464814E+02  0.17701556623E+04  0.50400001928E-02 0. -1.
       -1    1    3    3    0  502  0.17301364061E+04  0.37319588171E+03 -0.90771595519E+03  0.19891192536E+04  0.50400001928E-02 0.  1.
</event>
<event>
 5   0  0.6541476E-07  0.3599070E+04  0.7818609E-02  0.8090705E-01
       -2   -1    0    0    0  501  0.00000000000E+00  0.00000000000E+00  0.13223222901E+04  0.13223222901E+04  0.25500000920E-02 0.  1.
        2   -1    0    0  501    0  0.00000000000E+00  0.00000000000E+00 -0.24489693520E+04  0.24489693520E+04  0.25500000920E-02 0. -1.
    10030    2    1    2    0    0  0.00000000000E+00  0.00000000000E+00 -0.11266470619E+04  0.37712916421E+04  0.35990703032E+04 0.  0.
        4    1    3    3  502    0 -0.25759988606E+03 -0.97852482548E+03 -0.21226368068E+04  0.23514797813E+04  0.12699999809E+01 0. -1.
       -4    1    3    3    0  502  0.25759988606E+03  0.97852482548E+03  0.99598974484E+03  0.14198118608E+04  0.12699999809E+01 0.  1.
</event>
<event>
 5   0  0.6541476E-07  0.3598554E+04  0.7818609E-02  0.8090823E-01
        2   -1    0    0  501    0  0.00000000000E+00  0.00000000000E+00  0.21453987796E+04  0.21453987796E+04  0.25500000920E-02 0. -1.
       -2   -1    0    0    0  501  0.00000000000E+00  0.00000000000E+00 -0.15089957046E+04  0.15089957046E+04  0.25500000920E-02 0.  1.
    10030    2    1    2    0    0  0.00000000000E+00  0.00000000000E+00  0.63640307503E+03  0.36543944842E+04  0.35985539001E+04 0.  0.
        4    1    3    3  502    0 -0.16869847868E+03  0.23791668733E+03  0.21212334676E+04  0.21411904548E+04  0.12699999809E+01 0. -1.
       -4    1    3    3    0  502  0.16869847868E+03 -0.23791668733E+03 -0.14848303926E+04  0.15132040293E+04  0.12699999809E+01 0.  1.
</event>
<event>
 5   0  0.2193129E-07  0.3620449E+04  0.7818609E-02  0.8085824E-01
        1   -1    0    0  501    0  0.00000000000E+00  0.00000000000E+00  0.20606853209E+04  0.20606853209E+04  0.50400001928E-02 0. -1.
       -1   -1    0    0    0  501  0.00000000000E+00  0.00000000000E+00 -0.15902054767E+04  0.15902054767E+04  0.50400001928E-02 0.  1.
    10030    2    1    2    0    0  0.00000000000E+00  0.00000000000E+00  0.47047984415E+03  0.36508907977E+04  0.36204491893E+04 0.  0.
        1    1    3    3  502    0 -0.80352238423E+03 -0.11458847190E+04  0.13930283195E+04  0.19746462747E+04  0.50400001928E-02 0. -1.
       -1    1    3    3    0  502  0.80352238423E+03  0.11458847190E+04 -0.92254847535E+03  0.16762445229E+04  0.50400001928E-02 0.  1.
</event>
<event>
 5   0  0.2108068E-07  0.3611218E+04  0.7818609E-02  0.8087927E-01
       -1   -1    0    0    0  501  0.00000000000E+00  0.00000000000E+00  0.14843327884E+04  0.14843327884E+04  0.50400001928E-02 0. -1.
        1   -1    0    0  501    0  0.00000000000E+00  0.00000000000E+00 -0.21964238981E+04  0.21964238982E+04  0.50400001928E-02 0.  1.
    10030    2    1    2    0    0  0.00000000000E+00  0.00000000000E+00 -0.71209110978E+03  0.36807566865E+04  0.36112180821E+04 0.  0.
        5    1    3    3  502    0 -0.73608349359E+03  0.12689648801E+04  0.71689350121E+03  0.16328040784E+04  0.46999998093E+01 0. -1.
       -5    1    3    3    0  502  0.73608349359E+03 -0.12689648801E+04 -0.14289846110E+04  0.20479526081E+04  0.46999998093E+01 0.  1.
</event>
<event>
 5   0  0.2086250E-07  0.3044455E+04  0.7818609E-02  0.8231149E-01
       -1   -1    0    0    0  501  0.00000000000E+00  0.00000000000E+00  0.15703939448E+04  0.15703939448E+04  0.50400001928E-02 0. -1.
        1   -1    0    0  501    0  0.00000000000E+00  0.00000000000E+00 -0.14755386953E+04  0.14755386953E+04  0.50400001928E-02 0.  1.
    10030    2    1    2    0    0  0.00000000000E+00  0.00000000000E+00  0.94855249550E+02  0.30459326401E+04  0.30444553092E+04 0.  0.
        3    1    3    3  502    0  0.76619883447E+03 -0.93350481127E+03 -0.87967468714E+03  0.14940948604E+04  0.10100000352E+00 0.  1.
       -3    1    3    3    0  502 -0.76619883447E+03  0.93350481127E+03  0.97452993669E+03  0.15518377796E+04  0.10100000352E+00 0. -1.
</event>
<event>
 5   0  0.6541476E-07  0.3108686E+04  0.7818609E-02  0.8213358E-01
       -2   -1    0    0    0  501  0.00000000000E+00  0.00000000000E+00  0.10124488744E+04  0.10124488744E+04  0.25500000920E-02 0.  1.
        2   -1    0    0  501    0  0.00000000000E+00  0.00000000000E+00 -0.23862756658E+04  0.23862756658E+04  0.25500000920E-02 0. -1.
    10030    2    1    2    0    0  0.00000000000E+00  0.00000000000E+00 -0.13738267915E+04  0.33987245402E+04  0.31086859680E+04 0.  0.
        4    1    3    3  502    0 -0.14031950150E+04 -0.48887476890E+03 -0.11855654588E+04  0.19009265792E+04  0.12699999809E+01 0. -1.
       -4    1    3    3    0  502  0.14031950150E+04  0.48887476890E+03 -0.18826133266E+03  0.14977979610E+04  0.12699999809E+01 0.  1.
</event>
<event>
 5   0  0.2086250E-07  0.3594960E+04  0.7818609E-02  0.8091647E-01
       -1   -1    0    0    0  501  0.00000000000E+00  0.00000000000E+00  0.13023143373E+04  0.13023143373E+04  0.50400001928E-02 0.  1.
        1   -1    0    0  501    0  0.00000000000E+00  0.00000000000E+00 -0.24809168784E+04  0.24809168784E+04  0.50400001928E-02 0. -1.
    10030    2    1    2    0    0  0.00000000000E+00  0.00000000000E+00 -0.11786025411E+04  0.37832312157E+04  0.35949595939E+04 0.  0.
        4    1    3    3  502    0  0.15913380503E+04  0.21694827107E+03  0.26013141639E+03  0.16269890317E+04  0.12699999809E+01 0.  1.
       -4    1    3    3    0  502 -0.15913380503E+04 -0.21694827107E+03 -0.14387339575E+04  0.21562421840E+04  0.12699999809E+01 0. -1.
</event>
<event>
 5   0  0.6848661E-07  0.3594625E+04  0.7818609E-02  0.8091724E-01
        2   -1    0    0  501    0  0.00000000000E+00  0.00000000000E+00  0.13145998972E+04  0.13145998972E+04  0.25500000920E-02 0.  1.
       -2   -1    0    0    0  501  0.00000000000E+00  0.00000000000E+00 -0.24572746584E+04  0.24572746584E+04  0.25500000920E-02 0. -1.
    10030    2    1    2    0    0  0.00000000000E+00  0.00000000000E+00 -0.11426747611E+04  0.37718745556E+04  0.35946254400E+04 0.  0.
        1    1    3    3  502    0  0.42344069175E+03  0.28733212681E+03  0.12365443667E+04  0.13382465174E+04  0.50400001928E-02 0.  1.
       -1    1    3    3    0  502 -0.42344069175E+03 -0.28733212681E+03 -0.23792191278E+04  0.24336280383E+04  0.50400001928E-02 0. -1.
</event>
<event>
 5   0  0.2108068E-07  0.3606017E+04  0.7818609E-02  0.8089115E-01
        1   -1    0    0  501    0  0.00000000000E+00  0.00000000000E+00  0.18410135389E+04  0.18410135389E+04  0.50400001928E-02 0. -1.
       -1   -1    0    0    0  501  0.00000000000E+00  0.00000000000E+00 -0.17657876535E+04  0.17657876535E+04  0.50400001928E-02 0.  1.
    10030    2    1    2    0    0  0.00000000000E+00  0.00000000000E+00  0.75225885374E+02  0.36068011923E+04  0.36060166260E+04 0.  0.
        5    1    3    3  502    0 -0.97110363134E+03  0.45635208216E+03  0.14868993501E+04  0.18336278938E+04  0.46999998093E+01 0. -1.
       -5    1    3    3    0  502  0.97110363134E+03 -0.45635208216E+03 -0.14116734647E+04  0.17731732985E+04  0.46999998093E+01 0.  1.
</event>
<event>
 5   0  0.6729577E-07  0.3539039E+04  0.7818609E-02  0.8104600E-01
        2   -1    0    0  501    0  0.00000000000E+00  0.00000000000E+00  0.12206053423E+04  0.12206053423E+04  0.25500000920E-02 0.  1.
       -2   -1    0    0    0  501  0.00000000000E+00  0.00000000000E+00 -0.25652841686E+04  0.25652841686E+04  0.25500000920E-02 0. -1.
    10030    2    1    2    0    0  0.00000000000E+00  0.00000000000E+00 -0.13446788263E+04  0.37858895110E+04  0.35390391695E+04 0.  0.
        3    1    3    3  502    0 -0.25100089595E+03 -0.15997264458E+04  0.90921052627E+02  0.16218485747E+04  0.10100000352E+00 0.  1.
       -3    1    3    3    0  502  0.25100089595E+03  0.15997264458E+04 -0.14355998789E+04  0.21640409363E+04  0.10100000352E+00 0. -1.
</event>
<event>
 5   0  0.6848661E-07  0.3663470E+04  0.7818609E-02  0.8076106E-01
       -2   -1    0    0    0  501  0.00000000000E+00  0.00000000000E+00  0.19050063574E+04  0.19050063574E+04  0.25500000920E-02 0. -1.
        2   -1    0    0  501    0  0.00000000000E+00  0.00000000000E+00 -0.17612817658E+04  0.17612817658E+04  0.25500000920E-02 0.  1.
    10030    2    1    2    0    0  0.00000000000E+00  0.00000000000E+00  0.14372459163E+03  0.36662881231E+04  0.36634699185E+04 0.  0.
        1    1    3    3  502    0  0.11013912055E+04  0.54983159257E+03 -0.12856012991E+04  0.17799292311E+04  0.50400001928E-02 0.  1.
       -1    1    3    3    0  502 -0.11013912055E+04 -0.54983159257E+03  0.14293258907E+04  0.18863588920E+04  0.50400001928E-02 0. -1.
</event>
<event>
 5   0  0.2108068E-07  0.3603760E+04  0.7818609E-02  0.8089631E-01
       -1   -1    0    0    0  501  0.00000000000E+00  0.00000000000E+00  0.13891232482E+04  0.13891232482E+04  0.50400001928E-02 0.  1.
        1   -1    0    0  501    0  0.00000000000E+00  0.00000000000E+00 -0.23372804768E+04  0.23372804768E+04  0.50400001928E-02 0. -1.
    10030    2    1    2    0    0  0.00000000000E+00  0.00000000000E+00 -0.94815722862E+03  0.37264037250E+04  0.36037595080E+04 0.  0.
        5    1    3    3  502    0 -0.56555547284E+03 -0.82729660132E+03 -0.20225315014E+04  0.22571948129E+04  0.46999998093E+01 0. -1.
       -5    1    3    3    0  502  0.56555547284E+03  0.82729660132E+03  0.10743742727E+04  0.14692089121E+04  0.46999998093E+01 0.  1.
</event>
<event>
 5   0  0.2086250E-07  0.2967284E+04  0.7818609E-02  0.8253135E-01
        1   -1    0    0  501    0  0.00000000000E+00  0.00000000000E+00  0.23118981663E+04  0.23118981663E+04  0.50400001928E-02 0.  1.
       -1   -1    0    0    0  501  0.00000000000E+00  0.00000000000E+00 -0.95211534229E+03  0.95211534231E+03  0.50400001928E-02 0. -1.
    10030    2    1    2    0    0  0.00000000000E+00  0.00000000000E+00  0.13597828240E+04  0.32640135087E+04  0.29672840875E+04 0.  0.
        2    1    3    3  502    0  0.14054322071E+04 -0.43984571488E+03  0.48161723552E+03  0.15494060485E+04  0.25500000920E-02 0. -1.
       -2    1    3    3    0  502 -0.14054322071E+04  0.43984571488E+03  0.87816558852E+03  0.17146074602E+04  0.25500000920E-02 0.  1.
</event>
<event>
 5   0  0.6324216E-07  0.3594826E+04  0.7818609E-02  0.8091678E-01
       -2   -1    0    0    0  501  0.00000000000E+00  0.00000000000E+00  0.21481028109E+04  0.21481028109E+04  0.25500000920E-02 0.  1.
        2   -1    0    0  501    0  0.00000000000E+00  0.00000000000E+00 -0.15039750937E+04  0.15039750937E+04  0.25500000920E-02 0. -1.
    10030    2    1    2    0    0  0.00000000000E+00  0.00000000000E+00  0.64412771716E+03  0.36520779046E+04  0.35948257963E+04 0.  0.
        2    1    3    3  502    0 -0.59810244309E+03 -0.16237040885E+04  0.81617557633E+03  0.19131868887E+04  0.25500000920E-02 0. -1.
       -2    1    3    3    0  502  0.59810244309E+03  0.16237040885E+04 -0.17204785917E+03  0.17388910160E+04  0.25500000920E-02 0.  1.
</event>
<event>
 5   0  0.6324216E-07  0.3086637E+04  0.7818609E-02  0.8219415E-01
        2   -1    0    0  501    0  0.00000000000E+00  0.00000000000E+00  0.18227107656E+04  0.18227107656E+04  0.25500000920E-02 0.  1.
       -2   -1    0    0    0  501  0.00000000000E+00  0.00000000000E+00 -0.13067524839E+04  0.13067524839E+04  0.25500000920E-02 0. -1.
    10030    2    1    2    0    0  0.00000000000E+00  0.00000000000E+00  0.51595828162E+03  0.31294632495E+04  0.30866368885E+04 0.  0.
        2    1    3    3  502    0 -0.56806159615E+03  0.10239653707E+04 -0.76127151666E+03  0.13966865717E+04  0.25500000920E-02 0. -1.
       -2    1    3    3    0  502  0.56806159615E+03 -0.10239653707E+04  0.12772297983E+04  0.17327766778E+04  0.25500000920E-02 0.  1.
</event>
<event>
 5   0  0.2086250E-07  0.3602911E+04  0.7818609E-02  0.8089825E-01
       -1   -1    0    0    0  501  0.00000000000E+00  0.00000000000E+00  0.11793292152E+04  0.11793292153E+04  0.50400001928E-02 0.  1.
        1   -1    0    0  501    0  0.00000000000E+00  0.00000000000E+00 -0.27517686131E+04  0.27517686131E+04  0.50400001928E-02 0. -1.
    10030    2    1    2    0    0  0.00000000000E+00  0.00000000000E+00 -0.15724393978E+04  0.39310978283E+04  0.36029105562E+04 0.  0.
        3    1    3    3  502    0 -0.64499628738E+03 -0.16287559423E+04 -0.12444447814E+04  0.21488389782E+04  0.10100000352E+00 0. -1.
       -3    1    3    3    0  502  0.64499628738E+03  0.16287559423E+04 -0.32799461644E+03  0.17822588501E+04  0.10100000352E+00 0.  1.
</event>
<event>
 5   0  0.2086250E-07  0.3456901E+04  0.7818609E-02  0.8124081E-01
        1   -1    0    0  501    0  0.00000000000E+00  0.00000000000E+00  0.16873989293E+04  0.16873989293E+04  0.50400001928E-02 0. -1.
       -1   -1    0    0    0  501  0.00000000000E+00  0.00000000000E+00 -0.17705003585E+04  0.17705003585E+04  0.50400001928E-02 0.  1.
    10030    2    1    2    0    0  0.00000000000E+00  0.00000000000E+00 -0.83101429209E+02  0.34578992878E+04  0.34569005825E+04 0.  0.
        2    1    3    3  502    0 -0.71167357239E+03  0.92551072240E+03 -0.13164741677E+04  0.17595890444E+04  0.25500000920E-02 0.  1.
       -2    1    3    3    0  502  0.71167357239E+03 -0.92551072240E+03  0.12333727385E+04  0.16983102434E+04  0.25500000920E-02 0. -1.
</event>
<event>
 5   0  0.6848661E-07  0.3674094E+04  0.7818609E-02  0.8073727E-01
        2   -1    0    0  501    0  0.00000000000E+00  0.00000000000E+00  0.27573322265E+04  0.27573322265E+04  0.25500000920E-02 0.  1.
       -2   -1    0    0    0  501  0.00000000000E+00  0.00000000000E+00 -0.12239154285E+04  0.12239154285E+04  0.25500000920E-02 0. -1.
    10030    2    1    2    0    0  0.00000000000E+00  0.00000000000E+00  0.15334167980E+04  0.39812476549E+04  0.36740938765E+04 0.  0.
        1    1    3    3  502    0 -0.53464656369E+02  0.14660047777E+04  0.19649136146E+04  0.24521243831E+04  0.50400001928E-02 0.  1.
       -1    1    3    3    0  502  0.53464656369E+02 -0.14660047777E+04 -0.43149681656E+03  0.15291232718E+04  0.50400001928E-02 0. -1.
</event>
<event>
 5   0  0.2086250E-07  0.3619587E+04  0.7818609E-02  0.8086020E-01
        1   -1    0    0  501    0  0.00000000000E+00  0.00000000000E+00  0.16243197753E+04  0.16243197753E+04  0.50400001928E-02 0. -1.
       -1   -1    0    0    0  501  0.00000000000E+00  0.00000000000E+00 -0.20164454877E+04  0.20164454877E+04  0.50400001928E-02 0.  1.
    10030    2    1    2    0    0  0.00000000000E+00  0.00000000000E+00 -0.39212571242E+03  0.36407652630E+04  0.36195868722E+04 0.  0.
        4    1    3    3  502    0 -0.13609403724E+03  0.63260269133E+03  0.15039869799E+04  0.16372801228E+04  0.12699999809E+01 0. -1.
       -4    1    3    3    0  502  0.13609403724E+03 -0.63260269133E+03 -0.18961126923E+04  0.20034851402E+04  0.12699999809E+01 0.  1.
</event>
<event>
 5   0  0.6848661E-07  0.3569019E+04  0.7818609E-02  0.8097625E-01
        2   -1    0    0  501    0  0.00000000000E+00  0.00000000000E+00  0.25956338322E+04  0.25956338322E+04  0.25500000920E-02 0. -1.
       -2   -1    0    0    0  501  0.00000000000E+00  0.00000000000E+00 -0.12268579179E+04  0.12268579179E+04  0.25500000920E-02 0.  1.
    10030    2    1    2    0    0  0.00000000000E+00  0.00000000000E+00  0.13687759144E+04  0.38224917501E+04  0.35690188674E+04 0.  0.
        1    1    3    3  502    0 -0.17531196483E+04  0.31733955829E+03  0.57547502519E+03  0.18722458175E+04  0.50400001928E-02 0.  1.
       -1    1    3    3    0  502  0.17531196483E+04 -0.31733955829E+03  0.79330088919E+03  0.19502459326E+04  0.50400001928E-02 0. -1.
</event>
<event>
 5   0  0.2193129E-07  0.3605893E+04  0.7818609E-02  0.8089143E-01
        1   -1    0    0  501    0  0.00000000000E+00  0.00000000000E+00  0.28514372378E+04  0.28514372378E+04  0.50400001928E-02 0. -1.
       -1   -1    0    0    0  501  0.00000000000E+00  0.00000000000E+00 -0.11399921615E+04  0.11399921615E+04  0.50400001928E-02 0.  1.
    10030    2    1    2    0    0  0.00000000000E+00  0.00000000000E+00  0.17114450763E+04  0.39914293993E+04  0.36058930102E+04 0.  0.
        1    1    3    3  502    0  0.11051740987E+04  0.63690758158E+03  0.22661447014E+04  0.26004755072E+04  0.50400001928E-02 0. -1.
       -1    1    3    3    0  502 -0.11051740987E+04 -0.63690758158E+03 -0.55469962507E+03  0.13909538921E+04  0.50400001928E-02 0.  1.
</event>
<event>
 5   0  0.6541476E-07  0.3608556E+04  0.7818609E-02  0.8088535E-01
        2   -1    0    0  501    0  0.00000000000E+00  0.00000000000E+00  0.24699011790E+04  0.24699011790E+04  0.25500000920E-02 0. -1.
       -2   -1    0    0    0  501  0.00000000000E+00  0.00000000000E+00 -0.13180358257E+04  0.13180358257E+04  0.25500000920E-02 0.  1.
    10030    2    1    2    0    0  0.00000000000E+00  0.00000000000E+00  0.11518653533E+04  0.37879370047E+04  0.36085555226E+04 0.  0.
        4    1    3    3  502    0 -0.10726352860E+04  0.31976724872E+03 -0.90955321137E+03  0.14422503969E+04  0.12699999809E+01 0.  1.
       -4    1    3    3    0  502  0.10726352860E+04 -0.31976724872E+03  0.20614185647E+04  0.23456866078E+04  0.12699999809E+01 0. -1.
</event>
<event>
 5   0  0.2086250E-07  0.3631754E+04  0.7818609E-02  0.8083256E-01
       -3   -1    0    0    0  501  0.00000000000E+00  0.00000000000E+00  0.17748962194E+04  0.17748962223E+04  0.10100000352E+00 0. -1.
        3   -1    0    0  501    0  0.00000000000E+00  0.00000000000E+00 -0.18578042636E+04  0.18578042663E+04  0.10100000352E+00 0.  1.
    10030    2    1    2    0    0  0.00000000000E+00  0.00000000000E+00 -0.82908044171E+02  0.36327004886E+04  0.36317542725E+04 0.  0.
        5    1    3    3  502    0 -0.17032196005E+04 -0.15833515548E+01 -0.67124348443E+03  0.18307237421E+04  0.46999998093E+01 0. -1.
       -5    1    3    3    0  502  0.17032196005E+04  0.15833515548E+01  0.58833544026E+03  0.18019767465E+04  0.46999998093E+01 0.  1.
</event>
<event>
 5   0  0.6729577E-07  0.3565542E+04  0.7818609E-02  0.8098431E-01
       -2   -1    0    0    0  501  0.00000000000E+00  0.00000000000E+00  0.13163528038E+04  0.13163528038E+04  0.25500000920E-02 0.  1.
        2   -1    0    0  501    0  0.00000000000E+00  0.00000000000E+00 -0.24144533244E+04  0.24144533244E+04  0.25500000920E-02 0. -1.
    10030    2    1    2    0    0  0.00000000000E+00  0.00000000000E+00 -0.10981005205E+04  0.37308061282E+04  0.35655419803E+04 0.  0.
        3    1    3    3  502    0  0.22451190511E+03  0.66825380312E+03 -0.22624161919E+04  0.23697037318E+04  0.10100000352E+00 0. -1.
       -3    1    3    3    0  502 -0.22451190511E+03 -0.66825380312E+03  0.11643156713E+04  0.13611023965E+04  0.10100000352E+00 0.  1.
</event>
<event>
 5   0  0.6324216E-07  0.3510877E+04  0.7818609E-02  0.8111217E-01
        2   -1    0    0  501    0  0.00000000000E+00  0.00000000000E+00  0.20430842967E+04  0.20430842967E+04  0.25500000920E-02 0. -1.
       -2   -1    0    0    0  501  0.00000000000E+00  0.00000000000E+00 -0.15082906746E+04  0.15082906746E+04  0.25500000920E-02 0.  1.
    10030    2    1    2    0    0  0.00000000000E+00  0.00000000000E+00  0.53479362206E+03  0.35513749713E+04  0.35108773787E+04 0.  0.
        2    1    3    3  502    0  0.49781170258E+03 -0.11326184252E+04 -0.99232928728E+03  0.15859881471E+04  0.25500000920E-02 0.  1.
       -2    1    3    3    0  502 -0.49781170258E+03  0.11326184252E+04  0.15271229093E+04  0.19653868242E+04  0.25500000920E-02 0. -1.
</event>
<event>
 5   0  0.6848661E-07  0.3585876E+04  0.7818609E-02  0.8093735E-01
        2   -1    0    0  501    0  0.00000000000E+00  0.00000000000E+00  0.22772712724E+04  0.22772712724E+04  0.25500000920E-02 0.  1.
       -2   -1    0    0    0  501  0.00000000000E+00  0.00000000000E+00 -0.14116137452E+04  0.14116137452E+04  0.25500000920E-02 0. -1.
    10030    2    1    2    0    0  0.00000000000E+00  0.00000000000E+00  0.86565752717E+03  0.36888850176E+04  0.35858764227E+04 0.  0.
        1    1    3    3  502    0  0.81381851086E+03  0.15959653908E+04  0.35849425577E+03  0.18269986942E+04  0.50400001928E-02 0.  1.
       -1    1    3    3    0  502 -0.81381851086E+03 -0.15959653908E+04  0.50716327140E+03  0.18618863234E+04  0.50400001928E-02 0. -1.
</event>
<event>
 5   0  0.2086250E-07  0.3617519E+04  0.7818609E-02  0.8086490E-01
        1   -1    0    0  501    0  0.00000000000E+00  0.00000000000E+00  0.18190526320E+04  0.18190526320E+04  0.50400001928E-02 0. -1.
       -1   -1    0    0    0  501  0.00000000000E+00  0.00000000000E+00 -0.17985247283E+04  0.17985247283E+04  0.50400001928E-02 0.  1.
    10030    2    1    2    0    0  0.00000000000E+00  0.00000000000E+00  0.20527903743E+02  0.36175773603E+04  0.36175191172E+04 0.  0.
        4    1    3    3  502    0  0.13592578147E+04 -0.46564316381E+03  0.11090100727E+04  0.18150235032E+04  0.12699999809E+01 0. -1.
       -4    1    3    3    0  502 -0.13592578147E+04  0.46564316381E+03 -0.10884821690E+04  0.18025538571E+04  0.12699999809E+01 0.  1.
</event>
<event>
 5   0  0.6324216E-07  0.3028579E+04  0.7818609E-02  0.8235617E-01
       -2   -1    0    0    0  501  0.00000000000E+00  0.00000000000E+00  0.13785970376E+04  0.13785970376E+04  0.25500000920E-02 0. -1.
        2   -1    0    0  501    0  0.00000000000E+00  0.00000000000E+00 -0.16633382913E+04  0.16633382913E+04  0.25500000920E-02 0.  1.
    10030    2    1    2    0    0  0.00000000000E+00  0.00000000000E+00 -0.28474125370E+03  0.30419353289E+04  0.30285793639E+04 0.  0.
        2    1    3    3  502    0 -0.16289120298E+03  0.11773854532E+04  0.80001175036E+03  0.14327556841E+04  0.25500000920E-02 0. -1.
       -2    1    3    3    0  502  0.16289120298E+03 -0.11773854532E+04 -0.10847530041E+04  0.16091796448E+04  0.25500000920E-02 0.  1.
</event>
<event>
 5   0  0.2108068E-07  0.3581178E+04  0.7818609E-02  0.8094817E-01
       -1   -1    0    0    0  501  0.00000000000E+00  0.00000000000E+00  0.17019572447E+04  0.17019572447E+04  0.50400001928E-02 0.  1.
        1   -1    0    0  501    0  0.00000000000E+00  0.00000000000E+00 -0.18838359087E+04  0.18838359087E+04  0.50400001928E-02 0. -1.
    10030    2    1    2    0    0  0.00000000000E+00  0.00000000000E+00 -0.18187866396E+03  0.35857931534E+04  0.35811775564E+04 0.  0.
        5    1    3    3  502    0  0.49650677830E+03 -0.17118925636E+04  0.79841195206E+02  0.17842342438E+04  0.46999998093E+01 0. -1.
       -5    1    3    3    0  502 -0.49650677830E+03  0.17118925636E+04 -0.26171985916E+03  0.18015589096E+04  0.46999998093E+01 0.  1.
</event>
<event>
 5   0  0.2086250E-07  0.3602315E+04  0.7818609E-02  0.8089962E-01
        1   -1    0    0  501    0  0.00000000000E+00  0.00000000000E+00  0.13915240042E+04  0.13915240042E+04  0.50400001928E-02 0.  1.
       -1   -1    0    0    0  501  0.00000000000E+00  0.00000000000E+00 -0.23313773991E+04  0.23313773991E+04  0.50400001928E-02 0. -1.
    10030    2    1    2    0    0  0.00000000000E+00  0.00000000000E+00 -0.93985339495E+03  0.37229014033E+04  0.36023145968E+04 0.  0.
        4    1    3    3  502    0  0.17237497958E+04  0.27413877638E+03 -0.92944610833E+03  0.19774572330E+04  0.12699999809E+01 0.  1.
       -4    1    3    3    0  502 -0.17237497958E+04 -0.27413877638E+03 -0.10407286612E+02  0.17454441703E+04  0.12699999809E+01 0. -1.
</event>
<event>
 5   0  0.2086250E-07  0.3624021E+04  0.7818609E-02  0.8085011E-01
       -1   -1    0    0    0  501  0.00000000000E+00  0.00000000000E+00  0.11549233973E+04  0.11549233973E+04  0.50400001928E-02 0. -1.
        1   -1    0    0  501    0  0.00000000000E+00  0.00000000000E+00 -0.28429436132E+04  0.28429436132E+04  0.50400001928E-02 0.  1.
    10030    2    1    2    0    0  0.00000000000E+00  0.00000000000E+00 -0.16880202159E+04  0.39978670105E+04  0.36240210243E+04 0.  0.
        2    1    3    3  502    0  0.15675069055E+04 -0.90644872802E+03 -0.91927507024E+03  0.20307126459E+04  0.25500000920E-02 0. -1.
       -2    1    3    3    0  502 -0.15675069055E+04  0.90644872802E+03 -0.76874514561E+03  0.19671543646E+04  0.25500000920E-02 0.  1.
</event>
<event>
 5   0  0.2108068E-07  0.3448816E+04  0.7818609E-02  0.8126028E-01
       -1   -1    0    0    0  501  0.00000000000E+00  0.00000000000E+00  0.11932183858E+04  0.11932183858E+04  0.50400001928E-02 0.  1.
        1   -1    0    0  501    0  0.00000000000E+00  0.00000000000E+00 -0.24920694495E+04  0.24920694495E+04  0.50400001928E-02 0. -1.
    10030    2    1    2    0    0  0.00000000000E+00  0.00000000000E+00 -0.12988510638E+04  0.36852878353E+04  0.34488160785E+04 0.  0.
        5    1    3    3  502    0 -0.13730925830E+04  0.10430029125E+04 -0.63023059632E+03  0.18358788118E+04  0.46999998093E+01 0.  1.
       -5    1    3    3    0  502  0.13730925830E+04 -0.10430029125E+04 -0.66862046745E+03  0.18494090236E+04  0.46999998093E+01 0. -1.
</event>
<event>
 5   0  0.6729577E-07  0.3575504E+04  0.7818609E-02  0.8096126E-01
       -2   -1    0    0    0  501  0.00000000000E+00  0.00000000000E+00  0.12067099084E+04  0.12067099085E+04  0.25500000920E-02 0.  1.
        2   -1    0    0  501    0  0.00000000000E+00  0.00000000000E+00 -0.26485706218E+04  0.26485706218E+04  0.25500000920E-02 0. -1.
    10030    2    1    2    0    0  0.00000000000E+00  0.00000000000E+00 -0.14418607133E+04  0.38552805302E+04  0.35755035520E+04 0.  0.
        3    1    3    3  502    0  0.50384726248E+03  0.68008882665E+03  0.97698495173E+03  0.12926261958E+04  0.10100000352E+00 0.  1.
       -3    1    3    3    0  502 -0.50384726248E+03 -0.68008882665E+03 -0.24188456651E+04  0.25626543344E+04  0.10100000352E+00 0. -1.
</event>
<event>
 5   0  0.6541476E-07  0.3620869E+04  0.7818609E-02  0.8085728E-01
       -2   -1    0    0    0  501  0.00000000000E+00  0.00000000000E+00  0.17589317236E+04  0.17589317236E+04  0.25500000920E-02 0. -1.
        2   -1    0    0  501    0  0.00000000000E+00  0.00000000000E+00 -0.18634451666E+04  0.18634451666E+04  0.25500000920E-02 0.  1.
    10030    2    1    2    0    0  0.00000000000E+00  0.00000000000E+00 -0.10451344296E+03  0.36223768902E+04  0.36208688564E+04 0.  0.
        4    1    3    3  502    0  0.25668930306E+03  0.13889887499E+04 -0.11852000376E+04  0.18438763211E+04  0.12699999809E+01 0. -1.
       -4    1    3    3    0  502 -0.25668930306E+03 -0.13889887499E+04  0.10806865946E+04  0.17785005691E+04  0.12699999809E+01 0.  1.
</event>
<event>
 5   0  0.6669864E-07  0.3611471E+04  0.7818609E-02  0.8087869E-01
       -2   -1    0    0    0  501  0.00000000000E+00  0.00000000000E+00  0.10803239993E+04  0.10803239993E+04  0.25500000920E-02 0. -1.
        2   -1    0    0  501    0  0.00000000000E+00  0.00000000000E+00 -0.30182437392E+04  0.30182437392E+04  0.25500000920E-02 0.  1.
    10030    2    1    2    0    0  0.00000000000E+00  0.00000000000E+00 -0.19379197399E+04  0.40985677385E+04  0.36114712499E+04 0.  0.
        5    1    3    3  502    0  0.67008946010E+03 -0.15692025471E+04 -0.29828578747E+03  0.17321700319E+04  0.46999998093E+01 0. -1.
       -5    1    3    3    0  502 -0.67008946010E+03  0.15692025471E+04 -0.16396339524E+04  0.23663977067E+04  0.46999998093E+01 0.  1.
</event>
<event>
 5   0  0.2086250E-07  0.3630832E+04  0.7818609E-02  0.8083465E-01
        1   -1    0    0  501    0  0.00000000000E+00  0.00000000000E+00  0.20301217449E+04  0.20301217449E+04  0.50400001928E-02 0. -1.
       -1   -1    0    0    0  501  0.00000000000E+00  0.00000000000E+00 -0.16234179574E+04  0.16234179574E+04  0.50400001928E-02 0.  1.
    10030    2    1    2    0    0  0.00000000000E+00  0.00000000000E+00  0.40670378745E+03  0.36535397023E+04  0.36308324645E+04 0.  0.
        2    1    3    3  502    0  0.13983330383E+04 -0.80503186080E+03  0.10406160046E+04  0.19199722008E+04  0.25500000920E-02 0. -1.
       -2    1    3    3    0  502 -0.13983330383E+04  0.80503186080E+03 -0.63391221710E+03  0.17335675014E+04  0.25500000920E-02 0.  1.
</event>
<event>
 5   0  0.2086250E-07  0.3612467E+04  0.7818609E-02  0.8087642E-01
       -1   -1    0    0    0  501  0.00000000000E+00  0.00000000000E+00  0.16189286146E+04  0.16189286146E+04  0.50400001928E-02 0. -1.
        1   -1    0    0  501    0  0.00000000000E+00  0.00000000000E+00 -0.20152093541E+04  0.20152093541E+04  0.50400001928E-02 0.  1.
    10030    2    1    2    0    0  0.00000000000E+00  0.00000000000E+00 -0.39628073954E+03  0.36341379687E+04  0.36124673495E+04 0.  0.
        2    1    3    3  502    0  0.65109955072E+03  0.12859315847E+04 -0.12932150115E+04  0.19364802430E+04  0.25500000920E-02 0.  1.
       -2    1    3    3    0  502 -0.65109955072E+03 -0.12859315847E+04  0.89693427194E+03  0.16976577257E+04  0.25500000920E-02 0. -1.
</event>
<event>
 5   0  0.2086250E-07  0.3600155E+04  0.7818609E-02  0.8090456E-01
        3   -1    0    0  501    0  0.00000000000E+00  0.00000000000E+00  0.16423994372E+04  0.16423994403E+04  0.10100000352E+00 0.  1.
       -3   -1    0    0    0  501  0.00000000000E+00  0.00000000000E+00 -0.19728930246E+04  0.19728930272E+04  0.10100000352E+00 0. -1.
    10030    2    1    2    0    0  0.00000000000E+00  0.00000000000E+00 -0.33049358736E+03  0.36152924675E+04  0.36001546653E+04 0.  0.
        5    1    3    3  502    0 -0.89610267892E+03 -0.55736249474E+02  0.14014895790E+04  0.16644223234E+04  0.46999998093E+01 0.  1.
       -5    1    3    3    0  502  0.89610267892E+03  0.55736249474E+02 -0.17319831663E+04  0.19508701441E+04  0.46999998093E+01 0. -1.
</event>
<event>
 5   0  0.2086250E-07  0.3512994E+04  0.7818609E-02  0.8110717E-01
        1   -1    0    0  501    0  0.00000000000E+00  0.00000000000E+00  0.16392922311E+04  0.16392922311E+04  0.50400001928E-02 0.  1.
       -1   -1    0    0    0  501  0.00000000000E+00  0.00000000000E+00 -0.18820814515E+04  0.18820814515E+04  0.50400001928E-02 0. -1.
    10030    2    1    2    0    0  0.00000000000E+00  0.00000000000E+00 -0.24278922037E+03  0.35213736826E+04  0.35129938809E+04 0.  0.
        4    1    3    3  502    0  0.16031679895E+04  0.64718249080E+03 -0.43243643876E+03  0.17821323367E+04  0.12699999809E+01 0. -1.
       -4    1    3    3    0  502 -0.16031679895E+04 -0.64718249080E+03  0.18964721838E+03  0.17392413459E+04  0.12699999809E+01 0.  1.
</event>
<event>
 5   0  0.2086250E-07  0.3571265E+04  0.7818609E-02  0.8097106E-01
        1   -1    0    0  501    0  0.00000000000E+00  0.00000000000E+00  0.10373163089E+04  0.10373163089E+04  0.50400001928E-02 0. -1.
       -1   -1    0    0    0  501  0.00000000000E+00  0.00000000000E+00 -0.30737805158E+04  0.30737805158E+04  0.50400001928E-02 0.  1.
    10030    2    1    2    0    0  0.00000000000E+00  0.00000000000E+00 -0.20364642069E+04  0.41110968247E+04  0.35712645710E+04 0.  0.
        3    1    3    3  502    0  0.15193265324E+04  0.73884923745E+03 -0.35271493149E+03  0.17258792370E+04  0.10100000352E+00 0. -1.
       -3    1    3    3    0  502 -0.15193265324E+04 -0.73884923745E+03 -0.16837492754E+04  0.23852175876E+04  0.10100000352E+00 0.  1.
</event>
<event>
 5   0  0.6541476E-07  0.3600179E+04  0.7818609E-02  0.8090451E-01
        2   -1    0    0  501    0  0.00000000000E+00  0.00000000000E+00  0.19350611449E+04  0.19350611449E+04  0.25500000920E-02 0. -1.
       -2   -1    0    0    0  501  0.00000000000E+00  0.00000000000E+00 -0.16745318974E+04  0.16745318974E+04  0.25500000920E-02 0.  1.
    10030    2    1    2    0    0  0.00000000000E+00  0.00000000000E+00  0.26052924755E+03  0.36095930423E+04  0.36001786681E+04 0.  0.
        4    1    3    3  502    0 -0.46150494352E+03 -0.14533218252E+04 -0.82889204003E+03  0.17355675635E+04  0.12699999809E+01 0.  1.
       -4    1    3    3    0  502  0.46150494352E+03  0.14533218252E+04  0.10894212876E+04  0.18740254788E+04  0.12699999809E+01 0. -1.
</event>
<event>
 5   0  0.6669864E-07  0.3766399E+04  0.7818609E-02  0.8053404E-01
        2   -1    0    0  501    0  0.00000000000E+00  0.00000000000E+00  0.11886834846E+04  0.11886834846E+04  0.25500000920E-02 0. -1.
       -2   -1    0    0    0  501  0.00000000000E+00  0.00000000000E+00 -0.29835024004E+04  0.29835024004E+04  0.25500000920E-02 0.  1.
    10030    2    1    2    0    0  0.00000000000E+00  0.00000000000E+00 -0.17948189158E+04  0.41721858850E+04  0.37663988263E+04 0.  0.
        5    1    3    3  502    0  0.86230080563E+03  0.50863309166E+03 -0.26642953321E+04  0.28461837621E+04  0.46999998093E+01 0.  1.
       -5    1    3    3    0  502 -0.86230080563E+03 -0.50863309166E+03  0.86947641630E+03  0.13260021229E+04  0.46999998093E+01 0. -1.
</event>
<event>
 5   0  0.2108068E-07  0.3386250E+04  0.7818609E-02  0.8141289E-01
       -1   -1    0    0    0  501  0.00000000000E+00  0.00000000000E+00  0.16563361494E+04  0.16563361494E+04  0.50400001928E-02 0. -1.
        1   -1    0    0  501    0  0.00000000000E+00  0.00000000000E+00 -0.17307310990E+04  0.17307310990E+04  0.50400001928E-02 0.  1.
    10030    2    1    2    0    0  0.00000000000E+00  0.00000000000E+00 -0.74394949549E+02  0.33870672484E+04  0.33862501291E+04 0.  0.
        5    1    3    3  502    0 -0.75678997993E+03 -0.24682464715E+03 -0.15318796186E+04  0.17263634426E+04  0.46999998093E+01 0.  1.
       -5    1    3    3    0  502  0.75678997993E+03  0.24682464715E+03  0.14574846690E+04  0.16607038058E+04  0.46999998093E+01 0. -1.
</event>
<event>
 5   0  0.6848661E-07  0.3618086E+04  0.7818609E-02  0.8086361E-01
       -2   -1    0    0    0  501  0.00000000000E+00  0.00000000000E+00  0.26032713267E+04  0.26032713267E+04  0.25500000920E-02 0. -1.
        2   -1    0    0  501    0  0.00000000000E+00  0.00000000000E+00 -0.12571249826E+04  0.12571249826E+04  0.25500000920E-02 0.  1.
    10030    2    1    2    0    0  0.00000000000E+00  0.00000000000E+00  0.13461463441E+04  0.38603963093E+04  0.36180864673E+04 0.  0.
        1    1    3    3  502    0 -0.15979720187E+04 -0.36084575355E+03  0.14918745994E+04  0.22157197591E+04  0.50400001928E-02 0. -1.
       -1    1    3    3    0  502  0.15979720187E+04  0.36084575355E+03 -0.14572825530E+03  0.16446765502E+04  0.50400001928E-02 0.  1.
</event>
<event>
 5   0  0.6324216E-07  0.3361079E+04  0.7818609E-02  0.8147525E-01
        2   -1    0    0  501    0  0.00000000000E+00  0.00000000000E+00  0.29526205618E+04  0.29526205618E+04  0.25500000920E-02 0.  1.
       -2   -1    0    0    0  501  0.00000000000E+00  0.00000000000E+00 -0.95651049815E+03  0.95651049815E+03  0.25500000920E-02 0. -1.
    10030    2    1    2    0    0  0.00000000000E+00  0.00000000000E+00  0.19961100637E+04  0.39091310600E+04  0.33610787342E+04 0.  0.
        2    1    3    3  502    0  0.14994552147E+04 -0.40144768107E+03  0.17470198754E+04  0.23370076223E+04  0.25500000920E-02 0.  1.
       -2    1    3    3    0  502 -0.14994552147E+04  0.40144768107E+03  0.24909018822E+03  0.15721234377E+04  0.25500000920E-02 0. -1.
</event>
<event>
 5   0  0.6324216E-07  0.3434450E+04  0.7818609E-02  0.8129502E-01
       -2   -1    0    0    0  501  0.00000000000E+00  0.00000000000E+00  0.13183999617E+04  0.13183999617E+04  0.25500000920E-02 0.  1.
        2   -1    0    0  501    0  0.00000000000E+00  0.00000000000E+00 -0.22366977206E+04  0.22366977206E+04  0.25500000920E-02 0. -1.
    10030    2    1    2    0    0  0.00000000000E+00  0.00000000000E+00 -0.91829775891E+03  0.35550976823E+04  0.34344502845E+04 0.  0.
        2    1    3    3  502    0 -0.30308734243E+03  0.44214225995E+03  0.12295740252E+04  0.13413441015E+04  0.25500000920E-02 0.  1.
       -2    1    3    3    0  502  0.30308734243E+03 -0.44214225995E+03 -0.21478717842E+04  0.22137535808E+04  0.25500000920E-02 0. -1.
</event>
<event>
 5   0  0.2086250E-07  0.3596226E+04  0.7818609E-02  0.8091357E-01
       -1   -1    0    0    0  501  0.00000000000E+00  0.00000000000E+00  0.21123250888E+04  0.21123250888E+04  0.50400001928E-02 0. -1.
        1   -1    0    0  501    0  0.00000000000E+00  0.00000000000E+00 -0.15306404729E+04  0.15306404729E+04  0.50400001928E-02 0.  1.
    10030    2    1    2    0    0  0.00000000000E+00  0.00000000000E+00  0.58168461589E+03  0.36429655617E+04  0.35962259511E+04 0.  0.
        4    1    3    3  502    0 -0.17344460873E+04 -0.42378558249E+03  0.75211442226E+02  0.17870522722E+04  0.12699999809E+01 0.  1.
       -4    1    3    3    0  502  0.17344460873E+04  0.42378558249E+03  0.50647317366E+03  0.18559132895E+04  0.12699999809E+01 0. -1.
</event>
<event>
 5   0  0.2193129E-07  0.3595820E+04  0.7818609E-02  0.8091450E-01
        1   -1    0    0  501    0  0.00000000000E+00  0.00000000000E+00  0.26367522620E+04  0.26367522620E+04  0.50400001928E-02 0.  1.
       -1   -1    0    0    0  501  0.00000000000E+00  0.00000000000E+00 -0.12259324506E+04  0.12259324506E+04  0.50400001928E-02 0. -1.
    10030    2    1    2    0    0  0.00000000000E+00  0.00000000000E+00  0.14108198114E+04  0.38626847125E+04  0.35958198854E+04 0.  0.
        1    1    3    3  502    0 -0.17694010434E+04  0.18522259140E+03  0.98427731548E+03  0.20331968165E+04  0.50400001928E-02 0.  1.
       -1    1    3    3    0  502  0.17694010434E+04 -0.18522259140E+03  0.42654249594E+03  0.18294878960E+04  0.50400001928E-02 0. -1.
</event>
<event>
 5   0  0.6669864E-07  0.3619608E+04  0.7818609E-02  0.8086015E-01
       -2   -1    0    0    0  501  0.00000000000E+00  0.00000000000E+00  0.19538369115E+04  0.19538369115E+04  0.25500000920E-02 0.  1.
        2   -1    0    0  501    0  0.00000000000E+00  0.00000000000E+00 -0.16763890446E+04  0.16763890446E+04  0.25500000920E-02 0. -1.
    10030    2    1    2    0    0  0.00000000000E+00  0.00000000000E+00  0.27744786691E+03  0.36302259561E+04  0.36196081519E+04 0.  0.
        5    1    3    3  502    0  0.11251375324E+04  0.13379622668E+04  0.60838300049E+03  0.18510076876E+04  0.46999998093E+01 0.  1.
       -5    1    3    3    0  502 -0.11251375324E+04 -0.13379622668E+04 -0.33093513358E+03  0.17792182685E+04  0.46999998093E+01 0. -1.
</event>
<event>
 5   0  0.2108068E-07  0.3603004E+04  0.7818609E-02  0.8089804E-01
       -1   -1    0    0    0  501  0.00000000000E+00  0.00000000000E+00  0.13013455910E+04  0.13013455910E+04  0.50400001928E-02 0. -1.
        1   -1    0    0  501    0  0.00000000000E+00  0.00000000000E+00 -0.24938874257E+04  0.24938874257E+04  0.50400001928E-02 0.  1.
    10030    2    1    2    0    0  0.00000000000E+00  0.00000000000E+00 -0.11925418347E+04  0.37952330167E+04  0.36030039722E+04 0.  0.
        5    1    3    3  502    0 -0.10294754879E+04 -0.41588878950E+03  0.89808096788E+03  0.14280597958E+04  0.46999998093E+01 0. -1.
       -5    1    3    3    0  502  0.10294754879E+04  0.41588878950E+03 -0.20906228025E+04  0.23671732210E+04  0.46999998093E+01 0.  1.
</event>
<event>
 5   0  0.6324216E-07  0.3631969E+04  0.7818609E-02  0.8083208E-01
       -2   -1    0    0    0  501  0.00000000000E+00  0.00000000000E+00  0.20933759515E+04  0.20933759515E+04  0.25500000920E-02 0. -1.
        2   -1    0    0  501    0  0.00000000000E+00  0.00000000000E+00 -0.15753503386E+04  0.15753503386E+04  0.25500000920E-02 0.  1.
    10030    2    1    2    0    0  0.00000000000E+00  0.00000000000E+00  0.51802561292E+03  0.36687262901E+04  0.36319694459E+04 0.  0.
        2    1    3    3  502    0 -0.17429244569E+03 -0.15130830182E+04  0.12579612949E+04  0.19754150694E+04  0.25500000920E-02 0. -1.
       -2    1    3    3    0  502  0.17429244569E+03  0.15130830182E+04 -0.73993568198E+03  0.16933112207E+04  0.25500000920E-02 0.  1.
</event>
<event>
 5   0  0.6541476E-07  0.3613006E+04  0.7818609E-02  0.8087519E-01
       -2   -1    0    0    0  501  0.00000000000E+00  0.00000000000E+00  0.26383449839E+04  0.26383449839E+04  0.25500000920E-02 0.  1.
        2   -1    0    0  501    0  0.00000000000E+00  0.00000000000E+00 -0.12369318342E+04  0.12369318342E+04  0.25500000920E-02 0. -1.
    10030    2    1    2    0    0  0.00000000000E+00  0.00000000000E+00  0.14014131497E+04  0.38752768181E+04  0.36130058954E+04 0.  0.
        4    1    3    3  502    0  0.70758414050E+03 -0.10637248271E+04  0.20706302806E+04  0.24330427854E+04  0.12699999809E+01 0. -1.
       -4    1    3    3    0  502 -0.70758414050E+03  0.10637248271E+04 -0.66921713090E+03  0.14422340326E+04  0.12699999809E+01 0.  1.
</event>
<event>
 5   0  0.2086250E-07  0.3587987E+04  0.7818609E-02  0.8093249E-01
       -1   -1    0    0    0  501  0.00000000000E+00  0.00000000000E+00  0.11944486627E+04  0.11944486627E+04  0.50400001928E-02 0.  1.
        1   -1    0    0  501    0  0.00000000000E+00  0.00000000000E+00 -0.26944755325E+04  0.26944755325E+04  0.50400001928E-02 0. -1.
    10030    2    1    2    0    0  0.00000000000E+00  0.00000000000E+00 -0.15000268698E+04  0.38889241952E+04  0.35879870103E+04 0.  0.
        4    1    3    3  502    0 -0.17935040481E+04 -0.35459891347E+02 -0.72585231149E+03  0.19351427248E+04  0.12699999809E+01 0. -1.
       -4    1    3    3    0  502  0.17935040481E+04  0.35459891347E+02 -0.77417455830E+03  0.19537814704E+04  0.12699999809E+01 0.  1.
</event>
<event>
 5   0  0.6669864E-07  0.2892835E+04  0.7818609E-02  0.8275012E-01
        2   -1    0    0  501    0  0.00000000000E+00  0.00000000000E+00  0.15129078129E+04  0.15129078129E+04  0.25500000920E-02 0.  1.
       -2   -1    0    0    0  501  0.00000000000E+00  0.00000000000E+00 -0.13828495845E+04  0.13828495845E+04  0.25500000920E-02 0. -1.
    10030    2    1    2    0    0  0.00000000000E+00  0.00000000000E+00  0.13005822834E+03  0.28957573974E+04  0.28928352462E+04 0.  0.
        5    1    3    3  502    0 -0.36640593541E+03  0.96937739187E+03  0.10750855482E+04  0.14932437388E+04  0.46999998093E+01 0.  1.
       -5    1    3    3    0  502  0.36640593541E+03 -0.96937739187E+03 -0.94502731987E+03  0.14025136586E+04  0.46999998093E+01 0. -1.
</event>
<event>
 5   0  0.6729577E-07  0.3567485E+04  0.7818609E-02  0.8097980E-01
       -2   -1    0    0    0  501  0.00000000000E+00  0.00000000000E+00  0.10474441749E+04  0.10474441749E+04  0.25500000920E-02 0. -1.
        2   -1    0    0  501    0  0.00000000000E+00  0.00000000000E+00 -0.30376207840E+04  0.30376207840E+04  0.25500000920E-02 0.  1.
    10030    2    1    2    0    0  0.00000000000E+00  0.00000000000E+00 -0.19901766091E+04  0.40850649589E+04  0.35674854986E+04 0.  0.
        3    1    3    3  502    0 -0.11732762720E+04 -0.37343125457E+03  0.48278245502E+03  0.13225380983E+04  0.10100000352E+00 0. -1.
       -3    1    3    3    0  502  0.11732762720E+04  0.37343125457E+03 -0.24729590641E+04  0.27625268606E+04  0.10100000352E+00 0.  1.
</event>
<event>
 5   0  0.6541476E-07  0.3704033E+04  0.7818609E-02  0.8067069E-01
       -2   -1    0    0    0  501  0.00000000000E+00  0.00000000000E+00  0.12352046036E+04  0.12352046036E+04  0.25500000920E-02 0. -1.
        2   -1    0    0  501    0  0.00000000000E+00  0.00000000000E+00 -0.27768394052E+04  0.27768394052E+04  0.25500000920E-02 0.  1.
    10030    2    1    2    0    0  0.00000000000E+00  0.00000000000E+00 -0.15416348016E+04  0.40120440088E+04  0.37040328383E+04 0.  0.
        4    1    3    3  502    0 -0.11960286960E+03 -0.16132435381E+04 -0.17475233065E+04  0.23813229263E+04  0.12699999809E+01 0.  1.
       -4    1    3    3    0  502  0.11960286960E+03  0.16132435381E+04  0.20588850485E+03  0.16307210825E+04  0.12699999809E+01 0. -1.
</event>
<event>
 5   0  0.2086250E-07  0.3596550E+04  0.7818609E-02  0.8091282E-01
       -1   -1    0    0    0  501  0.00000000000E+00  0.00000000000E+00  0.11156891035E+04  0.11156891036E+04  0.50400001928E-02 0.  1.
        1   -1    0    0  501    0  0.00000000000E+00  0.00000000000E+00 -0.28984712613E+04  0.28984712613E+04  0.50400001928E-02 0. -1.
    10030    2    1    2    0    0  0.00000000000E+00  0.00000000000E+00 -0.17827821578E+04  0.40141603649E+04  0.35965499041E+04 0.  0.
        2    1    3    3  502    0  0.62157762861E+03 -0.49516830076E+03 -0.26918470392E+04  0.28067046294E+04  0.25500000920E-02 0. -1.
       -2    1    3    3    0  502 -0.62157762861E+03  0.49516830076E+03  0.90906488141E+03  0.12074557355E+04  0.25500000920E-02 0.  1.
</event>
<event>
 5   0  0.6669864E-07  0.3590222E+04  0.7818609E-02  0.8092735E-01
        2   -1    0    0  501    0  0.00000000000E+00  0.00000000000E+00  0.23796228626E+04  0.23796228626E+04  0.25500000920E-02 0.  1.
       -2   -1    0    0    0  501  0.00000000000E+00  0.00000000000E+00 -0.13541738963E+04  0.13541738963E+04  0.25500000920E-02 0. -1.
    10030    2    1    2    0    0  0.00000000000E+00  0.00000000000E+00  0.10254489663E+04  0.37337967589E+04  0.35902218113E+04 0.  0.
        5    1    3    3  502    0 -0.23871923529E+03  0.17084515306E+04 -0.37306440383E+01  0.17250592783E+04  0.46999998093E+01 0. -1.
       -5    1    3    3    0  502  0.23871923529E+03 -0.17084515306E+04  0.10291796103E+04  0.20087374806E+04  0.46999998093E+01 0.  1.
</event>
<event>
 5   0  0.2108068E-07  0.3605117E+04  0.7818609E-02  0.8089321E-01
        1   -1    0    0  501    0  0.00000000000E+00  0.00000000000E+00  0.18597728046E+04  0.18597728046E+04  0.50400001928E-02 0. -1.
       -1   -1    0    0    0  501  0.00000000000E+00  0.00000000000E+00 -0.17471044568E+04  0.17471044568E+04  0.50400001928E-02 0.  1.
    10030    2    1    2    0    0  0.00000000000E+00  0.00000000000E+00  0.11266834776E+03  0.36068772615E+04  0.36051171163E+04 0.  0.
        5    1    3    3  502    0 -0.17590914614E+04  0.37458520674E+03  0.17671922297E+03  0.18071991093E+04  0.46999998093E+01 0.  1.
       -5    1    3    3    0  502  0.17590914614E+04 -0.37458520674E+03 -0.64050875207E+02  0.17996781522E+04  0.46999998093E+01 0. -1.
</event>
<event>
 5   0  0.6541476E-07  0.3262867E+04  0.7818609E-02  0.8172409E-01
       -2   -1    0    0    0  501  0.00000000000E+00  0.00000000000E+00  0.11763192219E+04  0.11763192219E+04  0.25500000920E-02 0.  1.
        2   -1    0    0  501    0  0.00000000000E+00  0.00000000000E+00 -0.22626298942E+04  0.22626298942E+04  0.25500000920E-02 0. -1.
    10030    2    1    2    0    0  0.00000000000E+00  0.00000000000E+00 -0.10863106723E+04  0.34389491161E+04  0.32628668600E+04 0.  0.
        4    1    3    3  502    0 -0.80997415660E+03 -0.81445131880E+02  0.94696030497E+03  0.12487701454E+04  0.12699999809E+01 0.  1.
       -4    1    3    3    0  502  0.80997415660E+03  0.81445131880E+02 -0.20332709773E+04  0.21901789707E+04  0.12699999809E+01 0. -1.
</event>
<event>
 5   0  0.2193129E-07  0.3489398E+04  0.7818609E-02  0.8116307E-01
       -1   -1    0    0    0  501  0.00000000000E+00  0.00000000000E+00  0.13898286486E+04  0.13898286486E+04  0.50400001928E-02 0.  1.
        1   -1    0    0  501    0  0.00000000000E+00  0.00000000000E+00 -0.21901799794E+04  0.21901799794E+04  0.50400001928E-02 0. -1.
    10030    2    1    2    0    0  0.00000000000E+00  0.00000000000E+00 -0.80035133083E+03  0.35800086280E+04  0.34893981607E+04 0.  0.
        1    1    3    3  502    0 -0.10131748135E+04 -0.65087440403E+03 -0.16954220533E+04  0.20795712615E+04  0.50400001928E-02 0. -1.
       -1    1    3    3    0  502  0.10131748135E+04  0.65087440403E+03  0.89507072251E+03  0.15004373665E+04  0.50400001928E-02 0.  1.
</event>
<event>
 5   0  0.6669864E-07  0.3582321E+04  0.7818609E-02  0.8094553E-01
       -2   -1    0    0    0  501  0.00000000000E+00  0.00000000000E+00  0.27790209581E+04  0.27790209581E+04  0.25500000920E-02 0.  1.
        2   -1    0    0  501    0  0.00000000000E+00  0.00000000000E+00 -0.11544552003E+04  0.11544552004E+04  0.25500000920E-02 0. -1.
    10030    2    1    2    0    0  0.00000000000E+00  0.00000000000E+00  0.16245657577E+04  0.39334761584E+04  0.35823205870E+04 0.  0.
        5    1    3    3  502    0 -0.12623068236E+04  0.38264123252E+03 -0.51827662755E+03  0.14172034372E+04  0.46999998093E+01 0. -1.
       -5    1    3    3    0  502  0.12623068236E+04 -0.38264123252E+03  0.21428423853E+04  0.25162727213E+04  0.46999998093E+01 0.  1.
</event>
<event>
 5   0  0.2108068E-07  0.3585349E+04  0.7818609E-02  0.8093856E-01
       -1   -1    0    0    0  501  0.00000000000E+00  0.00000000000E+00  0.15449025527E+04  0.15449025528E+04  0.50400001928E-02 0. -1.
        1   -1    0    0  501    0  0.00000000000E+00  0.00000000000E+00 -0.20801846303E+04  0.20801846303E+04  0.50400001928E-02 0.  1.
    10030    2    1    2    0    0  0.00000000000E+00  0.00000000000E+00 -0.53528207759E+03  0.36250871831E+04  0.35853493808E+04 0.  0.
        5    1    3    3  502    0  0.10300749754E+04  0.11116685718E+04  0.70046746625E+03  0.16695922346E+04  0.46999998093E+01 0. -1.
       -5    1    3    3    0  502 -0.10300749754E+04 -0.11116685718E+04 -0.12357495438E+04  0.19554949485E+04  0.46999998093E+01 0.  1.
</event>
<event>
 5   0  0.2108068E-07  0.2940257E+04  0.7818609E-02  0.8261000E-01
        1   -1    0    0  501    0  0.00000000000E+00  0.00000000000E+00  0.20093705840E+04  0.20093705840E+04  0.50400001928E-02 0. -1.
       -1   -1    0    0    0  501  0.00000000000E+00  0.00000000000E+00 -0.10755992250E+04  0.10755992250E+04  0.50400001928E-02 0.  1.
    10030    2    1    2    0    0  0.00000000000E+00  0.00000000000E+00  0.93377135903E+03  0.30849698090E+04  0.29402567526E+04 0.  0.
        5    1    3    3  502    0  0.12881239558E+04 -0.44516242289E+03 -0.11144414435E+03  0.13674336531E+04  0.46999998093E+01 0. -1.
       -5    1    3    3    0  502 -0.12881239558E+04  0.44516242289E+03  0.10452155034E+04  0.17175361559E+04  0.46999998093E+01 0.  1.
</event>
<event>
 5   0  0.6669864E-07  0.3361489E+04  0.7818609E-02  0.8147423E-01
       -2   -1    0    0    0  501  0.00000000000E+00  0.00000000000E+00  0.13091114150E+04  0.13091114150E+04  0.25500000920E-02 0.  1.
        2   -1    0    0  501    0  0.00000000000E+00  0.00000000000E+00 -0.21578781264E+04  0.21578781264E+04  0.25500000920E-02 0. -1.
    10030    2    1    2    0    0  0.00000000000E+00  0.00000000000E+00 -0.84876671141E+03  0.34669895414E+04  0.33614894838E+04 0.  0.
        5    1    3    3  502    0  0.19091131662E+03 -0.75566506919E+03  0.11114467801E+04  0.13575024356E+04  0.46999998093E+01 0.  1.
       -5    1    3    3    0  502 -0.19091131662E+03  0.75566506919E+03 -0.19602134915E+04  0.21094871059E+04  0.46999998093E+01 0. -1.
</event>
<event>
 5   0  0.2193129E-07  0.3467540E+04  0.7818609E-02  0.8121526E-01
        1   -1    0    0  501    0  0.00000000000E+00  0.00000000000E+00  0.27374975035E+04  0.27374975035E+04  0.50400001928E-02 0. -1.
       -1   -1    0    0    0  501  0.00000000000E+00  0.00000000000E+00 -0.10980678798E+04  0.10980678799E+04  0.50400001928E-02 0.  1.
    10030    2    1    2    0    0  0.00000000000E+00  0.00000000000E+00  0.16394296236E+04  0.38355653833E+04  0.34675398078E+04 0.  0.
        1    1    3    3  502    0 -0.58426415835E+03 -0.49633607121E+03 -0.90040220501E+03  0.11825558055E+04  0.50400001928E-02 0.  1.
       -1    1    3    3    0  502  0.58426415835E+03  0.49633607121E+03  0.25398318286E+04  0.26530095778E+04  0.50400001928E-02 0. -1.
</event>
<event>
 5   0  0.2086250E-07  0.3585468E+04  0.7818609E-02  0.8093829E-01
        1   -1    0    0  501    0  0.00000000000E+00  0.00000000000E+00  0.28529987652E+04  0.28529987652E+04  0.50400001928E-02 0.  1.
       -1   -1    0    0    0  501  0.00000000000E+00  0.00000000000E+00 -0.11264970101E+04  0.11264970101E+04  0.50400001928E-02 0. -1.
    10030    2    1    2    0    0  0.00000000000E+00  0.00000000000E+00  0.17265017551E+04  0.39794957753E+04  0.35854676564E+04 0.  0.
        4    1    3    3  502    0 -0.12054074815E+04 -0.13040842484E+04  0.59081712174E+03  0.18715526729E+04  0.12699999809E+01 0. -1.
       -4    1    3    3    0  502  0.12054074815E+04  0.13040842484E+04  0.11356846334E+04  0.21079431024E+04  0.12699999809E+01 0.  1.
</event>
<event>
 5   0  0.2108068E-07  0.3584416E+04  0.7818609E-02  0.8094071E-01
        1   -1    0    0  501    0  0.00000000000E+00  0.00000000000E+00  0.10642272576E+04  0.10642272576E+04  0.50400001928E-02 0. -1.
       -1   -1    0    0    0  501  0.00000000000E+00  0.00000000000E+00 -0.30181607474E+04  0.30181607474E+04  0.50400001928E-02 0.  1.
    10030    2    1    2    0    0  0.00000000000E+00  0.00000000000E+00 -0.19539334898E+04  0.40823880050E+04  0.35844156763E+04 0.  0.
        5    1    3    3  502    0  0.11518657100E+04 -0.60508645963E+03 -0.23806972828E+04  0.27130547137E+04  0.46999998093E+01 0.  1.
       -5    1    3    3    0  502 -0.11518657100E+04  0.60508645963E+03  0.42676379299E+03  0.13693332913E+04  0.46999998093E+01 0. -1.
</event>
<event>
 5   0  0.2086250E-07  0.3591653E+04  0.7818609E-02  0.8092406E-01
        1   -1    0    0  501    0  0.00000000000E+00  0.00000000000E+00  0.14291000834E+04  0.14291000834E+04  0.50400001928E-02 0. -1.
       -1   -1    0    0    0  501  0.00000000000E+00  0.00000000000E+00 -0.22566599266E+04  0.22566599266E+04  0.50400001928E-02 0.  1.
    10030    2    1    2    0    0  0.00000000000E+00  0.00000000000E+00 -0.82755984321E+03  0.36857600101E+04  0.35916530397E+04 0.  0.
        4    1    3    3  502    0 -0.12068782537E+04  0.13185861606E+04 -0.59083075752E+03  0.18826330442E+04  0.12699999809E+01 0. -1.
       -4    1    3    3    0  502  0.12068782537E+04 -0.13185861606E+04 -0.23672908568E+03  0.18031269659E+04  0.12699999809E+01 0.  1.
</event>
<event>
 5   0  0.2086250E-07  0.3603407E+04  0.7818609E-02  0.8089712E-01
        1   -1    0    0  501    0  0.00000000000E+00  0.00000000000E+00  0.11585223751E+04  0.11585223751E+04  0.50400001928E-02 0. -1.
       -1   -1    0    0    0  501  0.00000000000E+00  0.00000000000E+00 -0.28019625453E+04  0.28019625454E+04  0.50400001928E-02 0.  1.
    10030    2    1    2    0    0  0.00000000000E+00  0.00000000000E+00 -0.16434401703E+04  0.39604849204E+04  0.36034074446E+04 0.  0.
        4    1    3    3  502    0 -0.65586138645E+03  0.95708959029E+02  0.10196551548E+04  0.12161466238E+04  0.12699999809E+01 0. -1.
       -4    1    3    3    0  502  0.65586138645E+03 -0.95708959029E+02 -0.26630953251E+04  0.27443382966E+04  0.12699999809E+01 0.  1.
</event>
<event>
 5   0  0.2086250E-07  0.3712859E+04  0.7818609E-02  0.8065118E-01
       -1   -1    0    0    0  501  0.00000000000E+00  0.00000000000E+00  0.16513018240E+04  0.16513018240E+04  0.50400001928E-02 0. -1.
        1   -1    0    0  501    0  0.00000000000E+00  0.00000000000E+00 -0.20870380021E+04  0.20870380021E+04  0.50400001928E-02 0.  1.
    10030    2    1    2    0    0  0.00000000000E+00  0.00000000000E+00 -0.43573617802E+03  0.37383398261E+04  0.37128585535E+04 0.  0.
        4    1    3    3  502    0  0.26869713725E+02  0.18529827664E+04 -0.10729210323E+03  0.18562813155E+04  0.12699999809E+01 0. -1.
       -4    1    3    3    0  502 -0.26869713725E+02 -0.18529827664E+04 -0.32844407479E+03  0.18820585106E+04  0.12699999809E+01 0.  1.
</event>
<event>
 5   0  0.2086250E-07  0.3604019E+04  0.7818609E-02  0.8089572E-01
        1   -1    0    0  501    0  0.00000000000E+00  0.00000000000E+00  0.16972155269E+04  0.16972155269E+04  0.50400001928E-02 0. -1.
       -1   -1    0    0    0  501  0.00000000000E+00  0.00000000000E+00 -0.19132739340E+04  0.19132739340E+04  0.50400001928E-02 0.  1.
    10030    2    1    2    0    0  0.00000000000E+00  0.00000000000E+00 -0.21605840715E+03  0.36104894609E+04  0.36040189944E+04 0.  0.
        3    1    3    3  502    0  0.40524885274E+03  0.15061506645E+04  0.79609970622E+03  0.17511399742E+04  0.10100000352E+00 0. -1.
       -3    1    3    3    0  502 -0.40524885274E+03 -0.15061506645E+04 -0.10121581134E+04  0.18593494867E+04  0.10100000352E+00 0.  1.
</event>
<event>
 5   0  0.6324216E-07  0.3494171E+04  0.7818609E-02  0.8115173E-01
       -2   -1    0    0    0  501  0.00000000000E+00  0.00000000000E+00  0.12926584595E+04  0.12926584595E+04  0.25500000920E-02 0.  1.
        2   -1    0    0  501    0  0.00000000000E+00  0.00000000000E+00 -0.23612644893E+04  0.23612644893E+04  0.25500000920E-02 0. -1.
    10030    2    1    2    0    0  0.00000000000E+00  0.00000000000E+00 -0.10686060298E+04  0.36539229488E+04  0.34941714423E+04 0.  0.
        2    1    3    3  502    0  0.30526839408E+03  0.14497387030E+04  0.43397750640E+03  0.15437835261E+04  0.25500000920E-02 0.  1.
       -2    1    3    3    0  502 -0.30526839408E+03 -0.14497387030E+04 -0.15025835362E+04  0.21101394226E+04  0.25500000920E-02 0. -1.
</event>
<event>
 5   0  0.2086250E-07  0.3647331E+04  0.7818609E-02  0.8079735E-01
       -1   -1    0    0    0  501  0.00000000000E+00  0.00000000000E+00  0.20546152856E+04  0.20546152856E+04  0.50400001928E-02 0. -1.
        1   -1    0    0  501    0  0.00000000000E+00  0.00000000000E+00 -0.16186758402E+04  0.16186758402E+04  0.50400001928E-02 0.  1.
    10030    2    1    2    0    0  0.00000000000E+00  0.00000000000E+00  0.43593944536E+03  0.36732911258E+04  0.36473311469E+04 0.  0.
        3    1    3    3  502    0 -0.34755932939E+03  0.10290543048E+04  0.16933215754E+04  0.20117376115E+04  0.10100000352E+00 0. -1.
       -3    1    3    3    0  502  0.34755932939E+03 -0.10290543048E+04 -0.12573821301E+04  0.16615535143E+04  0.10100000352E+00 0.  1.
</event>
<event>
 5   0  0.2193129E-07  0.3581915E+04  0.7818609E-02  0.8094647E-01
        1   -1    0    0  501    0  0.00000000000E+00  0.00000000000E+00  0.18767474539E+04  0.18767474539E+04  0.50400001928E-02 0. -1.
       -1   -1    0    0    0  501  0.00000000000E+00  0.00000000000E+00 -0.17090896523E+04  0.17090896523E+04  0.50400001928E-02 0.  1.
    10030    2    1    2    0    0  0.00000000000E+00  0.00000000000E+00  0.16765780157E+03  0.35858371063E+04  0.35819154951E+04 0.  0.
        1    1    3    3  502    0 -0.15654559740E+04 -0.30339222063E+03 -0.73243512845E+03  0.17547536760E+04  0.50400001928E-02 0.  1.
       -1    1    3    3    0  502  0.15654559740E+04  0.30339222063E+03  0.90009293001E+03  0.18310834303E+04  0.50400001928E-02 0. -1.
</event>
<event>
 5   0  0.6669864E-07  0.3491820E+04  0.7818609E-02  0.8115731E-01
        2   -1    0    0  501    0  0.00000000000E+00  0.00000000000E+00  0.31762388153E+04  0.31762388153E+04  0.25500000920E-02 0.  1.
       -2   -1    0    0    0  501  0.00000000000E+00  0.00000000000E+00 -0.95968933806E+03  0.95968933806E+03  0.25500000920E-02 0. -1.
    10030    2    1    2    0    0  0.00000000000E+00  0.00000000000E+00  0.22165494772E+04  0.41359281533E+04  0.34918204571E+04 0.  0.
        5    1    3    3  502    0  0.90110531613E+03 -0.69812268219E+03  0.26746396182E+04  0.29074190010E+04  0.46999998093E+01 0.  1.
       -5    1    3    3    0  502 -0.90110531613E+03  0.69812268219E+03 -0.45809014097E+03  0.12285091523E+04  0.46999998093E+01 0. -1.
</event>
<event>
 5   0  0.2086250E-07  0.3632296E+04  0.7818609E-02  0.8083134E-01
       -1   -1    0    0    0  501  0.00000000000E+00  0.00000000000E+00  0.24353691167E+04  0.24353691167E+04  0.50400001928E-02 0.  1.
        1   -1    0    0  501    0  0.00000000000E+00  0.00000000000E+00 -0.13543711983E+04  0.13543711983E+04  0.50400001928E-02 0. -1.
    10030    2    1    2    0    0  0.00000000000E+00  0.00000000000E+00  0.10809979184E+04  0.37897403150E+04  0.36322961272E+04 0.  0.
        2    1    3    3  502    0 -0.35747526496E+03 -0.13341316549E+04  0.17708941119E+04  0.22458320938E+04  0.25500000920E-02 0.  1.
       -2    1    3    3    0  502  0.35747526496E+03  0.13341316549E+04 -0.68989619351E+03  0.15439082212E+04  0.25500000920E-02 0. -1.
</event>
<event>
 5   0  0.2108068E-07  0.3625273E+04  0.7818609E-02  0.8084727E-01
       -1   -1    0    0    0  501  0.00000000000E+00  0.00000000000E+00  0.17370289777E+04  0.17370289777E+04  0.50400001928E-02 0.  1.
        1   -1    0    0  501    0  0.00000000000E+00  0.00000000000E+00 -0.18915350906E+04  0.18915350906E+04  0.50400001928E-02 0. -1.
    10030    2    1    2    0    0  0.00000000000E+00  0.00000000000E+00 -0.15450611295E+03  0.36285640683E+04  0.36252731013E+04 0.  0.
        5    1    3    3  502    0 -0.90215764670E+03  0.15655620011E+04 -0.22145457396E+03  0.18204222085E+04  0.46999998093E+01 0. -1.
       -5    1    3    3    0  502  0.90215764670E+03 -0.15655620011E+04  0.66948461006E+02  0.18081418598E+04  0.46999998093E+01 0.  1.
</event>
<event>
 5   0  0.2086250E-07  0.3290811E+04  0.7818609E-02  0.8165237E-01
       -1   -1    0    0    0  501  0.00000000000E+00  0.00000000000E+00  0.15662714360E+04  0.15662714360E+04  0.50400001928E-02 0.  1.
        1   -1    0    0  501    0  0.00000000000E+00  0.00000000000E+00 -0.17285378275E+04  0.17285378275E+04  0.50400001928E-02 0. -1.
    10030    2    1    2    0    0  0.00000000000E+00  0.00000000000E+00 -0.16226639153E+03  0.32948092635E+04  0.32908111008E+04 0.  0.
        4    1    3    3  502    0 -0.48789446084E+03  0.15144931139E+04  0.33845521081E+03  0.16267402803E+04  0.12699999809E+01 0.  1.
       -4    1    3    3    0  502  0.48789446084E+03 -0.15144931139E+04 -0.50072160233E+03  0.16680689832E+04  0.12699999809E+01 0. -1.
</event>
<event>
 5   0  0.2086250E-07  0.3589845E+04  0.7818609E-02  0.8092822E-01
        1   -1    0    0  501    0  0.00000000000E+00  0.00000000000E+00  0.18196265968E+04  0.18196265968E+04  0.50400001928E-02 0.  1.
       -1   -1    0    0    0  501  0.00000000000E+00  0.00000000000E+00 -0.17705537024E+04  0.17705537024E+04  0.50400001928E-02 0. -1.
    10030    2    1    2    0    0  0.00000000000E+00  0.00000000000E+00  0.49072894440E+02  0.35901802993E+04  0.35898449036E+04 0.  0.
        4    1    3    3  502    0  0.26846972424E+03  0.12132102042E+04 -0.12708799051E+04  0.17773835654E+04  0.12699999809E+01 0. -1.
       -4    1    3    3    0  502 -0.26846972424E+03 -0.12132102042E+04  0.13199527995E+04  0.18127967339E+04  0.12699999809E+01 0.  1.
</event>
<event>
 5   0  0.6541476E-07  0.3244755E+04  0.7818609E-02  0.8177097E-01
        2   -1    0    0  501    0  0.00000000000E+00  0.00000000000E+00  0.96565725451E+03  0.96565725451E+03  0.25500000920E-02 0.  1.
       -2   -1    0    0    0  501  0.00000000000E+00  0.00000000000E+00 -0.27257169665E+04  0.27257169665E+04  0.25500000920E-02 0. -1.
    10030    2    1    2    0    0  0.00000000000E+00  0.00000000000E+00 -0.17600597120E+04  0.36913742210E+04  0.32447547596E+04 0.  0.
        4    1    3    3  502    0  0.12957217243E+04 -0.28079772934E+03  0.18375175687E+03  0.13384724400E+04  0.12699999809E+01 0.  1.
       -4    1    3    3    0  502 -0.12957217243E+04  0.28079772934E+03 -0.19438114689E+04  0.23529017810E+04  0.12699999809E+01 0. -1.
</event>
<event>
 5   0  0.2086250E-07  0.3608265E+04  0.7818609E-02  0.8088601E-01
        1   -1    0    0  501    0  0.00000000000E+00  0.00000000000E+00  0.23159339055E+04  0.23159339055E+04  0.50400001928E-02 0.  1.
       -1   -1    0    0    0  501  0.00000000000E+00  0.00000000000E+00 -0.14054351340E+04  0.14054351340E+04  0.50400001928E-02 0. -1.
    10030    2    1    2    0    0  0.00000000000E+00  0.00000000000E+00  0.91049877150E+03  0.37213690395E+04  0.36082654442E+04 0.  0.
        3    1    3    3  502    0  0.17596835142E+04  0.17079465537E+03  0.84483857679E+02  0.17699701740E+04  0.10100000352E+00 0. -1.
       -3    1    3    3    0  502 -0.17596835142E+04 -0.17079465537E+03  0.82601491383E+03  0.19513988656E+04  0.10100000352E+00 0.  1.
</event>
<event>
 5   0  0.6324216E-07  0.3524105E+04  0.7818609E-02  0.8108101E-01
       -2   -1    0    0    0  501  0.00000000000E+00  0.00000000000E+00  0.12442997569E+04  0.12442997569E+04  0.25500000920E-02 0. -1.
        2   -1    0    0  501    0  0.00000000000E+00  0.00000000000E+00 -0.24952426321E+04  0.24952426321E+04  0.25500000920E-02 0.  1.
    10030    2    1    2    0    0  0.00000000000E+00  0.00000000000E+00 -0.12509428753E+04  0.37395423890E+04  0.35241054470E+04 0.  0.
        2    1    3    3  502    0 -0.16674334051E+04 -0.54316653250E+03 -0.44332177351E+03  0.18088389197E+04  0.25500000920E-02 0.  1.
       -2    1    3    3    0  502  0.16674334051E+04  0.54316653250E+03 -0.80762110177E+03  0.19307034693E+04  0.25500000920E-02 0. -1.
</event>
<event>
 5   0  0.6669864E-07  0.3596654E+04  0.7818609E-02  0.8091258E-01
       -2   -1    0    0    0  501  0.00000000000E+00  0.00000000000E+00  0.28558160928E+04  0.28558160928E+04  0.25500000920E-02 0.  1.
        2   -1    0    0  501    0  0.00000000000E+00  0.00000000000E+00 -0.11324191414E+04  0.11324191414E+04  0.25500000920E-02 0. -1.
    10030    2    1    2    0    0  0.00000000000E+00  0.00000000000E+00  0.17233969514E+04  0.39882352342E+04  0.35966544498E+04 0.  0.
        5    1    3    3  502    0 -0.11632693291E+04  0.99479468747E+03  0.19084814650E+04  0.24464536772E+04  0.46999998093E+01 0.  1.
       -5    1    3    3    0  502  0.11632693291E+04 -0.99479468747E+03 -0.18508451364E+03  0.15417815570E+04  0.46999998093E+01 0. -1.
</event>
<event>
 5   0  0.6729577E-07  0.3594466E+04  0.7818609E-02  0.8091760E-01
        2   -1    0    0  501    0  0.00000000000E+00  0.00000000000E+00  0.17999529277E+04  0.17999529277E+04  0.25500000920E-02 0.  1.
       -2   -1    0    0    0  501  0.00000000000E+00  0.00000000000E+00 -0.17945174073E+04  0.17945174073E+04  0.25500000920E-02 0. -1.
    10030    2    1    2    0    0  0.00000000000E+00  0.00000000000E+00  0.54355204466E+01  0.35944703350E+04  0.35944662253E+04 0.  0.
        3    1    3    3  502    0 -0.11592845956E+04  0.13695064922E+04  0.10547022651E+03  0.17973905487E+04  0.10100000352E+00 0.  1.
       -3    1    3    3    0  502  0.11592845956E+04 -0.13695064922E+04 -0.10003470606E+03  0.17970797863E+04  0.10100000352E+00 0. -1.
</event>
<event>
 5   0  0.2086250E-07  0.3602323E+04  0.7818609E-02  0.8089960E-01
        1   -1    0    0  501    0  0.00000000000E+00  0.00000000000E+00  0.19847828938E+04  0.19847828938E+04  0.50400001928E-02 0. -1.
       -1   -1    0    0    0  501  0.00000000000E+00  0.00000000000E+00 -0.16345277558E+04  0.16345277558E+04  0.50400001928E-02 0.  1.
    10030    2    1    2    0    0  0.00000000000E+00  0.00000000000E+00  0.35025513803E+03  0.36193106496E+04  0.36023229890E+04 0.  0.
        2    1    3    3  502    0 -0.99088562459E+03  0.11155547531E+04 -0.83852357573E+03  0.17115602576E+04  0.25500000920E-02 0.  1.
       -2    1    3    3    0  502  0.99088562459E+03 -0.11155547531E+04  0.11887787138E+04  0.19077503921E+04  0.25500000920E-02 0. -1.
</event>
<event>
 5   0  0.6729577E-07  0.3569959E+04  0.7818609E-02  0.8097408E-01
       -2   -1    0    0    0  501  0.00000000000E+00  0.00000000000E+00  0.27993918380E+04  0.27993918380E+04  0.25500000920E-02 0. -1.
        2   -1    0    0  501    0  0.00000000000E+00  0.00000000000E+00 -0.11381587511E+04  0.11381587511E+04  0.25500000920E-02 0.  1.
    10030    2    1    2    0    0  0.00000000000E+00  0.00000000000E+00  0.16612330869E+04  0.39375505891E+04  0.35699592816E+04 0.  0.
        3    1    3    3  502    0  0.68975082662E+03  0.14674437512E+03 -0.97800273742E+03  0.12057277798E+04  0.10100000352E+00 0.  1.
       -3    1    3    3    0  502 -0.68975082662E+03 -0.14674437512E+03  0.26392358243E+04  0.27318228092E+04  0.10100000352E+00 0. -1.
</event>
<event>
 5   0  0.2108068E-07  0.3612404E+04  0.7818609E-02  0.8087656E-01
        1   -1    0    0  501    0  0.00000000000E+00  0.00000000000E+00  0.14960423519E+04  0.14960423519E+04  0.50400001928E-02 0.  1.
       -1   -1    0    0    0  501  0.00000000000E+00  0.00000000000E+00 -0.21806639314E+04  0.21806639314E+04  0.50400001928E-02 0. -1.
    10030    2    1    2    0    0  0.00000000000E+00  0.00000000000E+00 -0.68462157954E+03  0.36767062834E+04  0.36124039623E+04 0.  0.
        5    1    3    3  502    0  0.15568438821E+04 -0.15306470370E+03 -0.12612396286E+04  0.20094624076E+04  0.46999998093E+01 0. -1.
       -5    1    3    3    0  502 -0.15568438821E+04  0.15306470370E+03  0.57661804909E+03  0.16672438758E+04  0.46999998093E+01 0.  1.
</event>
<event>
 5   0  0.2086250E-07  0.3561873E+04  0.7818609E-02  0.8099281E-01
        1   -1    0    0  501    0  0.00000000000E+00  0.00000000000E+00  0.13975805105E+04  0.13975805105E+04  0.50400001928E-02 0.  1.
       -1   -1    0    0    0  501  0.00000000000E+00  0.00000000000E+00 -0.22694472849E+04  0.22694472849E+04  0.50400001928E-02 0. -1.
    10030    2    1    2    0    0  0.00000000000E+00  0.00000000000E+00 -0.87186677448E+03  0.36670277954E+04  0.35618732684E+04 0.  0.
        3    1    3    3  502    0  0.34508763393E+02 -0.15177837573E+04 -0.13944826838E+04  0.20614170743E+04  0.10100000352E+00 0. -1.
       -3    1    3    3    0  502 -0.34508763393E+02  0.15177837573E+04  0.52261590929E+03  0.16056107211E+04  0.10100000352E+00 0.  1.
</event>
<event>
 5   0  0.2193129E-07  0.3645865E+04  0.7818609E-02  0.8080066E-01
        1   -1    0    0  501    0  0.00000000000E+00  0.00000000000E+00  0.16698641260E+04  0.16698641260E+04  0.50400001928E-02 0.  1.
       -1   -1    0    0    0  501  0.00000000000E+00  0.00000000000E+00 -0.19900322065E+04  0.19900322066E+04  0.50400001928E-02 0. -1.
    10030    2    1    2    0    0  0.00000000000E+00  0.00000000000E+00 -0.32016808053E+03  0.36598963326E+04  0.36458652698E+04 0.  0.
        1    1    3    3  502    0 -0.22799710663E+01 -0.81295646885E+03 -0.17979821228E+04  0.19732316469E+04  0.50400001928E-02 0. -1.
       -1    1    3    3    0  502  0.22799710663E+01  0.81295646885E+03  0.14778140422E+04  0.16866646857E+04  0.50400001928E-02 0.  1.
</event>
<event>
 5   0  0.6541476E-07  0.3586368E+04  0.7818609E-02  0.8093621E-01
       -2   -1    0    0    0  501  0.00000000000E+00  0.00000000000E+00  0.29163522405E+04  0.29163522405E+04  0.25500000920E-02 0. -1.
        2   -1    0    0  501    0  0.00000000000E+00  0.00000000000E+00 -0.11025793116E+04  0.11025793116E+04  0.25500000920E-02 0.  1.
    10030    2    1    2    0    0  0.00000000000E+00  0.00000000000E+00  0.18137729289E+04  0.40189315521E+04  0.35863684394E+04 0.  0.
        4    1    3    3  502    0 -0.91165821837E+03  0.48297364520E+03 -0.73668429671E+03  0.12677103829E+04  0.12699999809E+01 0.  1.
       -4    1    3    3    0  502  0.91165821837E+03 -0.48297364520E+03  0.25504572256E+04  0.27512211692E+04  0.12699999809E+01 0. -1.
</event>
<event>
 5   0  0.2086250E-07  0.3599279E+04  0.7818609E-02  0.8090657E-01
       -1   -1    0    0    0  501  0.00000000000E+00  0.00000000000E+00  0.15854210852E+04  0.15854210852E+04  0.50400001928E-02 0. -1.
        1   -1    0    0  501    0  0.00000000000E+00  0.00000000000E+00 -0.20428031452E+04  0.20428031453E+04  0.50400001928E-02 0.  1.
    10030    2    1    2    0    0  0.00000000000E+00  0.00000000000E+00 -0.45738206001E+03  0.36282242305E+04  0.35992794721E+04 0.  0.
        4    1    3    3  502    0 -0.10502044280E+03  0.81895401593E+03 -0.18406084003E+04  0.20173140235E+04  0.12699999809E+01 0.  1.
       -4    1    3    3    0  502  0.10502044280E+03 -0.81895401593E+03  0.13832263402E+04  0.16109102069E+04  0.12699999809E+01 0. -1.
</event>
<event>
 5   0  0.2086250E-07  0.3643843E+04  0.7818609E-02  0.8080522E-01
        4   -1    0    0  501    0  0.00000000000E+00  0.00000000000E+00  0.22859884802E+04  0.22859888330E+04  0.12699999809E+01 0.  1.
       -4   -1    0    0    0  501  0.00000000000E+00  0.00000000000E+00 -0.14520613790E+04  0.14520619344E+04  0.12699999809E+01 0. -1.
    10030    2    1    2    0    0  0.00000000000E+00  0.00000000000E+00  0.83392710122E+03  0.37380507674E+04  0.36438426323E+04 0.  0.
        4    1    3    3  502    0  0.10258371701E+04  0.14951237190E+04  0.59949304271E+03  0.19097461496E+04  0.12699999809E+01 0. -1.
       -4    1    3    3    0  502 -0.10258371701E+04 -0.14951237190E+04  0.23443405851E+03  0.18283046178E+04  0.12699999809E+01 0.  1.
</event>
<event>
 5   0  0.2108068E-07  0.3575532E+04  0.7818609E-02  0.8096119E-01
       -1   -1    0    0    0  501  0.00000000000E+00  0.00000000000E+00  0.11361966628E+04  0.11361966628E+04  0.50400001928E-02 0. -1.
        1   -1    0    0  501    0  0.00000000000E+00  0.00000000000E+00 -0.28129884563E+04  0.28129884563E+04  0.50400001928E-02 0.  1.
    10030    2    1    2    0    0  0.00000000000E+00  0.00000000000E+00 -0.16767917935E+04  0.39491851191E+04  0.35755324619E+04 0.  0.
        5    1    3    3  502    0 -0.42678948994E+03 -0.14118668141E+04 -0.19541999074E+04  0.24483538424E+04  0.46999998093E+01 0.  1.
       -5    1    3    3    0  502  0.42678948994E+03  0.14118668141E+04  0.27740811385E+03  0.15008312767E+04  0.46999998093E+01 0. -1.
</event>
<event>
 5   0  0.6324216E-07  0.3598922E+04  0.7818609E-02  0.8090739E-01
       -2   -1    0    0    0  501  0.00000000000E+00  0.00000000000E+00  0.13167705415E+04  0.13167705415E+04  0.25500000920E-02 0. -1.
        2   -1    0    0  501    0  0.00000000000E+00  0.00000000000E+00 -0.24590919405E+04  0.24590919405E+04  0.25500000920E-02 0.  1.
    10030    2    1    2    0    0  0.00000000000E+00  0.00000000000E+00 -0.11423213990E+04  0.37758624820E+04  0.35989219642E+04 0.  0.
        2    1    3    3  502    0 -0.39325532816E+03  0.16944565083E+04 -0.10544912821E+04  0.20341544867E+04  0.25500000920E-02 0.  1.
       -2    1    3    3    0  502  0.39325532816E+03 -0.16944565083E+04 -0.87830116897E+02  0.17417079953E+04  0.25500000920E-02 0. -1.
</event>
<event>
 5   0  0.6541476E-07  0.2885260E+04  0.7818609E-02  0.8277277E-01
        2   -1    0    0  501    0  0.00000000000E+00  0.00000000000E+00  0.21702419909E+04  0.21702419909E+04  0.25500000920E-02 0.  1.
       -2   -1    0    0    0  501  0.00000000000E+00  0.00000000000E+00 -0.95896267368E+03  0.95896267368E+03  0.25500000920E-02 0. -1.
    10030    2    1    2    0    0  0.00000000000E+00  0.00000000000E+00  0.12112793172E+04  0.31292046646E+04  0.28852598234E+04 0.  0.
        4    1    3    3  502    0 -0.70203620177E+03  0.39109373349E+03  0.19050042279E+04  0.20675714881E+04  0.12699999809E+01 0.  1.
       -4    1    3    3    0  502  0.70203620177E+03 -0.39109373349E+03 -0.69372491067E+03  0.10616331766E+04  0.12699999809E+01 0. -1.
</event>
<event>
 5   0  0.6324216E-07  0.3445668E+04  0.7818609E-02  0.8126788E-01
        2   -1    0    0  501    0  0.00000000000E+00  0.00000000000E+00  0.30186469576E+04  0.30186469576E+04  0.25500000920E-02 0. -1.
       -2   -1    0    0    0  501  0.00000000000E+00  0.00000000000E+00 -0.98327412309E+03  0.98327412310E+03  0.25500000920E-02 0.  1.
    10030    2    1    2    0    0  0.00000000000E+00  0.00000000000E+00  0.20353728345E+04  0.40019210807E+04  0.34456682604E+04 0.  0.
        2    1    3    3  502    0  0.11161964040E+04  0.11397144402E+04  0.26202650246E+03  0.16166327059E+04  0.25500000920E-02 0.  1.
       -2    1    3    3    0  502 -0.11161964040E+04 -0.11397144402E+04  0.17733463320E+04  0.23852883748E+04  0.25500000920E-02 0. -1.
</event>
<event>
 5   0  0.2086250E-07  0.3552512E+04  0.7818609E-02  0.8101457E-01
        1   -1    0    0  501    0  0.00000000000E+00  0.00000000000E+00  0.17994545026E+04  0.17994545026E+04  0.50400001928E-02 0. -1.
       -1   -1    0    0    0  501  0.00000000000E+00  0.00000000000E+00 -0.17533563755E+04  0.17533563755E+04  0.50400001928E-02 0.  1.
    10030    2    1    2    0    0  0.00000000000E+00  0.00000000000E+00  0.46098127089E+02  0.35528108781E+04  0.35525118012E+04 0.  0.
        4    1    3    3  502    0  0.65998644538E+03  0.65483207132E+03  0.15366811106E+04  0.17960449878E+04  0.12699999809E+01 0. -1.
       -4    1    3    3    0  502 -0.65998644538E+03 -0.65483207132E+03 -0.14905829835E+04  0.17567658903E+04  0.12699999809E+01 0.  1.
</event>
<event>
 5   0  0.6669864E-07  0.3579114E+04  0.7818609E-02  0.8095293E-01
       -2   -1    0    0    0  501  0.00000000000E+00  0.00000000000E+00  0.12127531042E+04  0.12127531042E+04  0.25500000920E-02 0.  1.
        2   -1    0    0  501    0  0.00000000000E+00  0.00000000000E+00 -0.26406976949E+04  0.26406976949E+04  0.25500000920E-02 0. -1.
    10030    2    1    2    0    0  0.00000000000E+00  0.00000000000E+00 -0.14279445907E+04  0.38534507991E+04  0.35791140394E+04 0.  0.
        5    1    3    3  502    0 -0.75073887183E+03  0.40334375865E+03  0.98023635822E+03  0.12989151047E+04  0.46999998093E+01 0.  1.
       -5    1    3    3    0  502  0.75073887183E+03 -0.40334375865E+03 -0.24081809489E+04  0.25545356944E+04  0.46999998093E+01 0. -1.
</event>
<event>
 5   0  0.2086250E-07  0.3605458E+04  0.7818609E-02  0.8089243E-01
        1   -1    0    0  501    0  0.00000000000E+00  0.00000000000E+00  0.22152050906E+04  0.22152050906E+04  0.50400001928E-02 0. -1.
       -1   -1    0    0    0  501  0.00000000000E+00  0.00000000000E+00 -0.14670566296E+04  0.14670566296E+04  0.50400001928E-02 0.  1.
    10030    2    1    2    0    0  0.00000000000E+00  0.00000000000E+00  0.74814846104E+03  0.36822617202E+04  0.36054577042E+04 0.  0.
        2    1    3    3  502    0 -0.10270173378E+04 -0.11478456905E+00 -0.11390622697E+04  0.15336973233E+04  0.25500000920E-02 0.  1.
       -2    1    3    3    0  502  0.10270173378E+04  0.11478456905E+00  0.18872107308E+04  0.21485643969E+04  0.25500000920E-02 0. -1.
</event>
<event>
 5   0  0.2193129E-07  0.3546198E+04  0.7818609E-02  0.8102928E-01
        1   -1    0    0  501    0  0.00000000000E+00  0.00000000000E+00  0.13716394267E+04  0.13716394267E+04  0.50400001928E-02 0.  1.
       -1   -1    0    0    0  501  0.00000000000E+00  0.00000000000E+00 -0.22920601148E+04  0.22920601148E+04  0.50400001928E-02 0. -1.
    10030    2    1    2    0    0  0.00000000000E+00  0.00000000000E+00 -0.92042068813E+03  0.36636995415E+04  0.35461979763E+04 0.  0.
        1    1    3    3  502    0  0.38525002917E+03  0.38428843523E+03 -0.22036642067E+04  0.22698526653E+04  0.50400001928E-02 0. -1.
       -1    1    3    3    0  502 -0.38525002917E+03 -0.38428843523E+03  0.12832435185E+04  0.13938468762E+04  0.50400001928E-02 0.  1.
</event>
<event>
 5   0  0.2108068E-07  0.3617302E+04  0.7818609E-02  0.8086540E-01
        1   -1    0    0  501    0  0.00000000000E+00  0.00000000000E+00  0.16896857069E+04  0.16896857069E+04  0.50400001928E-02 0. -1.
       -1   -1    0    0    0  501  0.00000000000E+00  0.00000000000E+00 -0.19359922658E+04  0.19359922658E+04  0.50400001928E-02 0.  1.
    10030    2    1    2    0    0  0.00000000000E+00  0.00000000000E+00 -0.24630655890E+03  0.36256779728E+04  0.36173020114E+04 0.  0.
        5    1    3    3  502    0  0.12700057476E+04 -0.17202936767E+03  0.11560022787E+04  0.17259409204E+04  0.46999998093E+01 0. -1.
       -5    1    3    3    0  502 -0.12700057476E+04  0.17202936767E+03 -0.14023088376E+04  0.18997370524E+04  0.46999998093E+01 0.  1.
</event>
<event>
 5   0  0.2086250E-07  0.3496800E+04  0.7818609E-02  0.8114549E-01
       -1   -1    0    0    0  501  0.00000000000E+00  0.00000000000E+00  0.20225038692E+04  0.20225038692E+04  0.50400001928E-02 0. -1.
        1   -1    0    0  501    0  0.00000000000E+00  0.00000000000E+00 -0.15114448872E+04  0.15114448872E+04  0.50400001928E-02 0.  1.
    10030    2    1    2    0    0  0.00000000000E+00  0.00000000000E+00  0.51105898202E+03  0.35339487563E+04  0.34968003274E+04 0.  0.
        4    1    3    3  502    0 -0.58238037002E+03 -0.16483532971E+04  0.28161125643E+03  0.17707461704E+04  0.12699999809E+01 0.  1.
       -4    1    3    3    0  502  0.58238037002E+03  0.16483532971E+04  0.22944772560E+03  0.17632025859E+04  0.12699999809E+01 0. -1.
</event>
<event>
 5   0  0.6848661E-07  0.3611353E+04  0.7818609E-02  0.8087896E-01
        2   -1    0    0  501    0  0.00000000000E+00  0.00000000000E+00  0.23718113026E+04  0.23718113026E+04  0.25500000920E-02 0.  1.
       -2   -1    0    0    0  501  0.00000000000E+00  0.00000000000E+00 -0.13746744908E+04  0.13746744908E+04  0.25500000920E-02 0. -1.
    10030    2    1    2    0    0  0.00000000000E+00  0.00000000000E+00  0.99713681177E+03  0.37464857935E+04  0.36113534830E+04 0.  0.
        1    1    3    3  502    0 -0.51677826828E+03  0.17040587893E+04  0.18804840698E+03  0.17905972019E+04  0.50400001928E-02 0. -1.
       -1    1    3    3    0  502  0.51677826828E+03 -0.17040587893E+04  0.80908840479E+03  0.19558885916E+04  0.50400001928E-02 0.  1.
</event>
<event>
 5   0  0.2193129E-07  0.3603657E+04  0.7818609E-02  0.8089655E-01
        1   -1    0    0  501    0  0.00000000000E+00  0.00000000000E+00  0.23822741119E+04  0.23822741119E+04  0.50400001928E-02 0.  1.
       -1   -1    0    0    0  501  0.00000000000E+00  0.00000000000E+00 -0.13628093112E+04  0.13628093112E+04  0.50400001928E-02 0. -1.
    10030    2    1    2    0    0  0.00000000000E+00  0.00000000000E+00  0.10194648007E+04  0.37450834232E+04  0.36036566660E+04 0.  0.
        1    1    3    3  502    0  0.80454035477E+03 -0.14857985939E+04  0.11601561189E+04  0.20495962686E+04  0.50400001928E-02 0. -1.
       -1    1    3    3    0  502 -0.80454035477E+03  0.14857985939E+04 -0.14069131819E+03  0.16954871545E+04  0.50400001928E-02 0.  1.
</event>
<event>
 5   0  0.6729577E-07  0.3716796E+04  0.7818609E-02  0.8064250E-01
        2   -1    0    0  501    0  0.00000000000E+00  0.00000000000E+00  0.17446700680E+04  0.17446700680E+04  0.25500000920E-02 0. -1.
       -2   -1    0    0    0  501  0.00000000000E+00  0.00000000000E+00 -0.19795393404E+04  0.19795393404E+04  0.25500000920E-02 0.  1.
    10030    2    1    2    0    0  0.00000000000E+00  0.00000000000E+00 -0.23486927241E+03  0.37242094085E+04  0.37167959512E+04 0.  0.
        3    1    3    3  502    0  0.79374995132E+03 -0.14540609438E+04  0.72645113337E+03  0.18088845936E+04  0.10100000352E+00 0. -1.
       -3    1    3    3    0  502 -0.79374995132E+03  0.14540609438E+04 -0.96132040578E+03  0.19153248148E+04  0.10100000352E+00 0.  1.
</event>
<event>
 5   0  0.6848661E-07  0.3598891E+04  0.7818609E-02  0.8090746E-01
        2   -1    0    0  501    0  0.00000000000E+00  0.00000000000E+00  0.15375635380E+04  0.15375635380E+04  0.25500000920E-02 0. -1.
       -2   -1    0    0    0  501  0.00000000000E+00  0.00000000000E+00 -0.21059316164E+04  0.21059316164E+04  0.25500000920E-02 0.  1.
    10030    2    1    2    0    0  0.00000000000E+00  0.00000000000E+00 -0.56836807840E+03  0.36434951544E+04  0.35988907551E+04 0.  0.
        1    1    3    3  502    0  0.65514132131E+03  0.35658202234E+03  0.13736841364E+04  0.15631279525E+04  0.50400001928E-02 0. -1.
       -1    1    3    3    0  502 -0.65514132131E+03 -0.35658202234E+03 -0.19420522148E+04  0.20803672018E+04  0.50400001928E-02 0.  1.
</event>
<event>
 5   0  0.6848661E-07  0.3623534E+04  0.7818609E-02  0.8085122E-01
        2   -1    0    0  501    0  0.00000000000E+00  0.00000000000E+00  0.27949158602E+04  0.27949158602E+04  0.25500000920E-02 0. -1.
       -2   -1    0    0    0  501  0.00000000000E+00  0.00000000000E+00 -0.11744541242E+04  0.11744541242E+04  0.25500000920E-02 0.  1.
    10030    2    1    2    0    0  0.00000000000E+00  0.00000000000E+00  0.16204617360E+04  0.39693699844E+04  0.36235344396E+04 0.  0.
        1    1    3    3  502    0  0.13867583454E+04 -0.53358888789E+03 -0.32538044573E+03  0.15210812747E+04  0.50400001928E-02 0.  1.
       -1    1    3    3    0  502 -0.13867583454E+04  0.53358888789E+03  0.19458421817E+04  0.24482887097E+04  0.50400001928E-02 0. -1.
</event>
<event>
 5   0  0.6669864E-07  0.3613480E+04  0.7818609E-02  0.8087411E-01
        2   -1    0    0  501    0  0.00000000000E+00  0.00000000000E+00  0.25736350248E+04  0.25736350248E+04  0.25500000920E-02 0. -1.
       -2   -1    0    0    0  501  0.00000000000E+00  0.00000000000E+00 -0.12683653555E+04  0.12683653555E+04  0.25500000920E-02 0.  1.
    10030    2    1    2    0    0  0.00000000000E+00  0.00000000000E+00  0.13052696694E+04  0.38420003803E+04  0.36134800418E+04 0.  0.
        5    1    3    3  502    0  0.83246197686E+03 -0.12560671430E+04  0.17124626317E+04  0.22810629026E+04  0.46999998093E+01 0. -1.
       -5    1    3    3    0  502 -0.83246197686E+03  0.12560671430E+04 -0.40719296229E+03  0.15609374777E+04  0.46999998093E+01 0.  1.
</event>
<event>
 5   0  0.2108068E-07  0.3640119E+04  0.7818609E-02  0.8081363E-01
        1   -1    0    0  501    0  0.00000000000E+00  0.00000000000E+00  0.18044607308E+04  0.18044607308E+04  0.50400001928E-02 0. -1.
       -1   -1    0    0    0  501  0.00000000000E+00  0.00000000000E+00 -0.18357929903E+04  0.18357929904E+04  0.50400001928E-02 0.  1.
    10030    2    1    2    0    0  0.00000000000E+00  0.00000000000E+00 -0.31332259507E+02  0.36402537212E+04  0.36401188778E+04 0.  0.
        5    1    3    3  502    0  0.16200545293E+04  0.65340436343E+02 -0.84258745529E+03  0.18272443078E+04  0.46999998093E+01 0.  1.
       -5    1    3    3    0  502 -0.16200545293E+04 -0.65340436343E+02  0.81125519578E+03  0.18130094134E+04  0.46999998093E+01 0. -1.
</event>
<event>
 5   0  0.6729577E-07  0.3636733E+04  0.7818609E-02  0.8082129E-01
       -2   -1    0    0    0  501  0.00000000000E+00  0.00000000000E+00  0.22039398025E+04  0.22039398025E+04  0.25500000920E-02 0.  1.
        2   -1    0    0  501    0  0.00000000000E+00  0.00000000000E+00 -0.15002484453E+04  0.15002484453E+04  0.25500000920E-02 0. -1.
    10030    2    1    2    0    0  0.00000000000E+00  0.00000000000E+00  0.70369135722E+03  0.37041882479E+04  0.36367332937E+04 0.  0.
        3    1    3    3  502    0  0.73815012361E+03 -0.16570163014E+04  0.48023376965E+03  0.18764842424E+04  0.10100000352E+00 0. -1.
       -3    1    3    3    0  502 -0.73815012361E+03  0.16570163014E+04  0.22345758757E+03  0.18277040055E+04  0.10100000352E+00 0.  1.
</event>
<event>
 5   0  0.2086250E-07  0.3563056E+04  0.7818609E-02  0.8099007E-01
       -1   -1    0    0    0  501  0.00000000000E+00  0.00000000000E+00  0.16103866049E+04  0.16103866049E+04  0.50400001928E-02 0. -1.
        1   -1    0    0  501    0  0.00000000000E+00  0.00000000000E+00 -0.19708569305E+04  0.19708569305E+04  0.50400001928E-02 0.  1.
    10030    2    1    2    0    0  0.00000000000E+00  0.00000000000E+00 -0.36047032565E+03  0.35812435354E+04  0.35630557678E+04 0.  0.
        4    1    3    3  502    0 -0.84724123055E+03  0.15164250761E+04 -0.57782646175E+03  0.18306413485E+04  0.12699999809E+01 0. -1.
       -4    1    3    3    0  502  0.84724123055E+03 -0.15164250761E+04  0.21735613609E+03  0.17506021869E+04  0.12699999809E+01 0.  1.
</event>
<event>
 5   0  0.2193129E-07  0.3499823E+04  0.7818609E-02  0.8113832E-01
       -1   -1    0    0    0  501  0.00000000000E+00  0.00000000000E+00  0.14585947027E+04  0.14585947027E+04  0.50400001928E-02 0. -1.
        1   -1    0    0  501    0  0.00000000000E+00  0.00000000000E+00 -0.20994112256E+04  0.20994112256E+04  0.50400001928E-02 0.  1.
    10030    2    1    2    0    0  0.00000000000E+00  0.00000000000E+00 -0.64081652287E+03  0.35580059283E+04  0.34998229055E+04 0.  0.
        1    1    3    3  502    0 -0.86711444278E+03  0.64648039786E+02  0.12234302023E+04  0.15009491283E+04  0.50400001928E-02 0. -1.
       -1    1    3    3    0  502  0.86711444278E+03 -0.64648039786E+02 -0.18642467251E+04  0.20570567999E+04  0.50400001928E-02 0.  1.
</event>
<event>
 5   0  0.2086250E-07  0.3569530E+04  0.7818609E-02  0.8097507E-01
        1   -1    0    0  501    0  0.00000000000E+00  0.00000000000E+00  0.24343086772E+04  0.24343086772E+04  0.50400001928E-02 0. -1.
       -1   -1    0    0    0  501  0.00000000000E+00  0.00000000000E+00 -0.13085381099E+04  0.13085381099E+04  0.50400001928E-02 0.  1.
    10030    2    1    2    0    0  0.00000000000E+00  0.00000000000E+00  0.11257705673E+04  0.37428467871E+04  0.35695297591E+04 0.  0.
        3    1    3    3  502    0 -0.36631015592E+03  0.58666744490E+03 -0.11623053167E+04  0.13525218965E+04  0.10100000352E+00 0.  1.
       -3    1    3    3    0  502  0.36631015592E+03 -0.58666744490E+03  0.22880758840E+04  0.23903248905E+04  0.10100000352E+00 0. -1.
</event>
<event>
 5   0  0.2086250E-07  0.3661252E+04  0.7818609E-02  0.8076604E-01
       -1   -1    0    0    0  501  0.00000000000E+00  0.00000000000E+00  0.13607567589E+04  0.13607567589E+04  0.50400001928E-02 0. -1.
        1   -1    0    0  501    0  0.00000000000E+00  0.00000000000E+00 -0.24627406724E+04  0.24627406724E+04  0.50400001928E-02 0.  1.
    10030    2    1    2    0    0  0.00000000000E+00  0.00000000000E+00 -0.11019839135E+04  0.38234974313E+04  0.36612517069E+04 0.  0.
        3    1    3    3  502    0 -0.37454867695E+03  0.11020776258E+04  0.92453549969E+03  0.14864816531E+04  0.10100000352E+00 0. -1.
       -3    1    3    3    0  502  0.37454867695E+03 -0.11020776258E+04 -0.20265194132E+04  0.23370157781E+04  0.10100000352E+00 0.  1.
</event>
<event>
 5   0  0.6324216E-07  0.3593053E+04  0.7818609E-02  0.8092085E-01
        2   -1    0    0  501    0  0.00000000000E+00  0.00000000000E+00  0.20006550782E+04  0.20006550782E+04  0.25500000920E-02 0. -1.
       -2   -1    0    0    0  501  0.00000000000E+00  0.00000000000E+00 -0.16132251108E+04  0.16132251108E+04  0.25500000920E-02 0.  1.
    10030    2    1    2    0    0  0.00000000000E+00  0.00000000000E+00  0.38742996738E+03  0.36138801890E+04  0.35930527467E+04 0.  0.
        2    1    3    3  502    0  0.14653228828E+04  0.50412126042E+03  0.11079379473E+04  0.19049503645E+04  0.25500000920E-02 0. -1.
       -2    1    3    3    0  502 -0.14653228828E+04 -0.50412126042E+03 -0.72050797990E+03  0.17089298245E+04  0.25500000920E-02 0.  1.
</event>
<event>
 5   0  0.2108068E-07  0.3628562E+04  0.7818609E-02  0.8083980E-01
       -1   -1    0    0    0  501  0.00000000000E+00  0.00000000000E+00  0.16995026129E+04  0.16995026129E+04  0.50400001928E-02 0. -1.
        1   -1    0    0  501    0  0.00000000000E+00  0.00000000000E+00 -0.19368107438E+04  0.19368107438E+04  0.50400001928E-02 0.  1.
    10030    2    1    2    0    0  0.00000000000E+00  0.00000000000E+00 -0.23730813097E+03  0.36363133567E+04  0.36285616543E+04 0.  0.
        5    1    3    3  502    0 -0.16755904163E+04  0.52812792361E+03  0.33516043826E+03  0.17885404541E+04  0.46999998093E+01 0. -1.
       -5    1    3    3    0  502  0.16755904163E+04 -0.52812792361E+03 -0.57246856922E+03  0.18477729026E+04  0.46999998093E+01 0.  1.
</event>
<event>
 5   0  0.6669864E-07  0.3659481E+04  0.7818609E-02  0.8077001E-01
        2   -1    0    0  501    0  0.00000000000E+00  0.00000000000E+00  0.17089709879E+04  0.17089709879E+04  0.25500000920E-02 0. -1.
       -2   -1    0    0    0  501  0.00000000000E+00  0.00000000000E+00 -0.19590440536E+04  0.19590440536E+04  0.25500000920E-02 0.  1.
    10030    2    1    2    0    0  0.00000000000E+00  0.00000000000E+00 -0.25007306567E+03  0.36680150414E+04  0.36594805377E+04 0.  0.
        5    1    3    3  502    0  0.12258026674E+04  0.13419435676E+04  0.86459457212E+02  0.18195884276E+04  0.46999998093E+01 0. -1.
       -5    1    3    3    0  502 -0.12258026674E+04 -0.13419435676E+04 -0.33653252288E+03  0.18484266139E+04  0.46999998093E+01 0.  1.
</event>
<event>
 5   0  0.2086250E-07  0.3701659E+04  0.7818609E-02  0.8067594E-01
        1   -1    0    0  501    0  0.00000000000E+00  0.00000000000E+00  0.22901089974E+04  0.22901089974E+04  0.50400001928E-02 0. -1.
       -1   -1    0    0    0  501  0.00000000000E+00  0.00000000000E+00 -0.14958107326E+04  0.14958107326E+04  0.50400001928E-02 0.  1.
    10030    2    1    2    0    0  0.00000000000E+00  0.00000000000E+00  0.79429826484E+03  0.37859197300E+04  0.37016588807E+04 0.  0.
        2    1    3    3  502    0  0.80101070048E+03  0.37191293646E+03  0.20607140167E+04  0.22419811849E+04  0.25500000920E-02 0. -1.
       -2    1    3    3    0  502 -0.80101070048E+03 -0.37191293646E+03 -0.12664157519E+04  0.15439385452E+04  0.25500000920E-02 0.  1.
</event>
<event>
 5   0  0.2086250E-07  0.3330630E+04  0.7818609E-02  0.8155145E-01
        1   -1    0    0  501    0  0.00000000000E+00  0.00000000000E+00  0.16102313863E+04  0.16102313863E+04  0.50400001928E-02 0. -1.
       -1   -1    0    0    0  501  0.00000000000E+00  0.00000000000E+00 -0.17222827835E+04  0.17222827835E+04  0.50400001928E-02 0.  1.
    10030    2    1    2    0    0  0.00000000000E+00  0.00000000000E+00 -0.11205139724E+03  0.33325141698E+04  0.33306298468E+04 0.  0.
        2    1    3    3  502    0  0.15773837380E+04 -0.46371933299E+03  0.20888571554E+03  0.16573497877E+04  0.25500000920E-02 0. -1.
       -2    1    3    3    0  502 -0.15773837380E+04  0.46371933299E+03 -0.32093711278E+03  0.16751643821E+04  0.25500000920E-02 0.  1.
</event>
<event>
 5   0  0.2193129E-07  0.3620300E+04  0.7818609E-02  0.8085857E-01
       -1   -1    0    0    0  501  0.00000000000E+00  0.00000000000E+00  0.13232491015E+04  0.13232491016E+04  0.50400001928E-02 0. -1.
        1   -1    0    0  501    0  0.00000000000E+00  0.00000000000E+00 -0.24762106825E+04  0.24762106825E+04  0.50400001928E-02 0.  1.
    10030    2    1    2    0    0  0.00000000000E+00  0.00000000000E+00 -0.11529615810E+04  0.37994597841E+04  0.36203002974E+04 0.  0.
        1    1    3    3  502    0  0.92575533432E+03  0.12627031823E+04  0.37687982463E+03  0.16104287217E+04  0.50400001928E-02 0.  1.
       -1    1    3    3    0  502 -0.92575533432E+03 -0.12627031823E+04 -0.15298414056E+04  0.21890310623E+04  0.50400001928E-02 0. -1.
</event>
<event>
 5   0  0.2086250E-07  0.3605609E+04  0.7818609E-02  0.8089208E-01
       -1   -1    0    0    0  501  0.00000000000E+00  0.00000000000E+00  0.20011278193E+04  0.20011278193E+04  0.50400001928E-02 0.  1.
        1   -1    0    0  501    0  0.00000000000E+00  0.00000000000E+00 -0.16241360861E+04  0.16241360861E+04  0.50400001928E-02 0. -1.
    10030    2    1    2    0    0  0.00000000000E+00  0.00000000000E+00  0.37699173321E+03  0.36252639055E+04  0.36056089108E+04 0.  0.
        2    1    3    3  502    0 -0.58750449124E+03  0.88606396003E+03  0.16523973022E+04  0.19648632810E+04  0.25500000920E-02 0.  1.
       -2    1    3    3    0  502  0.58750449124E+03 -0.88606396003E+03 -0.12754055690E+04  0.16604006245E+04  0.25500000920E-02 0. -1.
</event>
<event>
 5   0  0.6848661E-07  0.3526062E+04  0.7818609E-02  0.8107641E-01
        2   -1    0    0  501    0  0.00000000000E+00  0.00000000000E+00  0.19373758075E+04  0.19373758075E+04  0.25500000920E-02 0. -1.
       -2   -1    0    0    0  501  0.00000000000E+00  0.00000000000E+00 -0.16043751179E+04  0.16043751179E+04  0.25500000920E-02 0.  1.
    10030    2    1    2    0    0  0.00000000000E+00  0.00000000000E+00  0.33300068956E+03  0.35417509254E+04  0.35260615647E+04 0.  0.
        1    1    3    3  502    0  0.22662609313E+03  0.16411152478E+04  0.77222497546E+03  0.18278265933E+04  0.50400001928E-02 0. -1.
       -1    1    3    3    0  502 -0.22662609313E+03 -0.16411152478E+04 -0.43922428590E+03  0.17139243320E+04  0.50400001928E-02 0.  1.
</event>
<event>
 5   0  0.6848661E-07  0.3616800E+04  0.7818609E-02  0.8086654E-01
        2   -1    0    0  501    0  0.00000000000E+00  0.00000000000E+00  0.28500029441E+04  0.28500029441E+04  0.25500000920E-02 0.  1.
       -2   -1    0    0    0  501  0.00000000000E+00  0.00000000000E+00 -0.11474761409E+04  0.11474761409E+04  0.25500000920E-02 0. -1.
    10030    2    1    2    0    0  0.00000000000E+00  0.00000000000E+00  0.17025268032E+04  0.39974790850E+04  0.36167999003E+04 0.  0.
        1    1    3    3  502    0  0.63568021687E+03 -0.28022869523E+03 -0.99410969221E+03  0.12127949290E+04  0.50400001928E-02 0. -1.
       -1    1    3    3    0  502 -0.63568021687E+03  0.28022869523E+03  0.26966364954E+04  0.27846841559E+04  0.50400001928E-02 0.  1.
</event>
<event>
 5   0  0.2086250E-07  0.3549690E+04  0.7818609E-02  0.8102114E-01
       -1   -1    0    0    0  501  0.00000000000E+00  0.00000000000E+00  0.19843631277E+04  0.19843631277E+04  0.50400001928E-02 0.  1.
        1   -1    0    0  501    0  0.00000000000E+00  0.00000000000E+00 -0.15874488994E+04  0.15874488994E+04  0.50400001928E-02 0. -1.
    10030    2    1    2    0    0  0.00000000000E+00  0.00000000000E+00  0.39691422828E+03  0.35718120272E+04  0.35496901629E+04 0.  0.
        4    1    3    3  502    0  0.36099089821E+03 -0.91461814317E+03 -0.12883278466E+04  0.16206884431E+04  0.12699999809E+01 0. -1.
       -4    1    3    3    0  502 -0.36099089821E+03  0.91461814317E+03  0.16852420749E+04  0.19511235841E+04  0.12699999809E+01 0.  1.
</event>
<event>
 5   0  0.6669864E-07  0.3520248E+04  0.7818609E-02  0.8109008E-01
        2   -1    0    0  501    0  0.00000000000E+00  0.00000000000E+00  0.15989131344E+04  0.15989131344E+04  0.25500000920E-02 0.  1.
       -2   -1    0    0    0  501  0.00000000000E+00  0.00000000000E+00 -0.19375894459E+04  0.19375894459E+04  0.25500000920E-02 0. -1.
    10030    2    1    2    0    0  0.00000000000E+00  0.00000000000E+00 -0.33867631150E+03  0.35365025804E+04  0.35202484084E+04 0.  0.
        5    1    3    3  502    0  0.15291940942E+04 -0.55363065290E+03  0.50687726356E+03  0.17034929198E+04  0.46999998093E+01 0. -1.
       -5    1    3    3    0  502 -0.15291940942E+04  0.55363065290E+03 -0.84555357506E+03  0.18330096606E+04  0.46999998093E+01 0.  1.
</event>
<event>
 5   0  0.2108068E-07  0.3496304E+04  0.7818609E-02  0.8114666E-01
       -1   -1    0    0    0  501  0.00000000000E+00  0.00000000000E+00  0.19635483076E+04  0.19635483076E+04  0.50400001928E-02 0. -1.
        1   -1    0    0  501    0  0.00000000000E+00  0.00000000000E+00 -0.15563844355E+04  0.15563844355E+04  0.50400001928E-02 0.  1.
    10030    2    1    2    0    0  0.00000000000E+00  0.00000000000E+00  0.40716387216E+03  0.35199327431E+04  0.34963043485E+04 0.  0.
        5    1    3    3  502    0  0.58843746647E+03  0.41185222945E+03  0.18081323441E+04  0.19455707580E+04  0.46999998093E+01 0. -1.
       -5    1    3    3    0  502 -0.58843746647E+03 -0.41185222945E+03 -0.14009684719E+04  0.15743619851E+04  0.46999998093E+01 0.  1.
</event>
<event>
 5   0  0.2086250E-07  0.3565000E+04  0.7818609E-02  0.8098556E-01
        1   -1    0    0  501    0  0.00000000000E+00  0.00000000000E+00  0.10387311266E+04  0.10387311266E+04  0.50400001928E-02 0.  1.
       -1   -1    0    0    0  501  0.00000000000E+00  0.00000000000E+00 -0.30588342456E+04  0.30588342456E+04  0.50400001928E-02 0. -1.
    10030    2    1    2    0    0  0.00000000000E+00  0.00000000000E+00 -0.20201031189E+04  0.40975653722E+04  0.35650000516E+04 0.  0.
        2    1    3    3  502    0 -0.10470597964E+04  0.44064038116E+03  0.56875973881E+03  0.12704274097E+04  0.25500000920E-02 0.  1.
       -2    1    3    3    0  502  0.10470597964E+04 -0.44064038116E+03 -0.25888628577E+04  0.28271379625E+04  0.25500000920E-02 0. -1.
</event>
<event>
 5   0  0.6669864E-07  0.3586630E+04  0.7818609E-02  0.8093561E-01
        2   -1    0    0  501    0  0.00000000000E+00  0.00000000000E+00  0.17902641291E+04  0.17902641291E+04  0.25500000920E-02 0.  1.
       -2   -1    0    0    0  501  0.00000000000E+00  0.00000000000E+00 -0.17963710498E+04  0.17963710498E+04  0.25500000920E-02 0. -1.
    10030    2    1    2    0    0  0.00000000000E+00  0.00000000000E+00 -0.61069206610E+01  0.35866351789E+04  0.35866299798E+04 0.  0.
        5    1    3    3  502    0 -0.83620188441E+03  0.15078115732E+04  0.49012798331E+03  0.17924778553E+04  0.46999998093E+01 0.  1.
       -5    1    3    3    0  502  0.83620188441E+03 -0.15078115732E+04 -0.49623490397E+03  0.17941573236E+04  0.46999998093E+01 0. -1.
</event>
<event>
 5   0  0.6848661E-07  0.3579965E+04  0.7818609E-02  0.8095096E-01
       -2   -1    0    0    0  501  0.00000000000E+00  0.00000000000E+00  0.11962768516E+04  0.11962768516E+04  0.25500000920E-02 0. -1.
        2   -1    0    0  501    0  0.00000000000E+00  0.00000000000E+00 -0.26783411527E+04  0.26783411527E+04  0.25500000920E-02 0.  1.
    10030    2    1    2    0    0  0.00000000000E+00  0.00000000000E+00 -0.14820643011E+04  0.38746180043E+04  0.35799650957E+04 0.  0.
        1    1    3    3  502    0  0.12329769338E+04  0.95103659205E+02 -0.21416720054E+04  0.24730620300E+04  0.50400001928E-02 0.  1.
       -1    1    3    3    0  502 -0.12329769338E+04 -0.95103659205E+02  0.65960770437E+03  0.14015559743E+04  0.50400001928E-02 0. -1.
</event>
<event>
 5   0  0.2086250E-07  0.3611144E+04  0.7818609E-02  0.8087944E-01
        1   -1    0    0  501    0  0.00000000000E+00  0.00000000000E+00  0.18644791540E+04  0.18644791540E+04  0.50400001928E-02 0.  1.
       -1   -1    0    0    0  501  0.00000000000E+00  0.00000000000E+00 -0.17485260060E+04  0.17485260060E+04  0.50400001928E-02 0. -1.
    10030    2    1    2    0    0  0.00000000000E+00  0.00000000000E+00  0.11595314797E+03  0.36130051600E+04  0.36111440228E+04 0.  0.
        4    1    3    3  502    0  0.53378047650E+03 -0.75183597072E+03  0.16111650573E+04  0.18563494764E+04  0.12699999809E+01 0.  1.
       -4    1    3    3    0  502 -0.53378047650E+03  0.75183597072E+03 -0.14952119093E+04  0.17566556836E+04  0.12699999809E+01 0. -1.
</event>
<event>
 5   0  0.2086250E-07  0.3597785E+04  0.7818609E-02  0.8090999E-01
        3   -1    0    0  501    0  0.00000000000E+00  0.00000000000E+00  0.30027296791E+04  0.30027296808E+04  0.10100000352E+00 0.  1.
       -3   -1    0    0    0  501  0.00000000000E+00  0.00000000000E+00 -0.10776908038E+04  0.10776908086E+04  0.10100000352E+00 0. -1.
    10030    2    1    2    0    0  0.00000000000E+00  0.00000000000E+00  0.19250388752E+04  0.40804204893E+04  0.35977849711E+04 0.  0.
        4    1    3    3  502    0 -0.12394424000E+04  0.84218669232E+03  0.20912768408E+04  0.25727293533E+04  0.12699999809E+01 0.  1.
       -4    1    3    3    0  502  0.12394424000E+04 -0.84218669232E+03 -0.16623796557E+03  0.15076911360E+04  0.12699999809E+01 0. -1.
</event>
<event>
 5   0  0.2108068E-07  0.3560611E+04  0.7818609E-02  0.8099574E-01
       -1   -1    0    0    0  501  0.00000000000E+00  0.00000000000E+00  0.14629624300E+04  0.14629624300E+04  0.50400001928E-02 0. -1.
        1   -1    0    0  501    0  0.00000000000E+00  0.00000000000E+00 -0.21664860682E+04  0.21664860682E+04  0.50400001928E-02 0.  1.
    10030    2    1    2    0    0  0.00000000000E+00  0.00000000000E+00 -0.70352363826E+03  0.36294484982E+04  0.35606110278E+04 0.  0.
        5    1    3    3  502    0 -0.14202327760E+04  0.57935548465E+03  0.56945346253E+03  0.16361580766E+04  0.46999998093E+01 0. -1.
       -5    1    3    3    0  502  0.14202327760E+04 -0.57935548465E+03 -0.12729771008E+04  0.19932904216E+04  0.46999998093E+01 0.  1.
</event>
<event>
 5   0  0.2086250E-07  0.3613080E+04  0.7818609E-02  0.8087502E-01
        1   -1    0    0  501    0  0.00000000000E+00  0.00000000000E+00  0.24987866527E+04  0.24987866527E+04  0.50400001928E-02 0. -1.
       -1   -1    0    0    0  501  0.00000000000E+00  0.00000000000E+00 -0.13060682604E+04  0.13060682604E+04  0.50400001928E-02 0.  1.
    10030    2    1    2    0    0  0.00000000000E+00  0.00000000000E+00  0.11927183923E+04  0.38048549131E+04  0.36130795378E+04 0.  0.
        3    1    3    3  502    0 -0.59322891278E+03  0.37222754448E+02  0.23928622298E+04  0.24655822309E+04  0.10100000352E+00 0. -1.
       -3    1    3    3    0  502  0.59322891278E+03 -0.37222754448E+02 -0.12001438375E+04  0.13392726822E+04  0.10100000352E+00 0.  1.
</event>
<event>
 5   0  0.2108068E-07  0.3636134E+04  0.7818609E-02  0.8082265E-01
        1   -1    0    0  501    0  0.00000000000E+00  0.00000000000E+00  0.24939176340E+04  0.24939176340E+04  0.50400001928E-02 0. -1.
       -1   -1    0    0    0  501  0.00000000000E+00  0.00000000000E+00 -0.13253714105E+04  0.13253714105E+04  0.50400001928E-02 0.  1.
    10030    2    1    2    0    0  0.00000000000E+00  0.00000000000E+00  0.11685462234E+04  0.38192890445E+04  0.36361337337E+04 0.  0.
        5    1    3    3  502    0 -0.71215338592E+03 -0.46968053528E+03  0.22706280594E+04  0.24256001576E+04  0.46999998093E+01 0. -1.
       -5    1    3    3    0  502  0.71215338592E+03  0.46968053528E+03 -0.11020818360E+04  0.13936888869E+04  0.46999998093E+01 0.  1.
</event>
<event>
 5   0  0.2086250E-07  0.3525739E+04  0.7818609E-02  0.8107717E-01
        1   -1    0    0  501    0  0.00000000000E+00  0.00000000000E+00  0.12119090749E+04  0.12119090749E+04  0.50400001928E-02 0. -1.
       -1   -1    0    0    0  501  0.00000000000E+00  0.00000000000E+00 -0.25643093177E+04  0.25643093177E+04  0.50400001928E-02 0.  1.
    10030    2    1    2    0    0  0.00000000000E+00  0.00000000000E+00 -0.13524002428E+04  0.37762183926E+04  0.35257394873E+04 0.  0.
        4    1    3    3  502    0  0.15685536095E+04 -0.16625393779E+03 -0.15193410997E+04  0.21900684437E+04  0.12699999809E+01 0.  1.
       -4    1    3    3    0  502 -0.15685536095E+04  0.16625393779E+03  0.16694085696E+03  0.15861499489E+04  0.12699999809E+01 0. -1.
</event>
<event>
 5   0  0.2108068E-07  0.3610965E+04  0.7818609E-02  0.8087985E-01
        1   -1    0    0  501    0  0.00000000000E+00  0.00000000000E+00  0.23769807619E+04  0.23769807619E+04  0.50400001928E-02 0.  1.
       -1   -1    0    0    0  501  0.00000000000E+00  0.00000000000E+00 -0.13713896584E+04  0.13713896584E+04  0.50400001928E-02 0. -1.
    10030    2    1    2    0    0  0.00000000000E+00  0.00000000000E+00  0.10055911035E+04  0.37483704202E+04  0.36109648766E+04 0.  0.
        5    1    3    3  502    0 -0.26337687281E+03  0.20698549668E+03  0.23444344470E+04  0.23682494250E+04  0.46999998093E+01 0.  1.
       -5    1    3    3    0  502  0.26337687281E+03 -0.20698549668E+03 -0.13388433435E+04  0.13801209952E+04  0.46999998093E+01 0. -1.
</event>
<event>
 5   0  0.6541476E-07  0.3557486E+04  0.7818609E-02  0.8100300E-01
        2   -1    0    0  501    0  0.00000000000E+00  0.00000000000E+00  0.15158228195E+04  0.15158228195E+04  0.25500000920E-02 0. -1.
       -2   -1    0    0    0  501  0.00000000000E+00  0.00000000000E+00 -0.20872670269E+04  0.20872670269E+04  0.25500000920E-02 0.  1.
    10030    2    1    2    0    0  0.00000000000E+00  0.00000000000E+00 -0.57144420742E+03  0.36030898463E+04  0.35574861853E+04 0.  0.
        4    1    3    3  502    0  0.59315821020E+03  0.10242680885E+04  0.10590650195E+04  0.15882638659E+04  0.12699999809E+01 0. -1.
       -4    1    3    3    0  502 -0.59315821020E+03 -0.10242680885E+04 -0.16305092269E+04  0.20148259804E+04  0.12699999809E+01 0.  1.
</event>
<event>
 5   0  0.2108068E-07  0.3602855E+04  0.7818609E-02  0.8089838E-01
        1   -1    0    0  501    0  0.00000000000E+00  0.00000000000E+00  0.10642771496E+04  0.10642771496E+04  0.50400001928E-02 0. -1.
       -1   -1    0    0    0  501  0.00000000000E+00  0.00000000000E+00 -0.30491510450E+04  0.30491510450E+04  0.50400001928E-02 0.  1.
    10030    2    1    2    0    0  0.00000000000E+00  0.00000000000E+00 -0.19848738954E+04  0.41134281946E+04  0.36028554136E+04 0.  0.
        5    1    3    3  502    0 -0.17439093998E+04  0.72828565380E+02 -0.15012309759E+04  0.23022251253E+04  0.46999998093E+01 0.  1.
       -5    1    3    3    0  502  0.17439093998E+04 -0.72828565380E+02 -0.48364291951E+03  0.18112030693E+04  0.46999998093E+01 0. -1.
</event>
<event>
 5   0  0.6729577E-07  0.3614965E+04  0.7818609E-02  0.8087072E-01
       -2   -1    0    0    0  501  0.00000000000E+00  0.00000000000E+00  0.14819957737E+04  0.14819957737E+04  0.25500000920E-02 0.  1.
        2   -1    0    0  501    0  0.00000000000E+00  0.00000000000E+00 -0.22044545475E+04  0.22044545475E+04  0.25500000920E-02 0. -1.
    10030    2    1    2    0    0  0.00000000000E+00  0.00000000000E+00 -0.72245877381E+03  0.36864503212E+04  0.36149646320E+04 0.  0.
        3    1    3    3  502    0 -0.67234994757E+03 -0.16449386916E+04 -0.24372299850E+02  0.17772089833E+04  0.10100000352E+00 0. -1.
       -3    1    3    3    0  502  0.67234994757E+03  0.16449386916E+04 -0.69808647396E+03  0.19092413379E+04  0.10100000352E+00 0.  1.
</event>
<event>
 5   0  0.6729577E-07  0.3734586E+04  0.7818609E-02  0.8060340E-01
        2   -1    0    0  501    0  0.00000000000E+00  0.00000000000E+00  0.17140458705E+04  0.17140458705E+04  0.25500000920E-02 0.  1.
       -2   -1    0    0    0  501  0.00000000000E+00  0.00000000000E+00 -0.20342412154E+04  0.20342412154E+04  0.25500000920E-02 0. -1.
    10030    2    1    2    0    0  0.00000000000E+00  0.00000000000E+00 -0.32019534491E+03  0.37482870859E+04  0.37345857895E+04 0.  0.
        3    1    3    3  502    0 -0.90716382510E+03  0.11225534363E+04 -0.13492271717E+04  0.19757242707E+04  0.10100000352E+00 0. -1.
       -3    1    3    3    0  502  0.90716382510E+03 -0.11225534363E+04  0.10290318268E+04  0.17725628152E+04  0.10100000352E+00 0.  1.
</event>
<event>
 5   0  0.2086250E-07  0.3633552E+04  0.7818609E-02  0.8082849E-01
       -1   -1    0    0    0  501  0.00000000000E+00  0.00000000000E+00  0.20213638847E+04  0.20213638847E+04  0.50400001928E-02 0. -1.
        1   -1    0    0  501    0  0.00000000000E+00  0.00000000000E+00 -0.16328953992E+04  0.16328953993E+04  0.50400001928E-02 0.  1.
    10030    2    1    2    0    0  0.00000000000E+00  0.00000000000E+00  0.38846848546E+03  0.36542592840E+04  0.36335524147E+04 0.  0.
        2    1    3    3  502    0  0.21844678328E+03 -0.97384101628E+03  0.17209732793E+04  0.19894306598E+04  0.25500000920E-02 0. -1.
       -2    1    3    3    0  502 -0.21844678328E+03  0.97384101628E+03 -0.13325047939E+04  0.16648286241E+04  0.25500000920E-02 0.  1.
</event>
<event>
 5   0  0.6669864E-07  0.3617837E+04  0.7818609E-02  0.8086418E-01
        2   -1    0    0  501    0  0.00000000000E+00  0.00000000000E+00  0.24723402637E+04  0.24723402637E+04  0.25500000920E-02 0. -1.
       -2   -1    0    0    0  501  0.00000000000E+00  0.00000000000E+00 -0.13235177942E+04  0.13235177942E+04  0.25500000920E-02 0.  1.
    10030    2    1    2    0    0  0.00000000000E+00  0.00000000000E+00  0.11488224695E+04  0.37958580579E+04  0.36178371066E+04 0.  0.
        5    1    3    3  502    0 -0.99725716245E+03 -0.69720239512E+03  0.19787619155E+04  0.23229579928E+04  0.46999998093E+01 0. -1.
       -5    1    3    3    0  502  0.99725716245E+03  0.69720239512E+03 -0.82993944608E+03  0.14729000652E+04  0.46999998093E+01 0.  1.
</event>
<event>
 5   0  0.2108068E-07  0.3671788E+04  0.7818609E-02  0.8074243E-01
       -1   -1    0    0    0  501  0.00000000000E+00  0.00000000000E+00  0.23828038910E+04  0.23828038910E+04  0.50400001928E-02 0. -1.
        1   -1    0    0  501    0  0.00000000000E+00  0.00000000000E+00 -0.14145129050E+04  0.14145129050E+04  0.50400001928E-02 0.  1.
    10030    2    1    2    0    0  0.00000000000E+00  0.00000000000E+00  0.96829098593E+03  0.37973167960E+04  0.36717880407E+04 0.  0.
        5    1    3    3  502    0 -0.14879620390E+04  0.92605621595E+03 -0.81237862099E+02  0.17544893345E+04  0.46999998093E+01 0.  1.
       -5    1    3    3    0  502  0.14879620390E+04 -0.92605621595E+03  0.10495288480E+04  0.20428274615E+04  0.46999998093E+01 0. -1.
</event>
<event>
 5   0  0.2086250E-07  0.3597092E+04  0.7818609E-02  0.8091158E-01
        1   -1    0    0  501    0  0.00000000000E+00  0.00000000000E+00  0.10784806626E+04  0.10784806626E+04  0.50400001928E-02 0.  1.
       -1   -1    0    0    0  501  0.00000000000E+00  0.00000000000E+00 -0.29993754648E+04  0.29993754648E+04  0.50400001928E-02 0. -1.
    10030    2    1    2    0    0  0.00000000000E+00  0.00000000000E+00 -0.19208948022E+04  0.40778561274E+04  0.35970924029E+04 0.  0.
        2    1    3    3  502    0  0.59898452475E+03 -0.76429815885E+03  0.75576846496E+03  0.12304958794E+04  0.25500000920E-02 0.  1.
       -2    1    3    3    0  502 -0.59898452475E+03  0.76429815885E+03 -0.26766632671E+04  0.28473602481E+04  0.25500000920E-02 0. -1.
</event>
<event>
 5   0  0.6669864E-07  0.3604770E+04  0.7818609E-02  0.8089400E-01
        2   -1    0    0  501    0  0.00000000000E+00  0.00000000000E+00  0.30026454447E+04  0.30026454447E+04  0.25500000920E-02 0.  1.
       -2   -1    0    0    0  501  0.00000000000E+00  0.00000000000E+00 -0.10819100552E+04  0.10819100552E+04  0.25500000920E-02 0. -1.
    10030    2    1    2    0    0  0.00000000000E+00  0.00000000000E+00  0.19207353895E+04  0.40845555000E+04  0.36047703389E+04 0.  0.
        5    1    3    3  502    0  0.26091268102E+03 -0.13746545788E+04 -0.32699218795E+03  0.14369052227E+04  0.46999998093E+01 0. -1.
       -5    1    3    3    0  502 -0.26091268102E+03  0.13746545788E+04  0.22477275774E+04  0.26476502772E+04  0.46999998093E+01 0.  1.
</event>
<event>
 5   0  0.6848661E-07  0.3555387E+04  0.7818609E-02  0.8100788E-01
        2   -1    0    0  501    0  0.00000000000E+00  0.00000000000E+00  0.24361403253E+04  0.24361403253E+04  0.25500000920E-02 0. -1.
       -2   -1    0    0    0  501  0.00000000000E+00  0.00000000000E+00 -0.12972133046E+04  0.12972133046E+04  0.25500000920E-02 0.  1.
    10030    2    1    2    0    0  0.00000000000E+00  0.00000000000E+00  0.11389270207E+04  0.37333536300E+04  0.35553866974E+04 0.  0.
        1    1    3    3  502    0  0.86134536065E+03 -0.12009071524E+04 -0.46796792355E+03  0.15501896002E+04  0.50400001928E-02 0.  1.
       -1    1    3    3    0  502 -0.86134536065E+03  0.12009071524E+04  0.16068949442E+04  0.21831640298E+04  0.50400001928E-02 0. -1.
</event>
<event>
 5   0  0.2086250E-07  0.3593218E+04  0.7818609E-02  0.8092047E-01
       -1   -1    0    0    0  501  0.00000000000E+00  0.00000000000E+00  0.14260883517E+04  0.14260883517E+04  0.50400001928E-02 0. -1.
        1   -1    0    0  501    0  0.00000000000E+00  0.00000000000E+00 -0.22633964664E+04  0.22633964664E+04  0.50400001928E-02 0.  1.
    10030    2    1    2    0    0  0.00000000000E+00  0.00000000000E+00 -0.83730811476E+03  0.36894848181E+04  0.35932176867E+04 0.  0.
        2    1    3    3  502    0  0.91096432734E+03  0.52623434512E+03 -0.19140461039E+04  0.21841133394E+04  0.25500000920E-02 0.  1.
       -2    1    3    3    0  502 -0.91096432734E+03 -0.52623434512E+03  0.10767379891E+04  0.15053714787E+04  0.25500000920E-02 0. -1.
</event>
<event>
 5   0  0.6848661E-07  0.3611822E+04  0.7818609E-02  0.8087789E-01
       -2   -1    0    0    0  501  0.00000000000E+00  0.00000000000E+00  0.16571087940E+04  0.16571087940E+04  0.25500000920E-02 0. -1.
        2   -1    0    0  501    0  0.00000000000E+00  0.00000000000E+00 -0.19680747909E+04  0.19680747909E+04  0.25500000920E-02 0.  1.
    10030    2    1    2    0    0  0.00000000000E+00  0.00000000000E+00 -0.31096599697E+03  0.36251835849E+04  0.36118217250E+04 0.  0.
        1    1    3    3  502    0  0.83888901825E+03  0.82392148171E+03  0.12202564493E+04  0.16945817168E+04  0.50400001928E-02 0. -1.
       -1    1    3    3    0  502 -0.83888901825E+03 -0.82392148171E+03 -0.15312224463E+04  0.19306018681E+04  0.50400001928E-02 0.  1.
</event>
<event>
 5   0  0.2086250E-07  0.3588071E+04  0.7818609E-02  0.8093230E-01
        1   -1    0    0  501    0  0.00000000000E+00  0.00000000000E+00  0.20607971093E+04  0.20607971093E+04  0.50400001928E-02 0.  1.
       -1   -1    0    0    0  501  0.00000000000E+00  0.00000000000E+00 -0.15618051525E+04  0.15618051525E+04  0.50400001928E-02 0. -1.
    10030    2    1    2    0    0  0.00000000000E+00  0.00000000000E+00  0.49899195687E+03  0.36226022618E+04  0.35880710938E+04 0.  0.
        4    1    3    3  502    0  0.10599602417E+04  0.12779502794E+04  0.93566098387E+03  0.19058162872E+04  0.12699999809E+01 0.  1.
       -4    1    3    3    0  502 -0.10599602417E+04 -0.12779502794E+04 -0.43666902700E+03  0.17167859747E+04  0.12699999809E+01 0. -1.
</event>
<event>
 5   0  0.6729577E-07  0.3356144E+04  0.7818609E-02  0.8148755E-01
        2   -1    0    0  501    0  0.00000000000E+00  0.00000000000E+00  0.16211286929E+04  0.16211286929E+04  0.25500000920E-02 0. -1.
       -2   -1    0    0    0  501  0.00000000000E+00  0.00000000000E+00 -0.17370151825E+04  0.17370151825E+04  0.25500000920E-02 0.  1.
    10030    2    1    2    0    0  0.00000000000E+00  0.00000000000E+00 -0.11588648964E+03  0.33581438753E+04  0.33561437110E+04 0.  0.
        3    1    3    3  502    0 -0.68006997968E+03  0.12840506030E+04  0.78198779925E+03  0.16500866816E+04  0.10100000352E+00 0. -1.
       -3    1    3    3    0  502  0.68006997968E+03 -0.12840506030E+04 -0.89787428889E+03  0.17080571938E+04  0.10100000352E+00 0.  1.
</event>
<event>
 5   0  0.2086250E-07  0.3564366E+04  0.7818609E-02  0.8098703E-01
        1   -1    0    0  501    0  0.00000000000E+00  0.00000000000E+00  0.19333618558E+04  0.19333618558E+04  0.50400001928E-02 0.  1.
       -1   -1    0    0    0  501  0.00000000000E+00  0.00000000000E+00 -0.16428256164E+04  0.16428256164E+04  0.50400001928E-02 0. -1.
    10030    2    1    2    0    0  0.00000000000E+00  0.00000000000E+00  0.29053623942E+03  0.35761874722E+04  0.35643660769E+04 0.  0.
        4    1    3    3  502    0  0.25611774085E+00  0.86558324301E+03  0.17082988880E+04  0.19150773143E+04  0.12699999809E+01 0.  1.
       -4    1    3    3    0  502 -0.25611774085E+00 -0.86558324301E+03 -0.14177626486E+04  0.16611101579E+04  0.12699999809E+01 0. -1.
</event>
<event>
 5   0  0.6729577E-07  0.3634300E+04  0.7818609E-02  0.8082680E-01
        2   -1    0    0  501    0  0.00000000000E+00  0.00000000000E+00  0.21846018511E+04  0.21846018511E+04  0.25500000920E-02 0. -1.
       -2   -1    0    0    0  501  0.00000000000E+00  0.00000000000E+00 -0.15115037404E+04  0.15115037404E+04  0.25500000920E-02 0.  1.
    10030    2    1    2    0    0  0.00000000000E+00  0.00000000000E+00  0.67309811078E+03  0.36961055915E+04  0.36342998606E+04 0.  0.
        3    1    3    3  502    0  0.93362810968E+03 -0.36962119621E+03 -0.12037210900E+04  0.15675540656E+04  0.10100000352E+00 0.  1.
       -3    1    3    3    0  502 -0.93362810968E+03  0.36962119621E+03  0.18768192008E+04  0.21285515259E+04  0.10100000352E+00 0. -1.
</event>
<event>
 5   0  0.6541476E-07  0.3571425E+04  0.7818609E-02  0.8097069E-01
       -2   -1    0    0    0  501  0.00000000000E+00  0.00000000000E+00  0.28336160829E+04  0.28336160829E+04  0.25500000920E-02 0.  1.
        2   -1    0    0  501    0  0.00000000000E+00  0.00000000000E+00 -0.11253357216E+04  0.11253357216E+04  0.25500000920E-02 0. -1.
    10030    2    1    2    0    0  0.00000000000E+00  0.00000000000E+00  0.17082803613E+04  0.39589518045E+04  0.35714251494E+04 0.  0.
        4    1    3    3  502    0 -0.15158048521E+04  0.86370190848E+03  0.12764254803E+04  0.21616912259E+04  0.12699999809E+01 0.  1.
       -4    1    3    3    0  502  0.15158048521E+04 -0.86370190848E+03  0.43185488091E+03  0.17972605786E+04  0.12699999809E+01 0. -1.
</event>
<event>
 5   0  0.6324216E-07  0.3598183E+04  0.7818609E-02  0.8090908E-01
       -2   -1    0    0    0  501  0.00000000000E+00  0.00000000000E+00  0.16659764643E+04  0.16659764643E+04  0.25500000920E-02 0.  1.
        2   -1    0    0  501    0  0.00000000000E+00  0.00000000000E+00 -0.19428429794E+04  0.19428429794E+04  0.25500000920E-02 0. -1.
    10030    2    1    2    0    0  0.00000000000E+00  0.00000000000E+00 -0.27686651509E+03  0.36088194437E+04  0.35981832513E+04 0.  0.
        2    1    3    3  502    0 -0.74223830828E+03 -0.13010952536E+04  0.86098816098E+03  0.17277346957E+04  0.25500000920E-02 0.  1.
       -2    1    3    3    0  502  0.74223830828E+03  0.13010952536E+04 -0.11378546761E+04  0.18810847480E+04  0.25500000920E-02 0. -1.
</event>
<event>
 5   0  0.6324216E-07  0.3605297E+04  0.7818609E-02  0.8089279E-01
       -2   -1    0    0    0  501  0.00000000000E+00  0.00000000000E+00  0.13697732684E+04  0.13697732684E+04  0.25500000920E-02 0.  1.
        2   -1    0    0  501    0  0.00000000000E+00  0.00000000000E+00 -0.23723207096E+04  0.23723207096E+04  0.25500000920E-02 0. -1.
    10030    2    1    2    0    0  0.00000000000E+00  0.00000000000E+00 -0.10025474412E+04  0.37420939781E+04  0.36052969321E+04 0.  0.
        2    1    3    3  502    0 -0.13602916052E+04 -0.97296468648E+02 -0.17248507372E+04  0.21988565027E+04  0.25500000920E-02 0. -1.
       -2    1    3    3    0  502  0.13602916052E+04  0.97296468648E+02  0.72230329594E+03  0.15432374754E+04  0.25500000920E-02 0.  1.
</event>
<event>
 5   0  0.2086250E-07  0.3671718E+04  0.7818609E-02  0.8074258E-01
        1   -1    0    0  501    0  0.00000000000E+00  0.00000000000E+00  0.24093808010E+04  0.24093808010E+04  0.50400001928E-02 0.  1.
       -1   -1    0    0    0  501  0.00000000000E+00  0.00000000000E+00 -0.13988567708E+04  0.13988567708E+04  0.50400001928E-02 0. -1.
    10030    2    1    2    0    0  0.00000000000E+00  0.00000000000E+00  0.10105240302E+04  0.38082375718E+04  0.36717182065E+04 0.  0.
        4    1    3    3  502    0 -0.43823014590E+03 -0.17776580005E+04  0.64542895242E+03  0.19413123842E+04  0.12699999809E+01 0. -1.
       -4    1    3    3    0  502  0.43823014590E+03  0.17776580005E+04  0.36509507774E+03  0.18669251876E+04  0.12699999809E+01 0.  1.
</event>
<event>
 5   0  0.6324216E-07  0.3651930E+04  0.7818609E-02  0.8078699E-01
        2   -1    0    0  501    0  0.00000000000E+00  0.00000000000E+00  0.22558383648E+04  0.22558383648E+04  0.25500000920E-02 0.  1.
       -2   -1    0    0    0  501  0.00000000000E+00  0.00000000000E+00 -0.14780084272E+04  0.14780084273E+04  0.25500000920E-02 0. -1.
    10030    2    1    2    0    0  0.00000000000E+00  0.00000000000E+00  0.77782993756E+03  0.37338467921E+04  0.36519299630E+04 0.  0.
        2    1    3    3  502    0 -0.12561783358E+02 -0.99797965209E+03 -0.11744443562E+04  0.15412464859E+04  0.25500000920E-02 0. -1.
       -2    1    3    3    0  502  0.12561783358E+02  0.99797965209E+03  0.19522742938E+04  0.21926003062E+04  0.25500000920E-02 0.  1.
</event>
<event>
 5   0  0.6669864E-07  0.3382117E+04  0.7818609E-02  0.8142309E-01
        2   -1    0    0  501    0  0.00000000000E+00  0.00000000000E+00  0.12341064719E+04  0.12341064719E+04  0.25500000920E-02 0.  1.
       -2   -1    0    0    0  501  0.00000000000E+00  0.00000000000E+00 -0.23172054542E+04  0.23172054542E+04  0.25500000920E-02 0. -1.
    10030    2    1    2    0    0  0.00000000000E+00  0.00000000000E+00 -0.10830989823E+04  0.35513119261E+04  0.33821166436E+04 0.  0.
        5    1    3    3  502    0 -0.13722486680E+04 -0.27336663252E+03  0.45562211916E+03  0.14715329857E+04  0.46999998093E+01 0.  1.
       -5    1    3    3    0  502  0.13722486680E+04  0.27336663252E+03 -0.15387211014E+04  0.20797789403E+04  0.46999998093E+01 0. -1.
</event>
<event>
 5   0  0.6669864E-07  0.3577492E+04  0.7818609E-02  0.8095667E-01
       -2   -1    0    0    0  501  0.00000000000E+00  0.00000000000E+00  0.12140993805E+04  0.12140993805E+04  0.25500000920E-02 0.  1.
        2   -1    0    0  501    0  0.00000000000E+00  0.00000000000E+00 -0.26353794263E+04  0.26353794263E+04  0.25500000920E-02 0. -1.
    10030    2    1    2    0    0  0.00000000000E+00  0.00000000000E+00 -0.14212800458E+04  0.38494788067E+04  0.35774921544E+04 0.  0.
        5    1    3    3  502    0  0.72955107887E+03  0.50554088477E+03 -0.23816981398E+04  0.25417168375E+04  0.46999998093E+01 0. -1.
       -5    1    3    3    0  502 -0.72955107887E+03 -0.50554088477E+03  0.96041809404E+03  0.13077619692E+04  0.46999998093E+01 0.  1.
</event>
<event>
 5   0  0.6729577E-07  0.3582067E+04  0.7818609E-02  0.8094612E-01
       -2   -1    0    0    0  501  0.00000000000E+00  0.00000000000E+00  0.19107725028E+04  0.19107725028E+04  0.25500000920E-02 0.  1.
        2   -1    0    0  501    0  0.00000000000E+00  0.00000000000E+00 -0.16787978948E+04  0.16787978948E+04  0.25500000920E-02 0. -1.
    10030    2    1    2    0    0  0.00000000000E+00  0.00000000000E+00  0.23197460801E+03  0.35895703976E+04  0.35820669202E+04 0.  0.
        3    1    3    3  502    0 -0.28581802201E+02 -0.22919161114E+03  0.18957862986E+04  0.19098040251E+04  0.10100000352E+00 0.  1.
       -3    1    3    3    0  502  0.28581802201E+02  0.22919161114E+03 -0.16638116906E+04  0.16797663725E+04  0.10100000352E+00 0. -1.
</event>
<event>
 5   0  0.2108068E-07  0.3547878E+04  0.7818609E-02  0.8102536E-01
        1   -1    0    0  501    0  0.00000000000E+00  0.00000000000E+00  0.17538300275E+04  0.17538300275E+04  0.50400001928E-02 0.  1.
       -1   -1    0    0    0  501  0.00000000000E+00  0.00000000000E+00 -0.17942789435E+04  0.17942789435E+04  0.50400001928E-02 0. -1.
    10030    2    1    2    0    0  0.00000000000E+00  0.00000000000E+00 -0.40448915971E+02  0.35481089710E+04  0.35478784020E+04 0.  0.
        5    1    3    3  502    0 -0.12434034559E+04  0.53976766215E+02  0.12439275284E+04  0.17596429841E+04  0.46999998093E+01 0.  1.
       -5    1    3    3    0  502  0.12434034559E+04 -0.53976766215E+02 -0.12843764444E+04  0.17884659869E+04  0.46999998093E+01 0. -1.
</event>
<event>
 5   0  0.2193129E-07  0.3575619E+04  0.7818609E-02  0.8096099E-01
       -1   -1    0    0    0  501  0.00000000000E+00  0.00000000000E+00  0.15608716298E+04  0.15608716298E+04  0.50400001928E-02 0.  1.
        1   -1    0    0  501    0  0.00000000000E+00  0.00000000000E+00 -0.20477419325E+04  0.20477419325E+04  0.50400001928E-02 0. -1.
    10030    2    1    2    0    0  0.00000000000E+00  0.00000000000E+00 -0.48687030273E+03  0.36086135623E+04  0.35756187087E+04 0.  0.
        1    1    3    3  502    0 -0.17397813407E+04  0.17720058314E+03 -0.61837802861E+03  0.18548936753E+04  0.50400001928E-02 0. -1.
       -1    1    3    3    0  502  0.17397813407E+04 -0.17720058314E+03  0.13150772588E+03  0.17537198870E+04  0.50400001928E-02 0.  1.
</event>
<event>
 5   0  0.6729577E-07  0.3617310E+04  0.7818609E-02  0.8086538E-01
       -2   -1    0    0    0  501  0.00000000000E+00  0.00000000000E+00  0.12102892943E+04  0.12102892943E+04  0.25500000920E-02 0.  1.
        2   -1    0    0  501    0  0.00000000000E+00  0.00000000000E+00 -0.27028517334E+04  0.27028517334E+04  0.25500000920E-02 0. -1.
    10030    2    1    2    0    0  0.00000000000E+00  0.00000000000E+00 -0.14925624391E+04  0.39131410278E+04  0.36173097833E+04 0.  0.
        3    1    3    3  502    0 -0.10752349194E+04  0.46979862399E+03 -0.22352125888E+04  0.25244833543E+04  0.10100000352E+00 0. -1.
       -3    1    3    3    0  502  0.10752349194E+04 -0.46979862399E+03  0.74265014968E+03  0.13886576735E+04  0.10100000352E+00 0.  1.
</event>
<event>
 5   0  0.2086250E-07  0.3587270E+04  0.7818609E-02  0.8093414E-01
       -1   -1    0    0    0  501  0.00000000000E+00  0.00000000000E+00  0.17455135136E+04  0.17455135136E+04  0.50400001928E-02 0.  1.
        1   -1    0    0  501    0  0.00000000000E+00  0.00000000000E+00 -0.18430831065E+04  0.18430831065E+04  0.50400001928E-02 0. -1.
    10030    2    1    2    0    0  0.00000000000E+00  0.00000000000E+00 -0.97569592890E+02  0.35885966201E+04  0.35872699754E+04 0.  0.
        2    1    3    3  502    0 -0.13788048582E+04 -0.26065520029E+03 -0.11663740777E+04  0.18246842081E+04  0.25500000920E-02 0. -1.
       -2    1    3    3    0  502  0.13788048582E+04  0.26065520029E+03  0.10688044848E+04  0.17639124120E+04  0.25500000920E-02 0.  1.
</event>
<event>
 5   0  0.6541476E-07  0.3573538E+04  0.7818609E-02  0.8096580E-01
        2   -1    0    0  501    0  0.00000000000E+00  0.00000000000E+00  0.22383011893E+04  0.22383011893E+04  0.25500000920E-02 0. -1.
       -2   -1    0    0    0  501  0.00000000000E+00  0.00000000000E+00 -0.14263241090E+04  0.14263241090E+04  0.25500000920E-02 0.  1.
    10030    2    1    2    0    0  0.00000000000E+00  0.00000000000E+00  0.81197708035E+03  0.36646252983E+04  0.35735377147E+04 0.  0.
        4    1    3    3  502    0 -0.26321220495E+03  0.11232789133E+04  0.18051354803E+04  0.21423239477E+04  0.12699999809E+01 0. -1.
       -4    1    3    3    0  502  0.26321220495E+03 -0.11232789133E+04 -0.99315839994E+03  0.15223013506E+04  0.12699999809E+01 0.  1.
</event>
<event>
 5   0  0.2086250E-07  0.3604823E+04  0.7818609E-02  0.8089388E-01
       -1   -1    0    0    0  501  0.00000000000E+00  0.00000000000E+00  0.20958913492E+04  0.20958913492E+04  0.50400001928E-02 0. -1.
        1   -1    0    0  501    0  0.00000000000E+00  0.00000000000E+00 -0.15500265233E+04  0.15500265234E+04  0.50400001928E-02 0.  1.
    10030    2    1    2    0    0  0.00000000000E+00  0.00000000000E+00  0.54586482582E+03  0.36459178725E+04  0.36048229811E+04 0.  0.
        4    1    3    3  502    0 -0.17397100915E+04  0.70860930052E+02  0.74415482413E+03  0.18935100974E+04  0.12699999809E+01 0. -1.
       -4    1    3    3    0  502  0.17397100915E+04 -0.70860930052E+02 -0.19828999831E+03  0.17524077751E+04  0.12699999809E+01 0.  1.
</event>
<event>
 5   0  0.6541476E-07  0.3614020E+04  0.7818609E-02  0.8087288E-01
       -2   -1    0    0    0  501  0.00000000000E+00  0.00000000000E+00  0.18328751259E+04  0.18328751259E+04  0.25500000920E-02 0.  1.
        2   -1    0    0  501    0  0.00000000000E+00  0.00000000000E+00 -0.17815097928E+04  0.17815097928E+04  0.25500000920E-02 0. -1.
    10030    2    1    2    0    0  0.00000000000E+00  0.00000000000E+00  0.51365333194E+02  0.36143849187E+04  0.36140199146E+04 0.  0.
        4    1    3    3  502    0  0.37594880239E+03 -0.70740278948E+03  0.16455768379E+04  0.18302133621E+04  0.12699999809E+01 0.  1.
       -4    1    3    3    0  502 -0.37594880239E+03  0.70740278948E+03 -0.15942115047E+04  0.17841715566E+04  0.12699999809E+01 0. -1.
</event>
<event>
 5   0  0.6848661E-07  0.3603575E+04  0.7818609E-02  0.8089673E-01
       -2   -1    0    0    0  501  0.00000000000E+00  0.00000000000E+00  0.23326786198E+04  0.23326786198E+04  0.25500000920E-02 0.  1.
        2   -1    0    0  501    0  0.00000000000E+00  0.00000000000E+00 -0.13917213480E+04  0.13917213480E+04  0.25500000920E-02 0. -1.
    10030    2    1    2    0    0  0.00000000000E+00  0.00000000000E+00  0.94095727182E+03  0.37243999679E+04  0.36035752432E+04 0.  0.
        1    1    3    3  502    0  0.19372535845E+03  0.15045979578E+04 -0.53427652717E+03  0.16083519318E+04  0.50400001928E-02 0. -1.
       -1    1    3    3    0  502 -0.19372535845E+03 -0.15045979578E+04  0.14752337990E+04  0.21160480360E+04  0.50400001928E-02 0.  1.
</event>
<event>
 5   0  0.6324216E-07  0.3615571E+04  0.7818609E-02  0.8086934E-01
       -2   -1    0    0    0  501  0.00000000000E+00  0.00000000000E+00  0.15700433204E+04  0.15700433204E+04  0.25500000920E-02 0.  1.
        2   -1    0    0  501    0  0.00000000000E+00  0.00000000000E+00 -0.20815276720E+04  0.20815276720E+04  0.25500000920E-02 0. -1.
    10030    2    1    2    0    0  0.00000000000E+00  0.00000000000E+00 -0.51148435159E+03  0.36515709925E+04  0.36155711127E+04 0.  0.
        2    1    3    3  502    0  0.36265848699E+03 -0.17461756228E+04  0.42901471475E+02  0.17839537606E+04  0.25500000920E-02 0.  1.
       -2    1    3    3    0  502 -0.36265848699E+03  0.17461756228E+04 -0.55438582307E+03  0.18676172318E+04  0.25500000920E-02 0. -1.
</event>
<event>
 5   0  0.2086250E-07  0.3600158E+04  0.7818609E-02  0.8090456E-01
       -1   -1    0    0    0  501  0.00000000000E+00  0.00000000000E+00  0.21603823385E+04  0.21603823385E+04  0.50400001928E-02 0.  1.
        1   -1    0    0  501    0  0.00000000000E+00  0.00000000000E+00 -0.14998660827E+04  0.14998660827E+04  0.50400001928E-02 0. -1.
    10030    2    1    2    0    0  0.00000000000E+00  0.00000000000E+00  0.66051625573E+03  0.36602484212E+04  0.36001578828E+04 0.  0.
        3    1    3    3  502    0 -0.38802758994E+03 -0.13000803233E+04 -0.87249641741E+03  0.16130791258E+04  0.10100000352E+00 0. -1.
       -3    1    3    3    0  502  0.38802758994E+03  0.13000803233E+04  0.15330126731E+04  0.20471692954E+04  0.10100000352E+00 0.  1.
</event>
<event>
 5   0  0.2193129E-07  0.3601215E+04  0.7818609E-02  0.8090213E-01
       -1   -1    0    0    0  501  0.00000000000E+00  0.00000000000E+00  0.19892765340E+04  0.19892765340E+04  0.50400001928E-02 0.  1.
        1   -1    0    0  501    0  0.00000000000E+00  0.00000000000E+00 -0.16298325922E+04  0.16298325922E+04  0.50400001928E-02 0. -1.
    10030    2    1    2    0    0  0.00000000000E+00  0.00000000000E+00  0.35944394180E+03  0.36191091261E+04  0.36012152004E+04 0.  0.
        1    1    3    3  502    0 -0.16062096792E+04 -0.58487461176E+03 -0.38895178946E+03  0.17530748243E+04  0.50400001928E-02 0. -1.
       -1    1    3    3    0  502  0.16062096792E+04  0.58487461176E+03  0.74839573126E+03  0.18660343018E+04  0.50400001928E-02 0.  1.
</event>
<event>
 5   0  0.2086250E-07  0.3553946E+04  0.7818609E-02  0.8101123E-01
        1   -1    0    0  501    0  0.00000000000E+00  0.00000000000E+00  0.33123793268E+04  0.33123793268E+04  0.50400001928E-02 0. -1.
       -1   -1    0    0    0  501  0.00000000000E+00  0.00000000000E+00 -0.95328221308E+03  0.95328221310E+03  0.50400001928E-02 0.  1.
    10030    2    1    2    0    0  0.00000000000E+00  0.00000000000E+00  0.23590971137E+04  0.42656615399E+04  0.35539455794E+04 0.  0.
        2    1    3    3  502    0 -0.17201579503E+04 -0.10723991205E+03  0.66025225704E+03  0.18456372384E+04  0.25500000920E-02 0.  1.
       -2    1    3    3    0  502  0.17201579503E+04  0.10723991205E+03  0.16988448567E+04  0.24200243015E+04  0.25500000920E-02 0. -1.
</event>
<event>
 5   0  0.6324216E-07  0.3604891E+04  0.7818609E-02  0.8089372E-01
       -2   -1    0    0    0  501  0.00000000000E+00  0.00000000000E+00  0.17216438680E+04  0.17216438680E+04  0.25500000920E-02 0.  1.
        2   -1    0    0  501    0  0.00000000000E+00  0.00000000000E+00 -0.18870393900E+04  0.18870393900E+04  0.25500000920E-02 0. -1.
    10030    2    1    2    0    0  0.00000000000E+00  0.00000000000E+00 -0.16539552205E+03  0.36086832580E+04  0.36048910077E+04 0.  0.
        2    1    3    3  502    0  0.97615046900E+03  0.77493141111E+03  0.12207554670E+04  0.17446009115E+04  0.25500000920E-02 0.  1.
       -2    1    3    3    0  502 -0.97615046900E+03 -0.77493141111E+03 -0.13861509891E+04  0.18640823465E+04  0.25500000920E-02 0. -1.
</event>
<event>
 5   0  0.6669864E-07  0.3591210E+04  0.7818609E-02  0.8092508E-01
        2   -1    0    0  501    0  0.00000000000E+00  0.00000000000E+00  0.30650691829E+04  0.30650691829E+04  0.25500000920E-02 0. -1.
       -2   -1    0    0    0  501  0.00000000000E+00  0.00000000000E+00 -0.10519168503E+04  0.10519168503E+04  0.25500000920E-02 0.  1.
    10030    2    1    2    0    0  0.00000000000E+00  0.00000000000E+00  0.20131523327E+04  0.41169860332E+04  0.35912103368E+04 0.  0.
        5    1    3    3  502    0  0.15543145967E+04  0.54261052013E+03  0.18283629982E+04  0.24603360309E+04  0.46999998093E+01 0. -1.
       -5    1    3    3    0  502 -0.15543145967E+04 -0.54261052013E+03  0.18478933451E+03  0.16566500023E+04  0.46999998093E+01 0.  1.
</event>
<event>
 5   0  0.2193129E-07  0.3620907E+04  0.7818609E-02  0.8085719E-01
        1   -1    0    0  501    0  0.00000000000E+00  0.00000000000E+00  0.11097646747E+04  0.11097646747E+04  0.50400001928E-02 0.  1.
       -1   -1    0    0    0  501  0.00000000000E+00  0.00000000000E+00 -0.29535462149E+04  0.29535462150E+04  0.50400001928E-02 0. -1.
    10030    2    1    2    0    0  0.00000000000E+00  0.00000000000E+00 -0.18437815403E+04  0.40633108896E+04  0.36209066568E+04 0.  0.
        1    1    3    3  502    0 -0.18246513779E+03  0.13873308329E+04 -0.22110612421E+04  0.26166337502E+04  0.50400001928E-02 0. -1.
       -1    1    3    3    0  502  0.18246513779E+03 -0.13873308329E+04  0.36727970181E+03  0.14466771394E+04  0.50400001928E-02 0.  1.
</event>
<event>
 5   0  0.6848661E-07  0.3578388E+04  0.7818609E-02  0.8095460E-01
        2   -1    0    0  501    0  0.00000000000E+00  0.00000000000E+00  0.24835587970E+04  0.24835587970E+04  0.25500000920E-02 0. -1.
       -2   -1    0    0    0  501  0.00000000000E+00  0.00000000000E+00 -0.12889630064E+04  0.12889630064E+04  0.25500000920E-02 0.  1.
    10030    2    1    2    0    0  0.00000000000E+00  0.00000000000E+00  0.11945957906E+04  0.37725218033E+04  0.35783881363E+04 0.  0.
        1    1    3    3  502    0  0.16683635851E+04  0.59582638659E+03  0.86142798606E+03  0.19698995686E+04  0.50400001928E-02 0.  1.
       -1    1    3    3    0  502 -0.16683635851E+04 -0.59582638659E+03  0.33316780457E+03  0.18026222347E+04  0.50400001928E-02 0. -1.
</event>
<event>
 5   0  0.2193129E-07  0.3573445E+04  0.7818609E-02  0.8096602E-01
       -1   -1    0    0    0  501  0.00000000000E+00  0.00000000000E+00  0.12270250694E+04  0.12270250694E+04  0.50400001928E-02 0.  1.
        1   -1    0    0  501    0  0.00000000000E+00  0.00000000000E+00 -0.26017213816E+04  0.26017213816E+04  0.50400001928E-02 0. -1.
    10030    2    1    2    0    0  0.00000000000E+00  0.00000000000E+00 -0.13746963122E+04  0.38287464510E+04  0.35734450373E+04 0.  0.
        1    1    3    3  502    0  0.10012164631E+04 -0.78605882297E+03  0.65604551143E+03  0.14320330277E+04  0.50400001928E-02 0.  1.
       -1    1    3    3    0  502 -0.10012164631E+04  0.78605882297E+03 -0.20307418236E+04  0.23967134233E+04  0.50400001928E-02 0. -1.
</event>
<event>
 5   0  0.6669864E-07  0.3643189E+04  0.7818609E-02  0.8080670E-01
       -2   -1    0    0    0  501  0.00000000000E+00  0.00000000000E+00  0.19350123551E+04  0.19350123551E+04  0.25500000920E-02 0.  1.
        2   -1    0    0  501    0  0.00000000000E+00  0.00000000000E+00 -0.17148240310E+04  0.17148240310E+04  0.25500000920E-02 0. -1.
    10030    2    1    2    0    0  0.00000000000E+00  0.00000000000E+00  0.22018832410E+03  0.36498363860E+04  0.36431885412E+04 0.  0.
        5    1    3    3  502    0 -0.12489586468E+03  0.17602394105E+04 -0.34255087054E+03  0.17976109001E+04  0.46999998093E+01 0.  1.
       -5    1    3    3    0  502  0.12489586468E+03 -0.17602394105E+04  0.56273919464E+03  0.18522254859E+04  0.46999998093E+01 0. -1.
</event>
<event>
 5   0  0.6541476E-07  0.3590096E+04  0.7818609E-02  0.8092764E-01
        2   -1    0    0  501    0  0.00000000000E+00  0.00000000000E+00  0.13688058387E+04  0.13688058387E+04  0.25500000920E-02 0. -1.
       -2   -1    0    0    0  501  0.00000000000E+00  0.00000000000E+00 -0.23540209850E+04  0.23540209850E+04  0.25500000920E-02 0.  1.
    10030    2    1    2    0    0  0.00000000000E+00  0.00000000000E+00 -0.98521514633E+03  0.37228268236E+04  0.35900961929E+04 0.  0.
        4    1    3    3  502    0 -0.23048889742E+03  0.13160928767E+03  0.13483451022E+04  0.13742206023E+04  0.12699999809E+01 0. -1.
       -4    1    3    3    0  502  0.23048889742E+03 -0.13160928767E+03 -0.23335602485E+04  0.23486062213E+04  0.12699999809E+01 0.  1.
</event>
<event>
 5   0  0.6669864E-07  0.3612571E+04  0.7818609E-02  0.8087618E-01
        2   -1    0    0  501    0  0.00000000000E+00  0.00000000000E+00  0.12131706623E+04  0.12131706623E+04  0.25500000920E-02 0. -1.
       -2   -1    0    0    0  501  0.00000000000E+00  0.00000000000E+00 -0.26893716630E+04  0.26893716630E+04  0.25500000920E-02 0.  1.
    10030    2    1    2    0    0  0.00000000000E+00  0.00000000000E+00 -0.14762010007E+04  0.39025423252E+04  0.36125707198E+04 0.  0.
        5    1    3    3  502    0 -0.14907325217E+04  0.42336790207E+03  0.26435089382E+03  0.15720773889E+04  0.46999998093E+01 0. -1.
       -5    1    3    3    0  502  0.14907325217E+04 -0.42336790207E+03 -0.17405518945E+04  0.23304649363E+04  0.46999998093E+01 0.  1.
</event>
<event>
 5   0  0.6669864E-07  0.3569623E+04  0.7818609E-02  0.8097486E-01
        2   -1    0    0  501    0  0.00000000000E+00  0.00000000000E+00  0.28194063608E+04  0.28194063608E+04  0.25500000920E-02 0.  1.
       -2   -1    0    0    0  501  0.00000000000E+00  0.00000000000E+00 -0.11298663637E+04  0.11298663637E+04  0.25500000920E-02 0. -1.
    10030    2    1    2    0    0  0.00000000000E+00  0.00000000000E+00  0.16895399972E+04  0.39492727245E+04  0.35696231804E+04 0.  0.
        5    1    3    3  502    0 -0.75837155945E+03  0.11487378324E+04  0.21017401161E+04  0.25123812680E+04  0.46999998093E+01 0.  1.
       -5    1    3    3    0  502  0.75837155945E+03 -0.11487378324E+04 -0.41220011894E+03  0.14368914565E+04  0.46999998093E+01 0. -1.
</event>
<event>
 5   0  0.2086250E-07  0.2946664E+04  0.7818609E-02  0.8259128E-01
       -1   -1    0    0    0  501  0.00000000000E+00  0.00000000000E+00  0.15001651029E+04  0.15001651029E+04  0.50400001928E-02 0.  1.
        1   -1    0    0  501    0  0.00000000000E+00  0.00000000000E+00 -0.14469784144E+04  0.14469784144E+04  0.50400001928E-02 0. -1.
    10030    2    1    2    0    0  0.00000000000E+00  0.00000000000E+00  0.53186688554E+02  0.29471435173E+04  0.29466635519E+04 0.  0.
        2    1    3    3  502    0  0.13663157343E+04 -0.54567763258E+03  0.10486053119E+03  0.14749842357E+04  0.25500000920E-02 0. -1.
       -2    1    3    3    0  502 -0.13663157343E+04  0.54567763258E+03 -0.51673842641E+02  0.14721592816E+04  0.25500000920E-02 0.  1.
</event>
<event>
 5   0  0.6848661E-07  0.3574676E+04  0.7818609E-02  0.8096317E-01
        2   -1    0    0  501    0  0.00000000000E+00  0.00000000000E+00  0.23143194640E+04  0.23143194640E+04  0.25500000920E-02 0. -1.
       -2   -1    0    0    0  501  0.00000000000E+00  0.00000000000E+00 -0.13803525275E+04  0.13803525275E+04  0.25500000920E-02 0.  1.
    10030    2    1    2    0    0  0.00000000000E+00  0.00000000000E+00  0.93396693648E+03  0.36946719914E+04  0.35746757735E+04 0.  0.
        1    1    3    3  502    0  0.15450882227E+04 -0.58142923089E+03  0.11749734264E+04  0.20263070150E+04  0.50400001928E-02 0. -1.
       -1    1    3    3    0  502 -0.15450882227E+04  0.58142923089E+03 -0.24100648992E+03  0.16683649764E+04  0.50400001928E-02 0.  1.
</event>
<event>
 5   0  0.2086250E-07  0.3581509E+04  0.7818609E-02  0.8094740E-01
       -1   -1    0    0    0  501  0.00000000000E+00  0.00000000000E+00  0.14457167348E+04  0.14457167348E+04  0.50400001928E-02 0. -1.
        1   -1    0    0  501    0  0.00000000000E+00  0.00000000000E+00 -0.22181402375E+04  0.22181402376E+04  0.50400001928E-02 0.  1.
    10030    2    1    2    0    0  0.00000000000E+00  0.00000000000E+00 -0.77242350278E+03  0.36638569723E+04  0.35815094368E+04 0.  0.
        2    1    3    3  502    0 -0.53559412656E+03 -0.16171812503E+04  0.17844502868E+03  0.17128861296E+04  0.25500000920E-02 0.  1.
       -2    1    3    3    0  502  0.53559412656E+03  0.16171812503E+04 -0.95086853146E+03  0.19509708427E+04  0.25500000920E-02 0. -1.
</event>
<event>
 5   0  0.6541476E-07  0.3616207E+04  0.7818609E-02  0.8086789E-01
        2   -1    0    0  501    0  0.00000000000E+00  0.00000000000E+00  0.91792224840E+03  0.91792224841E+03  0.25500000920E-02 0. -1.
       -2   -1    0    0    0  501  0.00000000000E+00  0.00000000000E+00 -0.35615638630E+04  0.35615638630E+04  0.25500000920E-02 0.  1.
    10030    2    1    2    0    0  0.00000000000E+00  0.00000000000E+00 -0.26436416146E+04  0.44794861114E+04  0.36162072446E+04 0.  0.
        4    1    3    3  502    0  0.90579020358E+03 -0.63243506839E+03 -0.30948889077E+04  0.32861480448E+04  0.12699999809E+01 0. -1.
       -4    1    3    3    0  502 -0.90579020358E+03  0.63243506839E+03  0.45124729313E+03  0.11933380666E+04  0.12699999809E+01 0.  1.
</event>
<event>
 5   0  0.2086250E-07  0.3589900E+04  0.7818609E-02  0.8092809E-01
       -1   -1    0    0    0  501  0.00000000000E+00  0.00000000000E+00  0.13422535707E+04  0.13422535707E+04  0.50400001928E-02 0.  1.
        1   -1    0    0  501    0  0.00000000000E+00  0.00000000000E+00 -0.24003252568E+04  0.24003252568E+04  0.50400001928E-02 0. -1.
    10030    2    1    2    0    0  0.00000000000E+00  0.00000000000E+00 -0.10580716861E+04  0.37425788275E+04  0.35898998018E+04 0.  0.
        3    1    3    3  502    0  0.33882925529E+03  0.16271232118E+04 -0.12357374483E+04  0.20710823890E+04  0.10100000352E+00 0. -1.
       -3    1    3    3    0  502 -0.33882925529E+03 -0.16271232118E+04  0.17766576225E+03  0.16714964385E+04  0.10100000352E+00 0.  1.
</event>
<event>
 5   0  0.6729577E-07  0.3605259E+04  0.7818609E-02  0.8089288E-01
        2   -1    0    0  501    0  0.00000000000E+00  0.00000000000E+00  0.16937769757E+04  0.16937769757E+04  0.25500000920E-02 0. -1.
       -2   -1    0    0    0  501  0.00000000000E+00  0.00000000000E+00 -0.19184778574E+04  0.19184778574E+04  0.25500000920E-02 0.  1.
    10030    2    1    2    0    0  0.00000000000E+00  0.00000000000E+00 -0.22470088164E+03  0.36122548331E+04  0.36052592824E+04 0.  0.
        3    1    3    3  502    0 -0.11697542749E+04 -0.75710242690E+03 -0.12582235540E+04  0.18774066343E+04  0.10100000352E+00 0.  1.
       -3    1    3    3    0  502  0.11697542749E+04  0.75710242690E+03  0.10335226723E+04  0.17348481988E+04  0.10100000352E+00 0. -1.
</event>
<event>
 5   0  0.2086250E-07  0.2960717E+04  0.7818609E-02  0.8255038E-01
       -1   -1    0    0    0  501  0.00000000000E+00  0.00000000000E+00  0.20264003903E+04  0.20264003903E+04  0.50400001928E-02 0. -1.
        1   -1    0    0  501    0  0.00000000000E+00  0.00000000000E+00 -0.10814552322E+04  0.10814552322E+04  0.50400001928E-02 0.  1.
    10030    2    1    2    0    0  0.00000000000E+00  0.00000000000E+00  0.94494515809E+03  0.31078556224E+04  0.29607170108E+04 0.  0.
        4    1    3    3  502    0  0.64289642547E+03 -0.67764024869E+03 -0.73305653276E+03  0.11873860424E+04  0.12699999809E+01 0.  1.
       -4    1    3    3    0  502 -0.64289642547E+03  0.67764024869E+03  0.16780016909E+04  0.19204695801E+04  0.12699999809E+01 0. -1.
</event>
<event>
 5   0  0.6848661E-07  0.3505357E+04  0.7818609E-02  0.8112522E-01
       -2   -1    0    0    0  501  0.00000000000E+00  0.00000000000E+00  0.22351983729E+04  0.22351983729E+04  0.25500000920E-02 0.  1.
        2   -1    0    0  501    0  0.00000000000E+00  0.00000000000E+00 -0.13743218591E+04  0.13743218591E+04  0.25500000920E-02 0. -1.
    10030    2    1    2    0    0  0.00000000000E+00  0.00000000000E+00  0.86087651377E+03  0.36095202320E+04  0.35053570337E+04 0.  0.
        1    1    3    3  502    0 -0.17197823186E+04  0.21528366773E+03  0.16215103922E+03  0.17407731732E+04  0.50400001928E-02 0. -1.
       -1    1    3    3    0  502  0.17197823186E+04 -0.21528366773E+03  0.69872547455E+03  0.18687470588E+04  0.50400001928E-02 0.  1.
</event>
<event>
 5   0  0.2108068E-07  0.3612625E+04  0.7818609E-02  0.8087606E-01
        1   -1    0    0  501    0  0.00000000000E+00  0.00000000000E+00  0.13249511819E+04  0.13249511820E+04  0.50400001928E-02 0.  1.
       -1   -1    0    0    0  501  0.00000000000E+00  0.00000000000E+00 -0.24625544988E+04  0.24625544988E+04  0.50400001928E-02 0. -1.
    10030    2    1    2    0    0  0.00000000000E+00  0.00000000000E+00 -0.11376033168E+04  0.37875056807E+04  0.36126248041E+04 0.  0.
        5    1    3    3  502    0  0.44158122964E+03 -0.51523156332E+03  0.11862365406E+04  0.13666150762E+04  0.46999998093E+01 0.  1.
       -5    1    3    3    0  502 -0.44158122964E+03  0.51523156332E+03 -0.23238398574E+04  0.24208906046E+04  0.46999998093E+01 0. -1.
</event>
<event>
 5   0  0.2086250E-07  0.3621802E+04  0.7818609E-02  0.8085516E-01
       -1   -1    0    0    0  501  0.00000000000E+00  0.00000000000E+00  0.11669159337E+04  0.11669159337E+04  0.50400001928E-02 0.  1.
        1   -1    0    0  501    0  0.00000000000E+00  0.00000000000E+00 -0.28102813388E+04  0.28102813388E+04  0.50400001928E-02 0. -1.
    10030    2    1    2    0    0  0.00000000000E+00  0.00000000000E+00 -0.16433654051E+04  0.39771972724E+04  0.36218018015E+04 0.  0.
        4    1    3    3  502    0  0.16722297430E+04  0.40659977494E+03 -0.20273971158E+03  0.17328533389E+04  0.12699999809E+01 0.  1.
       -4    1    3    3    0  502 -0.16722297430E+04 -0.40659977494E+03 -0.14406256935E+04  0.22443439336E+04  0.12699999809E+01 0. -1.
</event>
<event>
 5   0  0.6729577E-07  0.2975639E+04  0.7818609E-02  0.8250722E-01
       -2   -1    0    0    0  501  0.00000000000E+00  0.00000000000E+00  0.11312720459E+04  0.11312720459E+04  0.25500000920E-02 0. -1.
        2   -1    0    0  501    0  0.00000000000E+00  0.00000000000E+00 -0.19567411108E+04  0.19567411108E+04  0.25500000920E-02 0.  1.
    10030    2    1    2    0    0  0.00000000000E+00  0.00000000000E+00 -0.82546906495E+03  0.30880131567E+04  0.29756387682E+04 0.  0.
        3    1    3    3  502    0 -0.11517544031E+03  0.13711662434E+04 -0.10000069599E+04  0.17009927040E+04  0.10100000352E+00 0.  1.
       -3    1    3    3    0  502  0.11517544031E+03 -0.13711662434E+04  0.17453789493E+03  0.13870204527E+04  0.10100000352E+00 0. -1.
</event>
<event>
 5   0  0.2108068E-07  0.3566939E+04  0.7818609E-02  0.8098107E-01
        1   -1    0    0  501    0  0.00000000000E+00  0.00000000000E+00  0.28791833882E+04  0.28791833882E+04  0.50400001928E-02 0.  1.
       -1   -1    0    0    0  501  0.00000000000E+00  0.00000000000E+00 -0.11047449640E+04  0.11047449640E+04  0.50400001928E-02 0. -1.
    10030    2    1    2    0    0  0.00000000000E+00  0.00000000000E+00  0.17744384242E+04  0.39839283522E+04  0.35669389390E+04 0.  0.
        5    1    3    3  502    0  0.29498899689E+03  0.58431852900E+03 -0.96572909661E+03  0.11666625175E+04  0.46999998093E+01 0. -1.
       -5    1    3    3    0  502 -0.29498899689E+03 -0.58431852900E+03  0.27401675208E+04  0.28172658347E+04  0.46999998093E+01 0.  1.
</event>
<event>
 5   0  0.2086250E-07  0.3603998E+04  0.7818609E-02  0.8089577E-01
        1   -1    0    0  501    0  0.00000000000E+00  0.00000000000E+00  0.17010214027E+04  0.17010214027E+04  0.50400001928E-02 0.  1.
       -1   -1    0    0    0  501  0.00000000000E+00  0.00000000000E+00 -0.19089708303E+04  0.19089708304E+04  0.50400001928E-02 0. -1.
    10030    2    1    2    0    0  0.00000000000E+00  0.00000000000E+00 -0.20794942769E+03  0.36099922330E+04  0.36039979131E+04 0.  0.
        3    1    3    3  502    0  0.67822328644E+03 -0.13315766715E+04  0.90473397543E+03  0.17468906190E+04  0.10100000352E+00 0. -1.
       -3    1    3    3    0  502 -0.67822328644E+03  0.13315766715E+04 -0.11126834031E+04  0.18631016140E+04  0.10100000352E+00 0.  1.
</event>
<event>
 5   0  0.2086250E-07  0.3612797E+04  0.7818609E-02  0.8087567E-01
       -1   -1    0    0    0  501  0.00000000000E+00  0.00000000000E+00  0.14661543691E+04  0.14661543691E+04  0.50400001928E-02 0.  1.
        1   -1    0    0  501    0  0.00000000000E+00  0.00000000000E+00 -0.22256020487E+04  0.22256020487E+04  0.50400001928E-02 0. -1.
    10030    2    1    2    0    0  0.00000000000E+00  0.00000000000E+00 -0.75944767963E+03  0.36917564179E+04  0.36127973470E+04 0.  0.
        2    1    3    3  502    0 -0.12731436888E+04 -0.10561055043E+04 -0.11214124095E+04  0.19984542729E+04  0.25500000920E-02 0. -1.
       -2    1    3    3    0  502  0.12731436888E+04  0.10561055043E+04  0.36196472986E+03  0.16933021450E+04  0.25500000920E-02 0.  1.
</event>
<event>
 5   0  0.6324216E-07  0.3308542E+04  0.7818609E-02  0.8160725E-01
       -2   -1    0    0    0  501  0.00000000000E+00  0.00000000000E+00  0.25772125449E+04  0.25772125449E+04  0.25500000920E-02 0.  1.
        2   -1    0    0  501    0  0.00000000000E+00  0.00000000000E+00 -0.10618498495E+04  0.10618498495E+04  0.25500000920E-02 0. -1.
    10030    2    1    2    0    0  0.00000000000E+00  0.00000000000E+00  0.15153626953E+04  0.36390623944E+04  0.33085421279E+04 0.  0.
        2    1    3    3  502    0  0.87983887770E+03 -0.11277455223E+04 -0.15641772041E+03  0.14388859987E+04  0.25500000920E-02 0. -1.
       -2    1    3    3    0  502 -0.87983887770E+03  0.11277455223E+04  0.16717804157E+04  0.22001763957E+04  0.25500000920E-02 0.  1.
</event>
<event>
 5   0  0.2086250E-07  0.3615577E+04  0.7818609E-02  0.8086933E-01
        1   -1    0    0  501    0  0.00000000000E+00  0.00000000000E+00  0.26674233772E+04  0.26674233772E+04  0.50400001928E-02 0. -1.
       -1   -1    0    0    0  501  0.00000000000E+00  0.00000000000E+00 -0.12251893626E+04  0.12251893626E+04  0.50400001928E-02 0.  1.
    10030    2    1    2    0    0  0.00000000000E+00  0.00000000000E+00  0.14422340145E+04  0.38926127398E+04  0.36155767160E+04 0.  0.
        4    1    3    3  502    0  0.24457463880E+02  0.17902184698E+04  0.99052411160E+03  0.20461231551E+04  0.12699999809E+01 0. -1.
       -4    1    3    3    0  502 -0.24457463880E+02 -0.17902184698E+04  0.45170990295E+03  0.18464895847E+04  0.12699999809E+01 0.  1.
</event>
<event>
 5   0  0.2086250E-07  0.3345065E+04  0.7818609E-02  0.8151522E-01
       -1   -1    0    0    0  501  0.00000000000E+00  0.00000000000E+00  0.10189740931E+04  0.10189740932E+04  0.50400001928E-02 0. -1.
        1   -1    0    0  501    0  0.00000000000E+00  0.00000000000E+00 -0.27452754946E+04  0.27452754946E+04  0.50400001928E-02 0.  1.
    10030    2    1    2    0    0  0.00000000000E+00  0.00000000000E+00 -0.17263014014E+04  0.37642495877E+04  0.33450647871E+04 0.  0.
        2    1    3    3  502    0 -0.71328500438E+03 -0.31582436854E+02 -0.25651647089E+04  0.26626758969E+04  0.25500000920E-02 0.  1.
       -2    1    3    3    0  502  0.71328500438E+03  0.31582436854E+02  0.83886330748E+03  0.11015736909E+04  0.25500000920E-02 0. -1.
</event>
<event>
 5   0  0.2086250E-07  0.3588871E+04  0.7818609E-02  0.8093046E-01
       -1   -1    0    0    0  501  0.00000000000E+00  0.00000000000E+00  0.23083597310E+04  0.23083597310E+04  0.50400001928E-02 0.  1.
        1   -1    0    0  501    0  0.00000000000E+00  0.00000000000E+00 -0.13949293869E+04  0.13949293869E+04  0.50400001928E-02 0. -1.
    10030    2    1    2    0    0  0.00000000000E+00  0.00000000000E+00  0.91343034411E+03  0.37032891179E+04  0.35888710338E+04 0.  0.
        3    1    3    3  502    0 -0.12316831850E+04  0.11990174801E+03  0.17975968237E+04  0.21823781176E+04  0.10100000352E+00 0.  1.
       -3    1    3    3    0  502  0.12316831850E+04 -0.11990174801E+03 -0.88416647954E+03  0.15209110004E+04  0.10100000352E+00 0. -1.
</event>
<event>
 5   0  0.6848661E-07  0.3651134E+04  0.7818609E-02  0.8078878E-01
       -2   -1    0    0    0  501  0.00000000000E+00  0.00000000000E+00  0.15285430966E+04  0.15285430966E+04  0.25500000920E-02 0.  1.
        2   -1    0    0  501    0  0.00000000000E+00  0.00000000000E+00 -0.21803084322E+04  0.21803084322E+04  0.25500000920E-02 0. -1.
    10030    2    1    2    0    0  0.00000000000E+00  0.00000000000E+00 -0.65176533553E+03  0.37088515288E+04  0.36511342909E+04 0.  0.
        1    1    3    3  502    0  0.80657838167E+03  0.11799196788E+04 -0.14795813627E+04  0.20571679910E+04  0.50400001928E-02 0. -1.
       -1    1    3    3    0  502 -0.80657838167E+03 -0.11799196788E+04  0.82781602716E+03  0.16516835378E+04  0.50400001928E-02 0.  1.
</event>
<event>
 5   0  0.6541476E-07  0.3590465E+04  0.7818609E-02  0.8092679E-01
        2   -1    0    0  501    0  0.00000000000E+00  0.00000000000E+00  0.17194012641E+04  0.17194012641E+04  0.25500000920E-02 0. -1.
       -2   -1    0    0    0  501  0.00000000000E+00  0.00000000000E+00 -0.18744082827E+04  0.18744082827E+04  0.25500000920E-02 0.  1.
    10030    2    1    2    0    0  0.00000000000E+00  0.00000000000E+00 -0.15500701864E+03  0.35938095468E+04  0.35904651346E+04 0.  0.
        4    1    3    3  502    0 -0.78452311761E+03  0.26673522060E+03 -0.16715427851E+04  0.18656583544E+04  0.12699999809E+01 0.  1.
       -4    1    3    3    0  502  0.78452311761E+03 -0.26673522060E+03  0.15165357665E+04  0.17281511924E+04  0.12699999809E+01 0. -1.
</event>
<event>
 5   0  0.2193129E-07  0.3540428E+04  0.7818609E-02  0.8104275E-01
       -1   -1    0    0    0  501  0.00000000000E+00  0.00000000000E+00  0.14887542781E+04  0.14887542781E+04  0.50400001928E-02 0. -1.
        1   -1    0    0  501    0  0.00000000000E+00  0.00000000000E+00 -0.21048862452E+04  0.21048862452E+04  0.50400001928E-02 0.  1.
    10030    2    1    2    0    0  0.00000000000E+00  0.00000000000E+00 -0.61613196709E+03  0.35936405233E+04  0.35404284500E+04 0.  0.
        1    1    3    3  502    0 -0.56853268354E+03 -0.12366644253E+04  0.84079808187E+03  0.15998467825E+04  0.50400001928E-02 0. -1.
       -1    1    3    3    0  502  0.56853268354E+03  0.12366644253E+04 -0.14569300490E+04  0.19937937407E+04  0.50400001928E-02 0.  1.
</event>
<event>
 5   0  0.6848661E-07  0.3728126E+04  0.7818609E-02  0.8061757E-01
        2   -1    0    0  501    0  0.00000000000E+00  0.00000000000E+00  0.11891471617E+04  0.11891471617E+04  0.25500000920E-02 0. -1.
       -2   -1    0    0    0  501  0.00000000000E+00  0.00000000000E+00 -0.29220365003E+04  0.29220365003E+04  0.25500000920E-02 0.  1.
    10030    2    1    2    0    0  0.00000000000E+00  0.00000000000E+00 -0.17328893386E+04  0.41111836619E+04  0.37281262911E+04 0.  0.
        1    1    3    3  502    0 -0.86557923614E+03  0.26714169972E+03 -0.26629897527E+04  0.28128466941E+04  0.50400001928E-02 0.  1.
       -1    1    3    3    0  502  0.86557923614E+03 -0.26714169972E+03  0.93010041406E+03  0.12983369678E+04  0.50400001928E-02 0. -1.
</event>
<event>
 5   0  0.6541476E-07  0.3609718E+04  0.7818609E-02  0.8088269E-01
        2   -1    0    0  501    0  0.00000000000E+00  0.00000000000E+00  0.18071898536E+04  0.18071898536E+04  0.25500000920E-02 0.  1.
       -2   -1    0    0    0  501  0.00000000000E+00  0.00000000000E+00 -0.18025309360E+04  0.18025309360E+04  0.25500000920E-02 0. -1.
    10030    2    1    2    0    0  0.00000000000E+00  0.00000000000E+00  0.46589176422E+01  0.36097207896E+04  0.36097177830E+04 0.  0.
        4    1    3    3  502    0 -0.15233464669E+04  0.55881416020E+03  0.79268211569E+03  0.18058804703E+04  0.12699999809E+01 0.  1.
       -4    1    3    3    0  502  0.15233464669E+04 -0.55881416020E+03 -0.78802319805E+03  0.18038403192E+04  0.12699999809E+01 0. -1.
</event>
<event>
 5   0  0.6669864E-07  0.3572237E+04  0.7818609E-02  0.8096881E-01
       -2   -1    0    0    0  501  0.00000000000E+00  0.00000000000E+00  0.13817032810E+04  0.13817032810E+04  0.25500000920E-02 0.  1.
        2   -1    0    0  501    0  0.00000000000E+00  0.00000000000E+00 -0.23089039336E+04  0.23089039336E+04  0.25500000920E-02 0. -1.
    10030    2    1    2    0    0  0.00000000000E+00  0.00000000000E+00 -0.92720065262E+03  0.36906072146E+04  0.35722374728E+04 0.  0.
        5    1    3    3  502    0  0.98246799604E+02  0.17527719667E+04 -0.12354936861E+03  0.17598717389E+04  0.46999998093E+01 0.  1.
       -5    1    3    3    0  502 -0.98246799604E+02 -0.17527719667E+04 -0.80365128401E+03  0.19307354757E+04  0.46999998093E+01 0. -1.
</event>
<event>
 5   0  0.6848661E-07  0.3591442E+04  0.7818609E-02  0.8092455E-01
       -2   -1    0    0    0  501  0.00000000000E+00  0.00000000000E+00  0.21345889632E+04  0.21345889632E+04  0.25500000920E-02 0. -1.
        2   -1    0    0  501    0  0.00000000000E+00  0.00000000000E+00 -0.15106486904E+04  0.15106486904E+04  0.25500000920E-02 0.  1.
    10030    2    1    2    0    0  0.00000000000E+00  0.00000000000E+00  0.62394027281E+03  0.36452376535E+04  0.35914420623E+04 0.  0.
        1    1    3    3  502    0  0.84005287896E+03 -0.10356843562E+03  0.19194219296E+04  0.20977597108E+04  0.50400001928E-02 0. -1.
       -1    1    3    3    0  502 -0.84005287896E+03  0.10356843562E+03 -0.12954816568E+04  0.15474779428E+04  0.50400001928E-02 0.  1.
</event>
<event>
 5   0  0.6669864E-07  0.3642203E+04  0.7818609E-02  0.8080892E-01
       -2   -1    0    0    0  501  0.00000000000E+00  0.00000000000E+00  0.17888838925E+04  0.17888838925E+04  0.25500000920E-02 0. -1.
        2   -1    0    0  501    0  0.00000000000E+00  0.00000000000E+00 -0.18538994518E+04  0.18538994518E+04  0.25500000920E-02 0.  1.
    10030    2    1    2    0    0  0.00000000000E+00  0.00000000000E+00 -0.65015559311E+02  0.36427833443E+04  0.36422031067E+04 0.  0.
        5    1    3    3  502    0 -0.66052519036E+03  0.16964748463E+04 -0.77994102668E+02  0.18222035016E+04  0.46999998093E+01 0. -1.
       -5    1    3    3    0  502  0.66052519036E+03 -0.16964748463E+04  0.12978543358E+02  0.18205798427E+04  0.46999998093E+01 0.  1.
</event>
<event>
 5   0  0.6848661E-07  0.3600404E+04  0.7818609E-02  0.8090399E-01
        2   -1    0    0  501    0  0.00000000000E+00  0.00000000000E+00  0.21906740230E+04  0.21906740230E+04  0.25500000920E-02 0.  1.
       -2   -1    0    0    0  501  0.00000000000E+00  0.00000000000E+00 -0.14793288224E+04  0.14793288224E+04  0.25500000920E-02 0. -1.
    10030    2    1    2    0    0  0.00000000000E+00  0.00000000000E+00  0.71134520055E+03  0.36700028454E+04  0.36004039899E+04 0.  0.
        1    1    3    3  502    0 -0.16247882521E+04  0.77483469427E+03  0.33474389378E+03  0.18309448768E+04  0.50400001928E-02 0. -1.
       -1    1    3    3    0  502  0.16247882521E+04 -0.77483469427E+03  0.37660130677E+03  0.18390579686E+04  0.50400001928E-02 0.  1.
</event>
<event>
 5   0  0.2086250E-07  0.3589170E+04  0.7818609E-02  0.8092977E-01
       -1   -1    0    0    0  501  0.00000000000E+00  0.00000000000E+00  0.12997921790E+04  0.12997921790E+04  0.50400001928E-02 0. -1.
        1   -1    0    0  501    0  0.00000000000E+00  0.00000000000E+00 -0.24777314893E+04  0.24777314893E+04  0.50400001928E-02 0.  1.
    10030    2    1    2    0    0  0.00000000000E+00  0.00000000000E+00 -0.11779393103E+04  0.37775236683E+04  0.35891703841E+04 0.  0.
        4    1    3    3  502    0  0.91783691044E+03  0.89731635316E+03  0.73101308842E+03  0.14771536752E+04  0.12699999809E+01 0. -1.
       -4    1    3    3    0  502 -0.91783691044E+03 -0.89731635316E+03 -0.19089523987E+04  0.23003699931E+04  0.12699999809E+01 0.  1.
</event>
<event>
 5   0  0.2086250E-07  0.3544932E+04  0.7818609E-02  0.8103223E-01
       -1   -1    0    0    0  501  0.00000000000E+00  0.00000000000E+00  0.11214639755E+04  0.11214639755E+04  0.50400001928E-02 0.  1.
        1   -1    0    0  501    0  0.00000000000E+00  0.00000000000E+00 -0.28013698036E+04  0.28013698036E+04  0.50400001928E-02 0. -1.
    10030    2    1    2    0    0  0.00000000000E+00  0.00000000000E+00 -0.16799058281E+04  0.39228337790E+04  0.35449317718E+04 0.  0.
        3    1    3    3  502    0 -0.92095524669E+03 -0.76660955587E+03  0.60533498211E+03  0.13424899360E+04  0.10100000352E+00 0.  1.
       -3    1    3    3    0  502  0.92095524669E+03  0.76660955587E+03 -0.22852408102E+04  0.25803438430E+04  0.10100000352E+00 0. -1.
</event>
<event>
 5   0  0.6848661E-07  0.3598748E+04  0.7818609E-02  0.8090779E-01
        2   -1    0    0  501    0  0.00000000000E+00  0.00000000000E+00  0.11381654262E+04  0.11381654262E+04  0.25500000920E-02 0. -1.
       -2   -1    0    0    0  501  0.00000000000E+00  0.00000000000E+00 -0.28447061900E+04  0.28447061900E+04  0.25500000920E-02 0.  1.
    10030    2    1    2    0    0  0.00000000000E+00  0.00000000000E+00 -0.17065407638E+04  0.39828716162E+04  0.35987476895E+04 0.  0.
        1    1    3    3  502    0 -0.41899275159E+02  0.12998423828E+04  0.52300675145E+03  0.14017424269E+04  0.50400001928E-02 0. -1.
       -1    1    3    3    0  502  0.41899275159E+02 -0.12998423828E+04 -0.22295475153E+04  0.25811291893E+04  0.50400001928E-02 0.  1.
</event>
<event>
 5   0  0.2086250E-07  0.3597940E+04  0.7818609E-02  0.8090964E-01
        1   -1    0    0  501    0  0.00000000000E+00  0.00000000000E+00  0.22243904857E+04  0.22243904858E+04  0.50400001928E-02 0. -1.
       -1   -1    0    0    0  501  0.00000000000E+00  0.00000000000E+00 -0.14549121204E+04  0.14549121204E+04  0.50400001928E-02 0.  1.
    10030    2    1    2    0    0  0.00000000000E+00  0.00000000000E+00  0.76947836532E+03  0.36793026062E+04  0.35979397873E+04 0.  0.
        2    1    3    3  502    0 -0.88201601386E+03  0.12214632470E+04  0.13900095469E+04  0.20498905466E+04  0.25500000920E-02 0. -1.
       -2    1    3    3    0  502  0.88201601386E+03 -0.12214632470E+04 -0.62053118162E+03  0.16294120596E+04  0.25500000920E-02 0.  1.
</event>
<event>
 5   0  0.6324216E-07  0.3600702E+04  0.7818609E-02  0.8090331E-01
       -2   -1    0    0    0  501  0.00000000000E+00  0.00000000000E+00  0.16746434686E+04  0.16746434686E+04  0.25500000920E-02 0.  1.
        2   -1    0    0  501    0  0.00000000000E+00  0.00000000000E+00 -0.19354953317E+04  0.19354953317E+04  0.25500000920E-02 0. -1.
    10030    2    1    2    0    0  0.00000000000E+00  0.00000000000E+00 -0.26085186306E+03  0.36101388004E+04  0.36007024958E+04 0.  0.
        2    1    3    3  502    0  0.49331745954E+03  0.22978536177E+03 -0.18510530775E+04  0.19293939266E+04  0.25500000920E-02 0. -1.
       -2    1    3    3    0  502 -0.49331745954E+03 -0.22978536177E+03  0.15902012144E+04  0.16807448738E+04  0.25500000920E-02 0.  1.
</event>
<event>
 5   0  0.2086250E-07  0.3610977E+04  0.7818609E-02  0.8087982E-01
        1   -1    0    0  501    0  0.00000000000E+00  0.00000000000E+00  0.20501134034E+04  0.20501134034E+04  0.50400001928E-02 0. -1.
       -1   -1    0    0    0  501  0.00000000000E+00  0.00000000000E+00 -0.15900526475E+04  0.15900526475E+04  0.50400001928E-02 0.  1.
    10030    2    1    2    0    0  0.00000000000E+00  0.00000000000E+00  0.46006075588E+03  0.36401660509E+04  0.36109767347E+04 0.  0.
        4    1    3    3  502    0  0.12562307648E+04 -0.96807691251E+03  0.10998481345E+04  0.19300145530E+04  0.12699999809E+01 0. -1.
       -4    1    3    3    0  502 -0.12562307648E+04  0.96807691251E+03 -0.63978737859E+03  0.17101514979E+04  0.12699999809E+01 0.  1.
</event>
<event>
 5   0  0.6669864E-07  0.3554876E+04  0.7818609E-02  0.8100907E-01
       -2   -1    0    0    0  501  0.00000000000E+00  0.00000000000E+00  0.21181450342E+04  0.21181450342E+04  0.25500000920E-02 0.  1.
        2   -1    0    0  501    0  0.00000000000E+00  0.00000000000E+00 -0.14915340525E+04  0.14915340525E+04  0.25500000920E-02 0. -1.
    10030    2    1    2    0    0  0.00000000000E+00  0.00000000000E+00  0.62661098166E+03  0.36096790867E+04  0.35548757766E+04 0.  0.
        5    1    3    3  502    0  0.10625981675E+04  0.11132578558E+04  0.12162872714E+04  0.19615898490E+04  0.46999998093E+01 0.  1.
       -5    1    3    3    0  502 -0.10625981675E+04 -0.11132578558E+04 -0.58967628977E+03  0.16480892378E+04  0.46999998093E+01 0. -1.
</event>
<event>
 5   0  0.2193129E-07  0.3631563E+04  0.7818609E-02  0.8083300E-01
       -1   -1    0    0    0  501  0.00000000000E+00  0.00000000000E+00  0.13331939693E+04  0.13331939693E+04  0.50400001928E-02 0. -1.
        1   -1    0    0  501    0  0.00000000000E+00  0.00000000000E+00 -0.24730556619E+04  0.24730556619E+04  0.50400001928E-02 0.  1.
    10030    2    1    2    0    0  0.00000000000E+00  0.00000000000E+00 -0.11398616926E+04  0.38062496312E+04  0.36315632414E+04 0.  0.
        1    1    3    3  502    0 -0.59928213862E+02  0.52269323965E+03 -0.23914177694E+04  0.24486074740E+04  0.50400001928E-02 0.  1.
       -1    1    3    3    0  502  0.59928213862E+02 -0.52269323965E+03  0.12515560768E+04  0.13576421572E+04  0.50400001928E-02 0. -1.
</event>
<event>
 5   0  0.6848661E-07  0.3576270E+04  0.7818609E-02  0.8095949E-01
        2   -1    0    0  501    0  0.00000000000E+00  0.00000000000E+00  0.24597835989E+04  0.24597835989E+04  0.25500000920E-02 0. -1.
       -2   -1    0    0    0  501  0.00000000000E+00  0.00000000000E+00 -0.12998811150E+04  0.12998811150E+04  0.25500000920E-02 0.  1.
    10030    2    1    2    0    0  0.00000000000E+00  0.00000000000E+00  0.11599024839E+04  0.37596647140E+04  0.35762697031E+04 0.  0.
        1    1    3    3  502    0 -0.13662377838E+04 -0.11023953446E+04  0.93730188037E+03  0.19900793935E+04  0.50400001928E-02 0. -1.
       -1    1    3    3    0  502  0.13662377838E+04  0.11023953446E+04  0.22260060350E+03  0.17695853204E+04  0.50400001928E-02 0.  1.
</event>
<event>
 5   0  0.2086250E-07  0.3623992E+04  0.7818609E-02  0.8085018E-01
       -1   -1    0    0    0  501  0.00000000000E+00  0.00000000000E+00  0.22789075434E+04  0.22789075434E+04  0.50400001928E-02 0. -1.
        1   -1    0    0  501    0  0.00000000000E+00  0.00000000000E+00 -0.14407468605E+04  0.14407468605E+04  0.50400001928E-02 0.  1.
    10030    2    1    2    0    0  0.00000000000E+00  0.00000000000E+00  0.83816068285E+03  0.37196544039E+04  0.36239916603E+04 0.  0.
        2    1    3    3  502    0  0.66088064714E+03  0.14872891644E+04  0.12366857207E+04  0.20440606303E+04  0.25500000920E-02 0. -1.
       -2    1    3    3    0  502 -0.66088064714E+03 -0.14872891644E+04 -0.39852503788E+03  0.16755937736E+04  0.25500000920E-02 0.  1.
</event>
<event>
 5   0  0.2086250E-07  0.3525240E+04  0.7818609E-02  0.8107834E-01
       -1   -1    0    0    0  501  0.00000000000E+00  0.00000000000E+00  0.27729111909E+04  0.27729111909E+04  0.50400001928E-02 0. -1.
        1   -1    0    0  501    0  0.00000000000E+00  0.00000000000E+00 -0.11204216285E+04  0.11204216285E+04  0.50400001928E-02 0.  1.
    10030    2    1    2    0    0  0.00000000000E+00  0.00000000000E+00  0.16524895624E+04  0.38933328195E+04  0.35252402314E+04 0.  0.
        2    1    3    3  502    0  0.37164363658E+03 -0.15561731378E+04  0.93978059586E+01  0.15999631703E+04  0.25500000920E-02 0.  1.
       -2    1    3    3    0  502 -0.37164363658E+03  0.15561731378E+04  0.16430917565E+04  0.22933696492E+04  0.25500000920E-02 0. -1.
</event>
<event>
 5   0  0.2108068E-07  0.3604691E+04  0.7818609E-02  0.8089418E-01
        1   -1    0    0  501    0  0.00000000000E+00  0.00000000000E+00  0.26952296403E+04  0.26952296404E+04  0.50400001928E-02 0.  1.
       -1   -1    0    0    0  501  0.00000000000E+00  0.00000000000E+00 -0.12052585893E+04  0.12052585893E+04  0.50400001928E-02 0. -1.
    10030    2    1    2    0    0  0.00000000000E+00  0.00000000000E+00  0.14899710511E+04  0.39004882296E+04  0.36046906520E+04 0.  0.
        5    1    3    3  502    0  0.88628493758E+03 -0.15844799268E+03 -0.94448949063E+03  0.13048713518E+04  0.46999998093E+01 0. -1.
       -5    1    3    3    0  502 -0.88628493758E+03  0.15844799268E+03  0.24344605417E+04  0.25956168778E+04  0.46999998093E+01 0.  1.
</event>
<event>
 5   0  0.2108068E-07  0.3614011E+04  0.7818609E-02  0.8087290E-01
        1   -1    0    0  501    0  0.00000000000E+00  0.00000000000E+00  0.20822987701E+04  0.20822987701E+04  0.50400001928E-02 0.  1.
       -1   -1    0    0    0  501  0.00000000000E+00  0.00000000000E+00 -0.15681075117E+04  0.15681075117E+04  0.50400001928E-02 0. -1.
    10030    2    1    2    0    0  0.00000000000E+00  0.00000000000E+00  0.51419125835E+03  0.36504062818E+04  0.36140107045E+04 0.  0.
        5    1    3    3  502    0  0.96941175344E+03  0.15187066631E+04  0.11780407266E+03  0.18055827219E+04  0.46999998093E+01 0.  1.
       -5    1    3    3    0  502 -0.96941175344E+03 -0.15187066631E+04  0.39638718569E+03  0.18448235599E+04  0.46999998093E+01 0. -1.
</event>
<event>
 5   0  0.2086250E-07  0.3598620E+04  0.7818609E-02  0.8090808E-01
       -1   -1    0    0    0  501  0.00000000000E+00  0.00000000000E+00  0.16952967576E+04  0.16952967576E+04  0.50400001928E-02 0. -1.
        1   -1    0    0  501    0  0.00000000000E+00  0.00000000000E+00 -0.19097043963E+04  0.19097043963E+04  0.50400001928E-02 0.  1.
    10030    2    1    2    0    0  0.00000000000E+00  0.00000000000E+00 -0.21440763872E+03  0.36050011538E+04  0.35986195525E+04 0.  0.
        4    1    3    3  502    0  0.12185264217E+04  0.12447330321E+04  0.34453609020E+03  0.17756333214E+04  0.12699999809E+01 0. -1.
       -4    1    3    3    0  502 -0.12185264217E+04 -0.12447330321E+04 -0.55894372892E+03  0.18293678325E+04  0.12699999809E+01 0.  1.
</event>
<event>
 5   0  0.6541476E-07  0.3612545E+04  0.7818609E-02  0.8087624E-01
       -2   -1    0    0    0  501  0.00000000000E+00  0.00000000000E+00  0.13925855097E+04  0.13925855097E+04  0.25500000920E-02 0. -1.
        2   -1    0    0  501    0  0.00000000000E+00  0.00000000000E+00 -0.23428505374E+04  0.23428505374E+04  0.25500000920E-02 0.  1.
    10030    2    1    2    0    0  0.00000000000E+00  0.00000000000E+00 -0.95026502763E+03  0.37354360471E+04  0.36125446488E+04 0.  0.
        4    1    3    3  502    0  0.13616247418E+04 -0.85516289387E+03 -0.13261064181E+04  0.20841989726E+04  0.12699999809E+01 0.  1.
       -4    1    3    3    0  502 -0.13616247418E+04  0.85516289387E+03  0.37584139049E+03  0.16512370745E+04  0.12699999809E+01 0. -1.
</event>
<event>
 5   0  0.6848661E-07  0.3620744E+04  0.7818609E-02  0.8085756E-01
       -2   -1    0    0    0  501  0.00000000000E+00  0.00000000000E+00  0.13782673777E+04  0.13782673777E+04  0.25500000920E-02 0.  1.
        2   -1    0    0  501    0  0.00000000000E+00  0.00000000000E+00 -0.23779472564E+04  0.23779472564E+04  0.25500000920E-02 0. -1.
    10030    2    1    2    0    0  0.00000000000E+00  0.00000000000E+00 -0.99967987863E+03  0.37562146341E+04  0.36207441939E+04 0.  0.
        1    1    3    3  502    0  0.90085983620E+03 -0.11777302314E+02 -0.21288657192E+04  0.23116566353E+04  0.50400001928E-02 0. -1.
       -1    1    3    3    0  502 -0.90085983620E+03  0.11777302314E+02  0.11291858405E+04  0.14445579988E+04  0.50400001928E-02 0.  1.
</event>
<event>
 5   0  0.6669864E-07  0.3607476E+04  0.7818609E-02  0.8088781E-01
        2   -1    0    0  501    0  0.00000000000E+00  0.00000000000E+00  0.26132694526E+04  0.26132694526E+04  0.25500000920E-02 0.  1.
       -2   -1    0    0    0  501  0.00000000000E+00  0.00000000000E+00 -0.12449807239E+04  0.12449807239E+04  0.25500000920E-02 0. -1.
    10030    2    1    2    0    0  0.00000000000E+00  0.00000000000E+00  0.13682887287E+04  0.38582501766E+04  0.36074756243E+04 0.  0.
        5    1    3    3  502    0  0.33722023845E+03 -0.87759476527E+03  0.23304885949E+04  0.25129841309E+04  0.46999998093E+01 0.  1.
       -5    1    3    3    0  502 -0.33722023845E+03  0.87759476527E+03 -0.96219986617E+03  0.13452660457E+04  0.46999998093E+01 0. -1.
</event>
<event>
 5   0  0.6324216E-07  0.3629741E+04  0.7818609E-02  0.8083713E-01
        2   -1    0    0  501    0  0.00000000000E+00  0.00000000000E+00  0.26628158186E+04  0.26628158186E+04  0.25500000920E-02 0.  1.
       -2   -1    0    0    0  501  0.00000000000E+00  0.00000000000E+00 -0.12369441765E+04  0.12369441765E+04  0.25500000920E-02 0. -1.
    10030    2    1    2    0    0  0.00000000000E+00  0.00000000000E+00  0.14258716420E+04  0.38997599951E+04  0.36297407731E+04 0.  0.
        2    1    3    3  502    0 -0.68100720886E+03  0.23203457262E+03 -0.10771886851E+04  0.12953556750E+04  0.25500000920E-02 0. -1.
       -2    1    3    3    0  502  0.68100720886E+03 -0.23203457262E+03  0.25030603271E+04  0.26044043201E+04  0.25500000920E-02 0.  1.
</event>
<event>
 5   0  0.2086250E-07  0.3600224E+04  0.7818609E-02  0.8090440E-01
       -1   -1    0    0    0  501  0.00000000000E+00  0.00000000000E+00  0.22711355405E+04  0.22711355405E+04  0.50400001928E-02 0.  1.
        1   -1    0    0  501    0  0.00000000000E+00  0.00000000000E+00 -0.14267762847E+04  0.14267762847E+04  0.50400001928E-02 0. -1.
    10030    2    1    2    0    0  0.00000000000E+00  0.00000000000E+00  0.84435925577E+03  0.36979118252E+04  0.36002235089E+04 0.  0.
        2    1    3    3  502    0  0.65414301208E+03 -0.11928927234E+04  0.16329375859E+04  0.21254132044E+04  0.25500000920E-02 0.  1.
       -2    1    3    3    0  502 -0.65414301208E+03  0.11928927234E+04 -0.78857833014E+03  0.15724986209E+04  0.25500000920E-02 0. -1.
</event>
<event>
 5   0  0.2193129E-07  0.3705943E+04  0.7818609E-02  0.8066646E-01
        1   -1    0    0  501    0  0.00000000000E+00  0.00000000000E+00  0.20137795000E+04  0.20137795001E+04  0.50400001928E-02 0.  1.
       -1   -1    0    0    0  501  0.00000000000E+00  0.00000000000E+00 -0.17050043869E+04  0.17050043869E+04  0.50400001928E-02 0. -1.
    10030    2    1    2    0    0  0.00000000000E+00  0.00000000000E+00  0.30877511311E+03  0.37187838870E+04  0.37059427313E+04 0.  0.
        1    1    3    3  502    0  0.74726989592E+03 -0.13411536951E+04  0.11954782083E+04  0.19458349565E+04  0.50400001928E-02 0.  1.
       -1    1    3    3    0  502 -0.74726989592E+03  0.13411536951E+04 -0.88670309515E+03  0.17729489305E+04  0.50400001928E-02 0. -1.
</event>
<event>
 5   0  0.6669864E-07  0.3341730E+04  0.7818609E-02  0.8152358E-01
        2   -1    0    0  501    0  0.00000000000E+00  0.00000000000E+00  0.24244639657E+04  0.24244639657E+04  0.25500000920E-02 0. -1.
       -2   -1    0    0    0  501  0.00000000000E+00  0.00000000000E+00 -0.11515079882E+04  0.11515079882E+04  0.25500000920E-02 0.  1.
    10030    2    1    2    0    0  0.00000000000E+00  0.00000000000E+00  0.12729559775E+04  0.35759719539E+04  0.33417298656E+04 0.  0.
        5    1    3    3  502    0 -0.89294937899E+03  0.65189942267E+03  0.19770636829E+04  0.22652007300E+04  0.46999998093E+01 0. -1.
       -5    1    3    3    0  502  0.89294937899E+03 -0.65189942267E+03 -0.70410770541E+03  0.13107712240E+04  0.46999998093E+01 0.  1.
</event>
<event>
 5   0  0.6848661E-07  0.3521731E+04  0.7818609E-02  0.8108659E-01
        2   -1    0    0  501    0  0.00000000000E+00  0.00000000000E+00  0.18759808987E+04  0.18759808987E+04  0.25500000920E-02 0. -1.
       -2   -1    0    0    0  501  0.00000000000E+00  0.00000000000E+00 -0.16528134538E+04  0.16528134538E+04  0.25500000920E-02 0.  1.
    10030    2    1    2    0    0  0.00000000000E+00  0.00000000000E+00  0.22316744482E+03  0.35287943525E+04  0.35217305226E+04 0.  0.
        1    1    3    3  502    0 -0.27345614501E+03  0.14772478990E+04 -0.80873928062E+03  0.17061942569E+04  0.50400001928E-02 0.  1.
       -1    1    3    3    0  502  0.27345614501E+03 -0.14772478990E+04  0.10319067254E+04  0.18226000956E+04  0.50400001928E-02 0. -1.
</event>
<event>
 5   0  0.2086250E-07  0.3738677E+04  0.7818609E-02  0.8059444E-01
       -3   -1    0    0    0  501  0.00000000000E+00  0.00000000000E+00  0.25036938495E+04  0.25036938515E+04  0.10100000352E+00 0.  1.
        3   -1    0    0  501    0  0.00000000000E+00  0.00000000000E+00 -0.13957083111E+04  0.13957083147E+04  0.10100000352E+00 0. -1.
    10030    2    1    2    0    0  0.00000000000E+00  0.00000000000E+00  0.11079855384E+04  0.38994021662E+04  0.37386769452E+04 0.  0.
        2    1    3    3  502    0  0.77516828228E+03  0.14718280050E+04 -0.33546589620E+03  0.16969681522E+04  0.25500000920E-02 0. -1.
       -2    1    3    3    0  502 -0.77516828228E+03 -0.14718280050E+04  0.14434514346E+04  0.22024340140E+04  0.25500000920E-02 0.  1.
</event>
<event>
 5   0  0.2086250E-07  0.3596627E+04  0.7818609E-02  0.8091265E-01
        1   -1    0    0  501    0  0.00000000000E+00  0.00000000000E+00  0.20344095029E+04  0.20344095029E+04  0.50400001928E-02 0.  1.
       -1   -1    0    0    0  501  0.00000000000E+00  0.00000000000E+00 -0.15896168360E+04  0.15896168360E+04  0.50400001928E-02 0. -1.
    10030    2    1    2    0    0  0.00000000000E+00  0.00000000000E+00  0.44479266692E+03  0.36240263389E+04  0.35966270850E+04 0.  0.
        3    1    3    3  502    0  0.44700178678E+03 -0.79631211890E+03 -0.13386014252E+04  0.16204250596E+04  0.10100000352E+00 0. -1.
       -3    1    3    3    0  502 -0.44700178678E+03  0.79631211890E+03  0.17833940922E+04  0.20036012792E+04  0.10100000352E+00 0.  1.
</event>
<event>
 5   0  0.6669864E-07  0.3595710E+04  0.7818609E-02  0.8091475E-01
        2   -1    0    0  501    0  0.00000000000E+00  0.00000000000E+00  0.19000966589E+04  0.19000966589E+04  0.25500000920E-02 0. -1.
       -2   -1    0    0    0  501  0.00000000000E+00  0.00000000000E+00 -0.17011150665E+04  0.17011150665E+04  0.25500000920E-02 0.  1.
    10030    2    1    2    0    0  0.00000000000E+00  0.00000000000E+00  0.19898159244E+03  0.36012117254E+04  0.35957102521E+04 0.  0.
        5    1    3    3  502    0 -0.11478010129E+03 -0.13023543979E+04  0.13354614137E+04  0.18688982655E+04  0.46999998093E+01 0. -1.
       -5    1    3    3    0  502  0.11478010129E+03  0.13023543979E+04 -0.11364798212E+04  0.17323134599E+04  0.46999998093E+01 0.  1.
</event>
<event>
 5   0  0.2086250E-07  0.3218428E+04  0.7818609E-02  0.8183967E-01
        1   -1    0    0  501    0  0.00000000000E+00  0.00000000000E+00  0.19430588282E+04  0.19430588282E+04  0.50400001928E-02 0.  1.
       -1   -1    0    0    0  501  0.00000000000E+00  0.00000000000E+00 -0.13327281245E+04  0.13327281245E+04  0.50400001928E-02 0. -1.
    10030    2    1    2    0    0  0.00000000000E+00  0.00000000000E+00  0.61033070371E+03  0.32757869527E+04  0.32184276582E+04 0.  0.
        3    1    3    3  502    0  0.48540616106E+03  0.14196523208E+04  0.89737455217E+03  0.17482313778E+04  0.10100000352E+00 0.  1.
       -3    1    3    3    0  502 -0.48540616106E+03 -0.14196523208E+04 -0.28704384846E+03  0.15275555749E+04  0.10100000352E+00 0. -1.
</event>
<event>
 5   0  0.6669864E-07  0.3588471E+04  0.7818609E-02  0.8093138E-01
       -2   -1    0    0    0  501  0.00000000000E+00  0.00000000000E+00  0.15103674783E+04  0.15103674783E+04  0.25500000920E-02 0.  1.
        2   -1    0    0  501    0  0.00000000000E+00  0.00000000000E+00 -0.21314559273E+04  0.21314559273E+04  0.25500000920E-02 0. -1.
    10030    2    1    2    0    0  0.00000000000E+00  0.00000000000E+00 -0.62108844899E+03  0.36418234056E+04  0.35884713815E+04 0.  0.
        5    1    3    3  502    0  0.92719881143E+02  0.72070643035E+03 -0.19754359878E+04  0.21048477776E+04  0.46999998093E+01 0. -1.
       -5    1    3    3    0  502 -0.92719881143E+02 -0.72070643035E+03  0.13543475388E+04  0.15369756280E+04  0.46999998093E+01 0.  1.
</event>
<event>
 5   0  0.2086250E-07  0.3601849E+04  0.7818609E-02  0.8090068E-01
        1   -1    0    0  501    0  0.00000000000E+00  0.00000000000E+00  0.97460187396E+03  0.97460187397E+03  0.50400001928E-02 0. -1.
       -1   -1    0    0    0  501  0.00000000000E+00  0.00000000000E+00 -0.33278507317E+04  0.33278507317E+04  0.50400001928E-02 0.  1.
    10030    2    1    2    0    0  0.00000000000E+00  0.00000000000E+00 -0.23532488578E+04  0.43024526057E+04  0.36018492803E+04 0.  0.
        2    1    3    3  502    0  0.15139325081E+04 -0.34477396579E+03 -0.22664940583E+04  0.27473361722E+04  0.25500000920E-02 0.  1.
       -2    1    3    3    0  502 -0.15139325081E+04  0.34477396579E+03 -0.86754799500E+02  0.15551164335E+04  0.25500000920E-02 0. -1.
</event>
<event>
 5   0  0.6848661E-07  0.3618924E+04  0.7818609E-02  0.8086171E-01
       -2   -1    0    0    0  501  0.00000000000E+00  0.00000000000E+00  0.19907652690E+04  0.19907652690E+04  0.25500000920E-02 0.  1.
        2   -1    0    0  501    0  0.00000000000E+00  0.00000000000E+00 -0.16446700104E+04  0.16446700104E+04  0.25500000920E-02 0. -1.
    10030    2    1    2    0    0  0.00000000000E+00  0.00000000000E+00  0.34609525857E+03  0.36354352795E+04  0.36189235614E+04 0.  0.
        1    1    3    3  502    0  0.95220120186E+02  0.60848321724E+03  0.18822314877E+04  0.19804327987E+04  0.50400001928E-02 0.  1.
       -1    1    3    3    0  502 -0.95220120186E+02 -0.60848321724E+03 -0.15361362291E+04  0.16550024808E+04  0.50400001928E-02 0. -1.
</event>
<event>
 5   0  0.2086250E-07  0.3598334E+04  0.7818609E-02  0.8090873E-01
        1   -1    0    0  501    0  0.00000000000E+00  0.00000000000E+00  0.13092424326E+04  0.13092424327E+04  0.50400001928E-02 0. -1.
       -1   -1    0    0    0  501  0.00000000000E+00  0.00000000000E+00 -0.24724231517E+04  0.24724231517E+04  0.50400001928E-02 0.  1.
    10030    2    1    2    0    0  0.00000000000E+00  0.00000000000E+00 -0.11631807191E+04  0.37816655844E+04  0.35983336709E+04 0.  0.
        2    1    3    3  502    0  0.84662278607E+03  0.20105538694E+03 -0.22365625763E+04  0.23998761569E+04  0.25500000920E-02 0.  1.
       -2    1    3    3    0  502 -0.84662278607E+03 -0.20105538694E+03  0.10733818572E+04  0.13817894275E+04  0.25500000920E-02 0. -1.
</event>
<event>
 5   0  0.6541476E-07  0.3619343E+04  0.7818609E-02  0.8086075E-01
        2   -1    0    0  501    0  0.00000000000E+00  0.00000000000E+00  0.26853192696E+04  0.26853192696E+04  0.25500000920E-02 0.  1.
       -2   -1    0    0    0  501  0.00000000000E+00  0.00000000000E+00 -0.12195611714E+04  0.12195611714E+04  0.25500000920E-02 0. -1.
    10030    2    1    2    0    0  0.00000000000E+00  0.00000000000E+00  0.14657580983E+04  0.39048804410E+04  0.36193430973E+04 0.  0.
        4    1    3    3  502    0 -0.84112755244E+03  0.60872472381E+03  0.23319951040E+04  0.25526935043E+04  0.12699999809E+01 0.  1.
       -4    1    3    3    0  502  0.84112755244E+03 -0.60872472381E+03 -0.86623700573E+03  0.13521869367E+04  0.12699999809E+01 0. -1.
</event>
<event>
 5   0  0.2086250E-07  0.3595266E+04  0.7818609E-02  0.8091577E-01
        1   -1    0    0  501    0  0.00000000000E+00  0.00000000000E+00  0.11638386048E+04  0.11638386048E+04  0.50400001928E-02 0.  1.
       -1   -1    0    0    0  501  0.00000000000E+00  0.00000000000E+00 -0.27765743508E+04  0.27765743508E+04  0.50400001928E-02 0. -1.
    10030    2    1    2    0    0  0.00000000000E+00  0.00000000000E+00 -0.16127357460E+04  0.39404129556E+04  0.35952660088E+04 0.  0.
        4    1    3    3  502    0 -0.52109883436E+03  0.16892260164E+04 -0.11639635538E+04  0.21165635585E+04  0.12699999809E+01 0. -1.
       -4    1    3    3    0  502  0.52109883436E+03 -0.16892260164E+04 -0.44877219216E+03  0.18238493971E+04  0.12699999809E+01 0.  1.
</event>
<event>
 5   0  0.2086250E-07  0.3545486E+04  0.7818609E-02  0.8103094E-01
       -1   -1    0    0    0  501  0.00000000000E+00  0.00000000000E+00  0.21142753126E+04  0.21142753127E+04  0.50400001928E-02 0. -1.
        1   -1    0    0  501    0  0.00000000000E+00  0.00000000000E+00 -0.14863803681E+04  0.14863803681E+04  0.50400001928E-02 0.  1.
    10030    2    1    2    0    0  0.00000000000E+00  0.00000000000E+00  0.62789494457E+03  0.36006556807E+04  0.35454857593E+04 0.  0.
        2    1    3    3  502    0  0.83062084467E+03 -0.62535615897E+03 -0.11442278238E+04  0.15460461267E+04  0.25500000920E-02 0.  1.
       -2    1    3    3    0  502 -0.83062084467E+03  0.62535615897E+03  0.17721227684E+04  0.20546095540E+04  0.25500000920E-02 0. -1.
</event>
<event>
 5   0  0.2108068E-07  0.3646773E+04  0.7818609E-02  0.8079861E-01
        1   -1    0    0  501    0  0.00000000000E+00  0.00000000000E+00  0.25464310541E+04  0.25464310541E+04  0.50400001928E-02 0.  1.
       -1   -1    0    0    0  501  0.00000000000E+00  0.00000000000E+00 -0.13056465885E+04  0.13056465886E+04  0.50400001928E-02 0. -1.
    10030    2    1    2    0    0  0.00000000000E+00  0.00000000000E+00  0.12407844655E+04  0.38520776426E+04  0.36467733786E+04 0.  0.
        5    1    3    3  502    0  0.77537915058E+03 -0.59057701818E+03 -0.10073765875E+04  0.14017216987E+04  0.46999998093E+01 0. -1.
       -5    1    3    3    0  502 -0.77537915058E+03  0.59057701818E+03  0.22481610530E+04  0.24503559439E+04  0.46999998093E+01 0.  1.
</event>
<event>
 5   0  0.2086250E-07  0.3558978E+04  0.7818609E-02  0.8099954E-01
        1   -1    0    0  501    0  0.00000000000E+00  0.00000000000E+00  0.16272723834E+04  0.16272723834E+04  0.50400001928E-02 0.  1.
       -1   -1    0    0    0  501  0.00000000000E+00  0.00000000000E+00 -0.19459436437E+04  0.19459436437E+04  0.50400001928E-02 0. -1.
    10030    2    1    2    0    0  0.00000000000E+00  0.00000000000E+00 -0.31867126025E+03  0.35732160271E+04  0.35589775785E+04 0.  0.
        2    1    3    3  502    0 -0.12389573684E+04 -0.12524556644E+04  0.92506094319E+02  0.17641479330E+04  0.25500000920E-02 0.  1.
       -2    1    3    3    0  502  0.12389573684E+04  0.12524556644E+04 -0.41117735457E+03  0.18090680941E+04  0.25500000920E-02 0. -1.
</event>
<event>
 5   0  0.2086250E-07  0.3580400E+04  0.7818609E-02  0.8094996E-01
       -1   -1    0    0    0  501  0.00000000000E+00  0.00000000000E+00  0.21568445554E+04  0.21568445554E+04  0.50400001928E-02 0. -1.
        1   -1    0    0  501    0  0.00000000000E+00  0.00000000000E+00 -0.14858818852E+04  0.14858818852E+04  0.50400001928E-02 0.  1.
    10030    2    1    2    0    0  0.00000000000E+00  0.00000000000E+00  0.67096267023E+03  0.36427264406E+04  0.35804001196E+04 0.  0.
        3    1    3    3  502    0 -0.21591308053E+03 -0.20043075538E+03 -0.14610500652E+04  0.14904557187E+04  0.10100000352E+00 0.  1.
       -3    1    3    3    0  502  0.21591308053E+03  0.20043075538E+03  0.21320127355E+04  0.21522707219E+04  0.10100000352E+00 0. -1.
</event>
<event>
 5   0  0.2108068E-07  0.3582121E+04  0.7818609E-02  0.8094599E-01
       -1   -1    0    0    0  501  0.00000000000E+00  0.00000000000E+00  0.12153951926E+04  0.12153951926E+04  0.50400001928E-02 0.  1.
        1   -1    0    0  501    0  0.00000000000E+00  0.00000000000E+00 -0.26393867431E+04  0.26393867431E+04  0.50400001928E-02 0. -1.
    10030    2    1    2    0    0  0.00000000000E+00  0.00000000000E+00 -0.14239915505E+04  0.38547819358E+04  0.35821211365E+04 0.  0.
        5    1    3    3  502    0 -0.21813372420E+03  0.25557280104E+03 -0.26051595948E+04  0.26267429229E+04  0.46999998093E+01 0. -1.
       -5    1    3    3    0  502  0.21813372420E+03 -0.25557280104E+03  0.11811680443E+04  0.12280390129E+04  0.46999998093E+01 0.  1.
</event>
<event>
 5   0  0.2108068E-07  0.3514596E+04  0.7818609E-02  0.8110340E-01
       -1   -1    0    0    0  501  0.00000000000E+00  0.00000000000E+00  0.19927520166E+04  0.19927520166E+04  0.50400001928E-02 0. -1.
        1   -1    0    0  501    0  0.00000000000E+00  0.00000000000E+00 -0.15496640174E+04  0.15496640174E+04  0.50400001928E-02 0.  1.
    10030    2    1    2    0    0  0.00000000000E+00  0.00000000000E+00  0.44308799917E+03  0.35424160340E+04  0.35145959061E+04 0.  0.
        5    1    3    3  502    0  0.11968547638E+04  0.96922930420E+02 -0.10716626280E+04  0.16094527823E+04  0.46999998093E+01 0.  1.
       -5    1    3    3    0  502 -0.11968547638E+04 -0.96922930420E+02  0.15147506272E+04  0.19329632517E+04  0.46999998093E+01 0. -1.
</event>
<event>
 5   0  0.2108068E-07  0.3602625E+04  0.7818609E-02  0.8089891E-01
        1   -1    0    0  501    0  0.00000000000E+00  0.00000000000E+00  0.12718324409E+04  0.12718324409E+04  0.50400001928E-02 0. -1.
       -1   -1    0    0    0  501  0.00000000000E+00  0.00000000000E+00 -0.25512220643E+04  0.25512220643E+04  0.50400001928E-02 0.  1.
    10030    2    1    2    0    0  0.00000000000E+00  0.00000000000E+00 -0.12793896234E+04  0.38230545053E+04  0.36026251459E+04 0.  0.
        5    1    3    3  502    0  0.56140202569E+03  0.13316250420E+04  0.50141665071E+03  0.15296529785E+04  0.46999998093E+01 0. -1.
       -5    1    3    3    0  502 -0.56140202569E+03 -0.13316250420E+04 -0.17808062741E+04  0.22934015268E+04  0.46999998093E+01 0.  1.
</event>
<event>
 5   0  0.6541476E-07  0.3644844E+04  0.7818609E-02  0.8080296E-01
       -2   -1    0    0    0  501  0.00000000000E+00  0.00000000000E+00  0.15434069587E+04  0.15434069587E+04  0.25500000920E-02 0.  1.
        2   -1    0    0  501    0  0.00000000000E+00  0.00000000000E+00 -0.21518768147E+04  0.21518768147E+04  0.25500000920E-02 0. -1.
    10030    2    1    2    0    0  0.00000000000E+00  0.00000000000E+00 -0.60846985607E+03  0.36952837734E+04  0.36448438376E+04 0.  0.
        4    1    3    3  502    0 -0.13971838948E+04  0.36889100165E+03  0.82154457237E+03  0.16622696846E+04  0.12699999809E+01 0.  1.
       -4    1    3    3    0  502  0.13971838948E+04 -0.36889100165E+03 -0.14300144284E+04  0.20330140888E+04  0.12699999809E+01 0. -1.
</event>
<event>
 5   0  0.2086250E-07  0.3502734E+04  0.7818609E-02  0.8113142E-01
       -1   -1    0    0    0  501  0.00000000000E+00  0.00000000000E+00  0.11524244099E+04  0.11524244099E+04  0.50400001928E-02 0. -1.
        1   -1    0    0  501    0  0.00000000000E+00  0.00000000000E+00 -0.26615948111E+04  0.26615948111E+04  0.50400001928E-02 0.  1.
    10030    2    1    2    0    0  0.00000000000E+00  0.00000000000E+00 -0.15091704011E+04  0.38140192210E+04  0.35027342632E+04 0.  0.
        4    1    3    3  502    0  0.60786844981E+03  0.76779620328E+03 -0.23356104915E+04  0.25326059786E+04  0.12699999809E+01 0.  1.
       -4    1    3    3    0  502 -0.60786844981E+03 -0.76779620328E+03  0.82644009033E+03  0.12814132424E+04  0.12699999809E+01 0. -1.
</event>
<event>
 5   0  0.6729577E-07  0.3606326E+04  0.7818609E-02  0.8089044E-01
       -2   -1    0    0    0  501  0.00000000000E+00  0.00000000000E+00  0.13909389999E+04  0.13909389999E+04  0.25500000920E-02 0.  1.
        2   -1    0    0  501    0  0.00000000000E+00  0.00000000000E+00 -0.23375549794E+04  0.23375549794E+04  0.25500000920E-02 0. -1.
    10030    2    1    2    0    0  0.00000000000E+00  0.00000000000E+00 -0.94661597951E+03  0.37284939794E+04  0.36063257675E+04 0.  0.
        3    1    3    3  502    0  0.32471983797E+03  0.42990875814E+03 -0.22523957214E+04  0.23159341548E+04  0.10100000352E+00 0. -1.
       -3    1    3    3    0  502 -0.32471983797E+03 -0.42990875814E+03  0.13057797419E+04  0.14125598246E+04  0.10100000352E+00 0.  1.
</event>
<event>
 5   0  0.6848661E-07  0.3669246E+04  0.7818609E-02  0.8074812E-01
        2   -1    0    0  501    0  0.00000000000E+00  0.00000000000E+00  0.22644466929E+04  0.22644466929E+04  0.25500000920E-02 0. -1.
       -2   -1    0    0    0  501  0.00000000000E+00  0.00000000000E+00 -0.14863855297E+04  0.14863855297E+04  0.25500000920E-02 0.  1.
    10030    2    1    2    0    0  0.00000000000E+00  0.00000000000E+00  0.77806116321E+03  0.37508322226E+04  0.36692455885E+04 0.  0.
        1    1    3    3  502    0  0.11042500827E+04  0.13457411416E+04  0.98109220605E+03  0.19982315637E+04  0.50400001928E-02 0. -1.
       -1    1    3    3    0  502 -0.11042500827E+04 -0.13457411416E+04 -0.20303104284E+03  0.17526006589E+04  0.50400001928E-02 0.  1.
</event>
<event>
 5   0  0.2086250E-07  0.3595963E+04  0.7818609E-02  0.8091417E-01
       -1   -1    0    0    0  501  0.00000000000E+00  0.00000000000E+00  0.13219735564E+04  0.13219735564E+04  0.50400001928E-02 0.  1.
        1   -1    0    0  501    0  0.00000000000E+00  0.00000000000E+00 -0.24453870537E+04  0.24453870537E+04  0.50400001928E-02 0. -1.
    10030    2    1    2    0    0  0.00000000000E+00  0.00000000000E+00 -0.11234134973E+04  0.37673606102E+04  0.35959627475E+04 0.  0.
        4    1    3    3  502    0  0.13344903569E+03  0.17347420611E+04 -0.10367466881E+04  0.20253355207E+04  0.12699999809E+01 0. -1.
       -4    1    3    3    0  502 -0.13344903569E+03 -0.17347420611E+04 -0.86666809239E+02  0.17420250894E+04  0.12699999809E+01 0.  1.
</event>
<event>
 5   0  0.6848661E-07  0.3449077E+04  0.7818609E-02  0.8125965E-01
        2   -1    0    0  501    0  0.00000000000E+00  0.00000000000E+00  0.17570301098E+04  0.17570301098E+04  0.25500000920E-02 0. -1.
       -2   -1    0    0    0  501  0.00000000000E+00  0.00000000000E+00 -0.16926473428E+04  0.16926473428E+04  0.25500000920E-02 0.  1.
    10030    2    1    2    0    0  0.00000000000E+00  0.00000000000E+00  0.64382767018E+02  0.34496774526E+04  0.34490765991E+04 0.  0.
        1    1    3    3  502    0 -0.15208544119E+04 -0.39297935202E+03 -0.67969200273E+03  0.17115525502E+04  0.50400001928E-02 0.  1.
       -1    1    3    3    0  502  0.15208544119E+04  0.39297935202E+03  0.74407476975E+03  0.17381249024E+04  0.50400001928E-02 0. -1.
</event>
<event>
 5   0  0.6729577E-07  0.3586583E+04  0.7818609E-02  0.8093572E-01
        2   -1    0    0  501    0  0.00000000000E+00  0.00000000000E+00  0.20229375109E+04  0.20229375109E+04  0.25500000920E-02 0. -1.
       -2   -1    0    0    0  501  0.00000000000E+00  0.00000000000E+00 -0.15897151144E+04  0.15897151144E+04  0.25500000920E-02 0.  1.
    10030    2    1    2    0    0  0.00000000000E+00  0.00000000000E+00  0.43322239657E+03  0.36126526253E+04  0.35865829624E+04 0.  0.
        3    1    3    3  502    0  0.14244549446E+04 -0.84682994224E+03  0.90694047164E+03  0.18891092794E+04  0.10100000352E+00 0.  1.
       -3    1    3    3    0  502 -0.14244549446E+04  0.84682994224E+03 -0.47371807507E+03  0.17235433459E+04  0.10100000352E+00 0. -1.
</event>
<event>
 5   0  0.2086250E-07  0.3618203E+04  0.7818609E-02  0.8086335E-01
       -1   -1    0    0    0  501  0.00000000000E+00  0.00000000000E+00  0.13835890976E+04  0.13835890976E+04  0.50400001928E-02 0.  1.
        1   -1    0    0  501    0  0.00000000000E+00  0.00000000000E+00 -0.23654769924E+04  0.23654769924E+04  0.50400001928E-02 0. -1.
    10030    2    1    2    0    0  0.00000000000E+00  0.00000000000E+00 -0.98188789480E+03  0.37490660900E+04  0.36182029669E+04 0.  0.
        2    1    3    3  502    0 -0.76234266204E+03  0.13825466370E+04  0.42431951266E+03  0.16348237173E+04  0.25500000920E-02 0.  1.
       -2    1    3    3    0  502  0.76234266204E+03 -0.13825466370E+04 -0.14062074075E+04  0.21142423727E+04  0.25500000920E-02 0. -1.
</event>
<event>
 5   0  0.6729577E-07  0.3618369E+04  0.7818609E-02  0.8086297E-01
       -2   -1    0    0    0  501  0.00000000000E+00  0.00000000000E+00  0.20484153620E+04  0.20484153620E+04  0.25500000920E-02 0.  1.
        2   -1    0    0  501    0  0.00000000000E+00  0.00000000000E+00 -0.15978932524E+04  0.15978932524E+04  0.25500000920E-02 0. -1.
    10030    2    1    2    0    0  0.00000000000E+00  0.00000000000E+00  0.45052210961E+03  0.36463086145E+04  0.36183692930E+04 0.  0.
        3    1    3    3  502    0  0.53089381215E+03 -0.99246419471E+03  0.16526428897E+04  0.19995154284E+04  0.10100000352E+00 0.  1.
       -3    1    3    3    0  502 -0.53089381215E+03  0.99246419471E+03 -0.12021207801E+04  0.16467931860E+04  0.10100000352E+00 0. -1.
</event>
<event>
 5   0  0.2193129E-07  0.3490633E+04  0.7818609E-02  0.8116013E-01
        1   -1    0    0  501    0  0.00000000000E+00  0.00000000000E+00  0.18240501490E+04  0.18240501490E+04  0.50400001928E-02 0.  1.
       -1   -1    0    0    0  501  0.00000000000E+00  0.00000000000E+00 -0.16699813695E+04  0.16699813695E+04  0.50400001928E-02 0. -1.
    10030    2    1    2    0    0  0.00000000000E+00  0.00000000000E+00  0.15406877955E+03  0.34940315185E+04  0.34906330463E+04 0.  0.
        1    1    3    3  502    0 -0.89396487065E+03 -0.14449502445E+04  0.47626523598E+03  0.17646197817E+04  0.50400001928E-02 0. -1.
       -1    1    3    3    0  502  0.89396487065E+03  0.14449502445E+04 -0.32219645643E+03  0.17294117368E+04  0.50400001928E-02 0.  1.
</event>
<event>
 5   0  0.2086250E-07  0.3603933E+04  0.7818609E-02  0.8089591E-01
        1   -1    0    0  501    0  0.00000000000E+00  0.00000000000E+00  0.24737137034E+04  0.24737137035E+04  0.50400001928E-02 0.  1.
       -1   -1    0    0    0  501  0.00000000000E+00  0.00000000000E+00 -0.13126349921E+04  0.13126349921E+04  0.50400001928E-02 0. -1.
    10030    2    1    2    0    0  0.00000000000E+00  0.00000000000E+00  0.11610787114E+04  0.37863486955E+04  0.36039329447E+04 0.  0.
        2    1    3    3  502    0  0.13780157973E+03  0.14018742598E+04 -0.60010335850E+03  0.15311318547E+04  0.25500000920E-02 0. -1.
       -2    1    3    3    0  502 -0.13780157973E+03 -0.14018742598E+04  0.17611820699E+04  0.22552168408E+04  0.25500000920E-02 0.  1.
</event>
<event>
 5   0  0.2193129E-07  0.3599947E+04  0.7818609E-02  0.8090504E-01
       -1   -1    0    0    0  501  0.00000000000E+00  0.00000000000E+00  0.16733633118E+04  0.16733633118E+04  0.50400001928E-02 0.  1.
        1   -1    0    0  501    0  0.00000000000E+00  0.00000000000E+00 -0.19361629782E+04  0.19361629782E+04  0.50400001928E-02 0. -1.
    10030    2    1    2    0    0  0.00000000000E+00  0.00000000000E+00 -0.26279966635E+03  0.36095262900E+04  0.35999467182E+04 0.  0.
        1    1    3    3  502    0 -0.81941124345E+03 -0.16791117240E+03 -0.17294651129E+04  0.19211138760E+04  0.50400001928E-02 0. -1.
       -1    1    3    3    0  502  0.81941124345E+03  0.16791117240E+03  0.14666654466E+04  0.16884124140E+04  0.50400001928E-02 0.  1.
</event>
<event>
 5   0  0.6848661E-07  0.3599834E+04  0.7818609E-02  0.8090530E-01
       -2   -1    0    0    0  501  0.00000000000E+00  0.00000000000E+00  0.16110946352E+04  0.16110946352E+04  0.25500000920E-02 0.  1.
        2   -1    0    0  501    0  0.00000000000E+00  0.00000000000E+00 -0.20108694642E+04  0.20108694642E+04  0.25500000920E-02 0. -1.
    10030    2    1    2    0    0  0.00000000000E+00  0.00000000000E+00 -0.39977482900E+03  0.36219640994E+04  0.35998338883E+04 0.  0.
        1    1    3    3  502    0  0.12951791439E+04  0.49271488732E+02 -0.14564784415E+04  0.19496784722E+04  0.50400001928E-02 0. -1.
       -1    1    3    3    0  502 -0.12951791439E+04 -0.49271488732E+02  0.10567036125E+04  0.16722856272E+04  0.50400001928E-02 0.  1.
</event>
<event>
 5   0  0.2193129E-07  0.3201076E+04  0.7818609E-02  0.8188533E-01
       -1   -1    0    0    0  501  0.00000000000E+00  0.00000000000E+00  0.14881454873E+04  0.14881454873E+04  0.50400001928E-02 0. -1.
        1   -1    0    0  501    0  0.00000000000E+00  0.00000000000E+00 -0.17214193242E+04  0.17214193242E+04  0.50400001928E-02 0.  1.
    10030    2    1    2    0    0  0.00000000000E+00  0.00000000000E+00 -0.23327383683E+03  0.32095648115E+04  0.32010763184E+04 0.  0.
        1    1    3    3  502    0 -0.40171665636E+03  0.13875979026E+04 -0.80760744408E+03  0.16550027176E+04  0.50400001928E-02 0.  1.
       -1    1    3    3    0  502  0.40171665636E+03 -0.13875979026E+04  0.57433360725E+03  0.15545620939E+04  0.50400001928E-02 0. -1.
</event>
<event>
 5   0  0.2086250E-07  0.3609779E+04  0.7818609E-02  0.8088255E-01
        1   -1    0    0  501    0  0.00000000000E+00  0.00000000000E+00  0.27895397142E+04  0.27895397142E+04  0.50400001928E-02 0. -1.
       -1   -1    0    0    0  501  0.00000000000E+00  0.00000000000E+00 -0.11678002886E+04  0.11678002886E+04  0.50400001928E-02 0.  1.
    10030    2    1    2    0    0  0.00000000000E+00  0.00000000000E+00  0.16217394255E+04  0.39573400028E+04  0.36097785435E+04 0.  0.
        4    1    3    3  502    0 -0.67167178249E+03  0.12928734287E+04 -0.35704973313E+03  0.15000502695E+04  0.12699999809E+01 0.  1.
       -4    1    3    3    0  502  0.67167178249E+03 -0.12928734287E+04  0.19787891587E+04  0.24572897333E+04  0.12699999809E+01 0. -1.
</event>
<event>
 5   0  0.6324216E-07  0.3554466E+04  0.7818609E-02  0.8101002E-01
       -2   -1    0    0    0  501  0.00000000000E+00  0.00000000000E+00  0.10372847193E+04  0.10372847193E+04  0.25500000920E-02 0.  1.
        2   -1    0    0  501    0  0.00000000000E+00  0.00000000000E+00 -0.30450245737E+04  0.30450245737E+04  0.25500000920E-02 0. -1.
    10030    2    1    2    0    0  0.00000000000E+00  0.00000000000E+00 -0.20077398544E+04  0.40823092929E+04  0.35544661822E+04 0.  0.
        2    1    3    3  502    0 -0.22899596360E+03 -0.30396341128E+03 -0.29976777570E+04  0.30217387117E+04  0.25500000920E-02 0. -1.
       -2    1    3    3    0  502  0.22899596360E+03  0.30396341128E+03  0.98993790262E+03  0.10605705812E+04  0.25500000920E-02 0.  1.
</event>
<event>
 5   0  0.6324216E-07  0.3620014E+04  0.7818609E-02  0.8085923E-01
        2   -1    0    0  501    0  0.00000000000E+00  0.00000000000E+00  0.15760472569E+04  0.15760472569E+04  0.25500000920E-02 0. -1.
       -2   -1    0    0    0  501  0.00000000000E+00  0.00000000000E+00 -0.20786970740E+04  0.20786970740E+04  0.25500000920E-02 0.  1.
    10030    2    1    2    0    0  0.00000000000E+00  0.00000000000E+00 -0.50264981706E+03  0.36547443309E+04  0.36200137134E+04 0.  0.
        2    1    3    3  502    0  0.21794467644E+03 -0.17656002534E+04  0.85463146555E+02  0.17810525220E+04  0.25500000920E-02 0. -1.
       -2    1    3    3    0  502 -0.21794467644E+03  0.17656002534E+04 -0.58811296362E+03  0.18736918089E+04  0.25500000920E-02 0.  1.
</event>
<event>
 5   0  0.2086250E-07  0.3615133E+04  0.7818609E-02  0.8087034E-01
        4   -1    0    0  501    0  0.00000000000E+00  0.00000000000E+00  0.14751042430E+04  0.14751047897E+04  0.12699999809E+01 0.  1.
       -4   -1    0    0    0  501  0.00000000000E+00  0.00000000000E+00 -0.22149585641E+04  0.22149589282E+04  0.12699999809E+01 0. -1.
    10030    2    1    2    0    0  0.00000000000E+00  0.00000000000E+00 -0.73985432115E+03  0.36900637179E+04  0.36151328918E+04 0.  0.
        5    1    3    3  502    0 -0.98065991569E+03 -0.64879888525E+03  0.10313494046E+04  0.15640772194E+04  0.46999998093E+01 0.  1.
       -5    1    3    3    0  502  0.98065991569E+03  0.64879888525E+03 -0.17712037258E+04  0.21259864985E+04  0.46999998093E+01 0. -1.
</event>
<event>
 5   0  0.6848661E-07  0.3603677E+04  0.7818609E-02  0.8089650E-01
        2   -1    0    0  501    0  0.00000000000E+00  0.00000000000E+00  0.16712110743E+04  0.16712110743E+04  0.25500000920E-02 0.  1.
       -2   -1    0    0    0  501  0.00000000000E+00  0.00000000000E+00 -0.19426760586E+04  0.19426760586E+04  0.25500000920E-02 0. -1.
    10030    2    1    2    0    0  0.00000000000E+00  0.00000000000E+00 -0.27146498425E+03  0.36138871329E+04  0.36036768683E+04 0.  0.
        1    1    3    3  502    0  0.55290555154E+03  0.53757583420E+03  0.14973560172E+04  0.16842705747E+04  0.50400001928E-02 0.  1.
       -1    1    3    3    0  502 -0.55290555154E+03 -0.53757583420E+03 -0.17688210015E+04  0.19296165582E+04  0.50400001928E-02 0. -1.
</event>
<event>
 5   0  0.2086250E-07  0.3737716E+04  0.7818609E-02  0.8059655E-01
       -1   -1    0    0    0  501  0.00000000000E+00  0.00000000000E+00  0.25382019165E+04  0.25382019165E+04  0.50400001928E-02 0.  1.
        1   -1    0    0  501    0  0.00000000000E+00  0.00000000000E+00 -0.13760253341E+04  0.13760253341E+04  0.50400001928E-02 0. -1.
    10030    2    1    2    0    0  0.00000000000E+00  0.00000000000E+00  0.11621765824E+04  0.39142272506E+04  0.37377159551E+04 0.  0.
        3    1    3    3  502    0  0.35068099343E+03 -0.10572981151E+04  0.21525438723E+04  0.24236958546E+04  0.10100000352E+00 0.  1.
       -3    1    3    3    0  502 -0.35068099343E+03  0.10572981151E+04 -0.99036728992E+03  0.14905313960E+04  0.10100000352E+00 0. -1.
</event>
<event>
 5   0  0.6541476E-07  0.3586429E+04  0.7818609E-02  0.8093607E-01
        2   -1    0    0  501    0  0.00000000000E+00  0.00000000000E+00  0.18260416452E+04  0.18260416452E+04  0.25500000920E-02 0.  1.
       -2   -1    0    0    0  501  0.00000000000E+00  0.00000000000E+00 -0.17609773937E+04  0.17609773937E+04  0.25500000920E-02 0. -1.
    10030    2    1    2    0    0  0.00000000000E+00  0.00000000000E+00  0.65064251453E+02  0.35870190389E+04  0.35864288964E+04 0.  0.
        4    1    3    3  502    0 -0.16822969469E+04 -0.58600562072E+03 -0.17266215364E+03  0.17897875397E+04  0.12699999809E+01 0. -1.
       -4    1    3    3    0  502  0.16822969469E+04  0.58600562072E+03  0.23772640509E+03  0.17972314992E+04  0.12699999809E+01 0.  1.
</event>
<event>
 5   0  0.6669864E-07  0.3589119E+04  0.7818609E-02  0.8092989E-01
        2   -1    0    0  501    0  0.00000000000E+00  0.00000000000E+00  0.97423825516E+03  0.97423825516E+03  0.25500000920E-02 0. -1.
       -2   -1    0    0    0  501  0.00000000000E+00  0.00000000000E+00 -0.33056013799E+04  0.33056013799E+04  0.25500000920E-02 0.  1.
    10030    2    1    2    0    0  0.00000000000E+00  0.00000000000E+00 -0.23313631247E+04  0.42798396350E+04  0.35891187334E+04 0.  0.
        5    1    3    3  502    0 -0.38880520097E+03  0.16500721132E+04 -0.46374168109E+03  0.17575511088E+04  0.46999998093E+01 0. -1.
       -5    1    3    3    0  502  0.38880520097E+03 -0.16500721132E+04 -0.18676214436E+04  0.25222885263E+04  0.46999998093E+01 0.  1.
</event>
<event>
 5   0  0.6729577E-07  0.3098032E+04  0.7818609E-02  0.8216278E-01
        2   -1    0    0  501    0  0.00000000000E+00  0.00000000000E+00  0.12877309096E+04  0.12877309096E+04  0.25500000920E-02 0.  1.
       -2   -1    0    0    0  501  0.00000000000E+00  0.00000000000E+00 -0.18633163067E+04  0.18633163067E+04  0.25500000920E-02 0. -1.
    10030    2    1    2    0    0  0.00000000000E+00  0.00000000000E+00 -0.57558539702E+03  0.31510472163E+04  0.30980316348E+04 0.  0.
        3    1    3    3  502    0  0.73213367705E+03 -0.10480220139E+04  0.60186414559E+03  0.14130146222E+04  0.10100000352E+00 0.  1.
       -3    1    3    3    0  502 -0.73213367705E+03  0.10480220139E+04 -0.11774495426E+04  0.17380325941E+04  0.10100000352E+00 0. -1.
</event>
<event>
 5   0  0.2193129E-07  0.3628561E+04  0.7818609E-02  0.8083981E-01
       -1   -1    0    0    0  501  0.00000000000E+00  0.00000000000E+00  0.13311568082E+04  0.13311568082E+04  0.50400001928E-02 0.  1.
        1   -1    0    0  501    0  0.00000000000E+00  0.00000000000E+00 -0.24727471987E+04  0.24727471987E+04  0.50400001928E-02 0. -1.
    10030    2    1    2    0    0  0.00000000000E+00  0.00000000000E+00 -0.11415903905E+04  0.38039040068E+04  0.36285612953E+04 0.  0.
        1    1    3    3  502    0  0.10889413577E+04 -0.65883913641E+03 -0.19262374122E+04  0.23087340376E+04  0.50400001928E-02 0. -1.
       -1    1    3    3    0  502 -0.10889413577E+04  0.65883913641E+03  0.78464702174E+03  0.14951699692E+04  0.50400001928E-02 0.  1.
</event>
<event>
 5   0  0.2086250E-07  0.3620470E+04  0.7818609E-02  0.8085819E-01
        1   -1    0    0  501    0  0.00000000000E+00  0.00000000000E+00  0.27701859411E+04  0.27701859412E+04  0.50400001928E-02 0. -1.
       -1   -1    0    0    0  501  0.00000000000E+00  0.00000000000E+00 -0.11829349864E+04  0.11829349864E+04  0.50400001928E-02 0.  1.
    10030    2    1    2    0    0  0.00000000000E+00  0.00000000000E+00  0.15872509548E+04  0.39531209275E+04  0.36204695102E+04 0.  0.
        2    1    3    3  502    0 -0.17744875662E+04 -0.32671200382E+03  0.95336510134E+03  0.20406988687E+04  0.25500000920E-02 0. -1.
       -2    1    3    3    0  502  0.17744875662E+04  0.32671200382E+03  0.63388585344E+03  0.19124220589E+04  0.25500000920E-02 0.  1.
</event>
<event>
 5   0  0.2086250E-07  0.3566266E+04  0.7818609E-02  0.8098263E-01
        1   -1    0    0  501    0  0.00000000000E+00  0.00000000000E+00  0.24636205897E+04  0.24636205897E+04  0.50400001928E-02 0. -1.
       -1   -1    0    0    0  501  0.00000000000E+00  0.00000000000E+00 -0.12906057469E+04  0.12906057469E+04  0.50400001928E-02 0.  1.
    10030    2    1    2    0    0  0.00000000000E+00  0.00000000000E+00  0.11730148429E+04  0.37542263366E+04  0.35662657732E+04 0.  0.
        2    1    3    3  502    0 -0.30748391738E+03  0.48279883755E+03  0.23642773433E+04  0.24325806118E+04  0.25500000920E-02 0. -1.
       -2    1    3    3    0  502  0.30748391738E+03 -0.48279883755E+03 -0.11912625004E+04  0.13216457248E+04  0.25500000920E-02 0.  1.
</event>
<event>
 5   0  0.6324216E-07  0.3569838E+04  0.7818609E-02  0.8097436E-01
       -2   -1    0    0    0  501  0.00000000000E+00  0.00000000000E+00  0.20424617415E+04  0.20424617415E+04  0.25500000920E-02 0. -1.
        2   -1    0    0  501    0  0.00000000000E+00  0.00000000000E+00 -0.15598513142E+04  0.15598513142E+04  0.25500000920E-02 0.  1.
    10030    2    1    2    0    0  0.00000000000E+00  0.00000000000E+00  0.48261042732E+03  0.36023130558E+04  0.35698384455E+04 0.  0.
        2    1    3    3  502    0 -0.71754150527E+03 -0.68966719804E+03 -0.12538720507E+04  0.16008440822E+04  0.25500000920E-02 0.  1.
       -2    1    3    3    0  502  0.71754150527E+03  0.68966719804E+03  0.17364824780E+04  0.20014689736E+04  0.25500000920E-02 0. -1.
</event>
<event>
 5   0  0.6541476E-07  0.3596162E+04  0.7818609E-02  0.8091371E-01
       -2   -1    0    0    0  501  0.00000000000E+00  0.00000000000E+00  0.17513058860E+04  0.17513058860E+04  0.25500000920E-02 0. -1.
        2   -1    0    0  501    0  0.00000000000E+00  0.00000000000E+00 -0.18461058410E+04  0.18461058410E+04  0.25500000920E-02 0.  1.
    10030    2    1    2    0    0  0.00000000000E+00  0.00000000000E+00 -0.94799955005E+02  0.35974117271E+04  0.35961624133E+04 0.  0.
        4    1    3    3  502    0 -0.91088341687E+03  0.14141188120E+04 -0.68295824235E+03  0.18154542647E+04  0.12699999809E+01 0.  1.
       -4    1    3    3    0  502  0.91088341687E+03 -0.14141188120E+04  0.58815828734E+03  0.17819574623E+04  0.12699999809E+01 0. -1.
</event>
<event>
 5   0  0.6669864E-07  0.3536969E+04  0.7818609E-02  0.8105084E-01
        2   -1    0    0  501    0  0.00000000000E+00  0.00000000000E+00  0.14891259126E+04  0.14891259126E+04  0.25500000920E-02 0. -1.
       -2   -1    0    0    0  501  0.00000000000E+00  0.00000000000E+00 -0.21002501096E+04  0.21002501096E+04  0.25500000920E-02 0.  1.
    10030    2    1    2    0    0  0.00000000000E+00  0.00000000000E+00 -0.61112419701E+03  0.35893760221E+04  0.35369686801E+04 0.  0.
        5    1    3    3  502    0  0.40849567799E+03 -0.10049054556E+04 -0.17229716325E+04  0.20360149877E+04  0.46999998093E+01 0.  1.
       -5    1    3    3    0  502 -0.40849567799E+03  0.10049054556E+04  0.11118474355E+04  0.15533610345E+04  0.46999998093E+01 0. -1.
</event>
<event>
 5   0  0.2193129E-07  0.3565534E+04  0.7818609E-02  0.8098433E-01
       -1   -1    0    0    0  501  0.00000000000E+00  0.00000000000E+00  0.10865864827E+04  0.10865864827E+04  0.50400001928E-02 0. -1.
        1   -1    0    0  501    0  0.00000000000E+00  0.00000000000E+00 -0.29249929630E+04  0.29249929630E+04  0.50400001928E-02 0.  1.
    10030    2    1    2    0    0  0.00000000000E+00  0.00000000000E+00 -0.18384064803E+04  0.40115794457E+04  0.35655337977E+04 0.  0.
        1    1    3    3  502    0 -0.15384758220E+04 -0.89256407906E+03 -0.10555183157E+04  0.20682595110E+04  0.50400001928E-02 0.  1.
       -1    1    3    3    0  502  0.15384758220E+04  0.89256407906E+03 -0.78288816461E+03  0.19433199347E+04  0.50400001928E-02 0. -1.
</event>
<event>
 5   0  0.2086250E-07  0.3570577E+04  0.7818609E-02  0.8097265E-01
       -1   -1    0    0    0  501  0.00000000000E+00  0.00000000000E+00  0.17072304451E+04  0.17072304451E+04  0.50400001928E-02 0. -1.
        1   -1    0    0  501    0  0.00000000000E+00  0.00000000000E+00 -0.18669160454E+04  0.18669160454E+04  0.50400001928E-02 0.  1.
    10030    2    1    2    0    0  0.00000000000E+00  0.00000000000E+00 -0.15968560028E+03  0.35741464905E+04  0.35705774946E+04 0.  0.
        4    1    3    3  502    0 -0.31196124702E+03  0.21490377427E+03  0.16665359368E+04  0.17090485930E+04  0.12699999809E+01 0. -1.
       -4    1    3    3    0  502  0.31196124702E+03 -0.21490377427E+03 -0.18262215371E+04  0.18650978975E+04  0.12699999809E+01 0.  1.
</event>
<event>
 5   0  0.6324216E-07  0.3604811E+04  0.7818609E-02  0.8089391E-01
       -2   -1    0    0    0  501  0.00000000000E+00  0.00000000000E+00  0.14087135161E+04  0.14087135161E+04  0.25500000920E-02 0. -1.
        2   -1    0    0  501    0  0.00000000000E+00  0.00000000000E+00 -0.23061219933E+04  0.23061219933E+04  0.25500000920E-02 0.  1.
    10030    2    1    2    0    0  0.00000000000E+00  0.00000000000E+00 -0.89740847729E+03  0.37148355094E+04  0.36048107976E+04 0.  0.
        2    1    3    3  502    0  0.21698159791E+03  0.43364861999E+03  0.13402329599E+04  0.14252566528E+04  0.25500000920E-02 0. -1.
       -2    1    3    3    0  502 -0.21698159791E+03 -0.43364861999E+03 -0.22376414372E+04  0.22895788567E+04  0.25500000920E-02 0.  1.
</event>
<event>
 5   0  0.6848661E-07  0.3531680E+04  0.7818609E-02  0.8106323E-01
       -2   -1    0    0    0  501  0.00000000000E+00  0.00000000000E+00  0.12622670663E+04  0.12622670663E+04  0.25500000920E-02 0. -1.
        2   -1    0    0  501    0  0.00000000000E+00  0.00000000000E+00 -0.24703102672E+04  0.24703102672E+04  0.25500000920E-02 0.  1.
    10030    2    1    2    0    0  0.00000000000E+00  0.00000000000E+00 -0.12080432009E+04  0.37325773335E+04  0.35316802199E+04 0.  0.
        1    1    3    3  502    0  0.28871197749E+03  0.71130627062E+03 -0.22847268593E+04  0.24102464684E+04  0.50400001928E-02 0.  1.
       -1    1    3    3    0  502 -0.28871197749E+03 -0.71130627062E+03  0.10766836584E+04  0.13223308651E+04  0.50400001928E-02 0. -1.
</event>
<event>
 5   0  0.6541476E-07  0.3644616E+04  0.7818609E-02  0.8080348E-01
       -2   -1    0    0    0  501  0.00000000000E+00  0.00000000000E+00  0.21384336193E+04  0.21384336193E+04  0.25500000920E-02 0.  1.
        2   -1    0    0  501    0  0.00000000000E+00  0.00000000000E+00 -0.15529150945E+04  0.15529150945E+04  0.25500000920E-02 0. -1.
    10030    2    1    2    0    0  0.00000000000E+00  0.00000000000E+00  0.58551852476E+03  0.36913487137E+04  0.36446156702E+04 0.  0.
        4    1    3    3  502    0  0.10712335408E+04  0.82397290554E+02 -0.11980086576E+04  0.16092100451E+04  0.12699999809E+01 0. -1.
       -4    1    3    3    0  502 -0.10712335408E+04 -0.82397290554E+02  0.17835271824E+04  0.20821386687E+04  0.12699999809E+01 0.  1.
</event>
<event>
 5   0  0.2086250E-07  0.3593912E+04  0.7818609E-02  0.8091888E-01
       -1   -1    0    0    0  501  0.00000000000E+00  0.00000000000E+00  0.16227974704E+04  0.16227974704E+04  0.50400001928E-02 0. -1.
        1   -1    0    0  501    0  0.00000000000E+00  0.00000000000E+00 -0.19898049520E+04  0.19898049520E+04  0.50400001928E-02 0.  1.
    10030    2    1    2    0    0  0.00000000000E+00  0.00000000000E+00 -0.36700748158E+03  0.36126024225E+04  0.35939117645E+04 0.  0.
        2    1    3    3  502    0 -0.99529885079E+03  0.40360059574E+03  0.12646611665E+04  0.16591808549E+04  0.25500000920E-02 0. -1.
       -2    1    3    3    0  502  0.99529885079E+03 -0.40360059574E+03 -0.16316686481E+04  0.19534215675E+04  0.25500000920E-02 0.  1.
</event>
<event>
 5   0  0.6669864E-07  0.3559469E+04  0.7818609E-02  0.8099839E-01
        2   -1    0    0  501    0  0.00000000000E+00  0.00000000000E+00  0.20513082806E+04  0.20513082806E+04  0.25500000920E-02 0.  1.
       -2   -1    0    0    0  501  0.00000000000E+00  0.00000000000E+00 -0.15441148680E+04  0.15441148680E+04  0.25500000920E-02 0. -1.
    10030    2    1    2    0    0  0.00000000000E+00  0.00000000000E+00  0.50719341255E+03  0.35954231486E+04  0.35594694071E+04 0.  0.
        5    1    3    3  502    0 -0.14895301384E+04 -0.91184458827E+03  0.59950713011E+03  0.18465079137E+04  0.46999998093E+01 0. -1.
       -5    1    3    3    0  502  0.14895301384E+04  0.91184458827E+03 -0.92313717563E+02  0.17489152349E+04  0.46999998093E+01 0.  1.
</event>
<event>
 5   0  0.2086250E-07  0.3625153E+04  0.7818609E-02  0.8084754E-01
        1   -1    0    0  501    0  0.00000000000E+00  0.00000000000E+00  0.11053469526E+04  0.11053469526E+04  0.50400001928E-02 0.  1.
       -1   -1    0    0    0  501  0.00000000000E+00  0.00000000000E+00 -0.29723104245E+04  0.29723104245E+04  0.50400001928E-02 0. -1.
    10030    2    1    2    0    0  0.00000000000E+00  0.00000000000E+00 -0.18669634719E+04  0.40776573771E+04  0.36251533871E+04 0.  0.
        4    1    3    3  502    0 -0.35297929496E+03  0.33459958406E+03  0.10305776242E+04  0.11395802371E+04  0.12699999809E+01 0.  1.
       -4    1    3    3    0  502  0.35297929496E+03 -0.33459958406E+03 -0.28975410961E+04  0.29380771401E+04  0.12699999809E+01 0. -1.
</event>
<event>
 5   0  0.2193129E-07  0.3518254E+04  0.7818609E-02  0.8109478E-01
        1   -1    0    0  501    0  0.00000000000E+00  0.00000000000E+00  0.20121511349E+04  0.20121511349E+04  0.50400001928E-02 0.  1.
       -1   -1    0    0    0  501  0.00000000000E+00  0.00000000000E+00 -0.15379197326E+04  0.15379197326E+04  0.50400001928E-02 0. -1.
    10030    2    1    2    0    0  0.00000000000E+00  0.00000000000E+00  0.47423140236E+03  0.35500708675E+04  0.35182535073E+04 0.  0.
        1    1    3    3  502    0 -0.12299376684E+04  0.99894469116E+02 -0.10279373073E+04  0.16060450432E+04  0.50400001928E-02 0. -1.
       -1    1    3    3    0  502  0.12299376684E+04 -0.99894469116E+02  0.15021687096E+04  0.19440258243E+04  0.50400001928E-02 0.  1.
</event>
<event>
 5   0  0.2193129E-07  0.3525033E+04  0.7818609E-02  0.8107883E-01
       -1   -1    0    0    0  501  0.00000000000E+00  0.00000000000E+00  0.15007396417E+04  0.15007396417E+04  0.50400001928E-02 0.  1.
        1   -1    0    0  501    0  0.00000000000E+00  0.00000000000E+00 -0.20699554298E+04  0.20699554298E+04  0.50400001928E-02 0. -1.
    10030    2    1    2    0    0  0.00000000000E+00  0.00000000000E+00 -0.56921578811E+03  0.35706950715E+04  0.35250328623E+04 0.  0.
        1    1    3    3  502    0 -0.74028468308E+03 -0.15913372086E+04 -0.12099581356E+03  0.17592656168E+04  0.50400001928E-02 0.  1.
       -1    1    3    3    0  502  0.74028468308E+03  0.15913372086E+04 -0.44821997455E+03  0.18114294547E+04  0.50400001928E-02 0. -1.
</event>
<event>
 5   0  0.2086250E-07  0.3570952E+04  0.7818609E-02  0.8097178E-01
        1   -1    0    0  501    0  0.00000000000E+00  0.00000000000E+00  0.24357951517E+04  0.24357951517E+04  0.50400001928E-02 0. -1.
       -1   -1    0    0    0  501  0.00000000000E+00  0.00000000000E+00 -0.13087822110E+04  0.13087822110E+04  0.50400001928E-02 0.  1.
    10030    2    1    2    0    0  0.00000000000E+00  0.00000000000E+00  0.11270129407E+04  0.37445773627E+04  0.35709524579E+04 0.  0.
        2    1    3    3  502    0 -0.17125619102E+04  0.15413949385E+03  0.59188136065E+02  0.17205029833E+04  0.25500000920E-02 0.  1.
       -2    1    3    3    0  502  0.17125619102E+04 -0.15413949385E+03  0.10678248046E+04  0.20240743794E+04  0.25500000920E-02 0. -1.
</event>
<event>
 5   0  0.2086250E-07  0.3520024E+04  0.7818609E-02  0.8109061E-01
       -1   -1    0    0    0  501  0.00000000000E+00  0.00000000000E+00  0.28424517333E+04  0.28424517333E+04  0.50400001928E-02 0. -1.
        1   -1    0    0  501    0  0.00000000000E+00  0.00000000000E+00 -0.10897780722E+04  0.10897780723E+04  0.50400001928E-02 0.  1.
    10030    2    1    2    0    0  0.00000000000E+00  0.00000000000E+00  0.17526736611E+04  0.39322298056E+04  0.35200236195E+04 0.  0.
        3    1    3    3  502    0 -0.11701252996E+03  0.17561161913E+04  0.87370497611E+03  0.19649418325E+04  0.10100000352E+00 0. -1.
       -3    1    3    3    0  502  0.11701252996E+03 -0.17561161913E+04  0.87896868499E+03  0.19672879731E+04  0.10100000352E+00 0.  1.
</event>
<event>
 5   0  0.6729577E-07  0.3600212E+04  0.7818609E-02  0.8090443E-01
       -2   -1    0    0    0  501  0.00000000000E+00  0.00000000000E+00  0.18083751183E+04  0.18083751183E+04  0.25500000920E-02 0.  1.
        2   -1    0    0  501    0  0.00000000000E+00  0.00000000000E+00 -0.17918750078E+04  0.17918750078E+04  0.25500000920E-02 0. -1.
    10030    2    1    2    0    0  0.00000000000E+00  0.00000000000E+00  0.16500110555E+02  0.36002501261E+04  0.36002123155E+04 0.  0.
        3    1    3    3  502    0  0.38591618347E+02 -0.79530428636E+03  0.16226969248E+04  0.18075241467E+04  0.10100000352E+00 0.  1.
       -3    1    3    3    0  502 -0.38591618347E+02  0.79530428636E+03 -0.16061968143E+04  0.17927259794E+04  0.10100000352E+00 0. -1.
</event>
<event>
 5   0  0.2086250E-07  0.3603534E+04  0.7818609E-02  0.8089683E-01
        1   -1    0    0  501    0  0.00000000000E+00  0.00000000000E+00  0.27262741571E+04  0.27262741572E+04  0.50400001928E-02 0.  1.
       -1   -1    0    0    0  501  0.00000000000E+00  0.00000000000E+00 -0.11907693359E+04  0.11907693359E+04  0.50400001928E-02 0. -1.
    10030    2    1    2    0    0  0.00000000000E+00  0.00000000000E+00  0.15355048213E+04  0.39170434931E+04  0.36035336366E+04 0.  0.
        3    1    3    3  502    0  0.16541491395E+04 -0.22596372240E+03  0.31238519084E+02  0.16698038313E+04  0.10100000352E+00 0. -1.
       -3    1    3    3    0  502 -0.16541491395E+04  0.22596372240E+03  0.15042663022E+04  0.22472396618E+04  0.10100000352E+00 0.  1.
</event>
<event>
 5   0  0.6541476E-07  0.3573366E+04  0.7818609E-02  0.8096620E-01
        2   -1    0    0  501    0  0.00000000000E+00  0.00000000000E+00  0.14706313003E+04  0.14706313003E+04  0.25500000920E-02 0. -1.
       -2   -1    0    0    0  501  0.00000000000E+00  0.00000000000E+00 -0.21706565364E+04  0.21706565364E+04  0.25500000920E-02 0.  1.
    10030    2    1    2    0    0  0.00000000000E+00  0.00000000000E+00 -0.70002523616E+03  0.36412878367E+04  0.35733656094E+04 0.  0.
        4    1    3    3  502    0  0.67738099445E+03 -0.15417340401E+04 -0.95839104016E+03  0.19376026065E+04  0.12699999809E+01 0.  1.
       -4    1    3    3    0  502 -0.67738099445E+03  0.15417340401E+04  0.25836580400E+03  0.17036852302E+04  0.12699999809E+01 0. -1.
</event>
<event>
 5   0  0.6729577E-07  0.3447712E+04  0.7818609E-02  0.8126294E-01
        2   -1    0    0  501    0  0.00000000000E+00  0.00000000000E+00  0.16678174594E+04  0.16678174594E+04  0.25500000920E-02 0.  1.
       -2   -1    0    0    0  501  0.00000000000E+00  0.00000000000E+00 -0.17817777187E+04  0.17817777187E+04  0.25500000920E-02 0. -1.
    10030    2    1    2    0    0  0.00000000000E+00  0.00000000000E+00 -0.11396025924E+03  0.34495951781E+04  0.34477122780E+04 0.  0.
        3    1    3    3  502    0  0.15711220598E+04  0.22851976877E+02 -0.76640419446E+03  0.17482340058E+04  0.10100000352E+00 0. -1.
       -3    1    3    3    0  502 -0.15711220598E+04 -0.22851976877E+02  0.65244393523E+03  0.17013611722E+04  0.10100000352E+00 0.  1.
</event>
<event>
 5   0  0.6324216E-07  0.2985373E+04  0.7818609E-02  0.8247920E-01
        2   -1    0    0  501    0  0.00000000000E+00  0.00000000000E+00  0.17589876468E+04  0.17589876468E+04  0.25500000920E-02 0.  1.
       -2   -1    0    0    0  501  0.00000000000E+00  0.00000000000E+00 -0.12667017978E+04  0.12667017978E+04  0.25500000920E-02 0. -1.
    10030    2    1    2    0    0  0.00000000000E+00  0.00000000000E+00  0.49228584898E+03  0.30256894447E+04  0.29853728843E+04 0.  0.
        2    1    3    3  502    0 -0.11917219508E+04  0.78968005943E+02  0.11535979612E+04  0.16604895092E+04  0.25500000920E-02 0.  1.
       -2    1    3    3    0  502  0.11917219508E+04 -0.78968005943E+02 -0.66131211226E+03  0.13651999355E+04  0.25500000920E-02 0. -1.
</event>
<event>
 5   0  0.2108068E-07  0.3585721E+04  0.7818609E-02  0.8093770E-01
        1   -1    0    0  501    0  0.00000000000E+00  0.00000000000E+00  0.28117924441E+04  0.28117924441E+04  0.50400001928E-02 0.  1.
       -1   -1    0    0    0  501  0.00000000000E+00  0.00000000000E+00 -0.11431669813E+04  0.11431669813E+04  0.50400001928E-02 0. -1.
    10030    2    1    2    0    0  0.00000000000E+00  0.00000000000E+00  0.16686254628E+04  0.39549594254E+04  0.35857207255E+04 0.  0.
        5    1    3    3  502    0 -0.17531866619E+04 -0.74954187592E+01  0.12479011105E+04  0.21519755864E+04  0.46999998093E+01 0. -1.
       -5    1    3    3    0  502  0.17531866619E+04  0.74954187592E+01  0.42072435237E+03  0.18029838390E+04  0.46999998093E+01 0.  1.
</event>
<event>
 5   0  0.2193129E-07  0.3647061E+04  0.7818609E-02  0.8079796E-01
        1   -1    0    0  501    0  0.00000000000E+00  0.00000000000E+00  0.20832011201E+04  0.20832011201E+04  0.50400001928E-02 0. -1.
       -1   -1    0    0    0  501  0.00000000000E+00  0.00000000000E+00 -0.15962279253E+04  0.15962279253E+04  0.50400001928E-02 0.  1.
    10030    2    1    2    0    0  0.00000000000E+00  0.00000000000E+00  0.48697319485E+03  0.36794290454E+04  0.36470611741E+04 0.  0.
        1    1    3    3  502    0  0.63677512720E+03 -0.37832835391E+03  0.19246033188E+04  0.20622106683E+04  0.50400001928E-02 0. -1.
       -1    1    3    3    0  502 -0.63677512720E+03  0.37832835391E+03 -0.14376301239E+04  0.16172183771E+04  0.50400001928E-02 0.  1.
</event>
<event>
 5   0  0.6541476E-07  0.3604682E+04  0.7818609E-02  0.8089420E-01
       -2   -1    0    0    0  501  0.00000000000E+00  0.00000000000E+00  0.16278431535E+04  0.16278431535E+04  0.25500000920E-02 0.  1.
        2   -1    0    0  501    0  0.00000000000E+00  0.00000000000E+00 -0.19955441209E+04  0.19955441209E+04  0.25500000920E-02 0. -1.
    10030    2    1    2    0    0  0.00000000000E+00  0.00000000000E+00 -0.36770096740E+03  0.36233872744E+04  0.36046818638E+04 0.  0.
        4    1    3    3  502    0 -0.13038988575E+04 -0.94556653309E+03 -0.99686334279E+03  0.18941980984E+04  0.12699999809E+01 0. -1.
       -4    1    3    3    0  502  0.13038988575E+04  0.94556653309E+03  0.62916237539E+03  0.17291891760E+04  0.12699999809E+01 0.  1.
</event>
<event>
 5   0  0.6541476E-07  0.3631888E+04  0.7818609E-02  0.8083226E-01
        2   -1    0    0  501    0  0.00000000000E+00  0.00000000000E+00  0.24945272994E+04  0.24945272994E+04  0.25500000920E-02 0. -1.
       -2   -1    0    0    0  501  0.00000000000E+00  0.00000000000E+00 -0.13219549649E+04  0.13219549649E+04  0.25500000920E-02 0.  1.
    10030    2    1    2    0    0  0.00000000000E+00  0.00000000000E+00  0.11725723345E+04  0.38164822643E+04  0.36318880757E+04 0.  0.
        4    1    3    3  502    0  0.16552448836E+03  0.14791110383E+04  0.16795913273E+04  0.22441471563E+04  0.12699999809E+01 0. -1.
       -4    1    3    3    0  502 -0.16552448836E+03 -0.14791110383E+04 -0.50701899281E+03  0.15723351080E+04  0.12699999809E+01 0.  1.
</event>
<event>
 5   0  0.6669864E-07  0.3592924E+04  0.7818609E-02  0.8092114E-01
       -2   -1    0    0    0  501  0.00000000000E+00  0.00000000000E+00  0.18954673171E+04  0.18954673171E+04  0.25500000920E-02 0. -1.
        2   -1    0    0  501    0  0.00000000000E+00  0.00000000000E+00 -0.17026282577E+04  0.17026282577E+04  0.25500000920E-02 0.  1.
    10030    2    1    2    0    0  0.00000000000E+00  0.00000000000E+00  0.19283905935E+03  0.35980955748E+04  0.35929242773E+04 0.  0.
        5    1    3    3  502    0  0.82658790782E+03 -0.12920779119E+04 -0.84009554899E+03  0.17488554890E+04  0.46999998093E+01 0.  1.
       -5    1    3    3    0  502 -0.82658790782E+03  0.12920779119E+04  0.10329346083E+04  0.18492400858E+04  0.46999998093E+01 0. -1.
</event>
<event>
 5   0  0.6729577E-07  0.3629064E+04  0.7818609E-02  0.8083866E-01
       -2   -1    0    0    0  501  0.00000000000E+00  0.00000000000E+00  0.23993622415E+04  0.23993622415E+04  0.25500000920E-02 0.  1.
        2   -1    0    0  501    0  0.00000000000E+00  0.00000000000E+00 -0.13722508894E+04  0.13722508894E+04  0.25500000920E-02 0. -1.
    10030    2    1    2    0    0  0.00000000000E+00  0.00000000000E+00  0.10271113522E+04  0.37716131309E+04  0.36290643256E+04 0.  0.
        3    1    3    3  502    0  0.18054525679E+04  0.73847396970E+02  0.68563274828E+03  0.19326677647E+04  0.10100000352E+00 0. -1.
       -3    1    3    3    0  502 -0.18054525679E+04 -0.73847396970E+02  0.34147860390E+03  0.18389453662E+04  0.10100000352E+00 0.  1.
</event>
<event>
 5   0  0.6541476E-07  0.3588864E+04  0.7818609E-02  0.8093047E-01
        2   -1    0    0  501    0  0.00000000000E+00  0.00000000000E+00  0.18774565308E+04  0.18774565308E+04  0.25500000920E-02 0. -1.
       -2   -1    0    0    0  501  0.00000000000E+00  0.00000000000E+00 -0.17150786133E+04  0.17150786133E+04  0.25500000920E-02 0.  1.
    10030    2    1    2    0    0  0.00000000000E+00  0.00000000000E+00  0.16237791749E+03  0.35925351442E+04  0.35888636327E+04 0.  0.
        4    1    3    3  502    0 -0.98512565612E+03 -0.75666231118E+03 -0.12151159665E+04  0.17376762749E+04  0.12699999809E+01 0.  1.
       -4    1    3    3    0  502  0.98512565612E+03  0.75666231118E+03  0.13774938840E+04  0.18548588692E+04  0.12699999809E+01 0. -1.
</event>
<event>
 5   0  0.2108068E-07  0.3606438E+04  0.7818609E-02  0.8089019E-01
       -1   -1    0    0    0  501  0.00000000000E+00  0.00000000000E+00  0.21558767338E+04  0.21558767338E+04  0.50400001928E-02 0.  1.
        1   -1    0    0  501    0  0.00000000000E+00  0.00000000000E+00 -0.15082488001E+04  0.15082488001E+04  0.50400001928E-02 0. -1.
    10030    2    1    2    0    0  0.00000000000E+00  0.00000000000E+00  0.64762793363E+03  0.36641255339E+04  0.36064378530E+04 0.  0.
        5    1    3    3  502    0  0.11805846510E+04  0.13592321555E+04  0.42684733884E+03  0.18502737396E+04  0.46999998093E+01 0.  1.
       -5    1    3    3    0  502 -0.11805846510E+04 -0.13592321555E+04  0.22078059479E+03  0.18138517943E+04  0.46999998093E+01 0. -1.
</event>
<event>
 5   0  0.2086250E-07  0.3605605E+04  0.7818609E-02  0.8089209E-01
        1   -1    0    0  501    0  0.00000000000E+00  0.00000000000E+00  0.24667173676E+04  0.24667173676E+04  0.50400001928E-02 0. -1.
       -1   -1    0    0    0  501  0.00000000000E+00  0.00000000000E+00 -0.13175793959E+04  0.13175793959E+04  0.50400001928E-02 0.  1.
    10030    2    1    2    0    0  0.00000000000E+00  0.00000000000E+00  0.11491379716E+04  0.37842967635E+04  0.36056045147E+04 0.  0.
        2    1    3    3  502    0 -0.49017257955E+02  0.17907374800E+04  0.78696563121E+03  0.19566446582E+04  0.25500000920E-02 0.  1.
       -2    1    3    3    0  502  0.49017257955E+02 -0.17907374800E+04  0.36217234044E+03  0.18276521053E+04  0.25500000920E-02 0. -1.
</event>
<event>
 5   0  0.6541476E-07  0.3681849E+04  0.7818609E-02  0.8071996E-01
       -2   -1    0    0    0  501  0.00000000000E+00  0.00000000000E+00  0.13808217636E+04  0.13808217636E+04  0.25500000920E-02 0.  1.
        2   -1    0    0  501    0  0.00000000000E+00  0.00000000000E+00 -0.24543382779E+04  0.24543382779E+04  0.25500000920E-02 0. -1.
    10030    2    1    2    0    0  0.00000000000E+00  0.00000000000E+00 -0.10735165144E+04  0.38351600415E+04  0.36818493773E+04 0.  0.
        4    1    3    3  502    0 -0.15250997707E+04  0.67084779311E+03 -0.13523268107E+04  0.21458694015E+04  0.12699999809E+01 0. -1.
       -4    1    3    3    0  502  0.15250997707E+04 -0.67084779311E+03  0.27881029637E+03  0.16892906400E+04  0.12699999809E+01 0.  1.
</event>
<event>
 5   0  0.6729577E-07  0.3618908E+04  0.7818609E-02  0.8086174E-01
        2   -1    0    0  501    0  0.00000000000E+00  0.00000000000E+00  0.15460972774E+04  0.15460972774E+04  0.25500000920E-02 0. -1.
       -2   -1    0    0    0  501  0.00000000000E+00  0.00000000000E+00 -0.21176702458E+04  0.21176702458E+04  0.25500000920E-02 0.  1.
    10030    2    1    2    0    0  0.00000000000E+00  0.00000000000E+00 -0.57157296833E+03  0.36637675232E+04  0.36189082340E+04 0.  0.
        3    1    3    3  502    0  0.15660000468E+04 -0.62716462635E+03  0.37687477388E+03  0.17285040412E+04  0.10100000352E+00 0. -1.
       -3    1    3    3    0  502 -0.15660000468E+04  0.62716462635E+03 -0.94844774220E+03  0.19352634820E+04  0.10100000352E+00 0.  1.
</event>
<event>
 5   0  0.6324216E-07  0.3658413E+04  0.7818609E-02  0.8077241E-01
       -2   -1    0    0    0  501  0.00000000000E+00  0.00000000000E+00  0.17972813242E+04  0.17972813242E+04  0.25500000920E-02 0.  1.
        2   -1    0    0  501    0  0.00000000000E+00  0.00000000000E+00 -0.18616992079E+04  0.18616992079E+04  0.25500000920E-02 0. -1.
    10030    2    1    2    0    0  0.00000000000E+00  0.00000000000E+00 -0.64417883656E+02  0.36589805321E+04  0.36584134362E+04 0.  0.
        2    1    3    3  502    0  0.16855647138E+04 -0.50593017069E+03  0.46677066415E+03  0.18207055212E+04  0.25500000920E-02 0.  1.
       -2    1    3    3    0  502 -0.16855647138E+04  0.50593017069E+03 -0.53118854781E+03  0.18382750108E+04  0.25500000920E-02 0. -1.
</event>
<event>
 5   0  0.6541476E-07  0.3613472E+04  0.7818609E-02  0.8087413E-01
        2   -1    0    0  501    0  0.00000000000E+00  0.00000000000E+00  0.25188213113E+04  0.25188213113E+04  0.25500000920E-02 0. -1.
       -2   -1    0    0    0  501  0.00000000000E+00  0.00000000000E+00 -0.12959609576E+04  0.12959609576E+04  0.25500000920E-02 0.  1.
    10030    2    1    2    0    0  0.00000000000E+00  0.00000000000E+00  0.12228603538E+04  0.38147822689E+04  0.36134715045E+04 0.  0.
        4    1    3    3  502    0 -0.67233360391E+02 -0.12339974877E+04  0.20028167986E+04  0.23534117502E+04  0.12699999809E+01 0. -1.
       -4    1    3    3    0  502  0.67233360391E+02  0.12339974877E+04 -0.77995644478E+03  0.14613705187E+04  0.12699999809E+01 0.  1.
</event>
<event>
 5   0  0.2193129E-07  0.3541354E+04  0.7818609E-02  0.8104059E-01
        1   -1    0    0  501    0  0.00000000000E+00  0.00000000000E+00  0.23446297133E+04  0.23446297133E+04  0.50400001928E-02 0.  1.
       -1   -1    0    0    0  501  0.00000000000E+00  0.00000000000E+00 -0.13372244735E+04  0.13372244735E+04  0.50400001928E-02 0. -1.
    10030    2    1    2    0    0  0.00000000000E+00  0.00000000000E+00  0.10074052398E+04  0.36818541868E+04  0.35413535457E+04 0.  0.
        1    1    3    3  502    0  0.78790380014E+03  0.12696424769E+04 -0.48399440908E+03  0.15706797908E+04  0.50400001928E-02 0. -1.
       -1    1    3    3    0  502 -0.78790380014E+03 -0.12696424769E+04  0.14913996489E+04  0.21111743959E+04  0.50400001928E-02 0.  1.
</event>
<event>
 5   0  0.6324216E-07  0.3596376E+04  0.7818609E-02  0.8091322E-01
        2   -1    0    0  501    0  0.00000000000E+00  0.00000000000E+00  0.25865230670E+04  0.25865230670E+04  0.25500000920E-02 0. -1.
       -2   -1    0    0    0  501  0.00000000000E+00  0.00000000000E+00 -0.12501264219E+04  0.12501264219E+04  0.25500000920E-02 0.  1.
    10030    2    1    2    0    0  0.00000000000E+00  0.00000000000E+00  0.13363966451E+04  0.38366494889E+04  0.35963764135E+04 0.  0.
        2    1    3    3  502    0  0.24469875918E+03  0.12760213468E+04 -0.65798519224E+03  0.14563833539E+04  0.25500000920E-02 0.  1.
       -2    1    3    3    0  502 -0.24469875918E+03 -0.12760213468E+04  0.19943818374E+04  0.23802661350E+04  0.25500000920E-02 0. -1.
</event>
<event>
 5   0  0.2108068E-07  0.3558332E+04  0.7818609E-02  0.8100103E-01
       -1   -1    0    0    0  501  0.00000000000E+00  0.00000000000E+00  0.31746693979E+04  0.31746693979E+04  0.50400001928E-02 0. -1.
        1   -1    0    0  501    0  0.00000000000E+00  0.00000000000E+00 -0.99709041906E+03  0.99709041907E+03  0.50400001928E-02 0.  1.
    10030    2    1    2    0    0  0.00000000000E+00  0.00000000000E+00  0.21775789789E+04  0.41717598170E+04  0.35583324411E+04 0.  0.
        5    1    3    3  502    0  0.15866225773E+04 -0.62695898781E+03  0.16807737273E+04  0.23948843787E+04  0.46999998093E+01 0. -1.
       -5    1    3    3    0  502 -0.15866225773E+04  0.62695898781E+03  0.49680525158E+03  0.17768754383E+04  0.46999998093E+01 0.  1.
</event>
<event>
 5   0  0.2086250E-07  0.3533301E+04  0.7818609E-02  0.8105943E-01
       -1   -1    0    0    0  501  0.00000000000E+00  0.00000000000E+00  0.14599127732E+04  0.14599127733E+04  0.50400001928E-02 0. -1.
        1   -1    0    0  501    0  0.00000000000E+00  0.00000000000E+00 -0.21378357887E+04  0.21378357887E+04  0.50400001928E-02 0.  1.
    10030    2    1    2    0    0  0.00000000000E+00  0.00000000000E+00 -0.67792301544E+03  0.35977485619E+04  0.35333008788E+04 0.  0.
        3    1    3    3  502    0 -0.58300648309E+03 -0.12276647794E+04 -0.14882638356E+04  0.20154370803E+04  0.10100000352E+00 0.  1.
       -3    1    3    3    0  502  0.58300648309E+03  0.12276647794E+04  0.81034082020E+03  0.15823114817E+04  0.10100000352E+00 0. -1.
</event>
<event>
 5   0  0.6669864E-07  0.3414193E+04  0.7818609E-02  0.8134432E-01
        2   -1    0    0  501    0  0.00000000000E+00  0.00000000000E+00  0.15749399683E+04  0.15749399683E+04  0.25500000920E-02 0. -1.
       -2   -1    0    0    0  501  0.00000000000E+00  0.00000000000E+00 -0.18503423424E+04  0.18503423424E+04  0.25500000920E-02 0.  1.
    10030    2    1    2    0    0  0.00000000000E+00  0.00000000000E+00 -0.27540237408E+03  0.34252823107E+04  0.34141927948E+04 0.  0.
        5    1    3    3  502    0 -0.22815818560E+03 -0.61541940882E+03 -0.17186873439E+04  0.18397569086E+04  0.46999998093E+01 0.  1.
       -5    1    3    3    0  502  0.22815818560E+03  0.61541940882E+03  0.14432849699E+04  0.15855254021E+04  0.46999998093E+01 0. -1.
</event>
<event>
 5   0  0.2108068E-07  0.3584952E+04  0.7818609E-02  0.8093947E-01
        1   -1    0    0  501    0  0.00000000000E+00  0.00000000000E+00  0.14628800480E+04  0.14628800481E+04  0.50400001928E-02 0. -1.
       -1   -1    0    0    0  501  0.00000000000E+00  0.00000000000E+00 -0.21963317818E+04  0.21963317818E+04  0.50400001928E-02 0.  1.
    10030    2    1    2    0    0  0.00000000000E+00  0.00000000000E+00 -0.73345173376E+03  0.36592118299E+04  0.35849518505E+04 0.  0.
        5    1    3    3  502    0 -0.13045252545E+03 -0.17792344807E+04 -0.18918418966E+03  0.17940194944E+04  0.46999998093E+01 0. -1.
       -5    1    3    3    0  502  0.13045252545E+03  0.17792344807E+04 -0.54426754409E+03  0.18651923355E+04  0.46999998093E+01 0.  1.
</event>
<event>
 5   0  0.6729577E-07  0.3603468E+04  0.7818609E-02  0.8089698E-01
       -2   -1    0    0    0  501  0.00000000000E+00  0.00000000000E+00  0.25482881219E+04  0.25482881219E+04  0.25500000920E-02 0. -1.
        2   -1    0    0  501    0  0.00000000000E+00  0.00000000000E+00 -0.12738925075E+04  0.12738925075E+04  0.25500000920E-02 0.  1.
    10030    2    1    2    0    0  0.00000000000E+00  0.00000000000E+00  0.12743956144E+04  0.38221806295E+04  0.36034678550E+04 0.  0.
        3    1    3    3  502    0 -0.77606604165E+03  0.14487395078E+04 -0.14593749483E+03  0.16499764922E+04  0.10100000352E+00 0.  1.
       -3    1    3    3    0  502  0.77606604165E+03 -0.14487395078E+04  0.14203331093E+04  0.21722041372E+04  0.10100000352E+00 0. -1.
</event>
<event>
 5   0  0.2193129E-07  0.3655931E+04  0.7818609E-02  0.8077799E-01
        1   -1    0    0  501    0  0.00000000000E+00  0.00000000000E+00  0.20136868157E+04  0.20136868157E+04  0.50400001928E-02 0.  1.
       -1   -1    0    0    0  501  0.00000000000E+00  0.00000000000E+00 -0.16593728778E+04  0.16593728778E+04  0.50400001928E-02 0. -1.
    10030    2    1    2    0    0  0.00000000000E+00  0.00000000000E+00  0.35431393787E+03  0.36730596935E+04  0.36559306812E+04 0.  0.
        1    1    3    3  502    0 -0.17808440037E+04 -0.87651955390E+02 -0.22768139990E+03  0.17974779694E+04  0.50400001928E-02 0. -1.
       -1    1    3    3    0  502  0.17808440037E+04  0.87651955390E+02  0.58199533777E+03  0.18755817241E+04  0.50400001928E-02 0.  1.
</event>
<event>
 5   0  0.2108068E-07  0.3591377E+04  0.7818609E-02  0.8092470E-01
        1   -1    0    0  501    0  0.00000000000E+00  0.00000000000E+00  0.14161737886E+04  0.14161737886E+04  0.50400001928E-02 0. -1.
       -1   -1    0    0    0  501  0.00000000000E+00  0.00000000000E+00 -0.22769078991E+04  0.22769078991E+04  0.50400001928E-02 0.  1.
    10030    2    1    2    0    0  0.00000000000E+00  0.00000000000E+00 -0.86073411057E+03  0.36930816877E+04  0.35913770539E+04 0.  0.
        5    1    3    3  502    0  0.96293450206E+03  0.13659788153E+04 -0.11057263262E+04  0.20039445545E+04  0.46999998093E+01 0.  1.
       -5    1    3    3    0  502 -0.96293450206E+03 -0.13659788153E+04  0.24499221562E+03  0.16891371332E+04  0.46999998093E+01 0. -1.
</event>
<event>
 5   0  0.6729577E-07  0.3571927E+04  0.7818609E-02  0.8096953E-01
       -2   -1    0    0    0  501  0.00000000000E+00  0.00000000000E+00  0.16841060430E+04  0.16841060430E+04  0.25500000920E-02 0. -1.
        2   -1    0    0  501    0  0.00000000000E+00  0.00000000000E+00 -0.18939810402E+04  0.18939810402E+04  0.25500000920E-02 0.  1.
    10030    2    1    2    0    0  0.00000000000E+00  0.00000000000E+00 -0.20987499724E+03  0.35780870832E+04  0.35719266035E+04 0.  0.
        3    1    3    3  502    0  0.15043131711E+04 -0.80724715301E+03  0.42042754095E+03  0.17582279176E+04  0.10100000352E+00 0. -1.
       -3    1    3    3    0  502 -0.15043131711E+04  0.80724715301E+03 -0.63030253818E+03  0.18198591656E+04  0.10100000352E+00 0.  1.
</event>
<event>
 5   0  0.6669864E-07  0.3610840E+04  0.7818609E-02  0.8088013E-01
        2   -1    0    0  501    0  0.00000000000E+00  0.00000000000E+00  0.18743187304E+04  0.18743187304E+04  0.25500000920E-02 0. -1.
       -2   -1    0    0    0  501  0.00000000000E+00  0.00000000000E+00 -0.17390542477E+04  0.17390542477E+04  0.25500000920E-02 0.  1.
    10030    2    1    2    0    0  0.00000000000E+00  0.00000000000E+00  0.13526448269E+03  0.36133729781E+04  0.36108403175E+04 0.  0.
        5    1    3    3  502    0 -0.24418827157E+03  0.64953810223E+03  0.17355322869E+04  0.18691233419E+04  0.46999998093E+01 0. -1.
       -5    1    3    3    0  502  0.24418827157E+03 -0.64953810223E+03 -0.16002678042E+04  0.17442496362E+04  0.46999998093E+01 0.  1.
</event>
<event>
 5   0  0.6669864E-07  0.3619735E+04  0.7818609E-02  0.8085986E-01
       -2   -1    0    0    0  501  0.00000000000E+00  0.00000000000E+00  0.12233098271E+04  0.12233098271E+04  0.25500000920E-02 0.  1.
        2   -1    0    0  501    0  0.00000000000E+00  0.00000000000E+00 -0.26776707983E+04  0.26776707983E+04  0.25500000920E-02 0. -1.
    10030    2    1    2    0    0  0.00000000000E+00  0.00000000000E+00 -0.14543609712E+04  0.39009806254E+04  0.36197353502E+04 0.  0.
        5    1    3    3  502    0 -0.10288075709E+04 -0.87987480350E+03  0.56739166733E+03  0.14678487940E+04  0.46999998093E+01 0.  1.
       -5    1    3    3    0  502  0.10288075709E+04  0.87987480350E+03 -0.20217526385E+04  0.24331318314E+04  0.46999998093E+01 0. -1.
</event>
<event>
 5   0  0.2086250E-07  0.3639542E+04  0.7818609E-02  0.8081494E-01
        1   -1    0    0  501    0  0.00000000000E+00  0.00000000000E+00  0.28447429263E+04  0.28447429263E+04  0.50400001928E-02 0. -1.
       -1   -1    0    0    0  501  0.00000000000E+00  0.00000000000E+00 -0.11641003031E+04  0.11641003032E+04  0.50400001928E-02 0.  1.
    10030    2    1    2    0    0  0.00000000000E+00  0.00000000000E+00  0.16806426232E+04  0.40088432295E+04  0.36395417859E+04 0.  0.
        4    1    3    3  502    0 -0.16177766869E+04  0.55137540959E+03  0.15284956521E+04  0.22929275659E+04  0.12699999809E+01 0.  1.
       -4    1    3    3    0  502  0.16177766869E+04 -0.55137540959E+03  0.15214697106E+03  0.17159156636E+04  0.12699999809E+01 0. -1.
</event>
<event>
 5   0  0.2086250E-07  0.3642295E+04  0.7818609E-02  0.8080872E-01
       -3   -1    0    0    0  501  0.00000000000E+00  0.00000000000E+00  0.20749945856E+04  0.20749945881E+04  0.10100000352E+00 0.  1.
        3   -1    0    0  501    0  0.00000000000E+00  0.00000000000E+00 -0.15983554493E+04  0.15983554525E+04  0.10100000352E+00 0. -1.
    10030    2    1    2    0    0  0.00000000000E+00  0.00000000000E+00  0.47663913630E+03  0.36733500406E+04  0.36422953826E+04 0.  0.
        3    1    3    3  502    0  0.10316289888E+04  0.77856946843E+03  0.15322826041E+04  0.20045744628E+04  0.10100000352E+00 0.  1.
       -3    1    3    3    0  502 -0.10316289888E+04 -0.77856946843E+03 -0.10556434678E+04  0.16687755778E+04  0.10100000352E+00 0. -1.
</event>
<event>
 5   0  0.2086250E-07  0.3634347E+04  0.7818609E-02  0.8082669E-01
        1   -1    0    0  501    0  0.00000000000E+00  0.00000000000E+00  0.19933093362E+04  0.19933093362E+04  0.50400001928E-02 0.  1.
       -1   -1    0    0    0  501  0.00000000000E+00  0.00000000000E+00 -0.16566016846E+04  0.16566016846E+04  0.50400001928E-02 0. -1.
    10030    2    1    2    0    0  0.00000000000E+00  0.00000000000E+00  0.33670765157E+03  0.36499110208E+04  0.36343470414E+04 0.  0.
        4    1    3    3  502    0  0.55054324648E+03  0.10550158387E+04 -0.12108305125E+04  0.16977244856E+04  0.12699999809E+01 0. -1.
       -4    1    3    3    0  502 -0.55054324648E+03 -0.10550158387E+04  0.15475381641E+04  0.19521865352E+04  0.12699999809E+01 0.  1.
</event>
<event>
 5   0  0.2086250E-07  0.3594186E+04  0.7818609E-02  0.8091825E-01
       -1   -1    0    0    0  501  0.00000000000E+00  0.00000000000E+00  0.20740766869E+04  0.20740766869E+04  0.50400001928E-02 0. -1.
        1   -1    0    0  501    0  0.00000000000E+00  0.00000000000E+00 -0.15570994831E+04  0.15570994831E+04  0.50400001928E-02 0.  1.
    10030    2    1    2    0    0  0.00000000000E+00  0.00000000000E+00  0.51697720381E+03  0.36311761700E+04  0.35941862707E+04 0.  0.
        3    1    3    3  502    0 -0.11228923001E+04 -0.44959097882E+03  0.16012739036E+04  0.20067628885E+04  0.10100000352E+00 0. -1.
       -3    1    3    3    0  502  0.11228923001E+04  0.44959097882E+03 -0.10842966998E+04  0.16244132815E+04  0.10100000352E+00 0.  1.
</event>
<event>
 5   0  0.2193129E-07  0.3534255E+04  0.7818609E-02  0.8105720E-01
       -1   -1    0    0    0  501  0.00000000000E+00  0.00000000000E+00  0.98839489363E+03  0.98839489364E+03  0.50400001928E-02 0. -1.
        1   -1    0    0  501    0  0.00000000000E+00  0.00000000000E+00 -0.31594043331E+04  0.31594043331E+04  0.50400001928E-02 0.  1.
    10030    2    1    2    0    0  0.00000000000E+00  0.00000000000E+00 -0.21710094395E+04  0.41477992268E+04  0.35342547219E+04 0.  0.
        1    1    3    3  502    0  0.40621250187E+03 -0.15357237250E+04 -0.17698174517E+03  0.15983674466E+04  0.50400001928E-02 0. -1.
       -1    1    3    3    0  502 -0.40621250187E+03  0.15357237250E+04 -0.19940276943E+04  0.25494317802E+04  0.50400001928E-02 0.  1.
</event>
<event>
 5   0  0.6729577E-07  0.3717432E+04  0.7818609E-02  0.8064110E-01
        2   -1    0    0  501    0  0.00000000000E+00  0.00000000000E+00  0.24713897960E+04  0.24713897960E+04  0.25500000920E-02 0. -1.
       -2   -1    0    0    0  501  0.00000000000E+00  0.00000000000E+00 -0.13979279379E+04  0.13979279379E+04  0.25500000920E-02 0.  1.
    10030    2    1    2    0    0  0.00000000000E+00  0.00000000000E+00  0.10734618581E+04  0.38693177339E+04  0.37174318239E+04 0.  0.
        3    1    3    3  502    0 -0.46489502531E+03 -0.17667567271E+04  0.89316675656E+03  0.20335445858E+04  0.10100000352E+00 0. -1.
       -3    1    3    3    0  502  0.46489502531E+03  0.17667567271E+04  0.18029510151E+03  0.18357731481E+04  0.10100000352E+00 0.  1.
</event>
<event>
 5   0  0.6669864E-07  0.3586630E+04  0.7818609E-02  0.8093561E-01
        2   -1    0    0  501    0  0.00000000000E+00  0.00000000000E+00  0.18031347719E+04  0.18031347719E+04  0.25500000920E-02 0. -1.
       -2   -1    0    0    0  501  0.00000000000E+00  0.00000000000E+00 -0.17835487471E+04  0.17835487471E+04  0.25500000920E-02 0.  1.
    10030    2    1    2    0    0  0.00000000000E+00  0.00000000000E+00  0.19586024837E+02  0.35866835189E+04  0.35866300412E+04 0.  0.
        5    1    3    3  502    0  0.66436157355E+03  0.15800898813E+04  0.53695961496E+03  0.17962204908E+04  0.46999998093E+01 0. -1.
       -5    1    3    3    0  502 -0.66436157355E+03 -0.15800898813E+04 -0.51737359012E+03  0.17904630282E+04  0.46999998093E+01 0.  1.
</event>
<event>
 5   0  0.6669864E-07  0.3494990E+04  0.7818609E-02  0.8114978E-01
       -2   -1    0    0    0  501  0.00000000000E+00  0.00000000000E+00  0.11873982341E+04  0.11873982341E+04  0.25500000920E-02 0.  1.
        2   -1    0    0  501    0  0.00000000000E+00  0.00000000000E+00 -0.25717904647E+04  0.25717904647E+04  0.25500000920E-02 0. -1.
    10030    2    1    2    0    0  0.00000000000E+00  0.00000000000E+00 -0.13843922305E+04  0.37591886988E+04  0.34949903899E+04 0.  0.
        5    1    3    3  502    0  0.15151335859E+04 -0.45170769548E+03 -0.14928074506E+04  0.21744345932E+04  0.46999998093E+01 0. -1.
       -5    1    3    3    0  502 -0.15151335859E+04  0.45170769548E+03  0.10841522010E+03  0.15847541056E+04  0.46999998093E+01 0.  1.
</event>
<event>
 5   0  0.2193129E-07  0.3644969E+04  0.7818609E-02  0.8080268E-01
        1   -1    0    0  501    0  0.00000000000E+00  0.00000000000E+00  0.16460507213E+04  0.16460507213E+04  0.50400001928E-02 0.  1.
       -1   -1    0    0    0  501  0.00000000000E+00  0.00000000000E+00 -0.20178299036E+04  0.20178299036E+04  0.50400001928E-02 0. -1.
    10030    2    1    2    0    0  0.00000000000E+00  0.00000000000E+00 -0.37177918228E+03  0.36638806250E+04  0.36449693378E+04 0.  0.
        1    1    3    3  502    0  0.12800851834E+04 -0.15809999500E+03 -0.14801399929E+04  0.19632697430E+04  0.50400001928E-02 0. -1.
       -1    1    3    3    0  502 -0.12800851834E+04  0.15809999500E+03  0.11083608106E+04  0.17006108819E+04  0.50400001928E-02 0.  1.
</event>
<event>
 5   0  0.6848661E-07  0.3559370E+04  0.7818609E-02  0.8099862E-01
        2   -1    0    0  501    0  0.00000000000E+00  0.00000000000E+00  0.23546325698E+04  0.23546325698E+04  0.25500000920E-02 0. -1.
       -2   -1    0    0    0  501  0.00000000000E+00  0.00000000000E+00 -0.13451268765E+04  0.13451268765E+04  0.25500000920E-02 0.  1.
    10030    2    1    2    0    0  0.00000000000E+00  0.00000000000E+00  0.10095056933E+04  0.36997594464E+04  0.35593704803E+04 0.  0.
        1    1    3    3  502    0 -0.36449778972E+03 -0.11099950307E+04  0.19002137836E+04  0.22306411703E+04  0.50400001928E-02 0. -1.
       -1    1    3    3    0  502  0.36449778972E+03  0.11099950307E+04 -0.89070809034E+03  0.14691182761E+04  0.50400001928E-02 0.  1.
</event>
<event>
 5   0  0.6848661E-07  0.3582511E+04  0.7818609E-02  0.8094509E-01
        2   -1    0    0  501    0  0.00000000000E+00  0.00000000000E+00  0.19414973632E+04  0.19414973632E+04  0.25500000920E-02 0.  1.
       -2   -1    0    0    0  501  0.00000000000E+00  0.00000000000E+00 -0.16526403898E+04  0.16526403898E+04  0.25500000920E-02 0. -1.
    10030    2    1    2    0    0  0.00000000000E+00  0.00000000000E+00  0.28885697333E+03  0.35941377530E+04  0.35825113868E+04 0.  0.
        1    1    3    3  502    0  0.96047680128E+03  0.14319948687E+04  0.63125782958E+03  0.18361948255E+04  0.50400001928E-02 0.  1.
       -1    1    3    3    0  502 -0.96047680128E+03 -0.14319948687E+04 -0.34240085624E+03  0.17579429275E+04  0.50400001928E-02 0. -1.
</event>
<event>
 5   0  0.2086250E-07  0.3451794E+04  0.7818609E-02  0.8125310E-01
       -1   -1    0    0    0  501  0.00000000000E+00  0.00000000000E+00  0.11533701571E+04  0.11533701571E+04  0.50400001928E-02 0.  1.
        1   -1    0    0  501    0  0.00000000000E+00  0.00000000000E+00 -0.25826228928E+04  0.25826228928E+04  0.50400001928E-02 0. -1.
    10030    2    1    2    0    0  0.00000000000E+00  0.00000000000E+00 -0.14292527357E+04  0.37359930499E+04  0.34517938360E+04 0.  0.
        3    1    3    3  502    0  0.39440421418E+03  0.48955003726E+03  0.10250400020E+04  0.12024645271E+04  0.10100000352E+00 0.  1.
       -3    1    3    3    0  502 -0.39440421418E+03 -0.48955003726E+03 -0.24542927377E+04  0.25335285227E+04  0.10100000352E+00 0. -1.
</event>
<event>
 5   0  0.6541476E-07  0.3594459E+04  0.7818609E-02  0.8091762E-01
        2   -1    0    0  501    0  0.00000000000E+00  0.00000000000E+00  0.27087967184E+04  0.27087967184E+04  0.25500000920E-02 0. -1.
       -2   -1    0    0    0  501  0.00000000000E+00  0.00000000000E+00 -0.11924240297E+04  0.11924240298E+04  0.25500000920E-02 0.  1.
    10030    2    1    2    0    0  0.00000000000E+00  0.00000000000E+00  0.15163726887E+04  0.39012207482E+04  0.35944592354E+04 0.  0.
        4    1    3    3  502    0 -0.90319894113E+03 -0.71776992521E+03  0.22538623566E+04  0.25319674422E+04  0.12699999809E+01 0. -1.
       -4    1    3    3    0  502  0.90319894113E+03  0.71776992521E+03 -0.73748966793E+03  0.13692533060E+04  0.12699999809E+01 0.  1.
</event>
<event>
 5   0  0.2086250E-07  0.3597546E+04  0.7818609E-02  0.8091054E-01
        1   -1    0    0  501    0  0.00000000000E+00  0.00000000000E+00  0.22017738001E+04  0.22017738002E+04  0.50400001928E-02 0.  1.
       -1   -1    0    0    0  501  0.00000000000E+00  0.00000000000E+00 -0.14695349773E+04  0.14695349773E+04  0.50400001928E-02 0. -1.
    10030    2    1    2    0    0  0.00000000000E+00  0.00000000000E+00  0.73223882284E+03  0.36713087775E+04  0.35975456141E+04 0.  0.
        2    1    3    3  502    0  0.15589522977E+04 -0.13917290947E+03  0.12707959805E+04  0.20160912155E+04  0.25500000920E-02 0.  1.
       -2    1    3    3    0  502 -0.15589522977E+04  0.13917290947E+03 -0.53855715770E+03  0.16552175619E+04  0.25500000920E-02 0. -1.
</event>
<event>
 5   0  0.6324216E-07  0.3616059E+04  0.7818609E-02  0.8086823E-01
       -2   -1    0    0    0  501  0.00000000000E+00  0.00000000000E+00  0.21049232717E+04  0.21049232717E+04  0.25500000920E-02 0.  1.
        2   -1    0    0  501    0  0.00000000000E+00  0.00000000000E+00 -0.15530119255E+04  0.15530119255E+04  0.25500000920E-02 0. -1.
    10030    2    1    2    0    0  0.00000000000E+00  0.00000000000E+00  0.55191134624E+03  0.36579351972E+04  0.36160591495E+04 0.  0.
        2    1    3    3  502    0 -0.31022020455E+03  0.10785617589E+04  0.17099184708E+04  0.20453247223E+04  0.25500000920E-02 0.  1.
       -2    1    3    3    0  502  0.31022020455E+03 -0.10785617589E+04 -0.11580071245E+04  0.16126104748E+04  0.25500000920E-02 0. -1.
</event>
<event>
 5   0  0.2193129E-07  0.3597537E+04  0.7818609E-02  0.8091056E-01
        1   -1    0    0  501    0  0.00000000000E+00  0.00000000000E+00  0.22922251419E+04  0.22922251419E+04  0.50400001928E-02 0. -1.
       -1   -1    0    0    0  501  0.00000000000E+00  0.00000000000E+00 -0.14115405654E+04  0.14115405654E+04  0.50400001928E-02 0.  1.
    10030    2    1    2    0    0  0.00000000000E+00  0.00000000000E+00  0.88068457641E+03  0.37037657073E+04  0.35975373648E+04 0.  0.
        1    1    3    3  502    0  0.73932950574E+03  0.96687683375E+03 -0.92319363999E+03  0.15276601149E+04  0.50400001928E-02 0.  1.
       -1    1    3    3    0  502 -0.73932950574E+03 -0.96687683375E+03  0.18038782164E+04  0.21761055924E+04  0.50400001928E-02 0. -1.
</event>
<event>
 5   0  0.6324216E-07  0.3554652E+04  0.7818609E-02  0.8100959E-01
       -2   -1    0    0    0  501  0.00000000000E+00  0.00000000000E+00  0.15936846407E+04  0.15936846407E+04  0.25500000920E-02 0.  1.
        2   -1    0    0  501    0  0.00000000000E+00  0.00000000000E+00 -0.19821281932E+04  0.19821281932E+04  0.25500000920E-02 0. -1.
    10030    2    1    2    0    0  0.00000000000E+00  0.00000000000E+00 -0.38844355250E+03  0.35758128340E+04  0.35546517452E+04 0.  0.
        2    1    3    3  502    0  0.81072900307E+03 -0.65645054569E+03  0.12533298083E+04  0.16306576721E+04  0.25500000920E-02 0.  1.
       -2    1    3    3    0  502 -0.81072900307E+03  0.65645054569E+03 -0.16417733608E+04  0.19451551618E+04  0.25500000920E-02 0. -1.
</event>
<event>
 5   0  0.6669864E-07  0.3601427E+04  0.7818609E-02  0.8090165E-01
       -2   -1    0    0    0  501  0.00000000000E+00  0.00000000000E+00  0.23628283831E+04  0.23628283831E+04  0.25500000920E-02 0. -1.
        2   -1    0    0  501    0  0.00000000000E+00  0.00000000000E+00 -0.13723256370E+04  0.13723256370E+04  0.25500000920E-02 0.  1.
    10030    2    1    2    0    0  0.00000000000E+00  0.00000000000E+00  0.99050274602E+03  0.37351540201E+04  0.36014274759E+04 0.  0.
        5    1    3    3  502    0 -0.12640175742E+04  0.75309390190E+03 -0.58139758145E+03  0.15820670310E+04  0.46999998093E+01 0.  1.
       -5    1    3    3    0  502  0.12640175742E+04 -0.75309390190E+03  0.15719003275E+04  0.21530869891E+04  0.46999998093E+01 0. -1.
</event>
<event>
 5   0  0.6669864E-07  0.3608970E+04  0.7818609E-02  0.8088440E-01
       -2   -1    0    0    0  501  0.00000000000E+00  0.00000000000E+00  0.15456917173E+04  0.15456917173E+04  0.25500000920E-02 0.  1.
        2   -1    0    0  501    0  0.00000000000E+00  0.00000000000E+00 -0.21066077956E+04  0.21066077956E+04  0.25500000920E-02 0. -1.
    10030    2    1    2    0    0  0.00000000000E+00  0.00000000000E+00 -0.56091607820E+03  0.36522995129E+04  0.36089700588E+04 0.  0.
        5    1    3    3  502    0 -0.63057787609E+03 -0.14861676214E+04  0.53533526424E+03  0.17008611325E+04  0.46999998093E+01 0.  1.
       -5    1    3    3    0  502  0.63057787609E+03  0.14861676214E+04 -0.10962513424E+04  0.19514383804E+04  0.46999998093E+01 0. -1.
</event>
<event>
 5   0  0.2086250E-07  0.3257521E+04  0.7818609E-02  0.8173789E-01
       -4   -1    0    0    0  501  0.00000000000E+00  0.00000000000E+00  0.16965268841E+04  0.16965273595E+04  0.12699999809E+01 0. -1.
        4   -1    0    0  501    0  0.00000000000E+00  0.00000000000E+00 -0.15636996486E+04  0.15637001643E+04  0.12699999809E+01 0.  1.
    10030    2    1    2    0    0  0.00000000000E+00  0.00000000000E+00  0.13282723554E+03  0.32602275238E+04  0.32575205959E+04 0.  0.
        1    1    3    3  502    0  0.12693905534E+04 -0.76755813013E+03 -0.60672408466E+03  0.16026889827E+04  0.50400001928E-02 0.  1.
       -1    1    3    3    0  502 -0.12693905534E+04  0.76755813013E+03  0.73955132019E+03  0.16575385412E+04  0.50400001928E-02 0. -1.
</event>
<event>
 5   0  0.2086250E-07  0.3618917E+04  0.7818609E-02  0.8086172E-01
        1   -1    0    0  501    0  0.00000000000E+00  0.00000000000E+00  0.16507884307E+04  0.16507884307E+04  0.50400001928E-02 0. -1.
       -1   -1    0    0    0  501  0.00000000000E+00  0.00000000000E+00 -0.19833794361E+04  0.19833794361E+04  0.50400001928E-02 0.  1.
    10030    2    1    2    0    0  0.00000000000E+00  0.00000000000E+00 -0.33259100541E+03  0.36341678667E+04  0.36189168693E+04 0.  0.
        3    1    3    3  502    0 -0.97347769141E+03 -0.92002430073E+03 -0.13879898340E+04  0.19288906965E+04  0.10100000352E+00 0.  1.
       -3    1    3    3    0  502  0.97347769141E+03  0.92002430073E+03  0.10553988286E+04  0.17052771702E+04  0.10100000352E+00 0. -1.
</event>
<event>
 5   0  0.2086250E-07  0.3598603E+04  0.7818609E-02  0.8090812E-01
       -1   -1    0    0    0  501  0.00000000000E+00  0.00000000000E+00  0.18157067137E+04  0.18157067137E+04  0.50400001928E-02 0. -1.
        1   -1    0    0  501    0  0.00000000000E+00  0.00000000000E+00 -0.17830440520E+04  0.17830440520E+04  0.50400001928E-02 0.  1.
    10030    2    1    2    0    0  0.00000000000E+00  0.00000000000E+00  0.32662661684E+02  0.35987507657E+04  0.35986025376E+04 0.  0.
        3    1    3    3  502    0  0.72725359479E+03  0.15667925042E+03  0.16547024686E+04  0.18142454213E+04  0.10100000352E+00 0. -1.
       -3    1    3    3    0  502 -0.72725359479E+03 -0.15667925042E+03 -0.16220398070E+04  0.17845053444E+04  0.10100000352E+00 0.  1.
</event>
<event>
 5   0  0.2108068E-07  0.3627295E+04  0.7818609E-02  0.8084268E-01
        1   -1    0    0  501    0  0.00000000000E+00  0.00000000000E+00  0.11795217433E+04  0.11795217433E+04  0.50400001928E-02 0.  1.
       -1   -1    0    0    0  501  0.00000000000E+00  0.00000000000E+00 -0.27886866266E+04  0.27886866266E+04  0.50400001928E-02 0. -1.
    10030    2    1    2    0    0  0.00000000000E+00  0.00000000000E+00 -0.16091648833E+04  0.39682083699E+04  0.36272945904E+04 0.  0.
        5    1    3    3  502    0  0.31281584058E+03 -0.17745740596E+04 -0.10296554169E+04  0.20753744748E+04  0.46999998093E+01 0. -1.
       -5    1    3    3    0  502 -0.31281584058E+03  0.17745740596E+04 -0.57950946639E+03  0.18928338952E+04  0.46999998093E+01 0.  1.
</event>
<event>
 5   0  0.6848661E-07  0.3643095E+04  0.7818609E-02  0.8080691E-01
       -2   -1    0    0    0  501  0.00000000000E+00  0.00000000000E+00  0.22556517134E+04  0.22556517134E+04  0.25500000920E-02 0.  1.
        2   -1    0    0  501    0  0.00000000000E+00  0.00000000000E+00 -0.14709871722E+04  0.14709871722E+04  0.25500000920E-02 0. -1.
    10030    2    1    2    0    0  0.00000000000E+00  0.00000000000E+00  0.78466454121E+03  0.37266388857E+04  0.36430946930E+04 0.  0.
        1    1    3    3  502    0  0.14719517878E+04 -0.88718878150E+02  0.14862106626E+04  0.20936416213E+04  0.50400001928E-02 0.  1.
       -1    1    3    3    0  502 -0.14719517878E+04  0.88718878150E+02 -0.70154612139E+03  0.16329972644E+04  0.50400001928E-02 0. -1.
</event>
<event>
 5   0  0.2108068E-07  0.3632171E+04  0.7818609E-02  0.8083162E-01
        1   -1    0    0  501    0  0.00000000000E+00  0.00000000000E+00  0.18840899872E+04  0.18840899872E+04  0.50400001928E-02 0. -1.
       -1   -1    0    0    0  501  0.00000000000E+00  0.00000000000E+00 -0.17505358695E+04  0.17505358696E+04  0.50400001928E-02 0.  1.
    10030    2    1    2    0    0  0.00000000000E+00  0.00000000000E+00  0.13355411762E+03  0.36346258567E+04  0.36321713087E+04 0.  0.
        5    1    3    3  502    0 -0.77761589037E+03  0.14973510032E+04 -0.60553894752E+03  0.17926087155E+04  0.46999998093E+01 0.  1.
       -5    1    3    3    0  502  0.77761589037E+03 -0.14973510032E+04  0.73909306513E+03  0.18420171413E+04  0.46999998093E+01 0. -1.
</event>
<event>
 5   0  0.6848661E-07  0.3590090E+04  0.7818609E-02  0.8092766E-01
        2   -1    0    0  501    0  0.00000000000E+00  0.00000000000E+00  0.17714463894E+04  0.17714463894E+04  0.25500000920E-02 0.  1.
       -2   -1    0    0    0  501  0.00000000000E+00  0.00000000000E+00 -0.18189577039E+04  0.18189577039E+04  0.25500000920E-02 0. -1.
    10030    2    1    2    0    0  0.00000000000E+00  0.00000000000E+00 -0.47511314420E+02  0.35904040933E+04  0.35900897242E+04 0.  0.
        1    1    3    3  502    0 -0.62644610090E+01 -0.17484088723E+04  0.38274423701E+03  0.17898228905E+04  0.50400001928E-02 0.  1.
       -1    1    3    3    0  502  0.62644610090E+01  0.17484088723E+04 -0.43025555143E+03  0.18005812028E+04  0.50400001928E-02 0. -1.
</event>
<event>
 5   0  0.6729577E-07  0.3436990E+04  0.7818609E-02  0.8128887E-01
       -2   -1    0    0    0  501  0.00000000000E+00  0.00000000000E+00  0.10366619935E+04  0.10366619935E+04  0.25500000920E-02 0.  1.
        2   -1    0    0  501    0  0.00000000000E+00  0.00000000000E+00 -0.28487826668E+04  0.28487826668E+04  0.25500000920E-02 0. -1.
    10030    2    1    2    0    0  0.00000000000E+00  0.00000000000E+00 -0.18121206733E+04  0.38854446603E+04  0.34369897984E+04 0.  0.
        3    1    3    3  502    0  0.15091355592E+04 -0.41942632067E+02 -0.18341383910E+04  0.23755658206E+04  0.10100000352E+00 0. -1.
       -3    1    3    3    0  502 -0.15091355592E+04  0.41942632067E+02  0.22017717727E+02  0.15098788397E+04  0.10100000352E+00 0.  1.
</event>
<event>
 5   0  0.6324216E-07  0.3424169E+04  0.7818609E-02  0.8132000E-01
       -2   -1    0    0    0  501  0.00000000000E+00  0.00000000000E+00  0.14396668053E+04  0.14396668053E+04  0.25500000920E-02 0.  1.
        2   -1    0    0  501    0  0.00000000000E+00  0.00000000000E+00 -0.20360495661E+04  0.20360495661E+04  0.25500000920E-02 0. -1.
    10030    2    1    2    0    0  0.00000000000E+00  0.00000000000E+00 -0.59638276083E+03  0.34757163714E+04  0.34241687892E+04 0.  0.
        2    1    3    3  502    0 -0.12740028532E+04  0.40352542319E+03 -0.13844969512E+04  0.19242525419E+04  0.25500000920E-02 0. -1.
       -2    1    3    3    0  502  0.12740028532E+04 -0.40352542319E+03  0.78811419040E+03  0.15514638295E+04  0.25500000920E-02 0.  1.
</event>
<event>
 5   0  0.2086250E-07  0.3563099E+04  0.7818609E-02  0.8098997E-01
        1   -1    0    0  501    0  0.00000000000E+00  0.00000000000E+00  0.15583229829E+04  0.15583229830E+04  0.50400001928E-02 0. -1.
       -1   -1    0    0    0  501  0.00000000000E+00  0.00000000000E+00 -0.20367532664E+04  0.20367532665E+04  0.50400001928E-02 0.  1.
    10030    2    1    2    0    0  0.00000000000E+00  0.00000000000E+00 -0.47843028350E+03  0.35950762494E+04  0.35630994517E+04 0.  0.
        2    1    3    3  502    0  0.57904955823E+03  0.91962031219E+03 -0.16635924347E+04  0.19870932787E+04  0.25500000920E-02 0.  1.
       -2    1    3    3    0  502 -0.57904955823E+03 -0.91962031219E+03  0.11851621512E+04  0.16079829707E+04  0.25500000920E-02 0. -1.
</event>
<event>
 5   0  0.6669864E-07  0.3476811E+04  0.7818609E-02  0.8119308E-01
        2   -1    0    0  501    0  0.00000000000E+00  0.00000000000E+00  0.18822544289E+04  0.18822544289E+04  0.25500000920E-02 0. -1.
       -2   -1    0    0    0  501  0.00000000000E+00  0.00000000000E+00 -0.16055499840E+04  0.16055499840E+04  0.25500000920E-02 0.  1.
    10030    2    1    2    0    0  0.00000000000E+00  0.00000000000E+00  0.27670444492E+03  0.34878044128E+04  0.34768109342E+04 0.  0.
        5    1    3    3  502    0  0.75343620752E+03 -0.11911817976E+04 -0.88243654750E+03  0.16629180810E+04  0.46999998093E+01 0.  1.
       -5    1    3    3    0  502 -0.75343620752E+03  0.11911817976E+04  0.11591409924E+04  0.18248863318E+04  0.46999998093E+01 0. -1.
</event>
<event>
 5   0  0.6669864E-07  0.3599680E+04  0.7818609E-02  0.8090565E-01
        2   -1    0    0  501    0  0.00000000000E+00  0.00000000000E+00  0.17590809166E+04  0.17590809166E+04  0.25500000920E-02 0. -1.
       -2   -1    0    0    0  501  0.00000000000E+00  0.00000000000E+00 -0.18415432927E+04  0.18415432927E+04  0.25500000920E-02 0.  1.
    10030    2    1    2    0    0  0.00000000000E+00  0.00000000000E+00 -0.82462376142E+02  0.36006242093E+04  0.35996797987E+04 0.  0.
        5    1    3    3  502    0 -0.17830435812E+04 -0.63641503174E+01 -0.28648250159E+03  0.18059289102E+04  0.46999998093E+01 0.  1.
       -5    1    3    3    0  502  0.17830435812E+04  0.63641503174E+01  0.20402012545E+03  0.17946952991E+04  0.46999998093E+01 0. -1.
</event>
<event>
 5   0  0.6848661E-07  0.3401223E+04  0.7818609E-02  0.8137606E-01
        2   -1    0    0  501    0  0.00000000000E+00  0.00000000000E+00  0.24527804900E+04  0.24527804900E+04  0.25500000920E-02 0. -1.
       -2   -1    0    0    0  501  0.00000000000E+00  0.00000000000E+00 -0.11791025738E+04  0.11791025738E+04  0.25500000920E-02 0.  1.
    10030    2    1    2    0    0  0.00000000000E+00  0.00000000000E+00  0.12736779161E+04  0.36318830638E+04  0.34012231852E+04 0.  0.
        1    1    3    3  502    0 -0.14284901918E+04 -0.44512393878E+03  0.14999627283E+04  0.21186334594E+04  0.50400001928E-02 0. -1.
       -1    1    3    3    0  502  0.14284901918E+04  0.44512393878E+03 -0.22628481220E+03  0.15132496044E+04  0.50400001928E-02 0.  1.
</event>
<event>
 5   0  0.6541476E-07  0.3572974E+04  0.7818609E-02  0.8096711E-01
       -2   -1    0    0    0  501  0.00000000000E+00  0.00000000000E+00  0.14644423228E+04  0.14644423228E+04  0.25500000920E-02 0. -1.
        2   -1    0    0  501    0  0.00000000000E+00  0.00000000000E+00 -0.21793518373E+04  0.21793518373E+04  0.25500000920E-02 0.  1.
    10030    2    1    2    0    0  0.00000000000E+00  0.00000000000E+00 -0.71490951445E+03  0.36437941601E+04  0.35729735890E+04 0.  0.
        4    1    3    3  502    0  0.12378052670E+04 -0.11659437124E+04  0.20107481310E+03  0.17123140229E+04  0.12699999809E+01 0. -1.
       -4    1    3    3    0  502 -0.12378052670E+04  0.11659437124E+04 -0.91598432755E+03  0.19314801373E+04  0.12699999809E+01 0.  1.
</event>
<event>
 5   0  0.2086250E-07  0.3590479E+04  0.7818609E-02  0.8092676E-01
        1   -1    0    0  501    0  0.00000000000E+00  0.00000000000E+00  0.23369786386E+04  0.23369786386E+04  0.50400001928E-02 0. -1.
       -1   -1    0    0    0  501  0.00000000000E+00  0.00000000000E+00 -0.13790820737E+04  0.13790820737E+04  0.50400001928E-02 0.  1.
    10030    2    1    2    0    0  0.00000000000E+00  0.00000000000E+00  0.95789656488E+03  0.37160607123E+04  0.35904792700E+04 0.  0.
        2    1    3    3  502    0 -0.66528363767E+03  0.47817220118E+03  0.21322023476E+04  0.22841930355E+04  0.25500000920E-02 0. -1.
       -2    1    3    3    0  502  0.66528363767E+03 -0.47817220118E+03 -0.11743057827E+04  0.14318676768E+04  0.25500000920E-02 0.  1.
</event>
<event>
 5   0  0.2086250E-07  0.3645179E+04  0.7818609E-02  0.8080221E-01
       -1   -1    0    0    0  501  0.00000000000E+00  0.00000000000E+00  0.11679819716E+04  0.11679819717E+04  0.50400001928E-02 0. -1.
        1   -1    0    0  501    0  0.00000000000E+00  0.00000000000E+00 -0.28440786503E+04  0.28440786503E+04  0.50400001928E-02 0.  1.
    10030    2    1    2    0    0  0.00000000000E+00  0.00000000000E+00 -0.16760966786E+04  0.40120606219E+04  0.36451790571E+04 0.  0.
        2    1    3    3  502    0 -0.10355976905E+04  0.14932326312E+04 -0.99224255438E+03  0.20704471870E+04  0.25500000920E-02 0. -1.
       -2    1    3    3    0  502  0.10355976905E+04 -0.14932326312E+04 -0.68385412425E+03  0.19416134349E+04  0.25500000920E-02 0.  1.
</event>
<event>
 5   0  0.6669864E-07  0.3606521E+04  0.7818609E-02  0.8089000E-01
       -2   -1    0    0    0  501  0.00000000000E+00  0.00000000000E+00  0.25587225692E+04  0.25587225692E+04  0.25500000920E-02 0. -1.
        2   -1    0    0  501    0  0.00000000000E+00  0.00000000000E+00 -0.12708486991E+04  0.12708486991E+04  0.25500000920E-02 0.  1.
    10030    2    1    2    0    0  0.00000000000E+00  0.00000000000E+00  0.12878738701E+04  0.38295712683E+04  0.36065214534E+04 0.  0.
        5    1    3    3  502    0 -0.10027011753E+04  0.74608924650E+03  0.20242016013E+04  0.23789646957E+04  0.46999998093E+01 0. -1.
       -5    1    3    3    0  502  0.10027011753E+04 -0.74608924650E+03 -0.73632773122E+03  0.14506065726E+04  0.46999998093E+01 0.  1.
</event>
<event>
 5   0  0.6729577E-07  0.3557303E+04  0.7818609E-02  0.8100343E-01
        2   -1    0    0  501    0  0.00000000000E+00  0.00000000000E+00  0.15893654715E+04  0.15893654715E+04  0.25500000920E-02 0. -1.
       -2   -1    0    0    0  501  0.00000000000E+00  0.00000000000E+00 -0.19904808209E+04  0.19904808209E+04  0.25500000920E-02 0.  1.
    10030    2    1    2    0    0  0.00000000000E+00  0.00000000000E+00 -0.40111534939E+03  0.35798462924E+04  0.35573031855E+04 0.  0.
        3    1    3    3  502    0  0.11960403080E+04  0.13120334638E+04 -0.91904717619E+02  0.17777487775E+04  0.10100000352E+00 0.  1.
       -3    1    3    3    0  502 -0.11960403080E+04 -0.13120334638E+04 -0.30921063177E+03  0.18020975150E+04  0.10100000352E+00 0. -1.
</event>
<event>
 5   0  0.2086250E-07  0.3572868E+04  0.7818609E-02  0.8096735E-01
        1   -1    0    0  501    0  0.00000000000E+00  0.00000000000E+00  0.20310072615E+04  0.20310072615E+04  0.50400001928E-02 0.  1.
       -1   -1    0    0    0  501  0.00000000000E+00  0.00000000000E+00 -0.15713117449E+04  0.15713117449E+04  0.50400001928E-02 0. -1.
    10030    2    1    2    0    0  0.00000000000E+00  0.00000000000E+00  0.45969551655E+03  0.36023190064E+04  0.35728675116E+04 0.  0.
        2    1    3    3  502    0  0.49829099572E+02 -0.13068254731E+04 -0.99717614109E+03  0.16445777612E+04  0.25500000920E-02 0. -1.
       -2    1    3    3    0  502 -0.49829099572E+02  0.13068254731E+04  0.14568716576E+04  0.19577412452E+04  0.25500000920E-02 0.  1.
</event>
<event>
 5   0  0.6324216E-07  0.3633567E+04  0.7818609E-02  0.8082846E-01
        2   -1    0    0  501    0  0.00000000000E+00  0.00000000000E+00  0.12838772008E+04  0.12838772008E+04  0.25500000920E-02 0. -1.
       -2   -1    0    0    0  501  0.00000000000E+00  0.00000000000E+00 -0.25708857373E+04  0.25708857373E+04  0.25500000920E-02 0.  1.
    10030    2    1    2    0    0  0.00000000000E+00  0.00000000000E+00 -0.12870085365E+04  0.38547629380E+04  0.36335666136E+04 0.  0.
        2    1    3    3  502    0 -0.10069889644E+04  0.13675964925E+04  0.41031671246E+02  0.16988321102E+04  0.25500000920E-02 0. -1.
       -2    1    3    3    0  502  0.10069889644E+04 -0.13675964925E+04 -0.13280402077E+04  0.21559308278E+04  0.25500000920E-02 0.  1.
</event>
<event>
 5   0  0.2086250E-07  0.3641180E+04  0.7818609E-02  0.8081124E-01
       -1   -1    0    0    0  501  0.00000000000E+00  0.00000000000E+00  0.13774471244E+04  0.13774471244E+04  0.50400001928E-02 0. -1.
        1   -1    0    0  501    0  0.00000000000E+00  0.00000000000E+00 -0.24062976378E+04  0.24062976378E+04  0.50400001928E-02 0.  1.
    10030    2    1    2    0    0  0.00000000000E+00  0.00000000000E+00 -0.10288505134E+04  0.37837447622E+04  0.36411798976E+04 0.  0.
        4    1    3    3  502    0  0.17186388325E+04  0.45039581626E+03 -0.10140871429E+03  0.17795676913E+04  0.12699999809E+01 0. -1.
       -4    1    3    3    0  502 -0.17186388325E+04 -0.45039581626E+03 -0.92744179908E+03  0.20041770708E+04  0.12699999809E+01 0.  1.
</event>
<event>
 5   0  0.2086250E-07  0.3640139E+04  0.7818609E-02  0.8081359E-01
        1   -1    0    0  501    0  0.00000000000E+00  0.00000000000E+00  0.15734029000E+04  0.15734029000E+04  0.50400001928E-02 0. -1.
       -1   -1    0    0    0  501  0.00000000000E+00  0.00000000000E+00 -0.21054070341E+04  0.21054070341E+04  0.50400001928E-02 0.  1.
    10030    2    1    2    0    0  0.00000000000E+00  0.00000000000E+00 -0.53200413418E+03  0.36788099341E+04  0.36401393013E+04 0.  0.
        3    1    3    3  502    0 -0.15001874369E+04  0.72644877356E+03 -0.10047693968E+04  0.19462404059E+04  0.10100000352E+00 0.  1.
       -3    1    3    3    0  502  0.15001874369E+04 -0.72644877356E+03  0.47276526262E+03  0.17325695283E+04  0.10100000352E+00 0. -1.
</event>
<event>
 5   0  0.6848661E-07  0.3599767E+04  0.7818609E-02  0.8090545E-01
        2   -1    0    0  501    0  0.00000000000E+00  0.00000000000E+00  0.32296830270E+04  0.32296830270E+04  0.25500000920E-02 0. -1.
       -2   -1    0    0    0  501  0.00000000000E+00  0.00000000000E+00 -0.10030647292E+04  0.10030647292E+04  0.25500000920E-02 0.  1.
    10030    2    1    2    0    0  0.00000000000E+00  0.00000000000E+00  0.22266182979E+04  0.42327477562E+04  0.35997672874E+04 0.  0.
        1    1    3    3  502    0 -0.11456249751E+04 -0.77103437132E+03 -0.24407522062E+03  0.14023278143E+04  0.50400001928E-02 0.  1.
       -1    1    3    3    0  502  0.11456249751E+04  0.77103437132E+03  0.24706935185E+04  0.28304199419E+04  0.50400001928E-02 0. -1.
</event>
<event>
 5   0  0.2086250E-07  0.3610105E+04  0.7818609E-02  0.8088181E-01
        1   -1    0    0  501    0  0.00000000000E+00  0.00000000000E+00  0.18357635116E+04  0.18357635116E+04  0.50400001928E-02 0. -1.
       -1   -1    0    0    0  501  0.00000000000E+00  0.00000000000E+00 -0.17748554289E+04  0.17748554289E+04  0.50400001928E-02 0.  1.
    10030    2    1    2    0    0  0.00000000000E+00  0.00000000000E+00  0.60908082728E+02  0.36106189406E+04  0.36101051701E+04 0.  0.
        2    1    3    3  502    0  0.15217590409E+03 -0.10133080027E+04 -0.14557803956E+04  0.17802379544E+04  0.25500000920E-02 0.  1.
       -2    1    3    3    0  502 -0.15217590409E+03  0.10133080027E+04  0.15166884783E+04  0.18303809861E+04  0.25500000920E-02 0. -1.
</event>
<event>
 5   0  0.6848661E-07  0.3587000E+04  0.7818609E-02  0.8093476E-01
        2   -1    0    0  501    0  0.00000000000E+00  0.00000000000E+00  0.22610076972E+04  0.22610076972E+04  0.25500000920E-02 0. -1.
       -2   -1    0    0    0  501  0.00000000000E+00  0.00000000000E+00 -0.14226588575E+04  0.14226588575E+04  0.25500000920E-02 0.  1.
    10030    2    1    2    0    0  0.00000000000E+00  0.00000000000E+00  0.83834883967E+03  0.36836665547E+04  0.35870002104E+04 0.  0.
        1    1    3    3  502    0 -0.56622882282E+03 -0.13590728685E+03 -0.13228765515E+04  0.14453678566E+04  0.50400001928E-02 0.  1.
       -1    1    3    3    0  502  0.56622882282E+03  0.13590728685E+03  0.21612253912E+04  0.22382986981E+04  0.50400001928E-02 0. -1.
</event>
<event>
 5   0  0.6729577E-07  0.3600885E+04  0.7818609E-02  0.8090289E-01
       -2   -1    0    0    0  501  0.00000000000E+00  0.00000000000E+00  0.15749071089E+04  0.15749071089E+04  0.25500000920E-02 0.  1.
        2   -1    0    0  501    0  0.00000000000E+00  0.00000000000E+00 -0.20582758020E+04  0.20582758020E+04  0.25500000920E-02 0. -1.
    10030    2    1    2    0    0  0.00000000000E+00  0.00000000000E+00 -0.48336869303E+03  0.36331829109E+04  0.36008849982E+04 0.  0.
        3    1    3    3  502    0 -0.84411500903E+03  0.51049626897E+03  0.12779645114E+04  0.16144131726E+04  0.10100000352E+00 0.  1.
       -3    1    3    3    0  502  0.84411500903E+03 -0.51049626897E+03 -0.17613332044E+04  0.20187697383E+04  0.10100000352E+00 0. -1.
</event>
<event>
 5   0  0.2086250E-07  0.3669284E+04  0.7818609E-02  0.8074803E-01
       -1   -1    0    0    0  501  0.00000000000E+00  0.00000000000E+00  0.12225401559E+04  0.12225401559E+04  0.50400001928E-02 0. -1.
        1   -1    0    0  501    0  0.00000000000E+00  0.00000000000E+00 -0.27532106973E+04  0.27532106973E+04  0.50400001928E-02 0.  1.
    10030    2    1    2    0    0  0.00000000000E+00  0.00000000000E+00 -0.15306705413E+04  0.39757508532E+04  0.36692836550E+04 0.  0.
        3    1    3    3  502    0  0.17778203474E+04 -0.30557587753E+03 -0.40289935976E+03  0.18483370117E+04  0.10100000352E+00 0. -1.
       -3    1    3    3    0  502 -0.17778203474E+04  0.30557587753E+03 -0.11277711816E+04  0.21274138415E+04  0.10100000352E+00 0.  1.
</event>
<event>
 5   0  0.2193129E-07  0.3595774E+04  0.7818609E-02  0.8091460E-01
       -1   -1    0    0    0  501  0.00000000000E+00  0.00000000000E+00  0.14910626181E+04  0.14910626182E+04  0.50400001928E-02 0.  1.
        1   -1    0    0  501    0  0.00000000000E+00  0.00000000000E+00 -0.21678480146E+04  0.21678480147E+04  0.50400001928E-02 0. -1.
    10030    2    1    2    0    0  0.00000000000E+00  0.00000000000E+00 -0.67678539650E+03  0.36589106328E+04  0.35957737062E+04 0.  0.
        1    1    3    3  502    0 -0.72472667341E+03 -0.14039231160E+04  0.53467515402E+03  0.16679647440E+04  0.50400001928E-02 0. -1.
       -1    1    3    3    0  502  0.72472667341E+03  0.14039231160E+04 -0.12114605505E+04  0.19909458888E+04  0.50400001928E-02 0.  1.
</event>
<event>
 5   0  0.6848661E-07  0.3595424E+04  0.7818609E-02  0.8091541E-01
        2   -1    0    0  501    0  0.00000000000E+00  0.00000000000E+00  0.13143125501E+04  0.13143125501E+04  0.25500000920E-02 0. -1.
       -2   -1    0    0    0  501  0.00000000000E+00  0.00000000000E+00 -0.24589042672E+04  0.24589042672E+04  0.25500000920E-02 0.  1.
    10030    2    1    2    0    0  0.00000000000E+00  0.00000000000E+00 -0.11445917171E+04  0.37732168172E+04  0.35954241685E+04 0.  0.
        1    1    3    3  502    0  0.47639023407E+03  0.11285494928E+02 -0.23914174670E+04  0.24384323896E+04  0.50400001928E-02 0.  1.
       -1    1    3    3    0  502 -0.47639023407E+03 -0.11285494928E+02  0.12468257499E+04  0.13347844276E+04  0.50400001928E-02 0. -1.
</event>
<event>
 5   0  0.2086250E-07  0.3607121E+04  0.7818609E-02  0.8088862E-01
        1   -1    0    0  501    0  0.00000000000E+00  0.00000000000E+00  0.20719115381E+04  0.20719115382E+04  0.50400001928E-02 0.  1.
       -1   -1    0    0    0  501  0.00000000000E+00  0.00000000000E+00 -0.15699660496E+04  0.15699660496E+04  0.50400001928E-02 0. -1.
    10030    2    1    2    0    0  0.00000000000E+00  0.00000000000E+00  0.50194548854E+03  0.36418775878E+04  0.36071211639E+04 0.  0.
        2    1    3    3  502    0 -0.74892473384E+03 -0.15841475260E+04 -0.18024815934E+03  0.17615053336E+04  0.25500000920E-02 0. -1.
       -2    1    3    3    0  502  0.74892473384E+03  0.15841475260E+04  0.68219364789E+03  0.18803722542E+04  0.25500000920E-02 0.  1.
</event>
<event>
 5   0  0.2193129E-07  0.3576440E+04  0.7818609E-02  0.8095910E-01
       -1   -1    0    0    0  501  0.00000000000E+00  0.00000000000E+00  0.18407257010E+04  0.18407257010E+04  0.50400001928E-02 0. -1.
        1   -1    0    0  501    0  0.00000000000E+00  0.00000000000E+00 -0.17372121328E+04  0.17372121328E+04  0.50400001928E-02 0.  1.
    10030    2    1    2    0    0  0.00000000000E+00  0.00000000000E+00  0.10351356819E+03  0.35779378338E+04  0.35764401412E+04 0.  0.
        1    1    3    3  502    0 -0.14139487848E+04  0.10944788425E+04  0.27335126356E+02  0.17882623722E+04  0.50400001928E-02 0.  1.
       -1    1    3    3    0  502  0.14139487848E+04 -0.10944788425E+04  0.76178441834E+02  0.17896754616E+04  0.50400001928E-02 0. -1.
</event>
<event>
 5   0  0.6729577E-07  0.3588813E+04  0.7818609E-02  0.8093059E-01
       -2   -1    0    0    0  501  0.00000000000E+00  0.00000000000E+00  0.13473530227E+04  0.13473530227E+04  0.25500000920E-02 0. -1.
        2   -1    0    0  501    0  0.00000000000E+00  0.00000000000E+00 -0.23897932625E+04  0.23897932625E+04  0.25500000920E-02 0.  1.
    10030    2    1    2    0    0  0.00000000000E+00  0.00000000000E+00 -0.10424402398E+04  0.37371462852E+04  0.35888132723E+04 0.  0.
        3    1    3    3  502    0 -0.10801819180E+04  0.82890928956E+03 -0.17382925539E+04  0.22080635407E+04  0.10100000352E+00 0.  1.
       -3    1    3    3    0  502  0.10801819180E+04 -0.82890928956E+03  0.69585231409E+03  0.15290827445E+04  0.10100000352E+00 0. -1.
</event>
<event>
 5   0  0.2086250E-07  0.3581682E+04  0.7818609E-02  0.8094701E-01
       -1   -1    0    0    0  501  0.00000000000E+00  0.00000000000E+00  0.13326424071E+04  0.13326424072E+04  0.50400001928E-02 0.  1.
        1   -1    0    0  501    0  0.00000000000E+00  0.00000000000E+00 -0.24065800869E+04  0.24065800869E+04  0.50400001928E-02 0. -1.
    10030    2    1    2    0    0  0.00000000000E+00  0.00000000000E+00 -0.10739376797E+04  0.37392224940E+04  0.35816815492E+04 0.  0.
        4    1    3    3  502    0  0.53577002717E+03 -0.15144173888E+04 -0.13633670464E+04  0.21069601006E+04  0.12699999809E+01 0. -1.
       -4    1    3    3    0  502 -0.53577002717E+03  0.15144173888E+04  0.28942936670E+03  0.16322623934E+04  0.12699999809E+01 0.  1.
</event>
<event>
 5   0  0.2193129E-07  0.3552858E+04  0.7818609E-02  0.8101376E-01
        1   -1    0    0  501    0  0.00000000000E+00  0.00000000000E+00  0.27727081390E+04  0.27727081391E+04  0.50400001928E-02 0. -1.
       -1   -1    0    0    0  501  0.00000000000E+00  0.00000000000E+00 -0.11381290074E+04  0.11381290074E+04  0.50400001928E-02 0.  1.
    10030    2    1    2    0    0  0.00000000000E+00  0.00000000000E+00  0.16345791316E+04  0.39108371465E+04  0.35528577580E+04 0.  0.
        1    1    3    3  502    0  0.34655014671E+03 -0.10111202148E+04  0.23791402830E+04  0.26082119506E+04  0.50400001928E-02 0. -1.
       -1    1    3    3    0  502 -0.34655014671E+03  0.10111202148E+04 -0.74456115136E+03  0.13026251959E+04  0.50400001928E-02 0.  1.
</event>
<event>
 5   0  0.2193129E-07  0.3593376E+04  0.7818609E-02  0.8092011E-01
       -1   -1    0    0    0  501  0.00000000000E+00  0.00000000000E+00  0.26320931801E+04  0.26320931801E+04  0.50400001928E-02 0.  1.
        1   -1    0    0  501    0  0.00000000000E+00  0.00000000000E+00 -0.12264334182E+04  0.12264334182E+04  0.50400001928E-02 0. -1.
    10030    2    1    2    0    0  0.00000000000E+00  0.00000000000E+00  0.14056597620E+04  0.38585265983E+04  0.35933755917E+04 0.  0.
        1    1    3    3  502    0 -0.14531055910E+04 -0.44529882884E+02  0.18364723788E+04  0.23422488269E+04  0.50400001928E-02 0.  1.
       -1    1    3    3    0  502  0.14531055910E+04  0.44529882884E+02 -0.43081261687E+03  0.15162777714E+04  0.50400001928E-02 0. -1.
</event>
<event>
 5   0  0.6324216E-07  0.3583684E+04  0.7818609E-02  0.8094239E-01
       -2   -1    0    0    0  501  0.00000000000E+00  0.00000000000E+00  0.16406700619E+04  0.16406700619E+04  0.25500000920E-02 0.  1.
        2   -1    0    0  501    0  0.00000000000E+00  0.00000000000E+00 -0.19569434501E+04  0.19569434501E+04  0.25500000920E-02 0. -1.
    10030    2    1    2    0    0  0.00000000000E+00  0.00000000000E+00 -0.31627338817E+03  0.35976135120E+04  0.35836844344E+04 0.  0.
        2    1    3    3  502    0 -0.25208194219E+02 -0.15022884194E+04  0.82197387526E+03  0.17126432786E+04  0.25500000920E-02 0. -1.
       -2    1    3    3    0  502  0.25208194219E+02  0.15022884194E+04 -0.11382472634E+04  0.18849702334E+04  0.25500000920E-02 0.  1.
</event>
<event>
 5   0  0.6541476E-07  0.3403666E+04  0.7818609E-02  0.8137007E-01
        2   -1    0    0  501    0  0.00000000000E+00  0.00000000000E+00  0.18199828849E+04  0.18199828849E+04  0.25500000920E-02 0. -1.
       -2   -1    0    0    0  501  0.00000000000E+00  0.00000000000E+00 -0.15913530748E+04  0.15913530748E+04  0.25500000920E-02 0.  1.
    10030    2    1    2    0    0  0.00000000000E+00  0.00000000000E+00  0.22862981014E+03  0.34113359597E+04  0.34036658825E+04 0.  0.
        4    1    3    3  502    0 -0.10940489843E+04  0.12216324604E+04  0.57020772003E+03  0.17362221935E+04  0.12699999809E+01 0. -1.
       -4    1    3    3    0  502  0.10940489843E+04 -0.12216324604E+04 -0.34157790988E+03  0.16751137662E+04  0.12699999809E+01 0.  1.
</event>
<event>
 5   0  0.6729577E-07  0.3632796E+04  0.7818609E-02  0.8083020E-01
        2   -1    0    0  501    0  0.00000000000E+00  0.00000000000E+00  0.20902285864E+04  0.20902285864E+04  0.25500000920E-02 0.  1.
       -2   -1    0    0    0  501  0.00000000000E+00  0.00000000000E+00 -0.15784409452E+04  0.15784409452E+04  0.25500000920E-02 0. -1.
    10030    2    1    2    0    0  0.00000000000E+00  0.00000000000E+00  0.51178764123E+03  0.36686695315E+04  0.36327963805E+04 0.  0.
        3    1    3    3  502    0 -0.12393037165E+04 -0.78509156028E+03  0.13374786533E+04  0.19852182797E+04  0.10100000352E+00 0.  1.
       -3    1    3    3    0  502  0.12393037165E+04  0.78509156028E+03 -0.82569101204E+03  0.16834512519E+04  0.10100000352E+00 0. -1.
</event>
<event>
 5   0  0.2086250E-07  0.3545260E+04  0.7818609E-02  0.8103147E-01
        1   -1    0    0  501    0  0.00000000000E+00  0.00000000000E+00  0.25735489263E+04  0.25735489263E+04  0.50400001928E-02 0. -1.
       -1   -1    0    0    0  501  0.00000000000E+00  0.00000000000E+00 -0.12209667075E+04  0.12209667075E+04  0.50400001928E-02 0.  1.
    10030    2    1    2    0    0  0.00000000000E+00  0.00000000000E+00  0.13525822188E+04  0.37945156338E+04  0.35452602494E+04 0.  0.
        3    1    3    3  502    0 -0.95269484680E+03  0.92478639464E+03 -0.58074302484E+03  0.14491790151E+04  0.10100000352E+00 0.  1.
       -3    1    3    3    0  502  0.95269484680E+03 -0.92478639464E+03  0.19333252436E+04  0.23453366186E+04  0.10100000352E+00 0. -1.
</event>
<event>
 5   0  0.6669864E-07  0.3641432E+04  0.7818609E-02  0.8081067E-01
       -2   -1    0    0    0  501  0.00000000000E+00  0.00000000000E+00  0.15961969930E+04  0.15961969930E+04  0.25500000920E-02 0.  1.
        2   -1    0    0  501    0  0.00000000000E+00  0.00000000000E+00 -0.20768151610E+04  0.20768151610E+04  0.25500000920E-02 0. -1.
    10030    2    1    2    0    0  0.00000000000E+00  0.00000000000E+00 -0.48061816797E+03  0.36730121540E+04  0.36414316498E+04 0.  0.
        5    1    3    3  502    0 -0.82845796321E+03  0.13452068254E+04  0.67255909375E+03  0.17170561507E+04  0.46999998093E+01 0.  1.
       -5    1    3    3    0  502  0.82845796321E+03 -0.13452068254E+04 -0.11531772617E+04  0.19559560033E+04  0.46999998093E+01 0. -1.
</event>
<event>
 5   0  0.6324216E-07  0.3588648E+04  0.7818609E-02  0.8093097E-01
        2   -1    0    0  501    0  0.00000000000E+00  0.00000000000E+00  0.16653446586E+04  0.16653446586E+04  0.25500000920E-02 0.  1.
       -2   -1    0    0    0  501  0.00000000000E+00  0.00000000000E+00 -0.19332922687E+04  0.19332922687E+04  0.25500000920E-02 0. -1.
    10030    2    1    2    0    0  0.00000000000E+00  0.00000000000E+00 -0.26794761017E+03  0.35986369273E+04  0.35886476300E+04 0.  0.
        2    1    3    3  502    0  0.37590029088E+03  0.12318662440E+04 -0.13867722008E+04  0.18925994317E+04  0.25500000920E-02 0. -1.
       -2    1    3    3    0  502 -0.37590029088E+03 -0.12318662440E+04  0.11188245906E+04  0.17060374956E+04  0.25500000920E-02 0.  1.
</event>
<event>
 5   0  0.2086250E-07  0.3561122E+04  0.7818609E-02  0.8099456E-01
       -1   -1    0    0    0  501  0.00000000000E+00  0.00000000000E+00  0.24079550284E+04  0.24079550284E+04  0.50400001928E-02 0. -1.
        1   -1    0    0  501    0  0.00000000000E+00  0.00000000000E+00 -0.13166349263E+04  0.13166349263E+04  0.50400001928E-02 0.  1.
    10030    2    1    2    0    0  0.00000000000E+00  0.00000000000E+00  0.10913201021E+04  0.37245899547E+04  0.35611221217E+04 0.  0.
        3    1    3    3  502    0  0.28228098529E+02 -0.17628332833E+04  0.28519087926E+03  0.17859764439E+04  0.10100000352E+00 0. -1.
       -3    1    3    3    0  502 -0.28228098529E+02  0.17628332833E+04  0.80612922279E+03  0.19386135108E+04  0.10100000352E+00 0.  1.
</event>
<event>
 5   0  0.6669864E-07  0.3608378E+04  0.7818609E-02  0.8088575E-01
       -2   -1    0    0    0  501  0.00000000000E+00  0.00000000000E+00  0.12667416180E+04  0.12667416180E+04  0.25500000920E-02 0.  1.
        2   -1    0    0  501    0  0.00000000000E+00  0.00000000000E+00 -0.25696625382E+04  0.25696625382E+04  0.25500000920E-02 0. -1.
    10030    2    1    2    0    0  0.00000000000E+00  0.00000000000E+00 -0.13029209202E+04  0.38364041562E+04  0.36083782957E+04 0.  0.
        5    1    3    3  502    0  0.13704067406E+04  0.44213929564E+02 -0.18982137394E+04  0.23416248625E+04  0.46999998093E+01 0. -1.
       -5    1    3    3    0  502 -0.13704067406E+04 -0.44213929564E+02  0.59529281921E+03  0.14947792937E+04  0.46999998093E+01 0.  1.
</event>
<event>
 5   0  0.2086250E-07  0.3623335E+04  0.7818609E-02  0.8085167E-01
       -3   -1    0    0    0  501  0.00000000000E+00  0.00000000000E+00  0.26538026417E+04  0.26538026436E+04  0.10100000352E+00 0. -1.
        3   -1    0    0  501    0  0.00000000000E+00  0.00000000000E+00 -0.12367682097E+04  0.12367682139E+04  0.10100000352E+00 0.  1.
    10030    2    1    2    0    0  0.00000000000E+00  0.00000000000E+00  0.14170344320E+04  0.38905708575E+04  0.36233347921E+04 0.  0.
        5    1    3    3  502    0 -0.48804733628E+03  0.47185919638E+03  0.25120647920E+04  0.26021784937E+04  0.46999998093E+01 0. -1.
       -5    1    3    3    0  502  0.48804733628E+03 -0.47185919638E+03 -0.10950303600E+04  0.12883923638E+04  0.46999998093E+01 0.  1.
</event>
<event>
 5   0  0.6669864E-07  0.3593483E+04  0.7818609E-02  0.8091986E-01
       -2   -1    0    0    0  501  0.00000000000E+00  0.00000000000E+00  0.18351926150E+04  0.18351926150E+04  0.25500000920E-02 0.  1.
        2   -1    0    0  501    0  0.00000000000E+00  0.00000000000E+00 -0.17590961814E+04  0.17590961814E+04  0.25500000920E-02 0. -1.
    10030    2    1    2    0    0  0.00000000000E+00  0.00000000000E+00  0.76096433591E+02  0.35942887964E+04  0.35934831689E+04 0.  0.
        5    1    3    3  502    0 -0.24307295263E+01 -0.39479417137E+03 -0.17151681548E+04  0.17600262030E+04  0.46999998093E+01 0. -1.
       -5    1    3    3    0  502  0.24307295263E+01  0.39479417137E+03  0.17912645883E+04  0.18342625934E+04  0.46999998093E+01 0.  1.
</event>
<event>
 5   0  0.6848661E-07  0.3598657E+04  0.7818609E-02  0.8090799E-01
       -2   -1    0    0    0  501  0.00000000000E+00  0.00000000000E+00  0.17018326882E+04  0.17018326882E+04  0.25500000920E-02 0.  1.
        2   -1    0    0  501    0  0.00000000000E+00  0.00000000000E+00 -0.19024094877E+04  0.19024094877E+04  0.25500000920E-02 0. -1.
    10030    2    1    2    0    0  0.00000000000E+00  0.00000000000E+00 -0.20057679951E+03  0.36042421759E+04  0.35986567786E+04 0.  0.
        1    1    3    3  502    0  0.92514840655E+03 -0.10320739565E+04 -0.12494603801E+04  0.18660727390E+04  0.50400001928E-02 0. -1.
       -1    1    3    3    0  502 -0.92514840655E+03  0.10320739565E+04  0.10488835805E+04  0.17381694369E+04  0.50400001928E-02 0.  1.
</event>
<event>
 5   0  0.6541476E-07  0.3619701E+04  0.7818609E-02  0.8085994E-01
       -2   -1    0    0    0  501  0.00000000000E+00  0.00000000000E+00  0.16728663248E+04  0.16728663248E+04  0.25500000920E-02 0. -1.
        2   -1    0    0  501    0  0.00000000000E+00  0.00000000000E+00 -0.19580519880E+04  0.19580519880E+04  0.25500000920E-02 0.  1.
    10030    2    1    2    0    0  0.00000000000E+00  0.00000000000E+00 -0.28518566315E+03  0.36309183128E+04  0.36197012213E+04 0.  0.
        4    1    3    3  502    0  0.47613444809E+02  0.39522476897E+03 -0.19135916973E+04  0.19545599134E+04  0.12699999809E+01 0.  1.
       -4    1    3    3    0  502 -0.47613444809E+02 -0.39522476897E+03  0.16284060342E+04  0.16763583994E+04  0.12699999809E+01 0. -1.
</event>
<event>
 5   0  0.2086250E-07  0.3586347E+04  0.7818609E-02  0.8093626E-01
        1   -1    0    0  501    0  0.00000000000E+00  0.00000000000E+00  0.12141693251E+04  0.12141693251E+04  0.50400001928E-02 0. -1.
       -1   -1    0    0    0  501  0.00000000000E+00  0.00000000000E+00 -0.26482886399E+04  0.26482886399E+04  0.50400001928E-02 0.  1.
    10030    2    1    2    0    0  0.00000000000E+00  0.00000000000E+00 -0.14341193148E+04  0.38624579649E+04  0.35863467933E+04 0.  0.
        3    1    3    3  502    0  0.13008040528E+04  0.49297295351E+03 -0.19357042756E+04  0.23837081553E+04  0.10100000352E+00 0.  1.
       -3    1    3    3    0  502 -0.13008040528E+04 -0.49297295351E+03  0.50158496077E+03  0.14787498097E+04  0.10100000352E+00 0. -1.
</event>
<event>
 5   0  0.2086250E-07  0.3598861E+04  0.7818609E-02  0.8090753E-01
       -1   -1    0    0    0  501  0.00000000000E+00  0.00000000000E+00  0.16121679593E+04  0.16121679593E+04  0.50400001928E-02 0. -1.
        1   -1    0    0  501    0  0.00000000000E+00  0.00000000000E+00 -0.20084443085E+04  0.20084443085E+04  0.50400001928E-02 0.  1.
    10030    2    1    2    0    0  0.00000000000E+00  0.00000000000E+00 -0.39627634923E+03  0.36206122678E+04  0.35988606876E+04 0.  0.
        4    1    3    3  502    0 -0.35933092156E+03 -0.14805300544E+04  0.76517720810E+03  0.17048711757E+04  0.12699999809E+01 0. -1.
       -4    1    3    3    0  502  0.35933092156E+03  0.14805300544E+04 -0.11614535573E+04  0.19157410921E+04  0.12699999809E+01 0.  1.
</event>
<event>
 5   0  0.6848661E-07  0.3529610E+04  0.7818609E-02  0.8106808E-01
        2   -1    0    0  501    0  0.00000000000E+00  0.00000000000E+00  0.22524635171E+04  0.22524635171E+04  0.25500000920E-02 0. -1.
       -2   -1    0    0    0  501  0.00000000000E+00  0.00000000000E+00 -0.13827248981E+04  0.13827248981E+04  0.25500000920E-02 0.  1.
    10030    2    1    2    0    0  0.00000000000E+00  0.00000000000E+00  0.86973861908E+03  0.36351884152E+04  0.35296103961E+04 0.  0.
        1    1    3    3  502    0  0.68102696519E+02  0.66867784618E+03  0.21154792587E+04  0.22196892875E+04  0.50400001928E-02 0. -1.
       -1    1    3    3    0  502 -0.68102696519E+02 -0.66867784618E+03 -0.12457406396E+04  0.14154991277E+04  0.50400001928E-02 0.  1.
</event>
<event>
 5   0  0.2193129E-07  0.3549759E+04  0.7818609E-02  0.8102098E-01
        1   -1    0    0  501    0  0.00000000000E+00  0.00000000000E+00  0.20010868463E+04  0.20010868463E+04  0.50400001928E-02 0.  1.
       -1   -1    0    0    0  501  0.00000000000E+00  0.00000000000E+00 -0.15742430699E+04  0.15742430699E+04  0.50400001928E-02 0. -1.
    10030    2    1    2    0    0  0.00000000000E+00  0.00000000000E+00  0.42684377640E+03  0.35753299163E+04  0.35497589215E+04 0.  0.
        1    1    3    3  502    0  0.81236244877E+03 -0.46749510195E+03 -0.13046556860E+04  0.16064279871E+04  0.50400001928E-02 0. -1.
       -1    1    3    3    0  502 -0.81236244877E+03  0.46749510195E+03  0.17314994624E+04  0.19689019292E+04  0.50400001928E-02 0.  1.
</event>
<event>
 5   0  0.6541476E-07  0.3412375E+04  0.7818609E-02  0.8134876E-01
        2   -1    0    0  501    0  0.00000000000E+00  0.00000000000E+00  0.13675723896E+04  0.13675723896E+04  0.25500000920E-02 0.  1.
       -2   -1    0    0    0  501  0.00000000000E+00  0.00000000000E+00 -0.21286451272E+04  0.21286451272E+04  0.25500000920E-02 0. -1.
    10030    2    1    2    0    0  0.00000000000E+00  0.00000000000E+00 -0.76107273759E+03  0.34962175168E+04  0.34123753037E+04 0.  0.
        4    1    3    3  502    0 -0.41033203726E+03  0.12385087266E+04 -0.15070036976E+04  0.19933233567E+04  0.12699999809E+01 0. -1.
       -4    1    3    3    0  502  0.41033203726E+03 -0.12385087266E+04  0.74593096004E+03  0.15028941602E+04  0.12699999809E+01 0.  1.
</event>
<event>
 5   0  0.6669864E-07  0.3627904E+04  0.7818609E-02  0.8084130E-01
        2   -1    0    0  501    0  0.00000000000E+00  0.00000000000E+00  0.23622737172E+04  0.23622737172E+04  0.25500000920E-02 0. -1.
       -2   -1    0    0    0  501  0.00000000000E+00  0.00000000000E+00 -0.13929046100E+04  0.13929046100E+04  0.25500000920E-02 0.  1.
    10030    2    1    2    0    0  0.00000000000E+00  0.00000000000E+00  0.96936910726E+03  0.37551783272E+04  0.36279040510E+04 0.  0.
        5    1    3    3  502    0  0.92188931336E+03  0.12938603686E+04 -0.42149728988E+03  0.16436656031E+04  0.46999998093E+01 0. -1.
       -5    1    3    3    0  502 -0.92188931336E+03 -0.12938603686E+04  0.13908663971E+04  0.21115127241E+04  0.46999998093E+01 0.  1.
</event>
<event>
 5   0  0.6669864E-07  0.3543224E+04  0.7818609E-02  0.8103622E-01
        2   -1    0    0  501    0  0.00000000000E+00  0.00000000000E+00  0.25620260479E+04  0.25620260479E+04  0.25500000920E-02 0. -1.
       -2   -1    0    0    0  501  0.00000000000E+00  0.00000000000E+00 -0.12250497069E+04  0.12250497069E+04  0.25500000920E-02 0.  1.
    10030    2    1    2    0    0  0.00000000000E+00  0.00000000000E+00  0.13369763411E+04  0.37870757548E+04  0.35432241019E+04 0.  0.
        5    1    3    3  502    0 -0.29700761475E+03 -0.13365419031E+04  0.18701546774E+04  0.23177701330E+04  0.46999998093E+01 0. -1.
       -5    1    3    3    0  502  0.29700761475E+03  0.13365419031E+04 -0.53317833627E+03  0.14693056218E+04  0.46999998093E+01 0.  1.
</event>
<event>
 5   0  0.2086250E-07  0.3592096E+04  0.7818609E-02  0.8092305E-01
        1   -1    0    0  501    0  0.00000000000E+00  0.00000000000E+00  0.23183022302E+04  0.23183022302E+04  0.50400001928E-02 0. -1.
       -1   -1    0    0    0  501  0.00000000000E+00  0.00000000000E+00 -0.13914441999E+04  0.13914441999E+04  0.50400001928E-02 0.  1.
    10030    2    1    2    0    0  0.00000000000E+00  0.00000000000E+00  0.92685803025E+03  0.37097464301E+04  0.35920958739E+04 0.  0.
        4    1    3    3  502    0 -0.14906833136E+04  0.25518929629E+03  0.14639356735E+04  0.21048438392E+04  0.12699999809E+01 0. -1.
       -4    1    3    3    0  502  0.14906833136E+04 -0.25518929629E+03 -0.53707764321E+03  0.16049025909E+04  0.12699999809E+01 0.  1.
</event>
<event>
 5   0  0.2086250E-07  0.3611389E+04  0.7818609E-02  0.8087888E-01
       -1   -1    0    0    0  501  0.00000000000E+00  0.00000000000E+00  0.15360843677E+04  0.15360843677E+04  0.50400001928E-02 0.  1.
        1   -1    0    0  501    0  0.00000000000E+00  0.00000000000E+00 -0.21226261982E+04  0.21226261982E+04  0.50400001928E-02 0. -1.
    10030    2    1    2    0    0  0.00000000000E+00  0.00000000000E+00 -0.58654183052E+03  0.36587105659E+04  0.36113891629E+04 0.  0.
        4    1    3    3  502    0 -0.28857817962E+02 -0.10315446011E+04  0.12079056862E+04  0.15886959424E+04  0.12699999809E+01 0.  1.
       -4    1    3    3    0  502  0.28857817962E+02  0.10315446011E+04 -0.17944475168E+04  0.20700146234E+04  0.12699999809E+01 0. -1.
</event>
<event>
 5   0  0.2193129E-07  0.3568338E+04  0.7818609E-02  0.8097783E-01
        1   -1    0    0  501    0  0.00000000000E+00  0.00000000000E+00  0.10637644086E+04  0.10637644086E+04  0.50400001928E-02 0.  1.
       -1   -1    0    0    0  501  0.00000000000E+00  0.00000000000E+00 -0.29924472063E+04  0.29924472063E+04  0.50400001928E-02 0. -1.
    10030    2    1    2    0    0  0.00000000000E+00  0.00000000000E+00 -0.19286827977E+04  0.40562116149E+04  0.35683378947E+04 0.  0.
        1    1    3    3  502    0  0.80992216266E+03 -0.53281905129E+02 -0.27704242607E+04  0.28868778040E+04  0.50400001928E-02 0. -1.
       -1    1    3    3    0  502 -0.80992216266E+03  0.53281905129E+02  0.84174146292E+03  0.11693338109E+04  0.50400001928E-02 0.  1.
</event>
<event>
 5   0  0.6669864E-07  0.3588200E+04  0.7818609E-02  0.8093200E-01
       -2   -1    0    0    0  501  0.00000000000E+00  0.00000000000E+00  0.11940392406E+04  0.11940392406E+04  0.25500000920E-02 0. -1.
        2   -1    0    0  501    0  0.00000000000E+00  0.00000000000E+00 -0.26957188339E+04  0.26957188339E+04  0.25500000920E-02 0.  1.
    10030    2    1    2    0    0  0.00000000000E+00  0.00000000000E+00 -0.15016795934E+04  0.38897580745E+04  0.35881995871E+04 0.  0.
        5    1    3    3  502    0 -0.69543531180E+03  0.23988603303E+03 -0.25246965945E+04  0.26296940062E+04  0.46999998093E+01 0.  1.
       -5    1    3    3    0  502  0.69543531180E+03 -0.23988603303E+03  0.10230170011E+04  0.12600640683E+04  0.46999998093E+01 0. -1.
</event>
<event>
 5   0  0.6541476E-07  0.3617359E+04  0.7818609E-02  0.8086527E-01
        2   -1    0    0  501    0  0.00000000000E+00  0.00000000000E+00  0.15060034231E+04  0.15060034231E+04  0.25500000920E-02 0. -1.
       -2   -1    0    0    0  501  0.00000000000E+00  0.00000000000E+00 -0.21721874673E+04  0.21721874673E+04  0.25500000920E-02 0.  1.
    10030    2    1    2    0    0  0.00000000000E+00  0.00000000000E+00 -0.66618404415E+03  0.36781908905E+04  0.36173591259E+04 0.  0.
        4    1    3    3  502    0 -0.55392565916E+03  0.14508747051E+04  0.60956285489E+03  0.16683643285E+04  0.12699999809E+01 0. -1.
       -4    1    3    3    0  502  0.55392565916E+03 -0.14508747051E+04 -0.12757468990E+04  0.20098265619E+04  0.12699999809E+01 0.  1.
</event>
<event>
 5   0  0.6848661E-07  0.3611734E+04  0.7818609E-02  0.8087809E-01
       -2   -1    0    0    0  501  0.00000000000E+00  0.00000000000E+00  0.13701778653E+04  0.13701778653E+04  0.25500000920E-02 0.  1.
        2   -1    0    0  501    0  0.00000000000E+00  0.00000000000E+00 -0.23800964789E+04  0.23800964789E+04  0.25500000920E-02 0. -1.
    10030    2    1    2    0    0  0.00000000000E+00  0.00000000000E+00 -0.10099186135E+04  0.37502743442E+04  0.36117339396E+04 0.  0.
        1    1    3    3  502    0  0.46916361426E+03 -0.58995098503E+03  0.11990241444E+04  0.14162681810E+04  0.50400001928E-02 0.  1.
       -1    1    3    3    0  502 -0.46916361426E+03  0.58995098503E+03 -0.22089427580E+04  0.23340061632E+04  0.50400001928E-02 0. -1.
</event>
<event>
 5   0  0.6848661E-07  0.3144274E+04  0.7818609E-02  0.8203691E-01
        2   -1    0    0  501    0  0.00000000000E+00  0.00000000000E+00  0.13962003245E+04  0.13962003245E+04  0.25500000920E-02 0.  1.
       -2   -1    0    0    0  501  0.00000000000E+00  0.00000000000E+00 -0.17702434365E+04  0.17702434365E+04  0.25500000920E-02 0. -1.
    10030    2    1    2    0    0  0.00000000000E+00  0.00000000000E+00 -0.37404311191E+03  0.31664437610E+04  0.31442738179E+04 0.  0.
        1    1    3    3  502    0  0.70122749257E+03  0.14024786900E+04 -0.30161309951E+03  0.15967582578E+04  0.50400001928E-02 0.  1.
       -1    1    3    3    0  502 -0.70122749257E+03 -0.14024786900E+04 -0.72430012403E+02  0.15696855032E+04  0.50400001928E-02 0. -1.
</event>
<event>
 5   0  0.2086250E-07  0.3577582E+04  0.7818609E-02  0.8095646E-01
        1   -1    0    0  501    0  0.00000000000E+00  0.00000000000E+00  0.12940329740E+04  0.12940329740E+04  0.50400001928E-02 0. -1.
       -1   -1    0    0    0  501  0.00000000000E+00  0.00000000000E+00 -0.24727144397E+04  0.24727144397E+04  0.50400001928E-02 0.  1.
    10030    2    1    2    0    0  0.00000000000E+00  0.00000000000E+00 -0.11786814657E+04  0.37667474137E+04  0.35775824352E+04 0.  0.
        2    1    3    3  502    0  0.13053362994E+04 -0.35978305352E+03 -0.18200915064E+04  0.22684972541E+04  0.25500000920E-02 0.  1.
       -2    1    3    3    0  502 -0.13053362994E+04  0.35978305352E+03  0.64141004069E+03  0.14982501595E+04  0.25500000920E-02 0. -1.
</event>
<event>
 5   0  0.2108068E-07  0.3678763E+04  0.7818609E-02  0.8072685E-01
       -1   -1    0    0    0  501  0.00000000000E+00  0.00000000000E+00  0.18357529272E+04  0.18357529272E+04  0.50400001928E-02 0. -1.
        1   -1    0    0  501    0  0.00000000000E+00  0.00000000000E+00 -0.18430172602E+04  0.18430172602E+04  0.50400001928E-02 0.  1.
    10030    2    1    2    0    0  0.00000000000E+00  0.00000000000E+00 -0.72643329564E+01  0.36787701874E+04  0.36787630151E+04 0.  0.
        5    1    3    3  502    0  0.21409784699E+02 -0.49759177938E+03  0.17670339533E+04  0.18358886241E+04  0.46999998093E+01 0. -1.
       -5    1    3    3    0  502 -0.21409784699E+02  0.49759177938E+03 -0.17742982863E+04  0.18428815634E+04  0.46999998093E+01 0.  1.
</event>
<event>
 5   0  0.6669864E-07  0.3596529E+04  0.7818609E-02  0.8091287E-01
        2   -1    0    0  501    0  0.00000000000E+00  0.00000000000E+00  0.18209758849E+04  0.18209758849E+04  0.25500000920E-02 0.  1.
       -2   -1    0    0    0  501  0.00000000000E+00  0.00000000000E+00 -0.17758363329E+04  0.17758363329E+04  0.25500000920E-02 0. -1.
    10030    2    1    2    0    0  0.00000000000E+00  0.00000000000E+00  0.45139551944E+02  0.35968122178E+04  0.35965289587E+04 0.  0.
        5    1    3    3  502    0  0.96962388986E+03 -0.19314513096E+03  0.15247724699E+04  0.18172585684E+04  0.46999998093E+01 0.  1.
       -5    1    3    3    0  502 -0.96962388986E+03  0.19314513096E+03 -0.14796329179E+04  0.17795536494E+04  0.46999998093E+01 0. -1.
</event>
<event>
 5   0  0.2086250E-07  0.3551807E+04  0.7818609E-02  0.8101621E-01
        1   -1    0    0  501    0  0.00000000000E+00  0.00000000000E+00  0.10828683199E+04  0.10828683199E+04  0.50400001928E-02 0. -1.
       -1   -1    0    0    0  501  0.00000000000E+00  0.00000000000E+00 -0.29124814949E+04  0.29124814949E+04  0.50400001928E-02 0.  1.
    10030    2    1    2    0    0  0.00000000000E+00  0.00000000000E+00 -0.18296131750E+04  0.39953498148E+04  0.35518073951E+04 0.  0.
        4    1    3    3  502    0  0.58551223573E+03 -0.15090598744E+04 -0.92994094613E+02  0.16213376568E+04  0.12699999809E+01 0. -1.
       -4    1    3    3    0  502 -0.58551223573E+03  0.15090598744E+04 -0.17366190804E+04  0.23740121580E+04  0.12699999809E+01 0.  1.
</event>
<event>
 5   0  0.6324216E-07  0.3647578E+04  0.7818609E-02  0.8079679E-01
       -2   -1    0    0    0  501  0.00000000000E+00  0.00000000000E+00  0.22134624048E+04  0.22134624048E+04  0.25500000920E-02 0. -1.
        2   -1    0    0  501    0  0.00000000000E+00  0.00000000000E+00 -0.15027164979E+04  0.15027164979E+04  0.25500000920E-02 0.  1.
    10030    2    1    2    0    0  0.00000000000E+00  0.00000000000E+00  0.71074590684E+03  0.37161789027E+04  0.36475780859E+04 0.  0.
        2    1    3    3  502    0  0.16864120929E+04 -0.50927070328E+03  0.83633637768E+03  0.19500771608E+04  0.25500000920E-02 0.  1.
       -2    1    3    3    0  502 -0.16864120929E+04  0.50927070328E+03 -0.12559047084E+03  0.17661017419E+04  0.25500000920E-02 0. -1.
</event>
<event>
 5   0  0.2193129E-07  0.3497094E+04  0.7818609E-02  0.8114479E-01
        1   -1    0    0  501    0  0.00000000000E+00  0.00000000000E+00  0.22459148877E+04  0.22459148877E+04  0.50400001928E-02 0. -1.
       -1   -1    0    0    0  501  0.00000000000E+00  0.00000000000E+00 -0.13613238284E+04  0.13613238284E+04  0.50400001928E-02 0.  1.
    10030    2    1    2    0    0  0.00000000000E+00  0.00000000000E+00  0.88459105937E+03  0.36072387161E+04  0.34970944815E+04 0.  0.
        1    1    3    3  502    0 -0.20404233641E+03 -0.64763711747E+03  0.21043649715E+04  0.22112030762E+04  0.50400001928E-02 0. -1.
       -1    1    3    3    0  502  0.20404233641E+03  0.64763711747E+03 -0.12197739121E+04  0.13960356399E+04  0.50400001928E-02 0.  1.
</event>
<event>
 5   0  0.6729577E-07  0.3594044E+04  0.7818609E-02  0.8091857E-01
        2   -1    0    0  501    0  0.00000000000E+00  0.00000000000E+00  0.24023204742E+04  0.24023204742E+04  0.25500000920E-02 0. -1.
       -2   -1    0    0    0  501  0.00000000000E+00  0.00000000000E+00 -0.13442369083E+04  0.13442369083E+04  0.25500000920E-02 0.  1.
    10030    2    1    2    0    0  0.00000000000E+00  0.00000000000E+00  0.10580835660E+04  0.37465573825E+04  0.35940438767E+04 0.  0.
        3    1    3    3  502    0 -0.14878845031E+04 -0.31345363363E+03  0.15274063797E+04  0.21552317123E+04  0.10100000352E+00 0. -1.
       -3    1    3    3    0  502  0.14878845031E+04  0.31345363363E+03 -0.46932281371E+03  0.15913256702E+04  0.10100000352E+00 0.  1.
</event>
<event>
 5   0  0.6669864E-07  0.3762907E+04  0.7818609E-02  0.8054162E-01
        2   -1    0    0  501    0  0.00000000000E+00  0.00000000000E+00  0.28859711412E+04  0.28859711412E+04  0.25500000920E-02 0.  1.
       -2   -1    0    0    0  501  0.00000000000E+00  0.00000000000E+00 -0.12265775924E+04  0.12265775924E+04  0.25500000920E-02 0. -1.
    10030    2    1    2    0    0  0.00000000000E+00  0.00000000000E+00  0.16593935487E+04  0.41125487336E+04  0.37629071390E+04 0.  0.
        5    1    3    3  502    0  0.15478222783E+04 -0.27781410593E+03 -0.29919327515E+03  0.16007726848E+04  0.46999998093E+01 0. -1.
       -5    1    3    3    0  502 -0.15478222783E+04  0.27781410593E+03  0.19585868239E+04  0.25117760488E+04  0.46999998093E+01 0.  1.
</event>
<event>
 5   0  0.2193129E-07  0.3300459E+04  0.7818609E-02  0.8162779E-01
        1   -1    0    0  501    0  0.00000000000E+00  0.00000000000E+00  0.23585838818E+04  0.23585838818E+04  0.50400001928E-02 0.  1.
       -1   -1    0    0    0  501  0.00000000000E+00  0.00000000000E+00 -0.11546151938E+04  0.11546151938E+04  0.50400001928E-02 0. -1.
    10030    2    1    2    0    0  0.00000000000E+00  0.00000000000E+00  0.12039686879E+04  0.35131990756E+04  0.33004586262E+04 0.  0.
        1    1    3    3  502    0 -0.40023175736E+03  0.13438581670E+04  0.15281951373E+04  0.20740107546E+04  0.50400001928E-02 0.  1.
       -1    1    3    3    0  502  0.40023175736E+03 -0.13438581670E+04 -0.32422644936E+03  0.14391883209E+04  0.50400001928E-02 0. -1.
</event>
<event>
 5   0  0.2086250E-07  0.3618892E+04  0.7818609E-02  0.8086178E-01
       -1   -1    0    0    0  501  0.00000000000E+00  0.00000000000E+00  0.10642791216E+04  0.10642791216E+04  0.50400001928E-02 0.  1.
        1   -1    0    0  501    0  0.00000000000E+00  0.00000000000E+00 -0.30763505548E+04  0.30763505548E+04  0.50400001928E-02 0. -1.
    10030    2    1    2    0    0  0.00000000000E+00  0.00000000000E+00 -0.20120714331E+04  0.41406296764E+04  0.36188924639E+04 0.  0.
        4    1    3    3  502    0 -0.54934184163E+03  0.87772224300E+03  0.69178412435E+03  0.12452869880E+04  0.12699999809E+01 0.  1.
       -4    1    3    3    0  502  0.54934184163E+03 -0.87772224300E+03 -0.27038555575E+04  0.28953426884E+04  0.12699999809E+01 0. -1.
</event>
<event>
 5   0  0.2086250E-07  0.3607706E+04  0.7818609E-02  0.8088729E-01
       -3   -1    0    0    0  501  0.00000000000E+00  0.00000000000E+00  0.16647906164E+04  0.16647906194E+04  0.10100000352E+00 0.  1.
        3   -1    0    0  501    0  0.00000000000E+00  0.00000000000E+00 -0.19545314201E+04  0.19545314227E+04  0.10100000352E+00 0. -1.
    10030    2    1    2    0    0  0.00000000000E+00  0.00000000000E+00 -0.28974080375E+03  0.36193220422E+04  0.36077059625E+04 0.  0.
        3    1    3    3  502    0  0.30286684929E+03  0.56350801542E+03  0.15471590353E+04  0.16742074849E+04  0.10100000352E+00 0.  1.
       -3    1    3    3    0  502 -0.30286684929E+03 -0.56350801542E+03 -0.18368998391E+04  0.19451145572E+04  0.10100000352E+00 0. -1.
</event>
<event>
 5   0  0.2108068E-07  0.3591911E+04  0.7818609E-02  0.8092347E-01
       -1   -1    0    0    0  501  0.00000000000E+00  0.00000000000E+00  0.20284273365E+04  0.20284273365E+04  0.50400001928E-02 0. -1.
        1   -1    0    0  501    0  0.00000000000E+00  0.00000000000E+00 -0.15901269703E+04  0.15901269703E+04  0.50400001928E-02 0.  1.
    10030    2    1    2    0    0  0.00000000000E+00  0.00000000000E+00  0.43830036627E+03  0.36185543068E+04  0.35919114772E+04 0.  0.
        5    1    3    3  502    0 -0.35386547688E+03  0.11641917295E+04  0.15498841049E+04  0.19704633941E+04  0.46999998093E+01 0.  1.
       -5    1    3    3    0  502  0.35386547688E+03 -0.11641917295E+04 -0.11115837386E+04  0.16480909128E+04  0.46999998093E+01 0. -1.
</event>
<event>
 5   0  0.6669864E-07  0.3599792E+04  0.7818609E-02  0.8090539E-01
        2   -1    0    0  501    0  0.00000000000E+00  0.00000000000E+00  0.12714897283E+04  0.12714897283E+04  0.25500000920E-02 0. -1.
       -2   -1    0    0    0  501  0.00000000000E+00  0.00000000000E+00 -0.25478981896E+04  0.25478981896E+04  0.25500000920E-02 0.  1.
    10030    2    1    2    0    0  0.00000000000E+00  0.00000000000E+00 -0.12764084614E+04  0.38193879179E+04  0.35997924256E+04 0.  0.
        5    1    3    3  502    0 -0.17410993896E+04  0.11243303646E+03 -0.11073736433E+04  0.20664865710E+04  0.46999998093E+01 0.  1.
       -5    1    3    3    0  502  0.17410993896E+04 -0.11243303646E+03 -0.16903481807E+03  0.17529013469E+04  0.46999998093E+01 0. -1.
</event>
<event>
 5   0  0.6669864E-07  0.3619528E+04  0.7818609E-02  0.8086033E-01
        2   -1    0    0  501    0  0.00000000000E+00  0.00000000000E+00  0.21027036458E+04  0.21027036458E+04  0.25500000920E-02 0. -1.
       -2   -1    0    0    0  501  0.00000000000E+00  0.00000000000E+00 -0.15576356074E+04  0.15576356074E+04  0.25500000920E-02 0.  1.
    10030    2    1    2    0    0  0.00000000000E+00  0.00000000000E+00  0.54506803844E+03  0.36603392531E+04  0.36195281849E+04 0.  0.
        5    1    3    3  502    0 -0.10377679762E+04 -0.31514665693E+03 -0.11925745963E+04  0.16119975327E+04  0.46999998093E+01 0.  1.
       -5    1    3    3    0  502  0.10377679762E+04  0.31514665693E+03  0.17376426347E+04  0.20483417204E+04  0.46999998093E+01 0. -1.
</event>
<event>
 5   0  0.6729577E-07  0.3598863E+04  0.7818609E-02  0.8090752E-01
        2   -1    0    0  501    0  0.00000000000E+00  0.00000000000E+00  0.11785038257E+04  0.11785038257E+04  0.25500000920E-02 0. -1.
       -2   -1    0    0    0  501  0.00000000000E+00  0.00000000000E+00 -0.27475130012E+04  0.27475130012E+04  0.25500000920E-02 0.  1.
    10030    2    1    2    0    0  0.00000000000E+00  0.00000000000E+00 -0.15690091755E+04  0.39260168269E+04  0.35988634779E+04 0.  0.
        3    1    3    3  502    0  0.12103039847E+04  0.90547563726E+03  0.28058527796E+03  0.15373516102E+04  0.10100000352E+00 0. -1.
       -3    1    3    3    0  502 -0.12103039847E+04 -0.90547563726E+03 -0.18495944535E+04  0.23886652167E+04  0.10100000352E+00 0.  1.
</event>
<event>
 5   0  0.6669864E-07  0.3729240E+04  0.7818609E-02  0.8061513E-01
       -2   -1    0    0    0  501  0.00000000000E+00  0.00000000000E+00  0.21861461760E+04  0.21861461760E+04  0.25500000920E-02 0.  1.
        2   -1    0    0  501    0  0.00000000000E+00  0.00000000000E+00 -0.15903820297E+04  0.15903820297E+04  0.25500000920E-02 0. -1.
    10030    2    1    2    0    0  0.00000000000E+00  0.00000000000E+00  0.59576414630E+03  0.37765282057E+04  0.37292399186E+04 0.  0.
        5    1    3    3  502    0  0.21665539735E+03  0.14866975119E+04 -0.82046581757E+03  0.17118397416E+04  0.46999998093E+01 0. -1.
       -5    1    3    3    0  502 -0.21665539735E+03 -0.14866975119E+04  0.14162299639E+04  0.20646884641E+04  0.46999998093E+01 0.  1.
</event>
<event>
 5   0  0.2086250E-07  0.3594031E+04  0.7818609E-02  0.8091860E-01
        1   -1    0    0  501    0  0.00000000000E+00  0.00000000000E+00  0.22767086687E+04  0.22767086687E+04  0.50400001928E-02 0. -1.
       -1   -1    0    0    0  501  0.00000000000E+00  0.00000000000E+00 -0.14183917909E+04  0.14183917909E+04  0.50400001928E-02 0.  1.
    10030    2    1    2    0    0  0.00000000000E+00  0.00000000000E+00  0.85831687781E+03  0.36951004597E+04  0.35940310995E+04 0.  0.
        2    1    3    3  502    0  0.10308294395E+04  0.60234410546E+03  0.18099975534E+04  0.21682986182E+04  0.25500000920E-02 0. -1.
       -2    1    3    3    0  502 -0.10308294395E+04 -0.60234410546E+03 -0.95168067556E+03  0.15268018414E+04  0.25500000920E-02 0.  1.
</event>
<event>
 5   0  0.6729577E-07  0.3582299E+04  0.7818609E-02  0.8094558E-01
        2   -1    0    0  501    0  0.00000000000E+00  0.00000000000E+00  0.21728106738E+04  0.21728106739E+04  0.25500000920E-02 0.  1.
       -2   -1    0    0    0  501  0.00000000000E+00  0.00000000000E+00 -0.14765279548E+04  0.14765279548E+04  0.25500000920E-02 0. -1.
    10030    2    1    2    0    0  0.00000000000E+00  0.00000000000E+00  0.69628271903E+03  0.36493386287E+04  0.35822985361E+04 0.  0.
        3    1    3    3  502    0  0.15306788161E+04 -0.90190305295E+02 -0.59498327550E+03  0.16447240004E+04  0.10100000352E+00 0. -1.
       -3    1    3    3    0  502 -0.15306788161E+04  0.90190305295E+02  0.12912659945E+04  0.20046146283E+04  0.10100000352E+00 0.  1.
</event>
<event>
 5   0  0.6324216E-07  0.2949387E+04  0.7818609E-02  0.8258333E-01
       -2   -1    0    0    0  501  0.00000000000E+00  0.00000000000E+00  0.75219967670E+03  0.75219967671E+03  0.25500000920E-02 0. -1.
        2   -1    0    0  501    0  0.00000000000E+00  0.00000000000E+00 -0.28911477996E+04  0.28911477996E+04  0.25500000920E-02 0.  1.
    10030    2    1    2    0    0  0.00000000000E+00  0.00000000000E+00 -0.21389481229E+04  0.36433474763E+04  0.29493866753E+04 0.  0.
        2    1    3    3  502    0  0.47044076676E+02 -0.16075293642E+03 -0.28793595449E+04  0.28842271132E+04  0.25500000920E-02 0.  1.
       -2    1    3    3    0  502 -0.47044076676E+02  0.16075293642E+03  0.74041142204E+03  0.75912036306E+03  0.25500000920E-02 0. -1.
</event>
<event>
 5   0  0.6729577E-07  0.3624443E+04  0.7818609E-02  0.8084916E-01
        2   -1    0    0  501    0  0.00000000000E+00  0.00000000000E+00  0.13844484832E+04  0.13844484832E+04  0.25500000920E-02 0.  1.
       -2   -1    0    0    0  501  0.00000000000E+00  0.00000000000E+00 -0.23721697915E+04  0.23721697915E+04  0.25500000920E-02 0. -1.
    10030    2    1    2    0    0  0.00000000000E+00  0.00000000000E+00 -0.98772130838E+03  0.37566182747E+04  0.36244430577E+04 0.  0.
        3    1    3    3  502    0 -0.58833193246E+03 -0.10755580403E+04  0.88942088354E+03  0.15146052552E+04  0.10100000352E+00 0.  1.
       -3    1    3    3    0  502  0.58833193246E+03  0.10755580403E+04 -0.18771421919E+04  0.22420130195E+04  0.10100000352E+00 0. -1.
</event>
<event>
 5   0  0.2086250E-07  0.3095916E+04  0.7818609E-02  0.8216859E-01
       -1   -1    0    0    0  501  0.00000000000E+00  0.00000000000E+00  0.24746780063E+04  0.24746780063E+04  0.50400001928E-02 0. -1.
        1   -1    0    0  501    0  0.00000000000E+00  0.00000000000E+00 -0.96827735721E+03  0.96827735722E+03  0.50400001928E-02 0.  1.
    10030    2    1    2    0    0  0.00000000000E+00  0.00000000000E+00  0.15064006491E+04  0.34429553635E+04  0.30959164588E+04 0.  0.
        2    1    3    3  502    0 -0.33739519219E+03 -0.11018694452E+03  0.24288145077E+04  0.24546112913E+04  0.25500000920E-02 0. -1.
       -2    1    3    3    0  502  0.33739519219E+03  0.11018694452E+03 -0.92241385864E+03  0.98834407221E+03  0.25500000920E-02 0.  1.
</event>
<event>
 5   0  0.6324216E-07  0.2966857E+04  0.7818609E-02  0.8253259E-01
       -2   -1    0    0    0  501  0.00000000000E+00  0.00000000000E+00  0.16740753040E+04  0.16740753040E+04  0.25500000920E-02 0. -1.
        2   -1    0    0  501    0  0.00000000000E+00  0.00000000000E+00 -0.13144926348E+04  0.13144926348E+04  0.25500000920E-02 0.  1.
    10030    2    1    2    0    0  0.00000000000E+00  0.00000000000E+00  0.35958266924E+03  0.29885679388E+04  0.29668566916E+04 0.  0.
        2    1    3    3  502    0  0.66683476673E+03  0.30244214410E+03 -0.11197736488E+04  0.13379211042E+04  0.25500000920E-02 0.  1.
       -2    1    3    3    0  502 -0.66683476673E+03 -0.30244214410E+03  0.14793563180E+04  0.16506468345E+04  0.25500000920E-02 0. -1.
</event>
<event>
 5   0  0.2086250E-07  0.3197918E+04  0.7818609E-02  0.8189367E-01
        1   -1    0    0  501    0  0.00000000000E+00  0.00000000000E+00  0.16328784480E+04  0.16328784480E+04  0.50400001928E-02 0.  1.
       -1   -1    0    0    0  501  0.00000000000E+00  0.00000000000E+00 -0.15657442961E+04  0.15657442961E+04  0.50400001928E-02 0. -1.
    10030    2    1    2    0    0  0.00000000000E+00  0.00000000000E+00  0.67134151968E+02  0.31986227441E+04  0.31979181454E+04 0.  0.
        4    1    3    3  502    0 -0.18235281866E+03  0.13620047731E+04  0.85127943551E+03  0.16164738917E+04  0.12699999809E+01 0. -1.
       -4    1    3    3    0  502  0.18235281866E+03 -0.13620047731E+04 -0.78414528354E+03  0.15821488524E+04  0.12699999809E+01 0.  1.
</event>
<event>
 5   0  0.2086250E-07  0.3626227E+04  0.7818609E-02  0.8084510E-01
        1   -1    0    0  501    0  0.00000000000E+00  0.00000000000E+00  0.19314867262E+04  0.19314867262E+04  0.50400001928E-02 0. -1.
       -1   -1    0    0    0  501  0.00000000000E+00  0.00000000000E+00 -0.17019945303E+04  0.17019945304E+04  0.50400001928E-02 0.  1.
    10030    2    1    2    0    0  0.00000000000E+00  0.00000000000E+00  0.22949219581E+03  0.36334812565E+04  0.36262266026E+04 0.  0.
        4    1    3    3  502    0  0.10130495608E+04 -0.13839917222E+04 -0.47437208790E+03  0.17795316773E+04  0.12699999809E+01 0. -1.
       -4    1    3    3    0  502 -0.10130495608E+04  0.13839917222E+04  0.70386428372E+03  0.18539495793E+04  0.12699999809E+01 0.  1.
</event>
<event>
 5   0  0.6541476E-07  0.3590509E+04  0.7818609E-02  0.8092669E-01
       -2   -1    0    0    0  501  0.00000000000E+00  0.00000000000E+00  0.14959192381E+04  0.14959192381E+04  0.25500000920E-02 0. -1.
        2   -1    0    0  501    0  0.00000000000E+00  0.00000000000E+00 -0.21544868137E+04  0.21544868137E+04  0.25500000920E-02 0.  1.
    10030    2    1    2    0    0  0.00000000000E+00  0.00000000000E+00 -0.65856757558E+03  0.36504060518E+04  0.35905087511E+04 0.  0.
        4    1    3    3  502    0  0.73085223831E+03  0.13453898818E+04  0.62375347459E+03  0.16532661426E+04  0.12699999809E+01 0. -1.
       -4    1    3    3    0  502 -0.73085223831E+03 -0.13453898818E+04 -0.12823210502E+04  0.19971399092E+04  0.12699999809E+01 0.  1.
</event>
<event>
 5   0  0.2108068E-07  0.3581669E+04  0.7818609E-02  0.8094704E-01
       -1   -1    0    0    0  501  0.00000000000E+00  0.00000000000E+00  0.15949725232E+04  0.15949725232E+04  0.50400001928E-02 0. -1.
        1   -1    0    0  501    0  0.00000000000E+00  0.00000000000E+00 -0.20107479321E+04  0.20107479321E+04  0.50400001928E-02 0.  1.
    10030    2    1    2    0    0  0.00000000000E+00  0.00000000000E+00 -0.41577540887E+03  0.36057204553E+04  0.35816687188E+04 0.  0.
        5    1    3    3  502    0 -0.67088756080E+03  0.98462415745E+03  0.11380611053E+04  0.16476589513E+04  0.46999998093E+01 0. -1.
       -5    1    3    3    0  502  0.67088756080E+03 -0.98462415745E+03 -0.15538365141E+04  0.19580615040E+04  0.46999998093E+01 0.  1.
</event>
<event>
 5   0  0.2086250E-07  0.3599954E+04  0.7818609E-02  0.8090502E-01
       -1   -1    0    0    0  501  0.00000000000E+00  0.00000000000E+00  0.15516314374E+04  0.15516314374E+04  0.50400001928E-02 0.  1.
        1   -1    0    0  501    0  0.00000000000E+00  0.00000000000E+00 -0.20880718289E+04  0.20880718289E+04  0.50400001928E-02 0. -1.
    10030    2    1    2    0    0  0.00000000000E+00  0.00000000000E+00 -0.53644039156E+03  0.36397032663E+04  0.35999543848E+04 0.  0.
        2    1    3    3  502    0 -0.82551916658E+03  0.92814139211E+03  0.10488489175E+04  0.16257344156E+04  0.25500000920E-02 0.  1.
       -2    1    3    3    0  502  0.82551916658E+03 -0.92814139211E+03 -0.15852893091E+04  0.20139688507E+04  0.25500000920E-02 0. -1.
</event>
<event>
 5   0  0.6729577E-07  0.3630599E+04  0.7818609E-02  0.8083518E-01
       -2   -1    0    0    0  501  0.00000000000E+00  0.00000000000E+00  0.13069060308E+04  0.13069060308E+04  0.25500000920E-02 0.  1.
        2   -1    0    0  501    0  0.00000000000E+00  0.00000000000E+00 -0.25214605069E+04  0.25214605069E+04  0.25500000920E-02 0. -1.
    10030    2    1    2    0    0  0.00000000000E+00  0.00000000000E+00 -0.12145544761E+04  0.38283665377E+04  0.36305988172E+04 0.  0.
        3    1    3    3  502    0 -0.60872640251E+03  0.43748089160E+03  0.11360737189E+04  0.13611028134E+04  0.10100000352E+00 0.  1.
       -3    1    3    3    0  502  0.60872640251E+03 -0.43748089160E+03 -0.23506281951E+04  0.24672637243E+04  0.10100000352E+00 0. -1.
</event>
<event>
 5   0  0.6729577E-07  0.3602569E+04  0.7818609E-02  0.8089903E-01
        2   -1    0    0  501    0  0.00000000000E+00  0.00000000000E+00  0.17326567584E+04  0.17326567585E+04  0.25500000920E-02 0. -1.
       -2   -1    0    0    0  501  0.00000000000E+00  0.00000000000E+00 -0.18726304360E+04  0.18726304360E+04  0.25500000920E-02 0.  1.
    10030    2    1    2    0    0  0.00000000000E+00  0.00000000000E+00 -0.13997367759E+03  0.36052871945E+04  0.36025689618E+04 0.  0.
        3    1    3    3  502    0 -0.17831610065E+04 -0.15159111575E+03 -0.27503831424E+03  0.18106046299E+04  0.10100000352E+00 0. -1.
       -3    1    3    3    0  502  0.17831610065E+04  0.15159111575E+03  0.13506463665E+03  0.17946825646E+04  0.10100000352E+00 0.  1.
</event>
<event>
 5   0  0.6324216E-07  0.3402987E+04  0.7818609E-02  0.8137174E-01
        2   -1    0    0  501    0  0.00000000000E+00  0.00000000000E+00  0.10765239610E+04  0.10765239610E+04  0.25500000920E-02 0. -1.
       -2   -1    0    0    0  501  0.00000000000E+00  0.00000000000E+00 -0.26892858644E+04  0.26892858644E+04  0.25500000920E-02 0.  1.
    10030    2    1    2    0    0  0.00000000000E+00  0.00000000000E+00 -0.16127619035E+04  0.37658098254E+04  0.34029873176E+04 0.  0.
        2    1    3    3  502    0  0.10643712129E+04 -0.13191956075E+04 -0.97021115455E+03  0.19530675396E+04  0.25500000920E-02 0. -1.
       -2    1    3    3    0  502 -0.10643712129E+04  0.13191956075E+04 -0.64255074890E+03  0.18127422858E+04  0.25500000920E-02 0.  1.
</event>
<event>
 5   0  0.2193129E-07  0.3530102E+04  0.7818609E-02  0.8106693E-01
        1   -1    0    0  501    0  0.00000000000E+00  0.00000000000E+00  0.11906963109E+04  0.11906963109E+04  0.50400001928E-02 0. -1.
       -1   -1    0    0    0  501  0.00000000000E+00  0.00000000000E+00 -0.26164560614E+04  0.26164560614E+04  0.50400001928E-02 0.  1.
    10030    2    1    2    0    0  0.00000000000E+00  0.00000000000E+00 -0.14257597505E+04  0.38071523724E+04  0.35301017436E+04 0.  0.
        1    1    3    3  502    0  0.10007913371E+04  0.12939807473E+04  0.20450034384E+01  0.16358403519E+04  0.50400001928E-02 0. -1.
       -1    1    3    3    0  502 -0.10007913371E+04 -0.12939807473E+04 -0.14278047540E+04  0.21713120205E+04  0.50400001928E-02 0.  1.
</event>
<event>
 5   0  0.6541476E-07  0.3603092E+04  0.7818609E-02  0.8089784E-01
        2   -1    0    0  501    0  0.00000000000E+00  0.00000000000E+00  0.21521608212E+04  0.21521608212E+04  0.25500000920E-02 0. -1.
       -2   -1    0    0    0  501  0.00000000000E+00  0.00000000000E+00 -0.15080504917E+04  0.15080504917E+04  0.25500000920E-02 0.  1.
    10030    2    1    2    0    0  0.00000000000E+00  0.00000000000E+00  0.64411032949E+03  0.36602113130E+04  0.36030915529E+04 0.  0.
        4    1    3    3  502    0  0.14848658210E+04  0.69962651957E+01 -0.71425933995E+03  0.16477388967E+04  0.12699999809E+01 0.  1.
       -4    1    3    3    0  502 -0.14848658210E+04 -0.69962651957E+01  0.13583696694E+04  0.20124724162E+04  0.12699999809E+01 0. -1.
</event>
<event>
 5   0  0.2086250E-07  0.3296935E+04  0.7818609E-02  0.8163676E-01
       -1   -1    0    0    0  501  0.00000000000E+00  0.00000000000E+00  0.15351232076E+04  0.15351232076E+04  0.50400001928E-02 0. -1.
        1   -1    0    0  501    0  0.00000000000E+00  0.00000000000E+00 -0.17701806369E+04  0.17701806369E+04  0.50400001928E-02 0.  1.
    10030    2    1    2    0    0  0.00000000000E+00  0.00000000000E+00 -0.23505742927E+03  0.33053038446E+04  0.32969351692E+04 0.  0.
        3    1    3    3  502    0 -0.34663755778E+02 -0.13071130349E+04  0.88886162912E+03  0.15810822457E+04  0.10100000352E+00 0. -1.
       -3    1    3    3    0  502  0.34663755778E+02  0.13071130349E+04 -0.11239190584E+04  0.17242215988E+04  0.10100000352E+00 0.  1.
</event>
<event>
 5   0  0.6729577E-07  0.3577976E+04  0.7818609E-02  0.8095555E-01
        2   -1    0    0  501    0  0.00000000000E+00  0.00000000000E+00  0.20456336539E+04  0.20456336539E+04  0.25500000920E-02 0.  1.
       -2   -1    0    0    0  501  0.00000000000E+00  0.00000000000E+00 -0.15645411043E+04  0.15645411043E+04  0.25500000920E-02 0. -1.
    10030    2    1    2    0    0  0.00000000000E+00  0.00000000000E+00  0.48109254959E+03  0.36101747582E+04  0.35779759283E+04 0.  0.
        3    1    3    3  502    0 -0.26970596326E+03  0.58533130026E+03 -0.14433412136E+04  0.15806922239E+04  0.10100000352E+00 0. -1.
       -3    1    3    3    0  502  0.26970596326E+03 -0.58533130026E+03  0.19244337632E+04  0.20294825343E+04  0.10100000352E+00 0.  1.
</event>
<event>
 5   0  0.6729577E-07  0.3695341E+04  0.7818609E-02  0.8068995E-01
       -2   -1    0    0    0  501  0.00000000000E+00  0.00000000000E+00  0.12865503110E+04  0.12865503110E+04  0.25500000920E-02 0. -1.
        2   -1    0    0  501    0  0.00000000000E+00  0.00000000000E+00 -0.26535192554E+04  0.26535192554E+04  0.25500000920E-02 0.  1.
    10030    2    1    2    0    0  0.00000000000E+00  0.00000000000E+00 -0.13669689445E+04  0.39400695664E+04  0.36953408629E+04 0.  0.
        3    1    3    3  502    0 -0.17643239392E+04 -0.15847737786E+03 -0.12340404324E+03  0.17757203073E+04  0.10100000352E+00 0. -1.
       -3    1    3    3    0  502  0.17643239392E+04  0.15847737786E+03 -0.12435649012E+04  0.21643492591E+04  0.10100000352E+00 0.  1.
</event>
<event>
 5   0  0.2193129E-07  0.3618956E+04  0.7818609E-02  0.8086163E-01
        1   -1    0    0  501    0  0.00000000000E+00  0.00000000000E+00  0.18009843226E+04  0.18009843226E+04  0.50400001928E-02 0.  1.
       -1   -1    0    0    0  501  0.00000000000E+00  0.00000000000E+00 -0.18180116824E+04  0.18180116824E+04  0.50400001928E-02 0. -1.
    10030    2    1    2    0    0  0.00000000000E+00  0.00000000000E+00 -0.17027359795E+02  0.36189960050E+04  0.36189559480E+04 0.  0.
        1    1    3    3  502    0 -0.56996541847E+03 -0.94663151136E+03  0.14244148582E+04  0.18027560802E+04  0.50400001928E-02 0.  1.
       -1    1    3    3    0  502  0.56996541847E+03  0.94663151136E+03 -0.14414422180E+04  0.18162399248E+04  0.50400001928E-02 0. -1.
</event>
<event>
 5   0  0.2193129E-07  0.3636035E+04  0.7818609E-02  0.8082287E-01
        1   -1    0    0  501    0  0.00000000000E+00  0.00000000000E+00  0.17951664944E+04  0.17951664944E+04  0.50400001928E-02 0.  1.
       -1   -1    0    0    0  501  0.00000000000E+00  0.00000000000E+00 -0.18411596736E+04  0.18411596736E+04  0.50400001928E-02 0. -1.
    10030    2    1    2    0    0  0.00000000000E+00  0.00000000000E+00 -0.45993179196E+02  0.36363261681E+04  0.36360352897E+04 0.  0.
        1    1    3    3  502    0 -0.12723154729E+04 -0.12980774749E+04 -0.60367527398E+02  0.18186357612E+04  0.50400001928E-02 0.  1.
       -1    1    3    3    0  502  0.12723154729E+04  0.12980774749E+04  0.14374348202E+02  0.18176904069E+04  0.50400001928E-02 0. -1.
</event>
<event>
 5   0  0.6848661E-07  0.3602444E+04  0.7818609E-02  0.8089932E-01
        2   -1    0    0  501    0  0.00000000000E+00  0.00000000000E+00  0.25538492880E+04  0.25538492880E+04  0.25500000920E-02 0.  1.
       -2   -1    0    0    0  501  0.00000000000E+00  0.00000000000E+00 -0.12703959877E+04  0.12703959877E+04  0.25500000920E-02 0. -1.
    10030    2    1    2    0    0  0.00000000000E+00  0.00000000000E+00  0.12834533003E+04  0.38242452756E+04  0.36024435532E+04 0.  0.
        1    1    3    3  502    0 -0.11864802957E+04  0.13388445946E+04  0.41864653240E+03  0.18372548161E+04  0.50400001928E-02 0. -1.
       -1    1    3    3    0  502  0.11864802957E+04 -0.13388445946E+04  0.86480676787E+03  0.19869904595E+04  0.50400001928E-02 0.  1.
</event>
<event>
 5   0  0.2086250E-07  0.3585774E+04  0.7818609E-02  0.8093758E-01
       -1   -1    0    0    0  501  0.00000000000E+00  0.00000000000E+00  0.25810087464E+04  0.25810087464E+04  0.50400001928E-02 0. -1.
        1   -1    0    0  501    0  0.00000000000E+00  0.00000000000E+00 -0.12454211680E+04  0.12454211680E+04  0.50400001928E-02 0.  1.
    10030    2    1    2    0    0  0.00000000000E+00  0.00000000000E+00  0.13355875784E+04  0.38264299144E+04  0.35857735163E+04 0.  0.
        4    1    3    3  502    0  0.28563700928E+03  0.13640684560E+04 -0.53580985267E+03  0.14931058452E+04  0.12699999809E+01 0.  1.
       -4    1    3    3    0  502 -0.28563700928E+03 -0.13640684560E+04  0.18713974310E+04  0.23333240692E+04  0.12699999809E+01 0. -1.
</event>
<event>
 5   0  0.6669864E-07  0.3557104E+04  0.7818609E-02  0.8100389E-01
        2   -1    0    0  501    0  0.00000000000E+00  0.00000000000E+00  0.29295238381E+04  0.29295238381E+04  0.25500000920E-02 0.  1.
       -2   -1    0    0    0  501  0.00000000000E+00  0.00000000000E+00 -0.10797820697E+04  0.10797820697E+04  0.25500000920E-02 0. -1.
    10030    2    1    2    0    0  0.00000000000E+00  0.00000000000E+00  0.18497417684E+04  0.40093059078E+04  0.35571040543E+04 0.  0.
        5    1    3    3  502    0 -0.28554512214E+03  0.12161866674E+04  0.23517342073E+04  0.26629536042E+04  0.46999998093E+01 0.  1.
       -5    1    3    3    0  502  0.28554512214E+03 -0.12161866674E+04 -0.50199243890E+03  0.13463523036E+04  0.46999998093E+01 0. -1.
</event>
<event>
 5   0  0.2086250E-07  0.3690946E+04  0.7818609E-02  0.8069971E-01
       -1   -1    0    0    0  501  0.00000000000E+00  0.00000000000E+00  0.29335603926E+04  0.29335603926E+04  0.50400001928E-02 0.  1.
        1   -1    0    0  501    0  0.00000000000E+00  0.00000000000E+00 -0.11609683654E+04  0.11609683654E+04  0.50400001928E-02 0. -1.
    10030    2    1    2    0    0  0.00000000000E+00  0.00000000000E+00  0.17725920272E+04  0.40945287580E+04  0.36909461192E+04 0.  0.
        2    1    3    3  502    0  0.18752027691E+03  0.15058494009E+04  0.20513842249E+04  0.25516511342E+04  0.25500000920E-02 0.  1.
       -2    1    3    3    0  502 -0.18752027691E+03 -0.15058494009E+04 -0.27879219764E+03  0.15428776238E+04  0.25500000920E-02 0. -1.
</event>
<event>
 5   0  0.2108068E-07  0.3753189E+04  0.7818609E-02  0.8056276E-01
        1   -1    0    0  501    0  0.00000000000E+00  0.00000000000E+00  0.19560165852E+04  0.19560165852E+04  0.50400001928E-02 0.  1.
       -1   -1    0    0    0  501  0.00000000000E+00  0.00000000000E+00 -0.18003971235E+04  0.18003971235E+04  0.50400001928E-02 0. -1.
    10030    2    1    2    0    0  0.00000000000E+00  0.00000000000E+00  0.15561946166E+03  0.37564137087E+04  0.37531888487E+04 0.  0.
        5    1    3    3  502    0  0.13815627601E+03 -0.51278478446E+02 -0.17945911038E+04  0.18006376534E+04  0.46999998093E+01 0. -1.
       -5    1    3    3    0  502 -0.13815627601E+03  0.51278478446E+02  0.19502105655E+04  0.19557760553E+04  0.46999998093E+01 0.  1.
</event>
<event>
 5   0  0.2086250E-07  0.3601736E+04  0.7818609E-02  0.8090094E-01
        1   -1    0    0  501    0  0.00000000000E+00  0.00000000000E+00  0.24654595792E+04  0.24654595792E+04  0.50400001928E-02 0. -1.
       -1   -1    0    0    0  501  0.00000000000E+00  0.00000000000E+00 -0.13154240733E+04  0.13154240733E+04  0.50400001928E-02 0.  1.
    10030    2    1    2    0    0  0.00000000000E+00  0.00000000000E+00  0.11500355059E+04  0.37808836525E+04  0.36017356273E+04 0.  0.
        3    1    3    3  502    0 -0.44827217087E+03  0.17441643000E+04  0.58366313020E+03  0.18930715001E+04  0.10100000352E+00 0. -1.
       -3    1    3    3    0  502  0.44827217087E+03 -0.17441643000E+04  0.56637237570E+03  0.18878121524E+04  0.10100000352E+00 0.  1.
</event>
<event>
 5   0  0.6669864E-07  0.3581887E+04  0.7818609E-02  0.8094653E-01
        2   -1    0    0  501    0  0.00000000000E+00  0.00000000000E+00  0.26011588400E+04  0.26011588400E+04  0.25500000920E-02 0. -1.
       -2   -1    0    0    0  501  0.00000000000E+00  0.00000000000E+00 -0.12330959467E+04  0.12330959467E+04  0.25500000920E-02 0.  1.
    10030    2    1    2    0    0  0.00000000000E+00  0.00000000000E+00  0.13680628933E+04  0.38342547867E+04  0.35818868895E+04 0.  0.
        5    1    3    3  502    0 -0.67913834767E+03 -0.10270847600E+04  0.20761702845E+04  0.24138428159E+04  0.46999998093E+01 0. -1.
       -5    1    3    3    0  502  0.67913834767E+03  0.10270847600E+04 -0.70810739117E+03  0.14204119708E+04  0.46999998093E+01 0.  1.
</event>
<event>
 5   0  0.2086250E-07  0.3624174E+04  0.7818609E-02  0.8084977E-01
        1   -1    0    0  501    0  0.00000000000E+00  0.00000000000E+00  0.22320561873E+04  0.22320561873E+04  0.50400001928E-02 0. -1.
       -1   -1    0    0    0  501  0.00000000000E+00  0.00000000000E+00 -0.14711366351E+04  0.14711366351E+04  0.50400001928E-02 0.  1.
    10030    2    1    2    0    0  0.00000000000E+00  0.00000000000E+00  0.76091955223E+03  0.37031928225E+04  0.36241741839E+04 0.  0.
        2    1    3    3  502    0  0.75718118971E+03  0.12429277844E+04 -0.72264614664E+03  0.16249339324E+04  0.25500000920E-02 0.  1.
       -2    1    3    3    0  502 -0.75718118971E+03 -0.12429277844E+04  0.14835656989E+04  0.20782588901E+04  0.25500000920E-02 0. -1.
</event>
<event>
 5   0  0.2086250E-07  0.3584301E+04  0.7818609E-02  0.8094097E-01
        1   -1    0    0  501    0  0.00000000000E+00  0.00000000000E+00  0.10403701148E+04  0.10403701148E+04  0.50400001928E-02 0.  1.
       -1   -1    0    0    0  501  0.00000000000E+00  0.00000000000E+00 -0.30871737700E+04  0.30871737700E+04  0.50400001928E-02 0. -1.
    10030    2    1    2    0    0  0.00000000000E+00  0.00000000000E+00 -0.20468036552E+04  0.41275438848E+04  0.35843009524E+04 0.  0.
        3    1    3    3  502    0  0.64696442176E+03  0.30492779583E+03 -0.29157017639E+04  0.30021426864E+04  0.10100000352E+00 0. -1.
       -3    1    3    3    0  502 -0.64696442176E+03 -0.30492779583E+03  0.86889810868E+03  0.11254011983E+04  0.10100000352E+00 0.  1.
</event>
<event>
 5   0  0.6729577E-07  0.3364620E+04  0.7818609E-02  0.8146645E-01
        2   -1    0    0  501    0  0.00000000000E+00  0.00000000000E+00  0.17688619290E+04  0.17688619290E+04  0.25500000920E-02 0.  1.
       -2   -1    0    0    0  501  0.00000000000E+00  0.00000000000E+00 -0.15999930331E+04  0.15999930332E+04  0.25500000920E-02 0. -1.
    10030    2    1    2    0    0  0.00000000000E+00  0.00000000000E+00  0.16886889586E+03  0.33688549622E+04  0.33646198971E+04 0.  0.
        3    1    3    3  502    0  0.10567548249E+03  0.73288179262E+03  0.15969263577E+04  0.17602434012E+04  0.10100000352E+00 0.  1.
       -3    1    3    3    0  502 -0.10567548249E+03 -0.73288179262E+03 -0.14280574618E+04  0.16086115609E+04  0.10100000352E+00 0. -1.
</event>
<event>
 5   0  0.6669864E-07  0.3628966E+04  0.7818609E-02  0.8083889E-01
        2   -1    0    0  501    0  0.00000000000E+00  0.00000000000E+00  0.20144645069E+04  0.20144645070E+04  0.25500000920E-02 0. -1.
       -2   -1    0    0    0  501  0.00000000000E+00  0.00000000000E+00 -0.16343540439E+04  0.16343540439E+04  0.25500000920E-02 0.  1.
    10030    2    1    2    0    0  0.00000000000E+00  0.00000000000E+00  0.38011046307E+03  0.36488185508E+04  0.36289658104E+04 0.  0.
        5    1    3    3  502    0 -0.13376003294E+04  0.10239943174E+04  0.86797446226E+03  0.18950305434E+04  0.46999998093E+01 0. -1.
       -5    1    3    3    0  502  0.13376003294E+04 -0.10239943174E+04 -0.48786399919E+03  0.17537880074E+04  0.46999998093E+01 0.  1.
</event>
<event>
 5   0  0.6848661E-07  0.3601242E+04  0.7818609E-02  0.8090207E-01
       -2   -1    0    0    0  501  0.00000000000E+00  0.00000000000E+00  0.12895821269E+04  0.12895821269E+04  0.25500000920E-02 0. -1.
        2   -1    0    0  501    0  0.00000000000E+00  0.00000000000E+00 -0.25141752777E+04  0.25141752777E+04  0.25500000920E-02 0.  1.
    10030    2    1    2    0    0  0.00000000000E+00  0.00000000000E+00 -0.12245931508E+04  0.38037574046E+04  0.36012417314E+04 0.  0.
        1    1    3    3  502    0  0.84765730473E+03  0.12897246264E+04  0.36739934448E+03  0.15864724380E+04  0.50400001928E-02 0. -1.
       -1    1    3    3    0  502 -0.84765730473E+03 -0.12897246264E+04 -0.15919924953E+04  0.22172849666E+04  0.50400001928E-02 0.  1.
</event>
<event>
 5   0  0.2086250E-07  0.3621506E+04  0.7818609E-02  0.8085583E-01
        1   -1    0    0  501    0  0.00000000000E+00  0.00000000000E+00  0.17262807609E+04  0.17262807610E+04  0.50400001928E-02 0. -1.
       -1   -1    0    0    0  501  0.00000000000E+00  0.00000000000E+00 -0.18993582698E+04  0.18993582698E+04  0.50400001928E-02 0.  1.
    10030    2    1    2    0    0  0.00000000000E+00  0.00000000000E+00 -0.17307750889E+03  0.36256390308E+04  0.36215055650E+04 0.  0.
        4    1    3    3  502    0 -0.52060656265E+03 -0.14874219524E+04 -0.97939116096E+03  0.18554417039E+04  0.12699999809E+01 0.  1.
       -4    1    3    3    0  502  0.52060656265E+03  0.14874219524E+04  0.80631365207E+03  0.17701973269E+04  0.12699999809E+01 0. -1.
</event>
<event>
 5   0  0.2108068E-07  0.3580385E+04  0.7818609E-02  0.8095000E-01
       -1   -1    0    0    0  501  0.00000000000E+00  0.00000000000E+00  0.22050901371E+04  0.22050901371E+04  0.50400001928E-02 0.  1.
        1   -1    0    0  501    0  0.00000000000E+00  0.00000000000E+00 -0.14533593471E+04  0.14533593471E+04  0.50400001928E-02 0. -1.
    10030    2    1    2    0    0  0.00000000000E+00  0.00000000000E+00  0.75173078997E+03  0.36584494842E+04  0.35803845391E+04 0.  0.
        5    1    3    3  502    0 -0.69534223066E+03  0.16494066903E+04  0.34839000694E+03  0.18235791550E+04  0.46999998093E+01 0. -1.
       -5    1    3    3    0  502  0.69534223066E+03 -0.16494066903E+04  0.40334078303E+03  0.18348703292E+04  0.46999998093E+01 0.  1.
</event>
<event>
 5   0  0.2086250E-07  0.3218062E+04  0.7818609E-02  0.8184063E-01
        1   -1    0    0  501    0  0.00000000000E+00  0.00000000000E+00  0.22192926923E+04  0.22192926923E+04  0.50400001928E-02 0.  1.
       -1   -1    0    0    0  501  0.00000000000E+00  0.00000000000E+00 -0.11665789516E+04  0.11665789516E+04  0.50400001928E-02 0. -1.
    10030    2    1    2    0    0  0.00000000000E+00  0.00000000000E+00  0.10527137407E+04  0.33858716439E+04  0.32180616168E+04 0.  0.
        3    1    3    3  502    0  0.78997093084E+03 -0.52513483097E+03 -0.84109314698E+03  0.12677769340E+04  0.10100000352E+00 0. -1.
       -3    1    3    3    0  502 -0.78997093084E+03  0.52513483097E+03  0.18938068877E+04  0.21180947099E+04  0.10100000352E+00 0.  1.
</event>
<event>
 5   0  0.6324216E-07  0.3632875E+04  0.7818609E-02  0.8083002E-01
        2   -1    0    0  501    0  0.00000000000E+00  0.00000000000E+00  0.19435442607E+04  0.19435442607E+04  0.25500000920E-02 0. -1.
       -2   -1    0    0    0  501  0.00000000000E+00  0.00000000000E+00 -0.16976438575E+04  0.16976438575E+04  0.25500000920E-02 0.  1.
    10030    2    1    2    0    0  0.00000000000E+00  0.00000000000E+00  0.24590040318E+03  0.36411881182E+04  0.36328754319E+04 0.  0.
        2    1    3    3  502    0  0.88192128385E+03  0.50754371336E+03 -0.13851722170E+04  0.17187460087E+04  0.25500000920E-02 0.  1.
       -2    1    3    3    0  502 -0.88192128385E+03 -0.50754371336E+03  0.16310726201E+04  0.19224421094E+04  0.25500000920E-02 0. -1.
</event>
<event>
 5   0  0.2086250E-07  0.3543323E+04  0.7818609E-02  0.8103599E-01
       -1   -1    0    0    0  501  0.00000000000E+00  0.00000000000E+00  0.11227727585E+04  0.11227727585E+04  0.50400001928E-02 0. -1.
        1   -1    0    0  501    0  0.00000000000E+00  0.00000000000E+00 -0.27955645155E+04  0.27955645155E+04  0.50400001928E-02 0.  1.
    10030    2    1    2    0    0  0.00000000000E+00  0.00000000000E+00 -0.16727917570E+04  0.39183372740E+04  0.35433225553E+04 0.  0.
        3    1    3    3  502    0 -0.68667208211E+03  0.78294021410E+03 -0.24213615552E+04  0.26358121553E+04  0.10100000352E+00 0.  1.
       -3    1    3    3    0  502  0.68667208211E+03 -0.78294021410E+03  0.74856979813E+03  0.12825251187E+04  0.10100000352E+00 0. -1.
</event>
<event>
 5   0  0.2086250E-07  0.3571646E+04  0.7818609E-02  0.8097017E-01
        1   -1    0    0  501    0  0.00000000000E+00  0.00000000000E+00  0.14399914543E+04  0.14399914543E+04  0.50400001928E-02 0. -1.
       -1   -1    0    0    0  501  0.00000000000E+00  0.00000000000E+00 -0.22147105194E+04  0.22147105194E+04  0.50400001928E-02 0.  1.
    10030    2    1    2    0    0  0.00000000000E+00  0.00000000000E+00 -0.77471906515E+03  0.36547019738E+04  0.35716462433E+04 0.  0.
        2    1    3    3  502    0 -0.17014565617E+04  0.53843466307E+03 -0.45444244218E+03  0.18415711365E+04  0.25500000920E-02 0. -1.
       -2    1    3    3    0  502  0.17014565617E+04 -0.53843466307E+03 -0.32027662296E+03  0.18131308372E+04  0.25500000920E-02 0.  1.
</event>
<event>
 5   0  0.2086250E-07  0.2972730E+04  0.7818609E-02  0.8251561E-01
       -1   -1    0    0    0  501  0.00000000000E+00  0.00000000000E+00  0.12021165409E+04  0.12021165409E+04  0.50400001928E-02 0.  1.
        1   -1    0    0  501    0  0.00000000000E+00  0.00000000000E+00 -0.18378255292E+04  0.18378255293E+04  0.50400001928E-02 0. -1.
    10030    2    1    2    0    0  0.00000000000E+00  0.00000000000E+00 -0.63570898831E+03  0.30399420702E+04  0.29727297005E+04 0.  0.
        4    1    3    3  502    0 -0.12514543840E+04 -0.61974840988E+03  0.20262537575E+03  0.14111289178E+04  0.12699999809E+01 0.  1.
       -4    1    3    3    0  502  0.12514543840E+04  0.61974840988E+03 -0.83833436406E+03  0.16288131524E+04  0.12699999809E+01 0. -1.
</event>
<event>
 5   0  0.6848661E-07  0.3534018E+04  0.7818609E-02  0.8105775E-01
       -2   -1    0    0    0  501  0.00000000000E+00  0.00000000000E+00  0.16911111660E+04  0.16911111660E+04  0.25500000920E-02 0. -1.
        2   -1    0    0  501    0  0.00000000000E+00  0.00000000000E+00 -0.18463132561E+04  0.18463132561E+04  0.25500000920E-02 0.  1.
    10030    2    1    2    0    0  0.00000000000E+00  0.00000000000E+00 -0.15520209010E+03  0.35374244222E+04  0.35340180891E+04 0.  0.
        1    1    3    3  502    0 -0.10506235949E+04 -0.88591919163E+03  0.10341712019E+04  0.17199339601E+04  0.50400001928E-02 0. -1.
       -1    1    3    3    0  502  0.10506235949E+04  0.88591919163E+03 -0.11893732920E+04  0.18174904621E+04  0.50400001928E-02 0.  1.
</event>
<event>
 5   0  0.6729577E-07  0.2889010E+04  0.7818609E-02  0.8276155E-01
        2   -1    0    0  501    0  0.00000000000E+00  0.00000000000E+00  0.18136747685E+04  0.18136747685E+04  0.25500000920E-02 0. -1.
       -2   -1    0    0    0  501  0.00000000000E+00  0.00000000000E+00 -0.11504791961E+04  0.11504791961E+04  0.25500000920E-02 0.  1.
    10030    2    1    2    0    0  0.00000000000E+00  0.00000000000E+00  0.66319557238E+03  0.29641539646E+04  0.28890102731E+04 0.  0.
        3    1    3    3  502    0 -0.21266033935E+02 -0.12247333395E+04  0.11171297594E+04  0.16578307835E+04  0.10100000352E+00 0. -1.
       -3    1    3    3    0  502  0.21266033935E+02  0.12247333395E+04 -0.45393418704E+03  0.13063231811E+04  0.10100000352E+00 0.  1.
</event>
<event>
 5   0  0.2086250E-07  0.3474517E+04  0.7818609E-02  0.8119856E-01
        1   -1    0    0  501    0  0.00000000000E+00  0.00000000000E+00  0.20133230489E+04  0.20133230489E+04  0.50400001928E-02 0. -1.
       -1   -1    0    0    0  501  0.00000000000E+00  0.00000000000E+00 -0.14990472134E+04  0.14990472134E+04  0.50400001928E-02 0.  1.
    10030    2    1    2    0    0  0.00000000000E+00  0.00000000000E+00  0.51427583547E+03  0.35123702623E+04  0.34745165454E+04 0.  0.
        2    1    3    3  502    0  0.21095511079E+03  0.24041222643E+03  0.19833027196E+04  0.20089275186E+04  0.25500000920E-02 0. -1.
       -2    1    3    3    0  502 -0.21095511079E+03 -0.24041222643E+03 -0.14690268841E+04  0.15034427437E+04  0.25500000920E-02 0.  1.
</event>
<event>
 5   0  0.2108068E-07  0.3598010E+04  0.7818609E-02  0.8090948E-01
       -1   -1    0    0    0  501  0.00000000000E+00  0.00000000000E+00  0.16721766522E+04  0.16721766522E+04  0.50400001928E-02 0. -1.
        1   -1    0    0  501    0  0.00000000000E+00  0.00000000000E+00 -0.19354528689E+04  0.19354528689E+04  0.50400001928E-02 0.  1.
    10030    2    1    2    0    0  0.00000000000E+00  0.00000000000E+00 -0.26327621663E+03  0.36076295211E+04  0.35980100605E+04 0.  0.
        5    1    3    3  502    0 -0.32228961997E+03  0.17967638242E+03  0.16338199844E+04  0.16749758306E+04  0.46999998093E+01 0. -1.
       -5    1    3    3    0  502  0.32228961997E+03 -0.17967638242E+03 -0.18970962010E+04  0.19326536905E+04  0.46999998093E+01 0.  1.
</event>
<event>
 5   0  0.6669864E-07  0.3595823E+04  0.7818609E-02  0.8091449E-01
       -2   -1    0    0    0  501  0.00000000000E+00  0.00000000000E+00  0.12695919783E+04  0.12695919783E+04  0.25500000920E-02 0.  1.
        2   -1    0    0  501    0  0.00000000000E+00  0.00000000000E+00 -0.25460819822E+04  0.25460819822E+04  0.25500000920E-02 0. -1.
    10030    2    1    2    0    0  0.00000000000E+00  0.00000000000E+00 -0.12764900038E+04  0.38156739605E+04  0.35958227213E+04 0.  0.
        5    1    3    3  502    0  0.59521449776E+03 -0.88690423613E+03 -0.21728994953E+04  0.24212380571E+04  0.46999998093E+01 0. -1.
       -5    1    3    3    0  502 -0.59521449776E+03  0.88690423613E+03  0.89640949145E+03  0.13944359034E+04  0.46999998093E+01 0.  1.
</event>
<event>
 5   0  0.6848661E-07  0.3592068E+04  0.7818609E-02  0.8092311E-01
        2   -1    0    0  501    0  0.00000000000E+00  0.00000000000E+00  0.18539618928E+04  0.18539618928E+04  0.25500000920E-02 0.  1.
       -2   -1    0    0    0  501  0.00000000000E+00  0.00000000000E+00 -0.17399160136E+04  0.17399160136E+04  0.25500000920E-02 0. -1.
    10030    2    1    2    0    0  0.00000000000E+00  0.00000000000E+00  0.11404587929E+03  0.35938779064E+04  0.35920679202E+04 0.  0.
        1    1    3    3  502    0 -0.12680513749E+04 -0.42007502948E+03 -0.11441321500E+04  0.17588222470E+04  0.50400001928E-02 0. -1.
       -1    1    3    3    0  502  0.12680513749E+04  0.42007502948E+03  0.12581780293E+04  0.18350556594E+04  0.50400001928E-02 0.  1.
</event>
<event>
 5   0  0.2086250E-07  0.3664381E+04  0.7818609E-02  0.8075902E-01
       -3   -1    0    0    0  501  0.00000000000E+00  0.00000000000E+00  0.16688135457E+04  0.16688135487E+04  0.10100000352E+00 0.  1.
        3   -1    0    0  501    0  0.00000000000E+00  0.00000000000E+00 -0.20115617598E+04  0.20115617624E+04  0.10100000352E+00 0. -1.
    10030    2    1    2    0    0  0.00000000000E+00  0.00000000000E+00 -0.34274821413E+03  0.36803753111E+04  0.36643807242E+04 0.  0.
        3    1    3    3  502    0 -0.11945493808E+04 -0.12373066472E+04  0.46308371348E+03  0.17811014846E+04  0.10100000352E+00 0.  1.
       -3    1    3    3    0  502  0.11945493808E+04  0.12373066472E+04 -0.80583192761E+03  0.18992738265E+04  0.10100000352E+00 0. -1.
</event>
<event>
 5   0  0.2086250E-07  0.3550664E+04  0.7818609E-02  0.8101887E-01
        1   -1    0    0  501    0  0.00000000000E+00  0.00000000000E+00  0.18148949857E+04  0.18148949857E+04  0.50400001928E-02 0.  1.
       -1   -1    0    0    0  501  0.00000000000E+00  0.00000000000E+00 -0.17366312035E+04  0.17366312035E+04  0.50400001928E-02 0. -1.
    10030    2    1    2    0    0  0.00000000000E+00  0.00000000000E+00  0.78263782214E+02  0.35515261893E+04  0.35506637483E+04 0.  0.
        4    1    3    3  502    0 -0.12787665861E+04 -0.50173109146E+03  0.11640488194E+04  0.18005525088E+04  0.12699999809E+01 0.  1.
       -4    1    3    3    0  502  0.12787665861E+04  0.50173109146E+03 -0.10857850372E+04  0.17509736805E+04  0.12699999809E+01 0. -1.
</event>
<event>
 5   0  0.6541476E-07  0.3659833E+04  0.7818609E-02  0.8076922E-01
       -2   -1    0    0    0  501  0.00000000000E+00  0.00000000000E+00  0.29069097577E+04  0.29069097577E+04  0.25500000920E-02 0.  1.
        2   -1    0    0  501    0  0.00000000000E+00  0.00000000000E+00 -0.11519432526E+04  0.11519432526E+04  0.25500000920E-02 0. -1.
    10030    2    1    2    0    0  0.00000000000E+00  0.00000000000E+00  0.17549665051E+04  0.40588530104E+04  0.36598333741E+04 0.  0.
        4    1    3    3  502    0 -0.20176591263E+03  0.88912628350E+03  0.26370786373E+04  0.27902402018E+04  0.12699999809E+01 0.  1.
       -4    1    3    3    0  502  0.20176591263E+03 -0.88912628350E+03 -0.88211213218E+03  0.12686128086E+04  0.12699999809E+01 0. -1.
</event>
<event>
 5   0  0.6729577E-07  0.3602457E+04  0.7818609E-02  0.8089929E-01
       -2   -1    0    0    0  501  0.00000000000E+00  0.00000000000E+00  0.16728380904E+04  0.16728380904E+04  0.25500000920E-02 0.  1.
        2   -1    0    0  501    0  0.00000000000E+00  0.00000000000E+00 -0.19394730863E+04  0.19394730863E+04  0.25500000920E-02 0. -1.
    10030    2    1    2    0    0  0.00000000000E+00  0.00000000000E+00 -0.26663499585E+03  0.36123111767E+04  0.36024571914E+04 0.  0.
        3    1    3    3  502    0 -0.31276526141E+03  0.15356404193E+04  0.75703630690E+03  0.17404360333E+04  0.10100000352E+00 0.  1.
       -3    1    3    3    0  502  0.31276526141E+03 -0.15356404193E+04 -0.10236713028E+04  0.18718751433E+04  0.10100000352E+00 0. -1.
</event>
<event>
 5   0  0.6669864E-07  0.3583795E+04  0.7818609E-02  0.8094214E-01
        2   -1    0    0  501    0  0.00000000000E+00  0.00000000000E+00  0.15097987629E+04  0.15097987629E+04  0.25500000920E-02 0.  1.
       -2   -1    0    0    0  501  0.00000000000E+00  0.00000000000E+00 -0.21267044582E+04  0.21267044582E+04  0.25500000920E-02 0. -1.
    10030    2    1    2    0    0  0.00000000000E+00  0.00000000000E+00 -0.61690569524E+03  0.36365032211E+04  0.35837945030E+04 0.  0.
        5    1    3    3  502    0  0.12594246748E+04  0.35269170530E+03  0.93444238772E+03  0.16074036880E+04  0.46999998093E+01 0.  1.
       -5    1    3    3    0  502 -0.12594246748E+04 -0.35269170530E+03 -0.15513480830E+04  0.20290995330E+04  0.46999998093E+01 0. -1.
</event>
<event>
 5   0  0.6669864E-07  0.3657831E+04  0.7818609E-02  0.8077372E-01
       -2   -1    0    0    0  501  0.00000000000E+00  0.00000000000E+00  0.15644189286E+04  0.15644189286E+04  0.25500000920E-02 0.  1.
        2   -1    0    0  501    0  0.00000000000E+00  0.00000000000E+00 -0.21381303226E+04  0.21381303226E+04  0.25500000920E-02 0. -1.
    10030    2    1    2    0    0  0.00000000000E+00  0.00000000000E+00 -0.57371139401E+03  0.37025492512E+04  0.36578308045E+04 0.  0.
        5    1    3    3  502    0  0.35467223696E+03  0.17562740142E+04 -0.65824539001E+03  0.19088215977E+04  0.46999998093E+01 0. -1.
       -5    1    3    3    0  502 -0.35467223696E+03 -0.17562740142E+04  0.84533995993E+02  0.17937276535E+04  0.46999998093E+01 0.  1.
</event>
<event>
 5   0  0.6669864E-07  0.3610205E+04  0.7818609E-02  0.8088158E-01
       -2   -1    0    0    0  501  0.00000000000E+00  0.00000000000E+00  0.24962188161E+04  0.24962188161E+04  0.25500000920E-02 0. -1.
        2   -1    0    0  501    0  0.00000000000E+00  0.00000000000E+00 -0.13053319676E+04  0.13053319676E+04  0.25500000920E-02 0.  1.
    10030    2    1    2    0    0  0.00000000000E+00  0.00000000000E+00  0.11908868485E+04  0.38015507837E+04  0.36102045476E+04 0.  0.
        5    1    3    3  502    0  0.17337625213E+04 -0.17167480346E+03  0.10926646760E+04  0.20565366281E+04  0.46999998093E+01 0. -1.
       -5    1    3    3    0  502 -0.17337625213E+04  0.17167480346E+03  0.98222172492E+02  0.17450141557E+04  0.46999998093E+01 0.  1.
</event>
<event>
 5   0  0.2108068E-07  0.3608639E+04  0.7818609E-02  0.8088516E-01
       -1   -1    0    0    0  501  0.00000000000E+00  0.00000000000E+00  0.18440743086E+04  0.18440743086E+04  0.50400001928E-02 0.  1.
        1   -1    0    0  501    0  0.00000000000E+00  0.00000000000E+00 -0.17654216050E+04  0.17654216051E+04  0.50400001928E-02 0. -1.
    10030    2    1    2    0    0  0.00000000000E+00  0.00000000000E+00  0.78652703550E+02  0.36094959137E+04  0.36086388712E+04 0.  0.
        5    1    3    3  502    0 -0.28449910013E+03  0.17805935418E+04  0.10332151784E+03  0.18061424432E+04  0.46999998093E+01 0. -1.
       -5    1    3    3    0  502  0.28449910013E+03 -0.17805935418E+04 -0.24668814290E+02  0.18033534705E+04  0.46999998093E+01 0.  1.
</event>
<event>
 5   0  0.6848661E-07  0.3531304E+04  0.7818609E-02  0.8106411E-01
        2   -1    0    0  501    0  0.00000000000E+00  0.00000000000E+00  0.20562871004E+04  0.20562871004E+04  0.25500000920E-02 0.  1.
       -2   -1    0    0    0  501  0.00000000000E+00  0.00000000000E+00 -0.15160955982E+04  0.15160955982E+04  0.25500000920E-02 0. -1.
    10030    2    1    2    0    0  0.00000000000E+00  0.00000000000E+00  0.54019150220E+03  0.35723826986E+04  0.35313044737E+04 0.  0.
        1    1    3    3  502    0  0.41540390000E+02 -0.17511543048E+04  0.45566140582E+02  0.17522395032E+04  0.50400001928E-02 0. -1.
       -1    1    3    3    0  502 -0.41540390000E+02  0.17511543048E+04  0.49462536162E+03  0.18201431954E+04  0.50400001928E-02 0.  1.
</event>
<event>
 5   0  0.2086250E-07  0.3578633E+04  0.7818609E-02  0.8095404E-01
       -1   -1    0    0    0  501  0.00000000000E+00  0.00000000000E+00  0.14033988247E+04  0.14033988247E+04  0.50400001928E-02 0.  1.
        1   -1    0    0  501    0  0.00000000000E+00  0.00000000000E+00 -0.22813565512E+04  0.22813565512E+04  0.50400001928E-02 0. -1.
    10030    2    1    2    0    0  0.00000000000E+00  0.00000000000E+00 -0.87795772648E+03  0.36847553759E+04  0.35786327571E+04 0.  0.
        2    1    3    3  502    0 -0.17558425028E+04  0.16600614833E+03 -0.74977793689E+03  0.19164310294E+04  0.25500000920E-02 0. -1.
       -2    1    3    3    0  502  0.17558425028E+04 -0.16600614833E+03 -0.12817978959E+03  0.17683243465E+04  0.25500000920E-02 0.  1.
</event>
<event>
 5   0  0.2086250E-07  0.3607867E+04  0.7818609E-02  0.8088692E-01
        1   -1    0    0  501    0  0.00000000000E+00  0.00000000000E+00  0.25044148038E+04  0.25044148038E+04  0.50400001928E-02 0. -1.
       -1   -1    0    0    0  501  0.00000000000E+00  0.00000000000E+00 -0.12993757278E+04  0.12993757278E+04  0.50400001928E-02 0.  1.
    10030    2    1    2    0    0  0.00000000000E+00  0.00000000000E+00  0.12050390760E+04  0.38037905316E+04  0.36078668537E+04 0.  0.
        4    1    3    3  502    0  0.11725401825E+03  0.67417713863E+03 -0.11572253032E+04  0.13444089164E+04  0.12699999809E+01 0.  1.
       -4    1    3    3    0  502 -0.11725401825E+03 -0.67417713863E+03  0.23622643793E+04  0.24593816153E+04  0.12699999809E+01 0. -1.
</event>
<event>
 5   0  0.2086250E-07  0.3593687E+04  0.7818609E-02  0.8091939E-01
        1   -1    0    0  501    0  0.00000000000E+00  0.00000000000E+00  0.11328815589E+04  0.11328815589E+04  0.50400001928E-02 0. -1.
       -1   -1    0    0    0  501  0.00000000000E+00  0.00000000000E+00 -0.28499420799E+04  0.28499420799E+04  0.50400001928E-02 0.  1.
    10030    2    1    2    0    0  0.00000000000E+00  0.00000000000E+00 -0.17170605211E+04  0.39828236388E+04  0.35936871462E+04 0.  0.
        3    1    3    3  502    0 -0.56934298246E+03 -0.69200183205E+02  0.10287128440E+04  0.11777903984E+04  0.10100000352E+00 0. -1.
       -3    1    3    3    0  502  0.56934298246E+03  0.69200183205E+02 -0.27457733651E+04  0.28050332404E+04  0.10100000352E+00 0.  1.
</event>
<event>
 5   0  0.6848661E-07  0.3387118E+04  0.7818609E-02  0.8141075E-01
        2   -1    0    0  501    0  0.00000000000E+00  0.00000000000E+00  0.18660042972E+04  0.18660042972E+04  0.25500000920E-02 0.  1.
       -2   -1    0    0    0  501  0.00000000000E+00  0.00000000000E+00 -0.15370503994E+04  0.15370503994E+04  0.25500000920E-02 0. -1.
    10030    2    1    2    0    0  0.00000000000E+00  0.00000000000E+00  0.32895389780E+03  0.34030546965E+04  0.33871183329E+04 0.  0.
        1    1    3    3  502    0 -0.14037771693E+04 -0.94713938342E+03  0.18647281625E+03  0.17036535634E+04  0.50400001928E-02 0.  1.
       -1    1    3    3    0  502  0.14037771693E+04  0.94713938342E+03  0.14248108155E+03  0.16994011332E+04  0.50400001928E-02 0. -1.
</event>
<event>
 5   0  0.2086250E-07  0.3586903E+04  0.7818609E-02  0.8093498E-01
        1   -1    0    0  501    0  0.00000000000E+00  0.00000000000E+00  0.22154509114E+04  0.22154509114E+04  0.50400001928E-02 0. -1.
       -1   -1    0    0    0  501  0.00000000000E+00  0.00000000000E+00 -0.14518346521E+04  0.14518346521E+04  0.50400001928E-02 0.  1.
    10030    2    1    2    0    0  0.00000000000E+00  0.00000000000E+00  0.76361625933E+03  0.36672855636E+04  0.35869030672E+04 0.  0.
        4    1    3    3  502    0 -0.69474941881E+03  0.69452797913E+03  0.19159073075E+04  0.21530787939E+04  0.12699999809E+01 0. -1.
       -4    1    3    3    0  502  0.69474941881E+03 -0.69452797913E+03 -0.11522910482E+04  0.15142067697E+04  0.12699999809E+01 0.  1.
</event>
<event>
 5   0  0.2086250E-07  0.3588919E+04  0.7818609E-02  0.8093035E-01
       -1   -1    0    0    0  501  0.00000000000E+00  0.00000000000E+00  0.21801531654E+04  0.21801531654E+04  0.50400001928E-02 0. -1.
        1   -1    0    0  501    0  0.00000000000E+00  0.00000000000E+00 -0.14769990340E+04  0.14769990340E+04  0.50400001928E-02 0.  1.
    10030    2    1    2    0    0  0.00000000000E+00  0.00000000000E+00  0.70315413145E+03  0.36571521994E+04  0.35889185665E+04 0.  0.
        4    1    3    3  502    0 -0.13048370503E+04  0.90885595789E+03 -0.49577540521E+03  0.16656571512E+04  0.12699999809E+01 0. -1.
       -4    1    3    3    0  502  0.13048370503E+04 -0.90885595789E+03  0.11989295367E+04  0.19914950482E+04  0.12699999809E+01 0.  1.
</event>
<event>
 5   0  0.2108068E-07  0.3622266E+04  0.7818609E-02  0.8085410E-01
        1   -1    0    0  501    0  0.00000000000E+00  0.00000000000E+00  0.26066471109E+04  0.26066471109E+04  0.50400001928E-02 0. -1.
       -1   -1    0    0    0  501  0.00000000000E+00  0.00000000000E+00 -0.12583991231E+04  0.12583991231E+04  0.50400001928E-02 0.  1.
    10030    2    1    2    0    0  0.00000000000E+00  0.00000000000E+00  0.13482479878E+04  0.38650462341E+04  0.36222658316E+04 0.  0.
        5    1    3    3  502    0  0.13603010178E+04  0.84726247212E+03  0.15744219157E+04  0.22465749519E+04  0.46999998093E+01 0. -1.
       -5    1    3    3    0  502 -0.13603010178E+04 -0.84726247212E+03 -0.22617392792E+03  0.16184712822E+04  0.46999998093E+01 0.  1.
</event>
<event>
 5   0  0.6324216E-07  0.3718768E+04  0.7818609E-02  0.8063815E-01
        2   -1    0    0  501    0  0.00000000000E+00  0.00000000000E+00  0.16498441799E+04  0.16498441799E+04  0.25500000920E-02 0. -1.
       -2   -1    0    0    0  501  0.00000000000E+00  0.00000000000E+00 -0.20955361328E+04  0.20955361328E+04  0.25500000920E-02 0.  1.
    10030    2    1    2    0    0  0.00000000000E+00  0.00000000000E+00 -0.44569195289E+03  0.37453803127E+04  0.37187675875E+04 0.  0.
        2    1    3    3  502    0  0.10853331775E+03  0.92745544347E+02 -0.20900081150E+04  0.20948783109E+04  0.25500000920E-02 0.  1.
       -2    1    3    3    0  502 -0.10853331775E+03 -0.92745544347E+02  0.16443161621E+04  0.16505020018E+04  0.25500000920E-02 0. -1.
</event>
<event>
 5   0  0.6541476E-07  0.3753631E+04  0.7818609E-02  0.8056179E-01
       -2   -1    0    0    0  501  0.00000000000E+00  0.00000000000E+00  0.12646603369E+04  0.12646603369E+04  0.25500000920E-02 0. -1.
        2   -1    0    0  501    0  0.00000000000E+00  0.00000000000E+00 -0.27852825516E+04  0.27852825516E+04  0.25500000920E-02 0.  1.
    10030    2    1    2    0    0  0.00000000000E+00  0.00000000000E+00 -0.15206222146E+04  0.40499428885E+04  0.37536309729E+04 0.  0.
        4    1    3    3  502    0 -0.14580927640E+04  0.27131773419E+03 -0.20012267907E+04  0.24908950403E+04  0.12699999809E+01 0.  1.
       -4    1    3    3    0  502  0.14580927640E+04 -0.27131773419E+03  0.48060457604E+03  0.15590478482E+04  0.12699999809E+01 0. -1.
</event>
<event>
 5   0  0.6669864E-07  0.3597157E+04  0.7818609E-02  0.8091143E-01
        2   -1    0    0  501    0  0.00000000000E+00  0.00000000000E+00  0.12209826530E+04  0.12209826530E+04  0.25500000920E-02 0.  1.
       -2   -1    0    0    0  501  0.00000000000E+00  0.00000000000E+00 -0.26494113210E+04  0.26494113210E+04  0.25500000920E-02 0. -1.
    10030    2    1    2    0    0  0.00000000000E+00  0.00000000000E+00 -0.14284286680E+04  0.38703939740E+04  0.35971573575E+04 0.  0.
        5    1    3    3  502    0  0.17909564924E+04  0.15194778209E+03 -0.64407131491E+03  0.19093096226E+04  0.46999998093E+01 0. -1.
       -5    1    3    3    0  502 -0.17909564924E+04 -0.15194778209E+03 -0.78435735308E+03  0.19610843514E+04  0.46999998093E+01 0.  1.
</event>
<event>
 5   0  0.6729577E-07  0.3603175E+04  0.7818609E-02  0.8089765E-01
        2   -1    0    0  501    0  0.00000000000E+00  0.00000000000E+00  0.26754385663E+04  0.26754385663E+04  0.25500000920E-02 0. -1.
       -2   -1    0    0    0  501  0.00000000000E+00  0.00000000000E+00 -0.12131535453E+04  0.12131535453E+04  0.25500000920E-02 0.  1.
    10030    2    1    2    0    0  0.00000000000E+00  0.00000000000E+00  0.14622850210E+04  0.38885921116E+04  0.36031751453E+04 0.  0.
        3    1    3    3  502    0  0.13982457321E+04  0.27617791964E+02 -0.49454274610E+03  0.14833834325E+04  0.10100000352E+00 0.  1.
       -3    1    3    3    0  502 -0.13982457321E+04 -0.27617791964E+02  0.19568277671E+04  0.24052086791E+04  0.10100000352E+00 0. -1.
</event>
<event>
 5   0  0.6669864E-07  0.3611471E+04  0.7818609E-02  0.8087869E-01
        2   -1    0    0  501    0  0.00000000000E+00  0.00000000000E+00  0.21540495975E+04  0.21540495975E+04  0.25500000920E-02 0. -1.
       -2   -1    0    0    0  501  0.00000000000E+00  0.00000000000E+00 -0.15137442692E+04  0.15137442692E+04  0.25500000920E-02 0.  1.
    10030    2    1    2    0    0  0.00000000000E+00  0.00000000000E+00  0.64030532827E+03  0.36677938666E+04  0.36114707440E+04 0.  0.
        5    1    3    3  502    0 -0.15317671709E+04  0.15990560126E+03  0.12776054957E+04  0.20010443172E+04  0.46999998093E+01 0. -1.
       -5    1    3    3    0  502  0.15317671709E+04 -0.15990560126E+03 -0.63730016738E+03  0.16667495494E+04  0.46999998093E+01 0.  1.
</event>
<event>
 5   0  0.6324216E-07  0.3631918E+04  0.7818609E-02  0.8083219E-01
        2   -1    0    0  501    0  0.00000000000E+00  0.00000000000E+00  0.25036268653E+04  0.25036268653E+04  0.25500000920E-02 0. -1.
       -2   -1    0    0    0  501  0.00000000000E+00  0.00000000000E+00 -0.13171719899E+04  0.13171719899E+04  0.25500000920E-02 0.  1.
    10030    2    1    2    0    0  0.00000000000E+00  0.00000000000E+00  0.11864548754E+04  0.38207988552E+04  0.36319180498E+04 0.  0.
        2    1    3    3  502    0  0.79035871439E+03  0.22781032895E+03  0.22964188951E+04  0.24392835393E+04  0.25500000920E-02 0. -1.
       -2    1    3    3    0  502 -0.79035871439E+03 -0.22781032895E+03 -0.11099640196E+04  0.13815153160E+04  0.25500000920E-02 0.  1.
</event>
<event>
 5   0  0.2193129E-07  0.3513597E+04  0.7818609E-02  0.8110575E-01
        1   -1    0    0  501    0  0.00000000000E+00  0.00000000000E+00  0.22861620593E+04  0.22861620593E+04  0.50400001928E-02 0.  1.
       -1   -1    0    0    0  501  0.00000000000E+00  0.00000000000E+00 -0.13500099888E+04  0.13500099888E+04  0.50400001928E-02 0. -1.
    10030    2    1    2    0    0  0.00000000000E+00  0.00000000000E+00  0.93615207052E+03  0.36361720481E+04  0.35135973680E+04 0.  0.
        1    1    3    3  502    0  0.15624802920E+04 -0.65792756983E+03 -0.85652992962E+01  0.16953721463E+04  0.50400001928E-02 0. -1.
       -1    1    3    3    0  502 -0.15624802920E+04  0.65792756983E+03  0.94471736981E+03  0.19407999018E+04  0.50400001928E-02 0.  1.
</event>
<event>
 5   0  0.2086250E-07  0.3603847E+04  0.7818609E-02  0.8089611E-01
       -1   -1    0    0    0  501  0.00000000000E+00  0.00000000000E+00  0.15766866523E+04  0.15766866523E+04  0.50400001928E-02 0.  1.
        1   -1    0    0  501    0  0.00000000000E+00  0.00000000000E+00 -0.20593364779E+04  0.20593364779E+04  0.50400001928E-02 0. -1.
    10030    2    1    2    0    0  0.00000000000E+00  0.00000000000E+00 -0.48264982553E+03  0.36360231302E+04  0.36038470208E+04 0.  0.
        4    1    3    3  502    0 -0.64179966637E+02 -0.33858681332E+03 -0.20257783865E+04  0.20548819388E+04  0.12699999809E+01 0. -1.
       -4    1    3    3    0  502  0.64179966637E+02  0.33858681332E+03  0.15431285610E+04  0.15811411914E+04  0.12699999809E+01 0.  1.
</event>
<event>
 5   0  0.6541476E-07  0.3611334E+04  0.7818609E-02  0.8087900E-01
        2   -1    0    0  501    0  0.00000000000E+00  0.00000000000E+00  0.20900025130E+04  0.20900025130E+04  0.25500000920E-02 0.  1.
       -2   -1    0    0    0  501  0.00000000000E+00  0.00000000000E+00 -0.15600142364E+04  0.15600142364E+04  0.25500000920E-02 0. -1.
    10030    2    1    2    0    0  0.00000000000E+00  0.00000000000E+00  0.52998827663E+03  0.36500167494E+04  0.36113341991E+04 0.  0.
        4    1    3    3  502    0  0.13114175087E+04 -0.21060127894E+03 -0.97132668985E+03  0.16454926108E+04  0.12699999809E+01 0. -1.
       -4    1    3    3    0  502 -0.13114175087E+04  0.21060127894E+03  0.15013149665E+04  0.20045241386E+04  0.12699999809E+01 0.  1.
</event>
<event>
 5   0  0.6541476E-07  0.3798199E+04  0.7818609E-02  0.8046541E-01
       -2   -1    0    0    0  501  0.00000000000E+00  0.00000000000E+00  0.18928759404E+04  0.18928759404E+04  0.25500000920E-02 0. -1.
        2   -1    0    0  501    0  0.00000000000E+00  0.00000000000E+00 -0.19053439636E+04  0.19053439636E+04  0.25500000920E-02 0.  1.
    10030    2    1    2    0    0  0.00000000000E+00  0.00000000000E+00 -0.12468023187E+02  0.37982199040E+04  0.37981994402E+04 0.  0.
        4    1    3    3  502    0  0.86001275264E+03  0.87756009823E+03 -0.14542903185E+04  0.19038633365E+04  0.12699999809E+01 0.  1.
       -4    1    3    3    0  502 -0.86001275264E+03 -0.87756009823E+03  0.14418222953E+04  0.18943565675E+04  0.12699999809E+01 0. -1.
</event>
<event>
 5   0  0.2086250E-07  0.3599788E+04  0.7818609E-02  0.8090540E-01
       -1   -1    0    0    0  501  0.00000000000E+00  0.00000000000E+00  0.14104589573E+04  0.14104589573E+04  0.50400001928E-02 0. -1.
        1   -1    0    0  501    0  0.00000000000E+00  0.00000000000E+00 -0.22968539575E+04  0.22968539576E+04  0.50400001928E-02 0.  1.
    10030    2    1    2    0    0  0.00000000000E+00  0.00000000000E+00 -0.88639500025E+03  0.37073129149E+04  0.35997879038E+04 0.  0.
        2    1    3    3  502    0 -0.87862572903E+03 -0.10411385430E+04  0.76823132397E+03  0.15640115104E+04  0.25500000920E-02 0. -1.
       -2    1    3    3    0  502  0.87862572903E+03  0.10411385430E+04 -0.16546263242E+04  0.21433014045E+04  0.25500000920E-02 0.  1.
</event>
<event>
 5   0  0.2086250E-07  0.3698019E+04  0.7818609E-02  0.8068401E-01
       -1   -1    0    0    0  501  0.00000000000E+00  0.00000000000E+00  0.23004638744E+04  0.23004638744E+04  0.50400001928E-02 0. -1.
        1   -1    0    0  501    0  0.00000000000E+00  0.00000000000E+00 -0.14861506686E+04  0.14861506687E+04  0.50400001928E-02 0.  1.
    10030    2    1    2    0    0  0.00000000000E+00  0.00000000000E+00  0.81431320574E+03  0.37866145431E+04  0.36980188886E+04 0.  0.
        2    1    3    3  502    0  0.71797699565E+03  0.15529851687E+04  0.11250830801E+04  0.20476976919E+04  0.25500000920E-02 0. -1.
       -2    1    3    3    0  502 -0.71797699565E+03 -0.15529851687E+04 -0.31076987436E+03  0.17389168511E+04  0.25500000920E-02 0.  1.
</event>
<event>
 5   0  0.6324216E-07  0.3609569E+04  0.7818609E-02  0.8088303E-01
       -2   -1    0    0    0  501  0.00000000000E+00  0.00000000000E+00  0.21923850624E+04  0.21923850624E+04  0.25500000920E-02 0. -1.
        2   -1    0    0  501    0  0.00000000000E+00  0.00000000000E+00 -0.14857093883E+04  0.14857093883E+04  0.25500000920E-02 0.  1.
    10030    2    1    2    0    0  0.00000000000E+00  0.00000000000E+00  0.70667567407E+03  0.36780944507E+04  0.36095689881E+04 0.  0.
        2    1    3    3  502    0  0.30134772791E+03 -0.15691935741E+04 -0.50167941560E+03  0.16747719732E+04  0.25500000920E-02 0.  1.
       -2    1    3    3    0  502 -0.30134772791E+03  0.15691935741E+04  0.12083550897E+04  0.20033224775E+04  0.25500000920E-02 0. -1.
</event>
<event>
 5   0  0.6729577E-07  0.2930188E+04  0.7818609E-02  0.8263952E-01
        2   -1    0    0  501    0  0.00000000000E+00  0.00000000000E+00  0.21471116750E+04  0.21471116750E+04  0.25500000920E-02 0. -1.
       -2   -1    0    0    0  501  0.00000000000E+00  0.00000000000E+00 -0.99971506830E+03  0.99971506830E+03  0.25500000920E-02 0.  1.
    10030    2    1    2    0    0  0.00000000000E+00  0.00000000000E+00  0.11473966067E+04  0.31468267433E+04  0.29301876355E+04 0.  0.
        3    1    3    3  502    0 -0.12719610237E+04 -0.29474429159E+03 -0.14007644241E+03  0.13131566788E+04  0.10100000352E+00 0.  1.
       -3    1    3    3    0  502  0.12719610237E+04  0.29474429159E+03  0.12874730491E+04  0.18336700645E+04  0.10100000352E+00 0. -1.
</event>
<event>
 5   0  0.6324216E-07  0.3602597E+04  0.7818609E-02  0.8089897E-01
       -2   -1    0    0    0  501  0.00000000000E+00  0.00000000000E+00  0.22139175155E+04  0.22139175155E+04  0.25500000920E-02 0.  1.
        2   -1    0    0  501    0  0.00000000000E+00  0.00000000000E+00 -0.14655813244E+04  0.14655813244E+04  0.25500000920E-02 0. -1.
    10030    2    1    2    0    0  0.00000000000E+00  0.00000000000E+00  0.74833619111E+03  0.36794988398E+04  0.36025969324E+04 0.  0.
        2    1    3    3  502    0 -0.49636087257E+03  0.53163524061E+03 -0.13089367662E+04  0.14974396825E+04  0.25500000920E-02 0. -1.
       -2    1    3    3    0  502  0.49636087257E+03 -0.53163524061E+03  0.20572729573E+04  0.21820591573E+04  0.25500000920E-02 0.  1.
</event>
<event>
 5   0  0.6848661E-07  0.3562939E+04  0.7818609E-02  0.8099034E-01
       -2   -1    0    0    0  501  0.00000000000E+00  0.00000000000E+00  0.13364954398E+04  0.13364954398E+04  0.25500000920E-02 0.  1.
        2   -1    0    0  501    0  0.00000000000E+00  0.00000000000E+00 -0.23745936461E+04  0.23745936461E+04  0.25500000920E-02 0. -1.
    10030    2    1    2    0    0  0.00000000000E+00  0.00000000000E+00 -0.10380982063E+04  0.37110890859E+04  0.35629390000E+04 0.  0.
        1    1    3    3  502    0  0.17687462283E+04  0.14436762660E+03 -0.68151016968E+03  0.19009895694E+04  0.50400001928E-02 0. -1.
       -1    1    3    3    0  502 -0.17687462283E+04 -0.14436762660E+03 -0.35658803660E+03  0.18100995165E+04  0.50400001928E-02 0.  1.
</event>
<event>
 5   0  0.2108068E-07  0.3626749E+04  0.7818609E-02  0.8084392E-01
        1   -1    0    0  501    0  0.00000000000E+00  0.00000000000E+00  0.19364827650E+04  0.19364827650E+04  0.50400001928E-02 0.  1.
       -1   -1    0    0    0  501  0.00000000000E+00  0.00000000000E+00 -0.16980930029E+04  0.16980930029E+04  0.50400001928E-02 0. -1.
    10030    2    1    2    0    0  0.00000000000E+00  0.00000000000E+00  0.23838976211E+03  0.36345757678E+04  0.36267494170E+04 0.  0.
        5    1    3    3  502    0 -0.59380997592E+03  0.10093292924E+03 -0.15949077513E+04  0.17048608650E+04  0.46999998093E+01 0. -1.
       -5    1    3    3    0  502  0.59380997592E+03 -0.10093292924E+03  0.18332975134E+04  0.19297149029E+04  0.46999998093E+01 0.  1.
</event>
<event>
 5   0  0.6669864E-07  0.3631079E+04  0.7818609E-02  0.8083410E-01
       -2   -1    0    0    0  501  0.00000000000E+00  0.00000000000E+00  0.23945293613E+04  0.23945293613E+04  0.25500000920E-02 0. -1.
        2   -1    0    0  501    0  0.00000000000E+00  0.00000000000E+00 -0.13765475688E+04  0.13765475688E+04  0.25500000920E-02 0.  1.
    10030    2    1    2    0    0  0.00000000000E+00  0.00000000000E+00  0.10179817925E+04  0.37710769301E+04  0.36310789419E+04 0.  0.
        5    1    3    3  502    0 -0.32146488904E+03  0.13192315472E+04  0.17606333530E+04  0.22234125671E+04  0.46999998093E+01 0. -1.
       -5    1    3    3    0  502  0.32146488904E+03 -0.13192315472E+04 -0.74265156052E+03  0.15476643629E+04  0.46999998093E+01 0.  1.
</event>
<event>
 5   0  0.6541476E-07  0.3618347E+04  0.7818609E-02  0.8086302E-01
       -2   -1    0    0    0  501  0.00000000000E+00  0.00000000000E+00  0.15683776573E+04  0.15683776573E+04  0.25500000920E-02 0. -1.
        2   -1    0    0  501    0  0.00000000000E+00  0.00000000000E+00 -0.20869387759E+04  0.20869387760E+04  0.25500000920E-02 0.  1.
    10030    2    1    2    0    0  0.00000000000E+00  0.00000000000E+00 -0.51856111868E+03  0.36553164332E+04  0.36183466657E+04 0.  0.
        4    1    3    3  502    0  0.15426047483E+04 -0.21061714840E+01  0.69561406122E+03  0.16921921819E+04  0.12699999809E+01 0. -1.
       -4    1    3    3    0  502 -0.15426047483E+04  0.21061714840E+01 -0.12141751799E+04  0.19631242513E+04  0.12699999809E+01 0.  1.
</event>
<event>
 5   0  0.6324216E-07  0.3606759E+04  0.7818609E-02  0.8088945E-01
       -2   -1    0    0    0  501  0.00000000000E+00  0.00000000000E+00  0.26582673675E+04  0.26582673675E+04  0.25500000920E-02 0. -1.
        2   -1    0    0  501    0  0.00000000000E+00  0.00000000000E+00 -0.12234199723E+04  0.12234199723E+04  0.25500000920E-02 0.  1.
    10030    2    1    2    0    0  0.00000000000E+00  0.00000000000E+00  0.14348473951E+04  0.38816873398E+04  0.36067588715E+04 0.  0.
        2    1    3    3  502    0  0.15180446868E+02 -0.14685371396E+04  0.18437883915E+04  0.23571990601E+04  0.25500000920E-02 0. -1.
       -2    1    3    3    0  502 -0.15180446868E+02  0.14685371396E+04 -0.40894099639E+03  0.15244882797E+04  0.25500000920E-02 0.  1.
</event>
<event>
 5   0  0.2108068E-07  0.3600344E+04  0.7818609E-02  0.8090413E-01
       -1   -1    0    0    0  501  0.00000000000E+00  0.00000000000E+00  0.16019354502E+04  0.16019354502E+04  0.50400001928E-02 0.  1.
        1   -1    0    0  501    0  0.00000000000E+00  0.00000000000E+00 -0.20229402766E+04  0.20229402766E+04  0.50400001928E-02 0. -1.
    10030    2    1    2    0    0  0.00000000000E+00  0.00000000000E+00 -0.42100482645E+03  0.36248757268E+04  0.36003442850E+04 0.  0.
        5    1    3    3  502    0  0.35010495527E+03 -0.17610890775E+04 -0.34017998636E+03  0.18274990374E+04  0.46999998093E+01 0. -1.
       -5    1    3    3    0  502 -0.35010495527E+03  0.17610890775E+04 -0.80824840092E+02  0.17973766894E+04  0.46999998093E+01 0.  1.
</event>
<event>
 5   0  0.2108068E-07  0.3699250E+04  0.7818609E-02  0.8068128E-01
        1   -1    0    0  501    0  0.00000000000E+00  0.00000000000E+00  0.17047959139E+04  0.17047959139E+04  0.50400001928E-02 0.  1.
       -1   -1    0    0    0  501  0.00000000000E+00  0.00000000000E+00 -0.20067583305E+04  0.20067583305E+04  0.50400001928E-02 0. -1.
    10030    2    1    2    0    0  0.00000000000E+00  0.00000000000E+00 -0.30196241658E+03  0.37115542445E+04  0.36992504117E+04 0.  0.
        5    1    3    3  502    0  0.84900474823E+03 -0.66526897831E+03 -0.16585430751E+04  0.19784284415E+04  0.46999998093E+01 0. -1.
       -5    1    3    3    0  502 -0.84900474823E+03  0.66526897831E+03  0.13565806585E+04  0.17331258030E+04  0.46999998093E+01 0.  1.
</event>
<event>
 5   0  0.6848661E-07  0.3599894E+04  0.7818609E-02  0.8090516E-01
        2   -1    0    0  501    0  0.00000000000E+00  0.00000000000E+00  0.16060971435E+04  0.16060971435E+04  0.25500000920E-02 0. -1.
       -2   -1    0    0    0  501  0.00000000000E+00  0.00000000000E+00 -0.20171934288E+04  0.20171934288E+04  0.25500000920E-02 0.  1.
    10030    2    1    2    0    0  0.00000000000E+00  0.00000000000E+00 -0.41109628529E+03  0.36232905723E+04  0.35998936672E+04 0.  0.
        1    1    3    3  502    0 -0.14707923082E+04 -0.11277239977E+03  0.83259187036E+03  0.16938585687E+04  0.50400001928E-02 0. -1.
       -1    1    3    3    0  502  0.14707923082E+04  0.11277239977E+03 -0.12436881556E+04  0.19294320036E+04  0.50400001928E-02 0.  1.
</event>
<event>
 5   0  0.6669864E-07  0.3584968E+04  0.7818609E-02  0.8093944E-01
       -2   -1    0    0    0  501  0.00000000000E+00  0.00000000000E+00  0.26092952729E+04  0.26092952729E+04  0.25500000920E-02 0.  1.
        2   -1    0    0  501    0  0.00000000000E+00  0.00000000000E+00 -0.12313668438E+04  0.12313668438E+04  0.25500000920E-02 0. -1.
    10030    2    1    2    0    0  0.00000000000E+00  0.00000000000E+00  0.13779284291E+04  0.38406621167E+04  0.35849684432E+04 0.  0.
        5    1    3    3  502    0 -0.16682557316E+04 -0.16859531765E+03  0.13677778752E+04  0.21638715242E+04  0.46999998093E+01 0.  1.
       -5    1    3    3    0  502  0.16682557316E+04  0.16859531765E+03  0.10150553845E+02  0.16767905925E+04  0.46999998093E+01 0. -1.
</event>
<event>
 5   0  0.6669864E-07  0.3590368E+04  0.7818609E-02  0.8092702E-01
        2   -1    0    0  501    0  0.00000000000E+00  0.00000000000E+00  0.20618654000E+04  0.20618654000E+04  0.25500000920E-02 0.  1.
       -2   -1    0    0    0  501  0.00000000000E+00  0.00000000000E+00 -0.15629949056E+04  0.15629949056E+04  0.25500000920E-02 0. -1.
    10030    2    1    2    0    0  0.00000000000E+00  0.00000000000E+00  0.49887049439E+03  0.36248603055E+04  0.35903677339E+04 0.  0.
        5    1    3    3  502    0 -0.10478311110E+04 -0.13861100222E+04  0.70478029973E+03  0.18750969019E+04  0.46999998093E+01 0.  1.
       -5    1    3    3    0  502  0.10478311110E+04  0.13861100222E+04 -0.20590980534E+03  0.17497634036E+04  0.46999998093E+01 0. -1.
</event>
<event>
 5   0  0.2086250E-07  0.3339773E+04  0.7818609E-02  0.8152848E-01
       -1   -1    0    0    0  501  0.00000000000E+00  0.00000000000E+00  0.18813862496E+04  0.18813862496E+04  0.50400001928E-02 0.  1.
        1   -1    0    0  501    0  0.00000000000E+00  0.00000000000E+00 -0.14821631857E+04  0.14821631857E+04  0.50400001928E-02 0. -1.
    10030    2    1    2    0    0  0.00000000000E+00  0.00000000000E+00  0.39922306393E+03  0.33635494353E+04  0.33397733081E+04 0.  0.
        4    1    3    3  502    0  0.62983983626E+03 -0.14495796786E+03  0.17503161857E+04  0.18658294120E+04  0.12699999809E+01 0.  1.
       -4    1    3    3    0  502 -0.62983983626E+03  0.14495796786E+03 -0.13510931218E+04  0.14977200234E+04  0.12699999809E+01 0. -1.
</event>
<event>
 5   0  0.2086250E-07  0.3564542E+04  0.7818609E-02  0.8098662E-01
        1   -1    0    0  501    0  0.00000000000E+00  0.00000000000E+00  0.11234711749E+04  0.11234711749E+04  0.50400001928E-02 0. -1.
       -1   -1    0    0    0  501  0.00000000000E+00  0.00000000000E+00 -0.28273891616E+04  0.28273891616E+04  0.50400001928E-02 0.  1.
    10030    2    1    2    0    0  0.00000000000E+00  0.00000000000E+00 -0.17039179867E+04  0.39508603365E+04  0.35645421716E+04 0.  0.
        4    1    3    3  502    0 -0.11711785968E+03  0.14452859163E+04 -0.20005727531E+04  0.24708016768E+04  0.12699999809E+01 0.  1.
       -4    1    3    3    0  502  0.11711785968E+03 -0.14452859163E+04  0.29665476638E+03  0.14800586597E+04  0.12699999809E+01 0. -1.
</event>
<event>
 5   0  0.2086250E-07  0.3584739E+04  0.7818609E-02  0.8093996E-01
       -1   -1    0    0    0  501  0.00000000000E+00  0.00000000000E+00  0.20068728943E+04  0.20068728943E+04  0.50400001928E-02 0. -1.
        1   -1    0    0  501    0  0.00000000000E+00  0.00000000000E+00 -0.16007929434E+04  0.16007929434E+04  0.50400001928E-02 0.  1.
    10030    2    1    2    0    0  0.00000000000E+00  0.00000000000E+00  0.40607995086E+03  0.36076658377E+04  0.35847387450E+04 0.  0.
        2    1    3    3  502    0  0.16172007270E+04  0.46743646804E+03  0.82240516289E+03  0.18735488505E+04  0.25500000920E-02 0.  1.
       -2    1    3    3    0  502 -0.16172007270E+04 -0.46743646804E+03 -0.41632521204E+03  0.17341169872E+04  0.25500000920E-02 0. -1.
</event>
<event>
 5   0  0.6848661E-07  0.3509111E+04  0.7818609E-02  0.8111634E-01
       -2   -1    0    0    0  501  0.00000000000E+00  0.00000000000E+00  0.18282367262E+04  0.18282367262E+04  0.25500000920E-02 0.  1.
        2   -1    0    0  501    0  0.00000000000E+00  0.00000000000E+00 -0.16838434950E+04  0.16838434950E+04  0.25500000920E-02 0. -1.
    10030    2    1    2    0    0  0.00000000000E+00  0.00000000000E+00  0.14439323121E+03  0.35120802213E+04  0.35091107243E+04 0.  0.
        1    1    3    3  502    0  0.10535992058E+04  0.41480253621E+03  0.14136039276E+04  0.18111898008E+04  0.50400001928E-02 0.  1.
       -1    1    3    3    0  502 -0.10535992058E+04 -0.41480253621E+03 -0.12692106964E+04  0.17008904204E+04  0.50400001928E-02 0. -1.
</event>
<event>
 5   0  0.6669864E-07  0.3532308E+04  0.7818609E-02  0.8106176E-01
        2   -1    0    0  501    0  0.00000000000E+00  0.00000000000E+00  0.21395029727E+04  0.21395029727E+04  0.25500000920E-02 0. -1.
       -2   -1    0    0    0  501  0.00000000000E+00  0.00000000000E+00 -0.14579555810E+04  0.14579555810E+04  0.25500000920E-02 0.  1.
    10030    2    1    2    0    0  0.00000000000E+00  0.00000000000E+00  0.68154739172E+03  0.35974585537E+04  0.35323081969E+04 0.  0.
        5    1    3    3  502    0  0.87659034850E+03 -0.14745931358E+04  0.76857194353E+03  0.18797767095E+04  0.46999998093E+01 0. -1.
       -5    1    3    3    0  502 -0.87659034850E+03  0.14745931358E+04 -0.87024551811E+02  0.17176818442E+04  0.46999998093E+01 0.  1.
</event>
<event>
 5   0  0.6729577E-07  0.3598888E+04  0.7818609E-02  0.8090747E-01
       -2   -1    0    0    0  501  0.00000000000E+00  0.00000000000E+00  0.14221657765E+04  0.14221657765E+04  0.25500000920E-02 0.  1.
        2   -1    0    0  501    0  0.00000000000E+00  0.00000000000E+00 -0.22768076956E+04  0.22768076956E+04  0.25500000920E-02 0. -1.
    10030    2    1    2    0    0  0.00000000000E+00  0.00000000000E+00 -0.85464191901E+03  0.36989734721E+04  0.35988875972E+04 0.  0.
        3    1    3    3  502    0  0.97190600124E+03  0.78607111853E+02 -0.19817348842E+04  0.22086315933E+04  0.10100000352E+00 0. -1.
       -3    1    3    3    0  502 -0.97190600124E+03 -0.78607111853E+02  0.11270929652E+04  0.14903418788E+04  0.10100000352E+00 0.  1.
</event>
<event>
 5   0  0.2193129E-07  0.3572626E+04  0.7818609E-02  0.8096791E-01
       -1   -1    0    0    0  501  0.00000000000E+00  0.00000000000E+00  0.15428840709E+04  0.15428840709E+04  0.50400001928E-02 0. -1.
        1   -1    0    0  501    0  0.00000000000E+00  0.00000000000E+00 -0.20681488857E+04  0.20681488857E+04  0.50400001928E-02 0.  1.
    10030    2    1    2    0    0  0.00000000000E+00  0.00000000000E+00 -0.52526481479E+03  0.36110329566E+04  0.35726259094E+04 0.  0.
        1    1    3    3  502    0 -0.62358011181E+02  0.13541742914E+02  0.15417317004E+04  0.15430516960E+04  0.50400001928E-02 0. -1.
       -1    1    3    3    0  502  0.62358011181E+02 -0.13541742914E+02 -0.20669965152E+04  0.20679812606E+04  0.50400001928E-02 0.  1.
</event>
<event>
 5   0  0.6848661E-07  0.3567670E+04  0.7818609E-02  0.8097938E-01
        2   -1    0    0  501    0  0.00000000000E+00  0.00000000000E+00  0.12080507965E+04  0.12080507965E+04  0.25500000920E-02 0.  1.
       -2   -1    0    0    0  501  0.00000000000E+00  0.00000000000E+00 -0.26340509177E+04  0.26340509177E+04  0.25500000920E-02 0. -1.
    10030    2    1    2    0    0  0.00000000000E+00  0.00000000000E+00 -0.14260001212E+04  0.38421017141E+04  0.35676700010E+04 0.  0.
        1    1    3    3  502    0  0.25956127993E+03 -0.62828170219E+03  0.10630910016E+04  0.12618527779E+04  0.50400001928E-02 0.  1.
       -1    1    3    3    0  502 -0.25956127993E+03  0.62828170219E+03 -0.24890911228E+04  0.25802489362E+04  0.50400001928E-02 0. -1.
</event>
<event>
 5   0  0.2086250E-07  0.2923306E+04  0.7818609E-02  0.8265977E-01
       -1   -1    0    0    0  501  0.00000000000E+00  0.00000000000E+00  0.25667302514E+04  0.25667302514E+04  0.50400001928E-02 0. -1.
        1   -1    0    0  501    0  0.00000000000E+00  0.00000000000E+00 -0.83235441044E+03  0.83235441045E+03  0.50400001928E-02 0.  1.
    10030    2    1    2    0    0  0.00000000000E+00  0.00000000000E+00  0.17343758410E+04  0.33990846619E+04  0.29233058309E+04 0.  0.
        4    1    3    3  502    0  0.96590641388E+03 -0.10774058239E+04  0.62705993420E+03  0.15770175281E+04  0.12699999809E+01 0.  1.
       -4    1    3    3    0  502 -0.96590641388E+03  0.10774058239E+04  0.11073159068E+04  0.18220671338E+04  0.12699999809E+01 0. -1.
</event>
<event>
 5   0  0.6729577E-07  0.3577155E+04  0.7818609E-02  0.8095745E-01
       -2   -1    0    0    0  501  0.00000000000E+00  0.00000000000E+00  0.24340163661E+04  0.24340163661E+04  0.25500000920E-02 0.  1.
        2   -1    0    0  501    0  0.00000000000E+00  0.00000000000E+00 -0.13142922297E+04  0.13142922297E+04  0.25500000920E-02 0. -1.
    10030    2    1    2    0    0  0.00000000000E+00  0.00000000000E+00  0.11197241364E+04  0.37483085957E+04  0.35771546217E+04 0.  0.
        3    1    3    3  502    0 -0.79903804451E+03  0.12135673475E+04  0.16527418948E+04  0.22006279296E+04  0.10100000352E+00 0.  1.
       -3    1    3    3    0  502  0.79903804451E+03 -0.12135673475E+04 -0.53301775835E+03  0.15476806662E+04  0.10100000352E+00 0. -1.
</event>
<event>
 5   0  0.6541476E-07  0.3592936E+04  0.7818609E-02  0.8092112E-01
       -2   -1    0    0    0  501  0.00000000000E+00  0.00000000000E+00  0.16174081692E+04  0.16174081692E+04  0.25500000920E-02 0. -1.
        2   -1    0    0  501    0  0.00000000000E+00  0.00000000000E+00 -0.19953508126E+04  0.19953508126E+04  0.25500000920E-02 0.  1.
    10030    2    1    2    0    0  0.00000000000E+00  0.00000000000E+00 -0.37794264341E+03  0.36127589818E+04  0.35929356825E+04 0.  0.
        4    1    3    3  502    0 -0.11106522985E+03 -0.23527839589E+03 -0.19763058784E+04  0.19933584592E+04  0.12699999809E+01 0.  1.
       -4    1    3    3    0  502  0.11106522985E+03  0.23527839589E+03  0.15983632350E+04  0.16194005226E+04  0.12699999809E+01 0. -1.
</event>
<event>
 5   0  0.2193129E-07  0.3602076E+04  0.7818609E-02  0.8090016E-01
       -1   -1    0    0    0  501  0.00000000000E+00  0.00000000000E+00  0.10316736772E+04  0.10316736773E+04  0.50400001928E-02 0.  1.
        1   -1    0    0  501    0  0.00000000000E+00  0.00000000000E+00 -0.31441508712E+04  0.31441508712E+04  0.50400001928E-02 0. -1.
    10030    2    1    2    0    0  0.00000000000E+00  0.00000000000E+00 -0.21124771940E+04  0.41758245485E+04  0.36020758966E+04 0.  0.
        1    1    3    3  502    0 -0.44845894724E+03 -0.15286700064E+04 -0.20301674203E+04  0.25806059695E+04  0.50400001928E-02 0. -1.
       -1    1    3    3    0  502  0.44845894724E+03  0.15286700064E+04 -0.82309773706E+02  0.15952185789E+04  0.50400001928E-02 0.  1.
</event>
<event>
 5   0  0.6848661E-07  0.3634186E+04  0.7818609E-02  0.8082706E-01
        2   -1    0    0  501    0  0.00000000000E+00  0.00000000000E+00  0.27686025085E+04  0.27686025085E+04  0.25500000920E-02 0.  1.
       -2   -1    0    0    0  501  0.00000000000E+00  0.00000000000E+00 -0.11925969698E+04  0.11925969698E+04  0.25500000920E-02 0. -1.
    10030    2    1    2    0    0  0.00000000000E+00  0.00000000000E+00  0.15760055386E+04  0.39611994783E+04  0.36341859954E+04 0.  0.
        1    1    3    3  502    0 -0.67978469225E+03  0.16532852609E+04  0.11434901622E+04  0.21220341969E+04  0.50400001928E-02 0.  1.
       -1    1    3    3    0  502  0.67978469225E+03 -0.16532852609E+04  0.43251537647E+03  0.18391652815E+04  0.50400001928E-02 0. -1.
</event>
<event>
 5   0  0.2108068E-07  0.3662262E+04  0.7818609E-02  0.8076377E-01
       -1   -1    0    0    0  501  0.00000000000E+00  0.00000000000E+00  0.16623765307E+04  0.16623765307E+04  0.50400001928E-02 0. -1.
        1   -1    0    0  501    0  0.00000000000E+00  0.00000000000E+00 -0.20170164209E+04  0.20170164209E+04  0.50400001928E-02 0.  1.
    10030    2    1    2    0    0  0.00000000000E+00  0.00000000000E+00 -0.35463989020E+03  0.36793929516E+04  0.36622620115E+04 0.  0.
        5    1    3    3  502    0 -0.82288902136E+03  0.81005497914E+03 -0.16051232829E+04  0.19773159216E+04  0.46999998093E+01 0.  1.
       -5    1    3    3    0  502  0.82288902136E+03 -0.81005497914E+03  0.12504833927E+04  0.17020770300E+04  0.46999998093E+01 0. -1.
</event>
<event>
 5   0  0.2108068E-07  0.3597546E+04  0.7818609E-02  0.8091054E-01
       -1   -1    0    0    0  501  0.00000000000E+00  0.00000000000E+00  0.12269116034E+04  0.12269116034E+04  0.50400001928E-02 0.  1.
        1   -1    0    0  501    0  0.00000000000E+00  0.00000000000E+00 -0.26371784235E+04  0.26371784235E+04  0.50400001928E-02 0. -1.
    10030    2    1    2    0    0  0.00000000000E+00  0.00000000000E+00 -0.14102668201E+04  0.38640900268E+04  0.35975462793E+04 0.  0.
        5    1    3    3  502    0 -0.68763466549E+03  0.33505492523E+03 -0.24537775284E+04  0.25702430790E+04  0.46999998093E+01 0. -1.
       -5    1    3    3    0  502  0.68763466549E+03 -0.33505492523E+03  0.10435107083E+04  0.12938469479E+04  0.46999998093E+01 0.  1.
</event>
<event>
 5   0  0.2193129E-07  0.3577297E+04  0.7818609E-02  0.8095712E-01
       -1   -1    0    0    0  501  0.00000000000E+00  0.00000000000E+00  0.15989644249E+04  0.15989644249E+04  0.50400001928E-02 0. -1.
        1   -1    0    0  501    0  0.00000000000E+00  0.00000000000E+00 -0.20008348149E+04  0.20008348149E+04  0.50400001928E-02 0.  1.
    10030    2    1    2    0    0  0.00000000000E+00  0.00000000000E+00 -0.40187039002E+03  0.35997992398E+04  0.35772971300E+04 0.  0.
        1    1    3    3  502    0 -0.10683453309E+04  0.94399891184E+03  0.88602970734E+03  0.16785542392E+04  0.50400001928E-02 0. -1.
       -1    1    3    3    0  502  0.10683453309E+04 -0.94399891184E+03 -0.12879000974E+04  0.19212450006E+04  0.50400001928E-02 0.  1.
</event>
<event>
 5   0  0.2086250E-07  0.3607091E+04  0.7818609E-02  0.8088869E-01
       -1   -1    0    0    0  501  0.00000000000E+00  0.00000000000E+00  0.16572229508E+04  0.16572229508E+04  0.50400001928E-02 0. -1.
        1   -1    0    0  501    0  0.00000000000E+00  0.00000000000E+00 -0.19627871140E+04  0.19627871140E+04  0.50400001928E-02 0.  1.
    10030    2    1    2    0    0  0.00000000000E+00  0.00000000000E+00 -0.30556416316E+03  0.36200100648E+04  0.36070907130E+04 0.  0.
        3    1    3    3  502    0 -0.33133276271E+03 -0.17706356247E+04 -0.63898917629E+02  0.18025024263E+04  0.10100000352E+00 0. -1.
       -3    1    3    3    0  502  0.33133276271E+03  0.17706356247E+04 -0.24166524553E+03  0.18175076385E+04  0.10100000352E+00 0.  1.
</event>
<event>
 5   0  0.2086250E-07  0.3566979E+04  0.7818609E-02  0.8098098E-01
       -1   -1    0    0    0  501  0.00000000000E+00  0.00000000000E+00  0.14732981326E+04  0.14732981326E+04  0.50400001928E-02 0.  1.
        1   -1    0    0  501    0  0.00000000000E+00  0.00000000000E+00 -0.21589889095E+04  0.21589889095E+04  0.50400001928E-02 0. -1.
    10030    2    1    2    0    0  0.00000000000E+00  0.00000000000E+00 -0.68569077690E+03  0.36322870421E+04  0.35669787376E+04 0.  0.
        3    1    3    3  502    0  0.25689140423E+03  0.10272387173E+04 -0.18042597629E+04  0.20920243494E+04  0.10100000352E+00 0. -1.
       -3    1    3    3    0  502 -0.25689140423E+03 -0.10272387173E+04  0.11185689860E+04  0.15402626928E+04  0.10100000352E+00 0.  1.
</event>
<event>
 5   0  0.2086250E-07  0.3606756E+04  0.7818609E-02  0.8088946E-01
        1   -1    0    0  501    0  0.00000000000E+00  0.00000000000E+00  0.20802055374E+04  0.20802055374E+04  0.50400001928E-02 0.  1.
       -1   -1    0    0    0  501  0.00000000000E+00  0.00000000000E+00 -0.15633899105E+04  0.15633899105E+04  0.50400001928E-02 0. -1.
    10030    2    1    2    0    0  0.00000000000E+00  0.00000000000E+00  0.51681562690E+03  0.36435954479E+04  0.36067560765E+04 0.  0.
        4    1    3    3  502    0 -0.17355647126E+04  0.47047154321E+03  0.12047608152E+03  0.18022331824E+04  0.12699999809E+01 0.  1.
       -4    1    3    3    0  502  0.17355647126E+04 -0.47047154321E+03  0.39633954538E+03  0.18413622655E+04  0.12699999809E+01 0. -1.
</event>
<event>
 5   0  0.2086250E-07  0.3605050E+04  0.7818609E-02  0.8089336E-01
       -1   -1    0    0    0  501  0.00000000000E+00  0.00000000000E+00  0.14810623725E+04  0.14810623725E+04  0.50400001928E-02 0.  1.
        1   -1    0    0  501    0  0.00000000000E+00  0.00000000000E+00 -0.21937612564E+04  0.21937612564E+04  0.50400001928E-02 0. -1.
    10030    2    1    2    0    0  0.00000000000E+00  0.00000000000E+00 -0.71269888388E+03  0.36748236289E+04  0.36050504857E+04 0.  0.
        3    1    3    3  502    0  0.12215008615E+04 -0.12932543851E+04 -0.59988981760E+02  0.17799353773E+04  0.10100000352E+00 0.  1.
       -3    1    3    3    0  502 -0.12215008615E+04  0.12932543851E+04 -0.65270990212E+03  0.18948882516E+04  0.10100000352E+00 0. -1.
</event>
<event>
 5   0  0.2193129E-07  0.3205730E+04  0.7818609E-02  0.8187306E-01
       -1   -1    0    0    0  501  0.00000000000E+00  0.00000000000E+00  0.11344837841E+04  0.11344837841E+04  0.50400001928E-02 0. -1.
        1   -1    0    0  501    0  0.00000000000E+00  0.00000000000E+00 -0.22646211174E+04  0.22646211174E+04  0.50400001928E-02 0.  1.
    10030    2    1    2    0    0  0.00000000000E+00  0.00000000000E+00 -0.11301373333E+04  0.33991049015E+04  0.32057298294E+04 0.  0.
        1    1    3    3  502    0 -0.12759236841E+04  0.60311268942E+02 -0.15917520778E+04  0.20409050380E+04  0.50400001928E-02 0.  1.
       -1    1    3    3    0  502  0.12759236841E+04 -0.60311268942E+02  0.46161474457E+03  0.13581998635E+04  0.50400001928E-02 0. -1.
</event>
<event>
 5   0  0.2108068E-07  0.3636070E+04  0.7818609E-02  0.8082279E-01
       -1   -1    0    0    0  501  0.00000000000E+00  0.00000000000E+00  0.27777875687E+04  0.27777875687E+04  0.50400001928E-02 0. -1.
        1   -1    0    0  501    0  0.00000000000E+00  0.00000000000E+00 -0.11898861270E+04  0.11898861270E+04  0.50400001928E-02 0.  1.
    10030    2    1    2    0    0  0.00000000000E+00  0.00000000000E+00  0.15879014417E+04  0.39676736958E+04  0.36360697968E+04 0.  0.
        5    1    3    3  502    0 -0.15367481668E+04  0.97140307178E+03  0.79739204582E+03  0.19852140995E+04  0.46999998093E+01 0.  1.
       -5    1    3    3    0  502  0.15367481668E+04 -0.97140307178E+03  0.79050939591E+03  0.19824595963E+04  0.46999998093E+01 0. -1.
</event>
<event>
 5   0  0.6729577E-07  0.3599189E+04  0.7818609E-02  0.8090677E-01
       -2   -1    0    0    0  501  0.00000000000E+00  0.00000000000E+00  0.21168045239E+04  0.21168045239E+04  0.25500000920E-02 0. -1.
        2   -1    0    0  501    0  0.00000000000E+00  0.00000000000E+00 -0.15299196655E+04  0.15299196655E+04  0.25500000920E-02 0.  1.
    10030    2    1    2    0    0  0.00000000000E+00  0.00000000000E+00  0.58688485843E+03  0.36467241894E+04  0.35991892804E+04 0.  0.
        3    1    3    3  502    0  0.22045114308E+03  0.47562384027E+03  0.20377261118E+04  0.21040780548E+04  0.10100000352E+00 0. -1.
       -3    1    3    3    0  502 -0.22045114308E+03 -0.47562384027E+03 -0.14508412533E+04  0.15426461346E+04  0.10100000352E+00 0.  1.
</event>
<event>
 5   0  0.6324216E-07  0.3577037E+04  0.7818609E-02  0.8095772E-01
        2   -1    0    0  501    0  0.00000000000E+00  0.00000000000E+00  0.16114788364E+04  0.16114788364E+04  0.25500000920E-02 0.  1.
       -2   -1    0    0    0  501  0.00000000000E+00  0.00000000000E+00 -0.19850079167E+04  0.19850079167E+04  0.25500000920E-02 0. -1.
    10030    2    1    2    0    0  0.00000000000E+00  0.00000000000E+00 -0.37352908024E+03  0.35964867531E+04  0.35770369011E+04 0.  0.
        2    1    3    3  502    0 -0.85794462708E+03 -0.11887089225E+04 -0.12168843006E+04  0.19052310323E+04  0.25500000920E-02 0. -1.
       -2    1    3    3    0  502  0.85794462708E+03  0.11887089225E+04  0.84335522034E+03  0.16912557208E+04  0.25500000920E-02 0.  1.
</event>
<event>
 5   0  0.2108068E-07  0.3020682E+04  0.7818609E-02  0.8237850E-01
        1   -1    0    0  501    0  0.00000000000E+00  0.00000000000E+00  0.21191886981E+04  0.21191886981E+04  0.50400001928E-02 0.  1.
       -1   -1    0    0    0  501  0.00000000000E+00  0.00000000000E+00 -0.10764167036E+04  0.10764167037E+04  0.50400001928E-02 0. -1.
    10030    2    1    2    0    0  0.00000000000E+00  0.00000000000E+00  0.10427719944E+04  0.31956054017E+04  0.30206821169E+04 0.  0.
        5    1    3    3  502    0  0.26052943154E+03  0.14378944364E+04  0.11758627455E+03  0.14660370448E+04  0.46999998093E+01 0. -1.
       -5    1    3    3    0  502 -0.26052943154E+03 -0.14378944364E+04  0.92518571990E+03  0.17295683569E+04  0.46999998093E+01 0.  1.
</event>
<event>
 5   0  0.6729577E-07  0.3582100E+04  0.7818609E-02  0.8094604E-01
        2   -1    0    0  501    0  0.00000000000E+00  0.00000000000E+00  0.21269919986E+04  0.21269919986E+04  0.25500000920E-02 0. -1.
       -2   -1    0    0    0  501  0.00000000000E+00  0.00000000000E+00 -0.15081670764E+04  0.15081670764E+04  0.25500000920E-02 0.  1.
    10030    2    1    2    0    0  0.00000000000E+00  0.00000000000E+00  0.61882492222E+03  0.36351590749E+04  0.35820995541E+04 0.  0.
        3    1    3    3  502    0 -0.15624356500E+04  0.68433952027E+03  0.86370217562E+03  0.19119380737E+04  0.10100000352E+00 0. -1.
       -3    1    3    3    0  502  0.15624356500E+04 -0.68433952027E+03 -0.24487725340E+03  0.17232210012E+04  0.10100000352E+00 0.  1.
</event>
<event>
 5   0  0.6848661E-07  0.3596552E+04  0.7818609E-02  0.8091282E-01
        2   -1    0    0  501    0  0.00000000000E+00  0.00000000000E+00  0.21182650926E+04  0.21182650926E+04  0.25500000920E-02 0. -1.
       -2   -1    0    0    0  501  0.00000000000E+00  0.00000000000E+00 -0.15266250203E+04  0.15266250203E+04  0.25500000920E-02 0.  1.
    10030    2    1    2    0    0  0.00000000000E+00  0.00000000000E+00  0.59164007231E+03  0.36448901128E+04  0.35965519542E+04 0.  0.
        1    1    3    3  502    0 -0.21867033340E+03 -0.87204449494E+03 -0.12825192545E+04  0.15662483692E+04  0.50400001928E-02 0.  1.
       -1    1    3    3    0  502  0.21867033340E+03  0.87204449494E+03  0.18741593268E+04  0.20786417436E+04  0.50400001928E-02 0. -1.
</event>
<event>
 5   0  0.6541476E-07  0.3319601E+04  0.7818609E-02  0.8157926E-01
        2   -1    0    0  501    0  0.00000000000E+00  0.00000000000E+00  0.26194232482E+04  0.26194232482E+04  0.25500000920E-02 0. -1.
       -2   -1    0    0    0  501  0.00000000000E+00  0.00000000000E+00 -0.10517347366E+04  0.10517347366E+04  0.25500000920E-02 0.  1.
    10030    2    1    2    0    0  0.00000000000E+00  0.00000000000E+00  0.15676885116E+04  0.36711579848E+04  0.33196014338E+04 0.  0.
        4    1    3    3  502    0  0.40069732026E+03 -0.12279599383E+04  0.19365821447E+04  0.23278307432E+04  0.12699999809E+01 0. -1.
       -4    1    3    3    0  502 -0.40069732026E+03  0.12279599383E+04 -0.36889363314E+03  0.13433272416E+04  0.12699999809E+01 0.  1.
</event>
<event>
 5   0  0.6324216E-07  0.3547638E+04  0.7818609E-02  0.8102592E-01
        2   -1    0    0  501    0  0.00000000000E+00  0.00000000000E+00  0.28738903752E+04  0.28738903752E+04  0.25500000920E-02 0. -1.
       -2   -1    0    0    0  501  0.00000000000E+00  0.00000000000E+00 -0.10948344756E+04  0.10948344756E+04  0.25500000920E-02 0.  1.
    10030    2    1    2    0    0  0.00000000000E+00  0.00000000000E+00  0.17790558997E+04  0.39687248508E+04  0.35476382352E+04 0.  0.
        2    1    3    3  502    0  0.10749841797E+04  0.74402377703E+03 -0.45163371188E+03  0.13831613706E+04  0.25500000920E-02 0.  1.
       -2    1    3    3    0  502 -0.10749841797E+04 -0.74402377703E+03  0.22306896115E+04  0.25855634803E+04  0.25500000920E-02 0. -1.
</event>
<event>
 5   0  0.2108068E-07  0.3593602E+04  0.7818609E-02  0.8091959E-01
        1   -1    0    0  501    0  0.00000000000E+00  0.00000000000E+00  0.27177753682E+04  0.27177753682E+04  0.50400001928E-02 0.  1.
       -1   -1    0    0    0  501  0.00000000000E+00  0.00000000000E+00 -0.11879180734E+04  0.11879180734E+04  0.50400001928E-02 0. -1.
    10030    2    1    2    0    0  0.00000000000E+00  0.00000000000E+00  0.15298572947E+04  0.39056934416E+04  0.35936023594E+04 0.  0.
        5    1    3    3  502    0  0.10365026663E+04 -0.82284694131E+03 -0.55596191519E+03  0.14354548433E+04  0.46999998093E+01 0. -1.
       -5    1    3    3    0  502 -0.10365026663E+04  0.82284694131E+03  0.20858192099E+04  0.24702385983E+04  0.46999998093E+01 0.  1.
</event>
<event>
 5   0  0.6324216E-07  0.3424132E+04  0.7818609E-02  0.8132009E-01
        2   -1    0    0  501    0  0.00000000000E+00  0.00000000000E+00  0.21305168528E+04  0.21305168528E+04  0.25500000920E-02 0.  1.
       -2   -1    0    0    0  501  0.00000000000E+00  0.00000000000E+00 -0.13758022601E+04  0.13758022601E+04  0.25500000920E-02 0. -1.
    10030    2    1    2    0    0  0.00000000000E+00  0.00000000000E+00  0.75471459273E+03  0.35063191129E+04  0.34241319491E+04 0.  0.
        2    1    3    3  502    0 -0.25353110213E+03 -0.43710743548E+03  0.20524163515E+04  0.21137061787E+04  0.25500000920E-02 0.  1.
       -2    1    3    3    0  502  0.25353110213E+03  0.43710743548E+03 -0.12977017588E+04  0.13926129342E+04  0.25500000920E-02 0. -1.
</event>
<event>
 5   0  0.2108068E-07  0.3658053E+04  0.7818609E-02  0.8077322E-01
        1   -1    0    0  501    0  0.00000000000E+00  0.00000000000E+00  0.13716407837E+04  0.13716407837E+04  0.50400001928E-02 0.  1.
       -1   -1    0    0    0  501  0.00000000000E+00  0.00000000000E+00 -0.24389316151E+04  0.24389316151E+04  0.50400001928E-02 0. -1.
    10030    2    1    2    0    0  0.00000000000E+00  0.00000000000E+00 -0.10672908314E+04  0.38105723987E+04  0.36580530733E+04 0.  0.
        5    1    3    3  502    0 -0.10302078361E+04 -0.14530787846E+04 -0.96635597977E+03  0.20264826941E+04  0.46999998093E+01 0. -1.
       -5    1    3    3    0  502  0.10302078361E+04  0.14530787846E+04 -0.10093485165E+03  0.17840897046E+04  0.46999998093E+01 0.  1.
</event>
<event>
 5   0  0.2086250E-07  0.3573599E+04  0.7818609E-02  0.8096566E-01
       -1   -1    0    0    0  501  0.00000000000E+00  0.00000000000E+00  0.16472347375E+04  0.16472347375E+04  0.50400001928E-02 0. -1.
        1   -1    0    0  501    0  0.00000000000E+00  0.00000000000E+00 -0.19381886289E+04  0.19381886289E+04  0.50400001928E-02 0.  1.
    10030    2    1    2    0    0  0.00000000000E+00  0.00000000000E+00 -0.29095389142E+03  0.35854233664E+04  0.35735985434E+04 0.  0.
        4    1    3    3  502    0 -0.71963253775E+03 -0.11296275098E+04  0.10411116960E+04  0.16964210789E+04  0.12699999809E+01 0. -1.
       -4    1    3    3    0  502  0.71963253775E+03  0.11296275098E+04 -0.13320655874E+04  0.18890022876E+04  0.12699999809E+01 0.  1.
</event>
<event>
 5   0  0.2086250E-07  0.3602150E+04  0.7818609E-02  0.8089999E-01
        1   -1    0    0  501    0  0.00000000000E+00  0.00000000000E+00  0.19935149649E+04  0.19935149649E+04  0.50400001928E-02 0. -1.
       -1   -1    0    0    0  501  0.00000000000E+00  0.00000000000E+00 -0.16272117246E+04  0.16272117246E+04  0.50400001928E-02 0.  1.
    10030    2    1    2    0    0  0.00000000000E+00  0.00000000000E+00  0.36630324032E+03  0.36207266894E+04  0.36021498714E+04 0.  0.
        2    1    3    3  502    0 -0.14680162844E+04 -0.55639424497E+02  0.12304961229E+04  0.19163215454E+04  0.25500000920E-02 0. -1.
       -2    1    3    3    0  502  0.14680162844E+04  0.55639424497E+02 -0.86419288257E+03  0.17044051441E+04  0.25500000920E-02 0.  1.
</event>
<event>
 5   0  0.2086250E-07  0.3602076E+04  0.7818609E-02  0.8090016E-01
       -1   -1    0    0    0  501  0.00000000000E+00  0.00000000000E+00  0.10481436896E+04  0.10481436896E+04  0.50400001928E-02 0. -1.
        1   -1    0    0  501    0  0.00000000000E+00  0.00000000000E+00 -0.30947447028E+04  0.30947447028E+04  0.50400001928E-02 0.  1.
    10030    2    1    2    0    0  0.00000000000E+00  0.00000000000E+00 -0.20466010132E+04  0.41428883924E+04  0.36020755856E+04 0.  0.
        4    1    3    3  502    0  0.17047750318E+04 -0.57722450578E+03 -0.10986278560E+04  0.21086561641E+04  0.12699999809E+01 0. -1.
       -4    1    3    3    0  502 -0.17047750318E+04  0.57722450578E+03 -0.94797315713E+03  0.20342322283E+04  0.12699999809E+01 0.  1.
</event>
<event>
 5   0  0.6848661E-07  0.3304674E+04  0.7818609E-02  0.8161707E-01
       -2   -1    0    0    0  501  0.00000000000E+00  0.00000000000E+00  0.11709131382E+04  0.11709131382E+04  0.25500000920E-02 0.  1.
        2   -1    0    0  501    0  0.00000000000E+00  0.00000000000E+00 -0.23316995071E+04  0.23316995071E+04  0.25500000920E-02 0. -1.
    10030    2    1    2    0    0  0.00000000000E+00  0.00000000000E+00 -0.11607863689E+04  0.35026126452E+04  0.33046740154E+04 0.  0.
        1    1    3    3  502    0  0.13547714801E+03  0.13095063634E+04 -0.16387287598E+04  0.21020449381E+04  0.50400001928E-02 0. -1.
       -1    1    3    3    0  502 -0.13547714801E+03 -0.13095063634E+04  0.47794239091E+03  0.14005677072E+04  0.50400001928E-02 0.  1.
</event>
<event>
 5   0  0.6541476E-07  0.3599270E+04  0.7818609E-02  0.8090659E-01
       -2   -1    0    0    0  501  0.00000000000E+00  0.00000000000E+00  0.21195395798E+04  0.21195395798E+04  0.25500000920E-02 0. -1.
        2   -1    0    0  501    0  0.00000000000E+00  0.00000000000E+00 -0.15280138002E+04  0.15280138002E+04  0.25500000920E-02 0.  1.
    10030    2    1    2    0    0  0.00000000000E+00  0.00000000000E+00  0.59152577960E+03  0.36475533801E+04  0.35992697749E+04 0.  0.
        4    1    3    3  502    0 -0.14190161635E+04  0.14652258297E+03  0.14075710506E+04  0.20040792437E+04  0.12699999809E+01 0. -1.
       -4    1    3    3    0  502  0.14190161635E+04 -0.14652258297E+03 -0.81604527097E+03  0.16434741364E+04  0.12699999809E+01 0.  1.
</event>
<event>
 5   0  0.2086250E-07  0.3412767E+04  0.7818609E-02  0.8134780E-01
       -1   -1    0    0    0  501  0.00000000000E+00  0.00000000000E+00  0.18763872829E+04  0.18763872829E+04  0.50400001928E-02 0.  1.
        1   -1    0    0  501    0  0.00000000000E+00  0.00000000000E+00 -0.15517823066E+04  0.15517823066E+04  0.50400001928E-02 0. -1.
    10030    2    1    2    0    0  0.00000000000E+00  0.00000000000E+00  0.32460497627E+03  0.34281695895E+04  0.34127669630E+04 0.  0.
        3    1    3    3  502    0 -0.42678514101E+03  0.28488890526E+02  0.18216620980E+04  0.18712054893E+04  0.10100000352E+00 0.  1.
       -3    1    3    3    0  502  0.42678514101E+03 -0.28488890526E+02 -0.14970571218E+04  0.15569641003E+04  0.10100000352E+00 0. -1.
</event>
<event>
 5   0  0.6729577E-07  0.3552863E+04  0.7818609E-02  0.8101375E-01
       -2   -1    0    0    0  501  0.00000000000E+00  0.00000000000E+00  0.13583871599E+04  0.13583871599E+04  0.25500000920E-02 0. -1.
        2   -1    0    0  501    0  0.00000000000E+00  0.00000000000E+00 -0.23231289667E+04  0.23231289667E+04  0.25500000920E-02 0.  1.
    10030    2    1    2    0    0  0.00000000000E+00  0.00000000000E+00 -0.96474180680E+03  0.36815161267E+04  0.35528628228E+04 0.  0.
        3    1    3    3  502    0  0.83065666350E+03 -0.15209228311E+04 -0.77701854554E+02  0.17347144835E+04  0.10100000352E+00 0.  1.
       -3    1    3    3    0  502 -0.83065666350E+03  0.15209228311E+04 -0.88703995224E+03  0.19468016432E+04  0.10100000352E+00 0. -1.
</event>
<event>
 5   0  0.2086250E-07  0.3592399E+04  0.7818609E-02  0.8092235E-01
        1   -1    0    0  501    0  0.00000000000E+00  0.00000000000E+00  0.14797805527E+04  0.14797805527E+04  0.50400001928E-02 0. -1.
       -1   -1    0    0    0  501  0.00000000000E+00  0.00000000000E+00 -0.21802772078E+04  0.21802772078E+04  0.50400001928E-02 0.  1.
    10030    2    1    2    0    0  0.00000000000E+00  0.00000000000E+00 -0.70049665508E+03  0.36600577605E+04  0.35923985367E+04 0.  0.
        3    1    3    3  502    0  0.59481024706E+03  0.74112263139E+03 -0.19031832392E+04  0.21272443294E+04  0.10100000352E+00 0.  1.
       -3    1    3    3    0  502 -0.59481024706E+03 -0.74112263139E+03  0.12026865841E+04  0.15328134311E+04  0.10100000352E+00 0. -1.
</event>
<event>
 5   0  0.2086250E-07  0.3616535E+04  0.7818609E-02  0.8086715E-01
        1   -1    0    0  501    0  0.00000000000E+00  0.00000000000E+00  0.18017011790E+04  0.18017011790E+04  0.50400001928E-02 0.  1.
       -1   -1    0    0    0  501  0.00000000000E+00  0.00000000000E+00 -0.18148576191E+04  0.18148576191E+04  0.50400001928E-02 0. -1.
    10030    2    1    2    0    0  0.00000000000E+00  0.00000000000E+00 -0.13156440141E+02  0.36165587981E+04  0.36165348676E+04 0.  0.
        2    1    3    3  502    0 -0.46448702282E+03 -0.15951271412E+04  0.70732588119E+03  0.18056823345E+04  0.25500000920E-02 0.  1.
       -2    1    3    3    0  502  0.46448702282E+03  0.15951271412E+04 -0.72048232133E+03  0.18108764636E+04  0.25500000920E-02 0. -1.
</event>
<event>
 5   0  0.6324216E-07  0.3535842E+04  0.7818609E-02  0.8105348E-01
       -2   -1    0    0    0  501  0.00000000000E+00  0.00000000000E+00  0.19191644130E+04  0.19191644130E+04  0.25500000920E-02 0. -1.
        2   -1    0    0  501    0  0.00000000000E+00  0.00000000000E+00 -0.16285970583E+04  0.16285970583E+04  0.25500000920E-02 0.  1.
    10030    2    1    2    0    0  0.00000000000E+00  0.00000000000E+00  0.29056735474E+03  0.35477614713E+04  0.35358424838E+04 0.  0.
        2    1    3    3  502    0 -0.14624653763E+04 -0.50350372383E+03  0.10044554484E+04  0.18442482817E+04  0.25500000920E-02 0. -1.
       -2    1    3    3    0  502  0.14624653763E+04  0.50350372383E+03 -0.71388809367E+03  0.17035131896E+04  0.25500000920E-02 0.  1.
</event>
<event>
 5   0  0.2086250E-07  0.3245452E+04  0.7818609E-02  0.8176915E-01
       -3   -1    0    0    0  501  0.00000000000E+00  0.00000000000E+00  0.16806246941E+04  0.16806246971E+04  0.10100000352E+00 0. -1.
        3   -1    0    0  501    0  0.00000000000E+00  0.00000000000E+00 -0.15668220996E+04  0.15668221029E+04  0.10100000352E+00 0.  1.
    10030    2    1    2    0    0  0.00000000000E+00  0.00000000000E+00  0.11380259443E+03  0.32474468000E+04  0.32454521547E+04 0.  0.
        1    1    3    3  502    0  0.92595159869E+02  0.10145493392E+04  0.13207514866E+04  0.16680134036E+04  0.50400001928E-02 0. -1.
       -1    1    3    3    0  502 -0.92595159869E+02 -0.10145493392E+04 -0.12069488922E+04  0.15794333964E+04  0.50400001928E-02 0.  1.
</event>
<event>
 5   0  0.2193129E-07  0.3588458E+04  0.7818609E-02  0.8093141E-01
        1   -1    0    0  501    0  0.00000000000E+00  0.00000000000E+00  0.26989924250E+04  0.26989924250E+04  0.50400001928E-02 0.  1.
       -1   -1    0    0    0  501  0.00000000000E+00  0.00000000000E+00 -0.11927625115E+04  0.11927625115E+04  0.50400001928E-02 0. -1.
    10030    2    1    2    0    0  0.00000000000E+00  0.00000000000E+00  0.15062299135E+04  0.38917549365E+04  0.35884575981E+04 0.  0.
        1    1    3    3  502    0 -0.82580845887E+02  0.78881831921E+03  0.24985535364E+04  0.26214163559E+04  0.50400001928E-02 0.  1.
       -1    1    3    3    0  502  0.82580845887E+02 -0.78881831921E+03 -0.99232362284E+03  0.12703385806E+04  0.50400001928E-02 0. -1.
</event>
<event>
 5   0  0.6541476E-07  0.3570953E+04  0.7818609E-02  0.8097178E-01
        2   -1    0    0  501    0  0.00000000000E+00  0.00000000000E+00  0.16015972915E+04  0.16015972915E+04  0.25500000920E-02 0.  1.
       -2   -1    0    0    0  501  0.00000000000E+00  0.00000000000E+00 -0.19904664295E+04  0.19904664295E+04  0.25500000920E-02 0. -1.
    10030    2    1    2    0    0  0.00000000000E+00  0.00000000000E+00 -0.38886913797E+03  0.35920637210E+04  0.35709526137E+04 0.  0.
        4    1    3    3  502    0 -0.99091460363E+03 -0.12135039532E+04  0.66702807111E+03  0.17027717570E+04  0.12699999809E+01 0. -1.
       -4    1    3    3    0  502  0.99091460363E+03  0.12135039532E+04 -0.10558972091E+04  0.18892919640E+04  0.12699999809E+01 0.  1.
</event>
<event>
 5   0  0.2193129E-07  0.3595546E+04  0.7818609E-02  0.8091513E-01
        1   -1    0    0  501    0  0.00000000000E+00  0.00000000000E+00  0.20004059193E+04  0.20004059193E+04  0.50400001928E-02 0. -1.
       -1   -1    0    0    0  501  0.00000000000E+00  0.00000000000E+00 -0.16156661806E+04  0.16156661806E+04  0.50400001928E-02 0.  1.
    10030    2    1    2    0    0  0.00000000000E+00  0.00000000000E+00  0.38473973870E+03  0.36160720999E+04  0.35955462402E+04 0.  0.
        1    1    3    3  502    0 -0.95082630053E+03  0.11500668194E+04  0.12007220345E+04  0.19153218390E+04  0.50400001928E-02 0. -1.
       -1    1    3    3    0  502  0.95082630053E+03 -0.11500668194E+04 -0.81598229585E+03  0.17007502609E+04  0.50400001928E-02 0.  1.
</event>
<event>
 5   0  0.6541476E-07  0.3589793E+04  0.7818609E-02  0.8092834E-01
       -2   -1    0    0    0  501  0.00000000000E+00  0.00000000000E+00  0.17385040593E+04  0.17385040593E+04  0.25500000920E-02 0. -1.
        2   -1    0    0  501    0  0.00000000000E+00  0.00000000000E+00 -0.18531185327E+04  0.18531185327E+04  0.25500000920E-02 0.  1.
    10030    2    1    2    0    0  0.00000000000E+00  0.00000000000E+00 -0.11461447337E+03  0.35916225920E+04  0.35897933598E+04 0.  0.
        4    1    3    3  502    0 -0.15969957066E+04 -0.99639512143E+02 -0.87094309584E+03  0.18217757294E+04  0.12699999809E+01 0.  1.
       -4    1    3    3    0  502  0.15969957066E+04  0.99639512143E+02  0.75632862247E+03  0.17698468626E+04  0.12699999809E+01 0. -1.
</event>
<event>
 5   0  0.6669864E-07  0.3592862E+04  0.7818609E-02  0.8092129E-01
        2   -1    0    0  501    0  0.00000000000E+00  0.00000000000E+00  0.22638956032E+04  0.22638956032E+04  0.25500000920E-02 0. -1.
       -2   -1    0    0    0  501  0.00000000000E+00  0.00000000000E+00 -0.14254918428E+04  0.14254918428E+04  0.25500000920E-02 0.  1.
    10030    2    1    2    0    0  0.00000000000E+00  0.00000000000E+00  0.83840376042E+03  0.36893874460E+04  0.35928622101E+04 0.  0.
        5    1    3    3  502    0 -0.71832685803E+03 -0.10618678993E+04  0.17114160275E+04  0.21383460477E+04  0.46999998093E+01 0. -1.
       -5    1    3    3    0  502  0.71832685803E+03  0.10618678993E+04 -0.87301226712E+03  0.15510413982E+04  0.46999998093E+01 0.  1.
</event>
<event>
 5   0  0.2086250E-07  0.3572998E+04  0.7818609E-02  0.8096705E-01
        1   -1    0    0  501    0  0.00000000000E+00  0.00000000000E+00  0.20373619439E+04  0.20373619439E+04  0.50400001928E-02 0. -1.
       -1   -1    0    0    0  501  0.00000000000E+00  0.00000000000E+00 -0.15665251754E+04  0.15665251754E+04  0.50400001928E-02 0.  1.
    10030    2    1    2    0    0  0.00000000000E+00  0.00000000000E+00  0.47083676854E+03  0.36038871193E+04  0.35729980557E+04 0.  0.
        4    1    3    3  502    0  0.16504133172E+04  0.65882717139E+03  0.50366209906E+02  0.17777670622E+04  0.12699999809E+01 0. -1.
       -4    1    3    3    0  502 -0.16504133172E+04 -0.65882717139E+03  0.42047055864E+03  0.18261200571E+04  0.12699999809E+01 0.  1.
</event>
<event>
 5   0  0.6669864E-07  0.3620051E+04  0.7818609E-02  0.8085914E-01
        2   -1    0    0  501    0  0.00000000000E+00  0.00000000000E+00  0.13816896791E+04  0.13816896791E+04  0.25500000920E-02 0.  1.
       -2   -1    0    0    0  501  0.00000000000E+00  0.00000000000E+00 -0.23711492107E+04  0.23711492107E+04  0.25500000920E-02 0. -1.
    10030    2    1    2    0    0  0.00000000000E+00  0.00000000000E+00 -0.98945953161E+03  0.37528388897E+04  0.36200510449E+04 0.  0.
        5    1    3    3  502    0  0.15491638663E+04 -0.75400113943E+03 -0.10698252427E+04  0.20280469775E+04  0.46999998093E+01 0. -1.
       -5    1    3    3    0  502 -0.15491638663E+04  0.75400113943E+03  0.80365711117E+02  0.17247919122E+04  0.46999998093E+01 0.  1.
</event>
<event>
 5   0  0.2086250E-07  0.3608147E+04  0.7818609E-02  0.8088628E-01
        1   -1    0    0  501    0  0.00000000000E+00  0.00000000000E+00  0.27118756760E+04  0.27118756760E+04  0.50400001928E-02 0. -1.
       -1   -1    0    0    0  501  0.00000000000E+00  0.00000000000E+00 -0.12001584590E+04  0.12001584590E+04  0.50400001928E-02 0.  1.
    10030    2    1    2    0    0  0.00000000000E+00  0.00000000000E+00  0.15117172170E+04  0.39120341350E+04  0.36081466336E+04 0.  0.
        2    1    3    3  502    0  0.17156543357E+04  0.12451638576E+03  0.16627035734E+03  0.17281840069E+04  0.25500000920E-02 0. -1.
       -2    1    3    3    0  502 -0.17156543357E+04 -0.12451638576E+03  0.13454468596E+04  0.21838501281E+04  0.25500000920E-02 0.  1.
</event>
<event>
 5   0  0.6324216E-07  0.3648942E+04  0.7818609E-02  0.8079372E-01
        2   -1    0    0  501    0  0.00000000000E+00  0.00000000000E+00  0.23889067189E+04  0.23889067189E+04  0.25500000920E-02 0. -1.
       -2   -1    0    0    0  501  0.00000000000E+00  0.00000000000E+00 -0.13933967485E+04  0.13933967485E+04  0.25500000920E-02 0.  1.
    10030    2    1    2    0    0  0.00000000000E+00  0.00000000000E+00  0.99550997036E+03  0.37823034674E+04  0.36489422328E+04 0.  0.
        2    1    3    3  502    0  0.17987712420E+04  0.30087852886E+03  0.55049668283E+03  0.19050334558E+04  0.25500000920E-02 0.  1.
       -2    1    3    3    0  502 -0.17987712420E+04 -0.30087852886E+03  0.44501328753E+03  0.18772700115E+04  0.25500000920E-02 0. -1.
</event>
<event>
 5   0  0.2108068E-07  0.3610689E+04  0.7818609E-02  0.8088048E-01
       -1   -1    0    0    0  501  0.00000000000E+00  0.00000000000E+00  0.19004597882E+04  0.19004597882E+04  0.50400001928E-02 0. -1.
        1   -1    0    0  501    0  0.00000000000E+00  0.00000000000E+00 -0.17149898793E+04  0.17149898793E+04  0.50400001928E-02 0.  1.
    10030    2    1    2    0    0  0.00000000000E+00  0.00000000000E+00  0.18546990888E+03  0.36154496675E+04  0.36106892986E+04 0.  0.
        5    1    3    3  502    0  0.80637342014E+03  0.12417429274E+04  0.11270942655E+04  0.18607867056E+04  0.46999998093E+01 0. -1.
       -5    1    3    3    0  502 -0.80637342014E+03 -0.12417429274E+04 -0.94162435664E+03  0.17546629618E+04  0.46999998093E+01 0.  1.
</event>
</LesHouchesEvents>
